
129975  0.0000000e+00
  86.3958073  80.6607914  75.9405899  86.4356709  80.7102394  74.9325848
  87.2268009  80.1898098  76.2688112  86.2545204  81.5374756  76.4217854
  85.2002525  79.9650240  76.2765932  84.3403625  80.6127548  76.1059427
  85.0185966  78.7098885  75.4299879  85.6322098  77.9271460  75.8759594
  84.0126705  78.3125019  75.5652428  85.2862453  78.7420654  73.9171791
  85.6156158  79.8234558  73.4182358  85.2691841  77.7501822  73.2340431
  85.1557446  79.7868729  77.7656031  86.1519623  79.4055748  78.3961964
  84.0120411  80.1133060  78.3861113  83.3229923  80.6035709  77.8338909
  83.6011887  79.6894407  79.7703648  84.0813923  78.7295532  79.9604368
  84.0803146  80.7502460  80.7714272  83.7593365  80.4180050  81.7586994
  85.5434990  81.0274601  80.7104111  85.8528519  81.3972092  79.7328186
  85.8044338  81.7732430  81.4612865  86.0860157  80.1136589  80.9527874
  83.2632923  81.9161415  80.3904057  82.5799751  82.1357059  81.0279560
  82.1436119  79.3736267  80.0587177  81.7047405  79.2816067  81.2350273
  81.3456631  79.0950871  78.9997816  81.6727638  79.2133856  78.0515671
  79.8988533  78.8299036  79.1329384  79.5489073  79.2153025  80.0905895
  79.1242790  79.4644928  77.9926538  79.1764545  80.5528736  78.0210686
  79.4650126  79.1093111  77.0201063  77.7777386  79.1702986  78.0853319
  77.5913095  79.2988491  79.0182447  79.6337891  77.3391294  79.1581202
  79.8855972  76.6788340  78.1335926  79.2985773  76.7277908  80.3299618
  79.1934252  77.3281193  81.1353493  79.3952656  75.2722311  80.4962349
  80.4715443  75.1023960  80.5259323  78.8421535  74.8335695  81.8538189
  79.1335201  75.5280590  82.6417828  77.7595949  74.9599791  81.8672657
  79.1111231  73.3709192  82.1895409  78.7258148  72.7279043  81.3982391
  80.5678177  73.1872845  82.5547886  80.7959366  72.1917295  82.9355049
  81.2193394  73.4144497  81.7109776  80.7707787  73.9472914  83.3093071
  78.3181810  72.9376268  83.4217167  77.3235607  72.6849174  83.0543232
  78.8168430  72.0886898  83.8894081  78.1242752  73.7722111  84.0954971
  78.7873697  74.4411516  79.3009567  79.3919849  73.4089327  78.9596128
  77.5412798  74.6971703  78.8062191  76.6600227  75.7675695  79.2348242
  77.0870018  76.7594147  79.0863657  76.3537645  75.5777121  80.2635384
  75.3472710  75.6323099  78.4422016  75.2982616  76.3981485  77.6681280
  74.4786119  75.8860922  79.0497637  75.3542662  74.2166328  77.9875612
  74.8221779  73.9640188  77.0704126  75.0996828  73.5580587  78.8179636
  76.8806267  73.9314318  77.7572489  76.9725466  72.8557348  77.9073429
  77.2589922  74.2703199  76.2443495  76.9216156  73.5385275  75.3249645
  78.0828714  75.2827597  76.0509634  78.3962059  75.7358122  76.8975258
  78.5080242  75.8822203  74.7367191  78.1994677  75.1770401  73.9649582
  77.6593256  77.1612310  74.4566917  78.0031681  77.9945803  75.0693941
  77.6154757  77.6367855  73.0141878  77.0904016  78.5700464  72.8106356
  78.6301088  77.8880119  72.7051306  77.1964025  76.8301439  72.4126816
  76.2994623  76.9657087  74.7916222  75.8643818  76.5036106  74.0713644
  80.0528717  76.1694574  74.5609045  80.5470276  76.6857243  73.5788250
  80.8565998  75.6583405  75.4979658  80.4474545  75.0951338  76.2297440
  82.3558044  75.6433868  75.3076792  82.6902580  76.5399313  74.7857141
  83.0152988  75.7082701  76.7172194  82.7736568  74.8587656  77.3560095
  84.0993118  75.8163261  76.6806555  82.4965477  76.8934822  77.3525190
  81.5417194  76.8517113  77.4428034  82.8980923  74.4272900  74.4705915
  84.0840244  74.2650509  74.1758776  81.9937038  73.4811831  74.1387558
  81.0719585  73.6670971  74.5074511  82.1730423  72.2696257  73.3233166
  81.3210201  71.6625595  73.6293030  81.9866657  72.6605892  71.8350697
  82.8299618  73.2758951  71.5214491  81.9191265  71.7805052  71.1955404
  80.8206749  73.6018658  71.4904833  79.4534445  73.4346437  71.7454100
  78.8134241  74.4559336  71.1740351  77.7627659  74.7057581  71.1843443
  79.7236061  75.2468920  70.6239748  79.4503832  76.0434389  70.0663280
  80.9964466  74.7484541  70.7537794  81.8435764  75.2089357  70.2672195
  83.4212971  71.4301586  73.6572218  84.0543175  70.9211302  72.7968645
  83.7605000  71.2266731  74.9403143  83.1469917  71.4562464  75.7090855
  85.0671959  70.8890486  75.4088593  85.7120705  71.6332293  74.9414921
  85.1851749  70.8098030  76.9256401  86.2497044  70.7224417  77.1430159
  84.5994473  72.0441866  77.6209879  84.5538998  71.8444109  78.6915588
  85.2609444  72.8975773  77.4717903  83.5888767  72.1985435  77.2428226
  84.4820499  69.6698952  77.3929644  84.2429447  69.7924423  78.3146000
  85.6307507  69.5993423  74.8040342  86.8443298  69.4593716  74.7086334
  84.7941399  68.6801243  74.2633867  83.8083172  68.8854313  74.1853142
  85.1824856  67.3205185  73.6788082  85.9420490  66.8923378  74.3328905
  83.9590454  66.4156628  73.6643648  84.3500519  65.4305840  73.4097576
  83.6244583  66.2484694  74.6881819  82.7995110  66.8424368  72.8415155
  81.8257332  67.6158619  73.4679174  81.8199158  67.7892303  74.5338964
  80.8536053  68.2567835  72.6746511  79.9578476  68.7522411  73.0189610
  80.7553101  67.9774523  71.2896299  79.6061134  68.2569265  70.6171036
  79.1416454  68.9720535  71.0580873  81.6802788  67.1325731  70.6811714
  81.6078854  66.9632292  69.6169901  82.7467442  66.6305542  71.4180088
  83.4802532  66.0804319  70.8472824  85.8461571  67.5209904  72.2701836
  86.6007519  66.6531992  71.8637276  85.7858276  68.6918020  71.6365290
  85.1233959  69.3782520  71.9682980  86.6428375  69.0777969  70.5031061
  86.9601250  68.1765938  69.9784517  85.7984734  69.9298477  69.5926714
  85.8201981  70.9100103  70.0690365  86.3453865  70.1672363  68.6801910
  84.3178082  69.5570707  69.1756010  83.7869930  69.2869759  70.0884962
  83.6302757  70.8609915  68.7481070  82.5550270  70.6835699  68.7693357
  83.9328861  71.6797066  69.4009733  83.8945866  71.1453962  67.7296019
  84.2556477  68.4403276  68.1606913  84.3193245  67.4862051  68.6838531
  83.3315945  68.3654499  67.5874519  85.0951958  68.5303640  67.4713755
  87.8591919  70.0008631  70.9211111  88.6082172  70.4677677  70.0464392
  88.1359863  70.2392149  72.2112799  87.6121616  69.7351742  72.9124546
  89.2265224  71.0226345  72.7574301  90.0098801  70.3667402  73.1372309
  89.5646763  71.7294884  71.9997311  88.6427402  71.7804146  73.9329720
  87.6168442  72.4762917  73.9085531  89.3989849  71.8144989  75.0434446
  90.2109337  71.2257385  75.1626062  89.0574551  72.5545406  76.2578440
  88.1816292  72.1188831  76.7387247  90.2097034  72.2868633  77.2161341
  90.4483032  71.2324381  77.0770168  90.9675312  72.9900169  76.8706322
  89.7587395  72.5392818  78.1758308  88.6178780  74.0205002  76.0965729
  87.6606846  74.4617558  76.6799164  89.2574501  74.7196245  75.2503061
  89.9332428  74.2270899  74.6838999  89.1153717  76.1745834  75.0746536
  88.0433846  76.3609791  75.1394939  89.7201157  76.9014359  76.3103676
  89.1974545  76.5728045  77.2086620  90.7917881  76.7113018  76.2516212
  89.5035648  78.4019423  76.2160778  90.3062153  79.1482019  76.8367338
  88.5877991  78.8456011  75.4394436  89.6467972  76.6429520  73.7286329
  88.9675999  76.5170097  72.6835918  90.8714485  77.1791506  73.6941671
  91.4434910  77.1058226  74.5233154  91.4503479  77.7221441  72.4538279
  90.8975410  77.3839378  71.5774059  91.3044739  79.2118597  72.3767328
  91.3436127  79.3217897  71.2929964  90.3054237  79.5252657  72.6796865
  92.3336124  80.0816727  73.0971003  91.9788933  81.0642052  73.4083939
  92.4131966  79.6768904  74.1060209  93.9554214  80.4445744  72.3198843
  93.3548546  81.3736153  70.9054708  92.7707195  82.1873760  71.3352251
  94.1695595  81.6357231  70.2304554  92.8229713  80.6416988  70.2976084
  92.9023552  77.2627926  72.1326303  93.7231159  77.1112251  73.0010509
  93.1046391  77.0399904  70.8310986  92.4151421  77.2761679  70.1318645
  94.4427204  76.7790604  70.2684212  94.9546337  76.2996483  71.1028147
  94.2530346  75.6929779  69.1190004  93.8035011  74.8203897  69.5929337
  93.5803604  76.0573196  68.3425522  95.5632973  75.2343178  68.3981419
  95.2711487  74.4461632  67.7041960  95.9696198  76.0744953  67.8350258
  96.6800880  74.7145033  69.2946196  97.8691387  74.9565125  69.0074253
  96.4003372  73.9697981  70.2996969  95.2109051  78.0450869  69.8909807
  94.7884655  78.8076258  69.0403032  96.4050293  78.2001352  70.4912567
  96.5372276  77.4859095  71.1930418  97.3057842  79.3189478  70.4269743
  96.7161942  80.2261639  70.5590963  98.3625031  79.2285967  71.6123343
  98.9668941  78.3563709  71.3632727  98.9977455  80.1143360  71.6067410
  97.7363014  79.3427849  73.0109119  97.0355511  80.1732063  72.9245186
  97.2063160  78.4951353  73.4453297  98.7234974  79.6223640  74.1414690
  99.7035789  78.8680840  74.3249178  98.5713959  80.6441879  74.8834181
  98.0073547  79.5563173  69.0874767  99.1801834  80.0159550  69.0065575
  97.2309017  79.5639515  67.9556990  96.3364410  79.1399384  68.1563187
  97.7032375  79.8175001  66.5603495  98.5774612  79.1766214  66.4458323
  96.5967369  79.3928051  65.4969549  95.7444668  80.0651073  65.3983021
  97.1876621  79.4950390  64.5867491  96.2161636  77.9297590  65.4656124
  97.1830082  77.0300436  64.9936008  98.1917858  77.3805380  64.8325491
  96.8546391  75.6770039  64.8714876  97.5455093  74.9370289  64.4952726
  95.5846119  75.2732849  65.0116253  95.3294468  74.2484570  64.7857332
  94.5377827  76.2128353  65.3706551  93.4824657  75.9839535  65.3884268
  94.8956585  77.5543785  65.6238842  94.2289352  78.3196497  65.9929895
  98.0849266  81.2806129  66.3343000  97.4620152  82.2177029  66.8482351
  99.0348053  81.5271568  65.4249001  99.1991138  80.6701469  64.9163389
  99.2946339  82.8646374  64.8444414  99.2925358  83.6052132  65.6442118
 100.7791233  82.7997112  64.2867994 101.4714432  82.4338722  65.0450611
 100.8942604  82.1797848  63.3976746 101.2223721  84.1953278  63.9401340
 101.4142227  85.2402878  64.8306704 101.7014217  86.3438511  64.1032887
 101.7377949  87.3727798  64.4294643 101.7618752  86.0267639  62.8119564
 102.0975780  86.6343307  62.0782948 101.4765167  84.7053909  62.7283096
 101.3556385  84.2123508  61.7750549  98.3238506  83.2614136  63.6712456
  97.7629375  82.4406624  62.9780436  98.1698036  84.5904160  63.5365772
  98.5966396  85.2362442  64.1852856  97.2668552  85.1817703  62.4868822
  97.5988483  86.1805820  62.2035837  97.3455334  84.6324730  61.5487003
  95.7612419  85.2617359  62.7971792  95.3207874  84.8591805  63.8791561
  94.9020672  85.6909370  61.8205643  95.3266811  86.0342693  60.9709024
  93.4068871  85.9931755  61.8735218  92.8249741  85.2908611  62.4703789
  93.2684994  87.4211979  62.5777531  93.8857651  87.3449612  63.4728956
  93.5015583  88.2576847  61.9189119  91.9240189  87.7342796  63.1902170
  91.7179012  86.9685555  63.9380693  92.0377827  88.6705399  63.7366438
  90.7194328  88.0209541  62.3019218  91.0902596  88.5112095  61.4017963
  90.2259541  87.0612907  62.1482277  89.7629547  88.8660145  63.0460548
  90.0786972  89.1729069  63.9550257  88.6997318  89.4696808  62.4979401
  88.1399918  90.3977966  63.1255007  88.4889507  90.6573868  64.0370607
  87.6898479  91.1085415  62.5666523  88.1072330  89.1684055  61.3990498
  88.4812927  88.4589100  60.7852077  87.2228241  89.6135139  61.1995649
  92.7675915  85.9710884  60.4801655  93.4166527  86.4371395  59.5703173
  91.4944267  85.5229950  60.2812815  91.0241604  85.1354599  61.0867405
  90.6937695  85.6014061  59.0727568  91.2428284  85.2868557  58.1852436
  89.6018791  84.5502758  59.1506958  89.0542603  84.8353100  60.0490141
  88.7096024  84.6098518  57.8663254  88.1230736  83.6931992  57.8045034
  88.0254078  85.4567814  57.9181004  89.3840122  84.6468353  57.0108032
  90.0741768  83.2611561  59.4617367  89.9848080  82.8501892  58.5987616
  90.1930714  86.9890976  58.8716888  89.3455315  87.4455452  59.6602345
  90.7143116  87.7310467  57.8393126  91.2272835  87.1447849  57.1964598
  90.5076027  89.1606903  57.4940443  89.4516277  89.2998123  57.7257061
  91.1800766  90.0648689  58.4945297  90.7792854  89.8232746  59.4789553
  92.2407818  89.8147011  58.5148525  90.9310818  91.5940189  58.4932566
  91.3328648  92.0499325  57.5883722  89.4720554  91.8398476  58.5788345
  88.9415646  91.3044071  59.3662262  89.2814922  92.9103470  58.5025835
  88.9802742  91.5713215  57.6438713  91.8269634  92.3243618  59.5441294
  92.8901672  92.2379208  59.3200350  91.5556908  93.3799648  59.5581484
  91.6868114  91.8554020  60.5180597  90.7624435  89.4697285  56.0118389
  91.7026806  90.2302074  55.7806969  89.9821854  88.8092899  55.1759195
  89.1806793  88.4132957  55.6458950  90.0634670  89.0388012  53.6702585
  91.0774326  88.8242340  53.3327150  89.1903019  88.0482769  52.7906132
  88.2098007  88.2133293  53.2372427  89.0453911  88.3923626  51.7665482
  89.4825459  86.6288376  53.0092049  90.5706596  85.8716774  52.4691153
  90.4236317  84.6303177  52.9442501  91.1538219  83.8466167  52.8063011
  89.4370556  84.5963573  53.8192320  89.2568493  83.7915421  54.4022465
  88.8080311  85.8221912  53.8715506  88.0116367  86.1264229  54.5345688
  89.7227764  90.5460739  53.3226347  88.8091087  91.0902786  53.9584923
  90.3323174  91.0840416  52.2642899  91.1027431  90.5834866  51.8447733
  89.7722816  92.1853638  51.5337896  89.6745110  93.0550003  52.1836138
  90.7121086  92.6251316  50.4338455  90.7342148  91.9194603  49.6033955
  90.3126144  93.5437393  50.0041199  92.1693707  92.9621315  50.8960533
  92.9945850  93.0387306  49.9857426  92.5082016  93.1885147  52.0963526
  88.3403778  91.9339180  51.0254717  88.2102394  90.9516048  50.2614975
  87.3111153  92.7800560  51.1972284  87.4721813  93.5544968  51.8252373
  86.0777760  92.7016163  50.4164314  85.7397079  91.6653728  50.4152346
  84.8715210  93.5194683  50.9846354  84.0385818  93.5544109  50.2824354
  84.5496845  92.9884911  51.8805075  85.1437283  94.9729443  51.3558578
  84.2923641  95.5343056  52.1088362  86.2433434  95.5119324  51.1084843
  86.1980724  93.0476952  48.9245462  87.0382977  93.8646793  48.5007381
  85.4924488  92.2618008  48.1503916  84.8190117  91.7224979  48.6755037
  85.5597878  92.0275879  46.6574955  84.5970726  91.5667248  46.4363718
  85.5629349  93.3093071  45.8255720  86.5756989  93.6705875  46.0041428
  85.5211353  93.0868340  44.7593403  84.5968246  94.4070148  46.1449718
  83.4516048  94.1977119  46.5771914  84.9116039  95.5609894  45.8367014
  86.5568066  90.9571648  46.1996746  86.5232182  90.5601120  45.0279093
  87.4106979  90.5546761  47.1088648  87.3195457  90.9268475  48.0433607
  88.4834003  89.5762062  46.8617821  89.0483284  90.0710964  46.0718203
  89.4592857  89.3245983  48.0155134  89.7094345  90.2824020  48.4717226
  89.0046787  88.7623596  48.8311911  90.5995274  88.5932159  47.5939465
  91.3110065  89.2256260  47.7182770  87.9619408  88.1639290  46.4415026
  86.9970512  87.6484394  47.0426941  88.6791134  87.4697971  45.5778694
  89.6012497  87.8072357  45.3414345  88.1881714  86.3113308  44.8004341
  87.1506310  86.0584545  45.0187826  88.3001423  86.6515827  43.2755375
  89.3566132  86.8718052  43.1222963  87.8666019  85.4117298  42.4169397
  87.7312946  85.6667614  41.3658667  88.6552429  84.6603107  42.4556065
  86.9198227  85.0214481  42.7903032  87.5397110  87.8592682  42.7476788
  87.8800201  88.7596703  43.2591152  87.7354813  87.9506874  41.6793060
  86.0427856  87.8342247  42.9396248  85.7111549  88.6945820  42.3583269
  85.5524349  86.9721794  42.4873734  85.8489227  87.9068470  44.0097857
  89.0985394  85.1750469  45.2275085  90.2779007  85.0611687  44.8446417
  88.5970020  84.2536926  46.0988474  87.6264858  84.4554424  46.2924480
  89.2124462  83.0846977  46.7300749  90.2201557  83.0608368  46.3152742
  89.2495823  83.4150887  48.2503843  88.2413387  83.5773182  48.6314678
  89.7162914  82.6183987  48.8296700  89.8657322  84.7647190  48.6834097
  89.3696499  85.5723763  48.1451750  89.5832253  85.0022602  49.7090149
  91.3850880  84.7867298  48.3214378  92.0320225  83.7563801  48.1993866
  92.0052814  85.9754658  48.1464291  92.9702091  85.9396458  47.8502274
  91.4919853  86.8408966  48.2339954  88.5704994  81.7292023  46.4164925
  87.4065876  81.6354465  46.0186481  89.3111610  80.6847668  46.7099190
  90.2655697  80.8051586  47.0176649  88.7992954  79.3320274  46.7502022
  87.7570152  79.4067669  46.4400959  89.5040226  78.4276724  45.7153988
  90.4361343  78.2047892  46.2346315  88.6517334  77.1783018  45.5732059
  89.0758038  76.5184355  44.8163414  88.5528469  76.5985918  46.4909554
  87.6936340  77.5024080  45.1668835  89.7184467  79.1131353  44.3511772
  90.2538300  80.0590420  44.4332695  90.1815319  78.4611750  43.6105013
  88.7686443  79.3667746  43.8804007  88.8661289  78.7479067  48.1498432
  89.8460770  78.8271379  48.8781786  87.7156258  78.2748079  48.6917210
  86.9526100  78.1589890  48.0401945  87.6394176  77.9563141  50.1204205
  88.6310196  77.7884817  50.5407333  86.9725609  79.0640640  50.9552813
  85.9352303  78.8404131  50.7062578  87.2559547  78.8343716  52.4005222
  86.9098759  77.8922176  52.8255844  88.3152008  78.9758158  52.6152086
  86.6354752  79.5842934  52.8911638  87.3424149  80.4635239  50.3917694
  88.4189892  80.6041050  50.4882812  87.0475101  80.4700565  49.3424416
  86.6067600  81.6454697  51.0694504  85.5412769  81.4573288  50.9373999
  86.9001770  81.6092110  52.1185923  86.8733978  82.6086617  50.6344032
  86.9089508  76.6123772  50.3440571  85.8091354  76.4456844  49.7523594
  87.4239159  75.7187176  51.2143946  88.7284184  75.6584311  51.8404531
  88.7504864  76.1417007  52.8172159  89.4898605  76.1147976  51.2079716
  89.0959072  74.1988802  52.0476437  89.8568535  74.0232849  52.8080559
  89.3772221  73.7262392  51.1065912  87.7430630  73.6710215  52.3475647
  87.5013638  73.9410734  53.3755493  87.7046108  72.5980711  52.1594143
  86.7971134  74.3800545  51.3920879  86.7596054  73.8198185  50.4578400
  85.4084206  74.4701529  52.0575047  85.2159882  75.2648973  52.9774809
  84.4628525  73.5715437  51.6533232  84.7219372  72.7075291  51.1989450
  83.0774117  73.4971189  52.1372700  83.0284405  74.1116190  53.0362082
  82.2052765  73.8550615  50.9270954  82.4911785  73.3037090  50.0313425
  80.6906700  73.5578012  50.9777927  80.2116585  74.2767191  51.6424751
  80.2890682  73.8246918  50.0002527  80.3930473  72.5457668  51.2522125
  82.2539616  75.3486919  50.5271626  81.5952778  75.5791378  49.6898270
  81.9572258  75.9734392  51.3696241  83.2788658  75.6245565  50.2790165
  82.8610611  71.9837809  52.4526072  83.4880352  71.1731243  51.8760681
  81.9953537  71.6814613  53.3779860  81.5132236  72.5166464  53.6781931
  81.7522717  70.4098701  53.9909840  82.2593212  69.6137619  53.4458160
  82.3853779  70.2485943  55.3835201  82.0535851  71.0769320  56.0095167
  81.8792915  69.3760538  55.7966137  83.8855076  69.8754835  55.4048967
  84.5214558  70.5906868  54.8832226  84.4397354  69.8484039  56.8271685
  84.4206905  70.8331251  57.2941351  83.7170315  69.3522596  57.4749660
  85.4169369  69.3913317  56.9829512  84.2500019  68.4864950  54.8128891
  85.2184772  68.4818888  54.3127489  84.2372036  67.6498699  55.5114555
  83.4977913  68.1177282  54.1155481  80.2572823  70.1070738  54.0104866
  79.5438623  70.9341478  54.6060705  79.6759748  69.0372086  53.4064102
  80.2123547  68.2191849  52.3480749  80.7212543  67.3283482  52.7162218
  80.9894848  68.7530994  51.8011570  78.9760876  67.8486633  51.5144157
  79.1168690  66.9360399  50.9352779  78.8603354  68.5785532  50.7131910
  77.8284168  67.8511429  52.4897718  77.8669643  66.8524075  52.9246759
  76.8678141  68.0939531  52.0354748  78.2088995  68.8900805  53.4982109
  77.7470779  69.8332310  53.2061625  77.6967669  68.5606766  54.8804188
  76.4640903  68.4628868  55.0422907  78.5796595  68.3864069  55.8927917
  79.5673323  68.3969784  55.6818581  78.2260275  68.1711912  57.2303963
  77.7915335  67.1821213  57.3755169  79.4524670  68.2850266  58.2078838
  80.0189877  69.1823626  57.9589987  79.0622663  68.6388922  59.1621494
  80.4549408  67.1383095  58.5030174  81.2118149  67.3736334  59.2512608
  79.8247623  66.3583374  58.9303446  81.1661148  66.5287447  57.2714090
  81.1467075  67.1152830  56.1918116  81.5542698  65.3198624  57.3857832
  82.1655273  64.9376249  56.6784239  81.6700077  64.8379755  58.2658386
  77.2384071  69.2636061  57.7384281  76.3794088  68.9150524  58.5473585
  77.4125767  70.5361319  57.2522211  78.0502605  70.5789280  56.4701557
  76.7211676  71.6941547  57.8888178  76.5556908  71.4686489  58.9423227
  77.4680281  73.0075073  57.9335403  77.5287008  73.3318138  56.8946695
  76.7615986  74.0666056  58.7421656  76.0966396  74.6123457  58.0727673
  76.2393761  73.6479950  59.6024847  77.4595404  74.8432636  59.0548849
  78.8155460  72.6188993  58.6071348  78.5370684  71.9181347  59.3942070
  79.3953514  72.1476269  57.8135157  79.3158484  73.5500860  58.8730097
  75.3355026  71.9192791  57.3477745  75.2707767  72.3321962  56.1960840
  74.2788792  71.7163420  58.1344414  74.4775343  71.3602734  59.0584850
  72.8873968  71.7232466  57.7367401  72.8973675  71.8056726  56.6499090
  72.2959185  70.3328848  58.0657768  72.3323345  70.1360178  59.1372299
  71.2354898  70.3108788  57.8145599  72.8422546  69.1378975  57.3021650
  72.4046564  69.0753031  56.3058281  73.9260721  69.1451168  57.1864653
  72.2613811  67.6033306  58.0513430  72.5669670  66.3201857  56.7987442
  73.6281395  66.2913609  56.5513897  72.2706842  65.3382444  57.1676826
  72.0007706  66.4886951  55.8827019  72.1363115  72.8682184  58.4356403
  71.3640690  72.6357079  59.4107103  72.5510454  74.0865040  58.0397749
  73.1826067  74.1679239  57.2558069  72.1866035  75.4549551  58.6479950
  71.1103344  75.5717897  58.5210991  72.4693823  75.4751444  60.1301670
  72.2394371  76.4211464  60.6203699  71.9190264  74.6876192  60.6449652
  73.9778423  75.1873827  60.4303312  74.2596340  74.1649055  60.1788712
  74.5084095  75.8607435  59.7571325  74.4647789  75.7356215  62.1055317
  74.6118069  77.5828981  61.8787861  74.6063232  78.0242348  62.8754282
  75.5155468  77.8566694  61.3343573  73.7584877  78.0467606  61.3840294
  72.9155159  76.6582918  57.8747463  73.8662815  76.4576578  57.1763611
  72.5573492  77.9311419  58.1964016  71.8304157  78.0508280  58.8873005
  73.1325436  79.2071724  57.7396965  73.8431692  78.9623690  56.9502687
  72.0582724  80.1546574  57.1243048  71.3519287  80.4244423  57.9094124
  72.8241777  81.4595699  56.7658663  73.0449343  82.0040131  57.6839828
  73.7773371  81.1778641  56.3183928  72.1839905  82.1314049  56.1941099
  71.2011909  79.6280766  55.9032106  70.7385683  80.4878807  55.4186249
  71.9170427  79.2455053  55.1756859  70.2214193  78.5571527  56.1969423
  69.4574404  78.3931446  55.4369831  70.8141899  77.6643991  56.3962269
  69.6956348  78.8462114  57.1069384  73.9523983  79.7360468  58.9122868
  73.3936501  80.1783180  59.8979807  75.2864885  79.5944166  58.8673782
  75.6599236  79.0693951  58.0895662  76.2396145  80.2350903  59.7547054
  75.8610535  80.0011253  60.7497263  77.6535702  79.6211386  59.6359491
  77.6199102  78.5342550  59.7110987  78.0352879  79.9350214  58.6644173
  78.6374044  80.0802612  60.8113098  78.6844540  81.1600876  60.9522343
  78.2368803  79.4086838  62.0781231  77.3878527  79.9291420  62.5212717
  78.2337332  78.3221292  61.9915819  79.0640068  79.6309233  62.7523470
  79.9626684  79.4384956  60.3425074  80.1231861  79.7005796  59.2967367
  80.7100487  79.9325609  60.9633207  79.9952459  78.3620024  60.5104399
  76.3032150  81.7938519  59.6455288  76.5632200  82.1909142  58.5085297
  76.2712765  82.5933266  60.6986856  76.0570335  82.1352291  61.5729618
  76.1339855  84.0511513  60.7569122  75.8482313  84.5134354  59.8120642
  75.0212193  84.4261551  61.7532730  75.3040552  84.0691662  62.7435589
  74.8543501  85.9246826  61.9508076  74.6833324  86.4152050  60.9925556
  74.0944195  86.1817360  62.6887321  75.7450533  86.4041901  62.3568058
  73.6618376  83.8772106  61.3353777  73.4652567  84.2414379  60.3270197
  73.6417437  82.7882481  61.3785076  72.8755856  84.2426872  61.9959307
  77.4264097  84.6668530  61.2532043  78.0676031  84.0485764  62.1519327
  77.9379416  85.8586788  60.7538557  77.6347637  86.4806366  59.4712973
  76.7755985  87.1513653  59.4635201  77.5359821  85.7506943  58.6678505
  78.8670158  87.2525692  59.0778732  78.6244535  88.0904961  58.4243107
  79.5284033  86.5524483  58.5674810  79.3151903  87.7351952  60.5093575
  78.6268091  88.4627438  60.9393454  80.3647995  88.0223465  60.5723524
  79.1565371  86.4358902  61.3129520  79.9780989  85.7968903  60.9891891
  79.0805054  86.6562271  62.8475809  78.1987333  87.2767925  63.4561253
  80.1599979  86.1953640  63.4890556  80.8048058  85.7767105  62.8340387
  80.3512955  85.9711838  64.9518347  81.4050770  85.7895756  65.1632261
  79.9375486  86.8095684  65.5122042  79.7081614  84.7698975  65.6121063
  79.9527359  84.6159172  66.7759085  78.9043188  83.9055061  64.9369764
  78.9718580  84.0569401  63.9406776  78.3482981  82.7291393  65.4773474
  78.0867195  82.8864002  66.5237474  77.1433687  82.2593498  64.5586205
  76.5527248  83.0825996  64.1567564  77.5369740  81.8204498  63.6418056
  76.0597181  81.3551426  65.2248621  76.5268326  80.4359055  65.5782843
  75.6427336  81.9503307  66.0372591  74.9733877  81.0473156  64.1330147
  75.1909304  81.2279415  62.9451084  73.7252951  80.6803322  64.4144583
  73.1145954  80.4229259  63.6522961  73.3643579  80.5895329  65.3533840
  79.3791819  81.6156578  65.4718828  80.1410294  81.3502693  64.5390987
  79.4854975  80.8905125  66.6346550  78.7912703  81.1341476  67.3266029
  80.3321552  79.6894789  66.9221258  81.3338375  79.9657249  66.5928698
  80.3542519  79.2557955  68.4271860  79.4109440  78.7715578  68.6797523
  81.4792824  78.3060884  68.8657808  81.6538239  78.0801153  69.9177170
  81.2787628  77.3147202  68.4594822  82.4032879  78.6893129  68.4328222
  80.4109859  80.4497719  69.1973639  79.5970392  80.9406662  69.0627766
  79.9982882  78.4579325  66.0333872  78.8556337  78.0609703  65.8168268
  81.0424042  77.7184820  65.5913067  81.9047451  78.1828737  65.8379221
  81.0169411  76.5502310  64.6616268  80.0082588  76.1900949  64.4592428
  81.6965485  76.9607544  63.2886600  80.9260273  77.6088285  62.8710699
  82.6813316  77.3854971  63.4833670  81.8299770  75.8161545  62.2201824
  82.5874424  75.1510143  62.6348305  80.5569077  75.0000525  62.0520878
  79.6240664  75.5596876  61.9833374  80.7310200  74.3885660  61.1667252
  80.5121517  74.4476223  62.9906607  82.4311638  76.3268709  60.9270000
  82.6300430  75.5018997  60.2429152  81.6964436  77.0300770  60.5348492
  83.4324074  76.7162800  61.1113167  81.8482018  75.3608274  65.2422380
  83.0837631  75.3678274  65.2397871  81.1859894  74.2905378  65.7154560
  79.8393154  74.4342852  66.2581968  79.1029024  74.8112583  65.5484772
  79.8959827  75.1667452  67.0634270  79.4761467  73.0685663  66.8546295
  78.7601662  72.5117588  66.2501144  78.9726782  73.1376219  67.8189182
  80.8200264  72.5005960  67.1447420  80.8703423  71.4121771  67.1750689
  81.1501789  72.8955555  68.1055260  81.7459202  72.9919481  66.0643625
  82.7608299  72.9789448  66.4617014  81.8181229  72.0195293  64.8410368
  80.8319473  71.9327164  64.1090631  82.7797604  71.1733580  64.6914673
  83.5960865  71.3962173  65.2428675  82.8248405  70.1173258  63.6682320
  81.7802906  69.8869228  63.4585953  83.3674717  70.6499529  62.3321676
  83.9382553  71.5542269  62.5433159  83.9914036  69.8522377  61.9290972
  82.2990990  71.0211992  61.2249899  81.4963150  71.6187000  61.6569948
  82.9198551  71.9937563  60.1444912  82.1017647  72.3357439  59.5105553
  83.3938694  72.8164148  60.6798887  83.7086487  71.5723848  59.5213079
  81.6370869  69.9908352  60.4016829  81.3146400  69.1274500  60.9836531
  80.7260609  70.4669428  60.0391102  82.2999668  69.7268391  59.5776701
  83.6038971  68.8375950  64.0953159  84.6199417  69.0378380  64.8442602
  83.2114315  67.6086140  63.6338520  82.3837376  67.4390984  63.0804205
  83.8767815  66.3097620  63.9188576  84.9182892  66.5342712  64.1489840
  83.2218456  65.7815170  65.2025509  83.6329937  66.2630844  66.0897636
  82.1748066  66.0669804  65.1009798  83.3837509  64.2845631  65.4624367
  82.6563549  63.7297106  64.8698807  84.3901443  63.9117622  65.2719069
  83.1371021  63.9034700  66.9725180  83.8127995  64.3033934  67.8640223
  82.3075962  62.9527664  67.2689819  82.3185921  62.5368023  68.1892776
  81.5865231  62.6840210  66.6148138  83.7671471  65.4047012  62.7299976
  82.7991486  65.3036642  62.0453644  84.8828220  64.6943331  62.3897648
  85.6412315  64.7210550  63.0562496  85.1161861  63.9763260  61.0942221
  84.1686535  63.5871220  60.7216644  85.7458973  64.9536085  60.0516033
  86.4873219  65.5501938  60.5830908  86.3496876  64.4330692  59.3082476
  84.7489929  65.9061956  59.3927526  83.7172508  65.5567503  59.4313335
  84.7479057  67.2834444  60.0506592  84.9197006  67.1624899  61.1202192
  85.4713440  67.9910135  59.6455860  83.7974548  67.7698565  59.8312235
  84.9984264  66.0051632  57.9330587  84.8662758  65.0173521  57.4916172
  84.3136597  66.7212963  57.4788046  86.0144520  66.3056755  57.6771450
  86.0307312  62.7063799  61.2903023  86.8366814  62.6323700  62.2438622
  85.8520222  61.7048550  60.3777027  85.1733780  61.9719934  59.6790123
  86.2992287  60.3037786  60.4276800  87.1523857  60.2109146  61.0996962
  85.0905514  59.5202827  60.9710741  84.2221928  59.5172167  60.3122425
  85.4121685  58.4894085  61.1192656  84.5603275  59.9248075  62.3228502
  85.0374985  59.2318106  63.5111570  85.9235764  58.6229801  63.4081697
  84.3595219  59.4165516  64.7661352  84.6431255  58.7954473  65.6029129
  83.3186340  60.4201889  64.8297358  82.8740788  60.6588697  65.7846212
  82.8554344  61.0469818  63.7287092  81.9947147  61.6813183  63.8809586
  83.4445190  60.7462263  62.4390554  83.0576420  61.2891150  61.5893507
  86.7344093  59.8245096  59.0191126  87.7176189  59.1188097  58.9361906
  86.0322666  60.2098513  57.9745436  85.1659012  60.6779957  58.1989384
  86.1701298  59.6676016  56.5565395  86.1917686  58.5805178  56.6332150
  84.9665546  60.1675034  55.7843351  84.0590858  59.7176933  56.1871719
  84.9648571  61.2369013  55.9952593  85.0330830  59.9553204  54.2694712
  84.7577477  58.7273693  53.6533022  84.8191929  58.9942217  52.3246574
  84.5861340  58.2674503  51.5605307  85.3700638  60.1876926  52.1449471
  85.6254387  60.5697680  51.2455559  85.5599117  60.7868576  53.4003592
  85.9041309  61.7753267  53.6665249  87.4836922  60.1563692  55.9921885
  87.7142048  61.3929224  55.9911346  88.3595467  59.2159033  55.5610609
  88.1412888  57.8199100  55.2352524  87.7115154  57.8431559  54.2338276
  87.5932503  57.1457958  55.8935261  89.5783997  57.1961975  55.3118372
  89.5884037  56.2841797  54.7149944  89.8612404  56.8759632  56.3146114
  90.4761696  58.3053541  54.7060204  90.4121780  58.4444475  53.6268282
  91.5284061  58.1934404  54.9675274  89.7596836  59.4885778  55.4466200
  90.1500130  59.5419693  56.4629316  90.0601578  60.7808638  54.7114038
  90.9883118  61.4623547  55.0660849  89.3483067  61.0945368  53.6274147
  88.8107014  60.3137398  53.2789421  89.7088814  62.2024202  52.7723837
  90.7967949  62.2151566  52.7062321  89.1324902  62.0433378  51.3481045
  88.0475426  61.9494486  51.3947344  89.3762016  63.0070734  50.9009790
  89.8900700  61.0731745  50.4629755  89.6761322  61.1755228  49.3990898
  90.9632111  61.2623549  50.4894352  89.6255398  59.6775103  50.8801174
  88.6840343  59.2719412  51.5605116  90.5108547  58.7557316  50.5356789
  90.2507591  57.8067398  50.7634068  91.2266541  58.9232302  49.8430872
  89.2605591  63.5697508  53.3025789  89.9218369  64.6045351  53.1422186
  88.1258392  63.6721849  54.0163851  87.5250530  62.8817606  54.2018080
  87.7430153  64.9194241  54.6936417  87.9540825  65.7560301  54.0275764
  86.3017082  64.9331331  54.9955130  86.0129356  64.1519022  55.6986427
  86.0582066  65.9234619  55.3802872  85.3379345  64.7438240  53.8062191
  85.2612972  65.7131863  53.3137131  85.6457710  63.9251804  53.1557083
  83.8402653  64.3830156  54.2683983  83.3491993  64.5525980  55.4602051
  83.2017708  63.6740923  53.5022449  88.6792755  65.1649952  55.9214306
  89.1106796  66.2969398  56.2024355  89.0732288  64.0980101  56.5876865
  88.4956932  63.3010340  56.3610029  90.0559807  64.1479158  57.7249622
  89.6685219  64.8401642  58.4724712  90.1577759  62.7943945  58.4182358
  90.4367065  62.0082283  57.7166414  91.3048172  62.8531647  59.4589520
  91.3971710  61.9910192  60.1194668  92.1994495  63.0411291  58.8653231
  91.0298157  63.7166405  60.0646687  88.8606930  62.3759031  59.0953779
  89.0616035  61.3874674  59.5085812  88.6642838  63.1052542  59.8812342
  88.1272888  62.2619820  58.2971001  91.4059544  64.6392584  57.1926355
  91.9588757  65.6016684  57.7464914  91.8378448  64.1612387  56.0130739
  91.2784958  63.4729481  55.5298615  92.9991722  64.7412729  55.2559948
  93.9147854  64.5405054  55.8122730  93.2920265  63.9828062  53.9924097
  93.3782768  62.9205942  54.2212534  92.3978996  64.1282129  53.3862019
  94.5107651  64.4860458  53.4854221  94.5922375  64.1207218  52.6013947
  92.8317356  66.2432575  54.9299192  93.6709023  67.0716619  55.3792095
  91.6785145  66.6398096  54.3177748  91.0160542  65.9489155  53.9954090
  91.4313602  68.0625534  54.0037203  92.2307777  68.4022665  53.3452129
  90.0495815  68.1925344  53.3312798  90.0574875  67.5575447  52.4453735
  89.4079781  67.6556158  54.0299654  89.6572304  69.5230818  52.8857470
  90.5553532  69.9306011  52.4216223  88.8462067  69.4712687  52.1593523
  89.0894413  70.7149458  54.1511250  87.4384975  70.0887537  54.3209839
  86.8467426  70.7310390  54.9732113  86.9277763  70.0632191  53.3583736
  87.4424839  69.0633106  54.6905231  91.5067863  68.9596701  55.2672672
  92.1555519  69.9918985  55.1939392  90.6370068  68.7182808  56.2631226
  90.0452709  67.9018116  56.3207912  90.5858231  69.4519424  57.5679350
  90.2184391  70.4583740  57.3673725  89.6174335  68.8835621  58.5768938
  89.8211956  67.8169584  58.6714411  89.7534370  69.4298315  59.9567747
  89.7221756  70.5168676  59.8827600  88.9704037  69.0850925  60.6321383
  90.5815125  69.0545082  60.5580473  88.2132339  68.9043522  58.0281162
  88.0210876  68.6071348  56.9971752  87.6129246  68.2422352  58.6520767
  87.7501965  69.8890924  58.0911970  92.0518112  69.5935535  58.1748390
  92.4142456  70.7186413  58.5727978  92.8883171  68.5583353  58.1120539
  92.5447369  67.7289391  57.6492786  94.2662907  68.5460949  58.5611629
  94.3492985  68.9110470  59.5848894  94.7304630  67.0770168  58.6024380
  94.3593407  66.5041733  57.7526045  95.8191013  67.0235634  58.5908508
  94.2051792  66.3863754  59.8004866  94.4285870  66.9149780  60.7271814
  93.1187248  66.3073349  59.7620678  94.6921444  64.9430466  59.8505497
  94.2016411  64.3978262  59.0441751  95.7762051  64.8750305  59.7595215
  94.3118477  64.3030834  61.0670233  94.1574574  64.8867989  61.8766737
  93.9090157  63.1142235  61.2850618  93.9979362  62.1376896  60.4622555
  94.4533443  62.2243071  59.5649290  93.6477852  61.2403774  60.7661247
  93.4612846  62.8869343  62.4254656  93.3746243  63.5646629  63.1692886
  93.0703259  61.9591808  62.5062561  95.1090527  69.4382477  57.6566458
  95.6526375  70.4167080  58.1398869  95.1919174  69.2641592  56.3693953
  94.7593307  68.4158421  56.0327482  95.9239578  70.1266766  55.4222441
  97.0005798  70.1448298  55.5915499  95.8622837  69.7430563  53.9474487
  96.4023876  68.8030481  53.8344288  94.8073673  69.5389891  53.7640858
  96.4859772  70.6930161  52.9204655  97.7019882  70.6983805  52.6295090
  95.7282639  71.6326666  52.3524761  96.1967087  72.4310017  51.9483423
  94.7344303  71.6993093  52.5196743  95.5427551  71.6280508  55.5443335
  96.4022350  72.5382042  55.3899622  94.2389393  71.8994522  55.7647085
  93.5767365  71.1538124  55.9247351  93.7835693  73.2535219  55.9236956
  94.2102051  73.9366627  55.1892614  92.2744274  73.0786419  55.7124615
  92.1129608  72.8228807  54.6652651  91.8107891  72.2476053  56.2439871
  91.5187168  74.3813753  56.0170269  91.7951012  74.6878338  57.0258856
  91.8002510  75.5033302  55.0329161  91.6696930  75.1523066  54.0092802
  91.1184216  76.3265753  55.2461624  92.8087616  75.9134340  55.0861740
  90.0350952  74.0969467  56.1421013  89.5681858  73.6646509  55.2571058
  89.8520374  73.3987474  56.9588614  89.4800663  75.0172329  56.3240862
  94.1442680  73.8659620  57.2314739  94.3844986  75.0572824  57.2819614
  94.3669796  73.0773115  58.2924175  93.9883518  72.1417570  58.2539415
  95.0106525  73.5461092  59.5899296  94.6972752  74.5783901  59.7458029
  94.5272064  72.6373243  60.7504034  94.7324657  71.5882206  60.5374527
  95.2399540  73.0712461  62.0612001  96.2957382  72.9394674  61.8244314
  95.0823879  74.1330481  62.2505236  94.9185848  72.3402357  62.8031254
  92.9448605  72.8012943  60.9004974  92.6968956  73.7125635  61.4447403
  92.4109268  72.7657747  59.9508905  92.2515869  71.6653872  61.6798830
  91.2457466  71.6345835  61.2610340  92.7499485  70.7037497  61.5574169
  92.2485447  71.9511175  62.7317619  96.5281391  73.7477207  59.3657446
  97.0550632  74.7752285  59.7355556  97.2004509  72.9507875  58.5510206
  96.6990185  72.1267366  58.2516861  98.5934258  73.1861448  58.1259871
  99.1474342  73.4633589  59.0228271  99.1800022  71.9508457  57.4740458
  98.4902668  71.5699100  56.7208862 100.1275349  72.1539402  56.9750023
  99.4676399  70.8568239  58.5859728 100.2414131  71.1733866  59.2853832
  98.5331440  70.6985092  59.1242647  99.8315620  69.5670462  57.8400087
  98.9756870  68.8580227  57.3017216 101.1148357  69.3216991  57.6941967
 101.4004517  68.5090160  57.1668720 101.7659664  69.8427391  58.2639694
  98.7223244  74.4606161  57.2548771  99.8321056  74.9175692  56.9059849
  97.6350212  74.9918842  56.7378569  96.7780876  74.7579479  57.2185373
  97.5137520  76.1787224  55.9354258  98.5040569  76.6329241  55.9020710
  97.0943546  75.7939339  54.5194006  96.2658691  75.0858688  54.5383549
  96.7483234  76.6335678  53.9165878  98.2894897  75.2613306  53.8182020
  99.0680218  75.9088707  53.2260799  98.5428524  73.9946890  53.8970423
  99.3980789  73.7805939  53.4042263  97.8925323  73.3325911  54.2955446
  96.6925812  77.2524166  56.6555500  96.9347477  77.5835228  57.7934599
  95.6100368  77.7975082  56.0134983  95.2606392  77.3173332  55.1965189
  95.0549221  79.1116190  56.4480066  95.8370399  79.6279240  57.0046186
  94.6990108  80.0256920  55.2576971  93.8234711  79.5109320  54.8620462
  94.3381023  81.0083008  55.5615282  95.8035183  80.0842476  54.1224670
  96.8965721  80.6040287  54.4540358  95.6497002  79.5621014  53.0008173
  93.8604641  78.9675522  57.3940563  93.1616879  80.0039196  57.6246881
  93.5845280  77.7668571  57.9063272  94.1986942  77.0202684  57.6139116
  92.5537777  77.2130871  58.8461256  92.4420834  76.1539602  58.6140203
  93.1321526  77.2760534  60.2126980  92.5607777  76.6870546  60.9301281
  94.1483212  76.8822241  60.2326632  93.2000256  78.6691856  60.7540751
  93.7605381  79.2351770  60.0100470  92.2130775  79.1209936  60.8536339
  93.7778282  78.7140274  62.1729851  93.1617928  78.0333090  62.7605295
  94.8075581  78.3572912  62.1954489  93.6353016  80.0573349  62.7747154
  92.7094746  80.3514290  63.0512190  94.6364403  80.8546543  63.0635166
  95.8781719  80.5695057  62.7092361  96.0106945  79.9241352  61.9437075
  96.5465164  81.3257217  62.7486229  94.3492794  81.9687080  63.6330032
  93.4032345  82.3203182  63.6713409  95.1497173  82.5774956  63.7267447
  91.0795498  77.6620245  58.7563992  90.4181576  77.7327633  59.7569704
  90.5839634  77.9048491  57.5537825  91.0975266  77.7856207  56.6923046
  89.2887688  78.6478519  57.4454403  88.8373184  78.7568331  58.4315491
  89.5927143  80.0665379  56.8721199  90.1743889  80.0172329  55.9516191
  88.4172916  80.9020901  56.4130592  88.0164051  80.5276203  55.4711676
  87.6629353  80.8318043  57.1967077  88.7560177  81.9164658  56.2022924
  90.3288078  80.9123325  57.7677441  91.2197208  80.5564785  57.7325106
  88.2745171  77.8219891  56.5455818  88.4321594  77.7363825  55.3439093
  87.2340870  77.3119926  57.1148586  87.0571423  77.4321079  58.1019592
  86.0739136  76.7185736  56.4013147  86.4384651  75.9622335  55.7062244
  85.1269722  76.1001825  57.4102545  84.8744297  76.8405199  58.1693459
  84.1819191  75.7667017  56.9815683  85.7197857  74.8715401  58.0701542
  85.9401131  73.6695433  57.3523903  85.7282352  73.7277126  56.2949753
  86.4856911  72.5002337  57.8671455  86.6164970  71.6216516  57.2528219
  86.8050766  72.5770807  59.2362213  87.2735310  71.6985655  59.6547461
  86.5889359  73.7384844  59.9830389  86.7129326  73.8589954  61.0491085
  86.1303139  74.9017525  59.4175148  85.8738518  75.7641697  60.0149012
  85.2561951  77.7909422  55.6184387  85.1966476  78.9648962  55.9929752
  84.4289398  77.3291779  54.6461201  84.6024036  76.3796425  54.3488073
  83.2980251  77.9876423  54.0774250  83.2376575  78.9639950  54.5582485
  83.5514164  78.2730961  52.6166821  82.6825523  78.7517929  52.1649933
  84.3429184  79.0169334  52.7079535  83.7154388  77.3467541  52.0661449
  81.9501209  77.1858454  54.3183661  81.8679810  75.9505081  54.0222692
  80.9112549  77.9087019  54.7035837  80.9259129  78.9185238  54.7158098
  79.5743275  77.3654747  54.9213076  79.5624304  76.3217306  54.6073675
  79.2779779  77.4271059  56.4007187  79.4487143  78.4397411  56.7661333
  77.7314568  77.2186232  56.6663218  77.5109529  76.3299227  56.0749722
  77.5649834  77.0806265  57.7346563  77.0201015  77.9369688  56.2588263
  80.1040936  76.3165522  56.9753170  79.9141407  75.3300476  56.5524435
  81.1844730  76.4573956  57.0077801  79.8327208  76.2251425  58.0270338
  78.6357212  78.1822777  54.0096521  78.7010527  79.4091606  54.0597677
  78.0122089  77.4618053  53.0780840  78.1733274  76.4725399  52.9536009
  77.0503044  78.0178738  52.1224642  77.4761438  78.9674234  51.7982531
  76.8025255  76.9814920  50.9990883  76.3116741  76.1180353  51.4481020
  76.0389137  77.3603392  50.3197718  77.9788828  76.4551401  50.2080917
  78.7205648  76.0907078  50.9188652  77.7041864  75.2178383  49.3417072
  78.6426973  74.9481583  48.8573837  77.3568869  74.4214821  49.9999523
  76.9044256  75.3599787  48.6148739  78.5567331  77.5889206  49.2901039
  78.0873680  77.5911283  48.3063412  78.4453058  78.5717535  49.7480583
  79.6337700  77.4515676  49.1940069  75.7571840  78.4210539  52.8894043
  75.2715588  77.7598000  53.8175726  75.2334213  79.4777775  52.4285126
  75.6089163  79.9179792  51.6006708  73.9926147  79.9369431  52.8567505
  73.8340187  79.6199274  53.8875008  74.0209103  81.4586830  52.9289150
  73.9122486  81.8682194  51.9246340  73.1486320  81.7536831  53.5121918
  74.9712944  81.7441273  53.3799076  72.8219938  79.4084263  52.1202326
  72.2398949  79.9954939  51.2009144  72.5729895  78.1477594  52.4675894
  73.1776714  77.6849461  53.1311178  71.6152906  77.2272301  51.8663931
  71.9164181  76.9676352  50.8514881  71.5922403  75.9283447  52.6290464
  71.4740038  76.1362171  53.6924887  70.7683802  75.3943825  52.1555138
  72.8019953  75.0327015  52.4954081  73.2246208  74.6590471  51.2037230
  72.5530338  74.8403358  50.3775883  74.4310904  73.9377499  51.0280609
  74.6787024  73.5494280  50.0511789  75.2874517  73.7231112  52.1020889
  76.4450169  72.9544783  51.9290352  76.5829754  72.4916649  51.0993528
  74.8916006  74.1148472  53.3830309  75.5260611  74.0437889  54.2541313
  73.6184788  74.7479343  53.5764694  73.4448910  75.1332426  54.5703602
  70.2324677  77.8129244  51.8298769  69.5733166  78.0144310  52.8573990
  69.6660900  78.0449915  50.6143999  70.2210474  77.8651810  49.7899055
  68.2619047  78.3845711  50.3764820  67.7622128  78.9084911  51.1912966
  68.1138182  79.1527367  49.1096878  67.0316219  79.2090178  48.9922667
  68.5717344  80.1346493  49.2290831  68.6615086  78.4234953  48.0039024
  68.3432865  78.7265491  47.1503830  67.4071264  77.0807409  50.2117252
  66.1815310  77.1024609  50.4164791  68.0733299  75.9379911  50.2030659
  69.0693855  75.9752226  50.0400114  67.4929762  74.7047377  50.7186985
  66.9028091  74.8941088  51.6153240  66.6702557  74.0180922  49.6832085
  65.9617949  74.7151899  49.2357302  67.2652006  73.7025118  48.8261461
  65.8567858  72.8998184  50.2648354  66.0877323  72.3768425  51.3392782
  64.9154043  72.4411821  49.5271301  64.2403841  71.7826748  49.8888254
  64.5868921  72.9762745  48.7360191  68.6839962  73.7711382  51.0291147
  69.6334124  73.6935711  50.2465343  68.6087799  73.2175016  52.2332239
  67.8023243  73.4000349  52.8132343  69.6709967  72.3231459  52.7995586
  70.6704092  72.7099800  52.6004791  69.4861221  72.1443844  54.3073606
  68.4238958  72.1220255  54.5508575  70.1329088  70.8898592  54.8233175
  69.4983196  70.0550556  54.5258188  71.1422873  70.7991695  54.4220352
  70.1946449  70.8465099  55.9107065  70.1721859  73.2394838  55.2202463
  70.1015234  72.9779387  56.2760448  71.2196875  73.3878517  54.9579048
  69.7717810  74.2262125  54.9875736  69.5564747  71.0063076  52.0586872
  70.6055498  70.5242109  51.7283630  68.3981705  70.4759264  51.8116426
  67.5157356  70.9435368  51.9624710  68.2434750  69.1534138  51.3065720
  68.9042854  68.4763336  51.8478584  66.7873907  68.7419224  51.2789774
  66.2585306  69.5672750  50.8023214  66.5976906  67.7934170  50.7765293
  66.2923670  68.6255598  52.7548790  67.0170164  68.2269192  53.4648609
  66.2438679  69.6738434  53.0495834  64.8920870  67.9496431  53.0217934
  64.2168665  67.5400257  52.0867538  64.4427443  67.8993559  54.2017794
  63.6457729  67.3131084  54.4048786  65.0872707  68.2940483  54.8717833
  68.7933493  69.0362835  49.8017406  69.6102476  68.1694221  49.4705534
  68.3792257  69.9809027  48.9252806  67.6394176  70.6056309  49.2124987
  68.9428711  70.2222967  47.5530577  68.9174271  69.3242693  46.9358063
  67.9712105  71.0842609  46.7189884  67.9677582  72.0889425  47.1417189
  68.3104610  71.0731983  45.6831837  66.4893675  70.6928396  46.7358637
  65.9945583  70.8274269  47.6977110  66.0716438  71.3194704  45.9478664
  66.3039398  69.2229366  46.3263798  65.1900148  68.6535215  46.6195869
  67.0456314  68.5632372  45.5578852  70.3314304  70.8650208  47.5626087
  70.9778643  70.9467697  46.4906597  70.7890844  71.4871454  48.6523199
  70.1953697  71.4282656  49.4672680  72.1573067  72.1820211  48.7321186
  72.1317625  72.7177906  49.6810150  73.3007431  71.1335754  48.7240505
  73.2904482  70.5872059  47.7809334  74.2455244  71.6608000  48.8564301
  73.3607340  70.0789309  49.8708868  72.4039030  69.5781755  50.0185728
  74.0552711  69.2758560  49.6243286  73.6893129  70.8021927  51.1806583
  74.7018576  71.1675119  51.0092115  72.9937172  71.6239643  51.3507366
  73.4752655  69.9695635  52.3527908  72.6668787  69.3693924  52.2727728
  74.1408348  69.9411058  53.5095882  75.0535393  70.8340454  53.7682486
  75.4418325  71.4212370  53.0439997  75.3135061  71.0347891  54.7233534
  73.9166307  69.0122747  54.3641663  73.2142782  68.3611631  54.0434599
  74.5787859  68.9089918  55.1198006  72.3326254  73.4247875  47.8566551
  73.3952713  73.6618519  47.2577953  71.2648964  74.1679430  47.5610828
  70.3856850  73.9372301  48.0013752  71.2507725  75.4004431  46.7088604
  72.0190573  75.1826000  45.9669828  69.9366236  75.5124521  45.9253359
  69.9609661  76.4609623  45.3888273  69.8959732  74.6327162  45.2830601
  68.6870813  75.3477764  46.7932653  68.6690187  74.4124699  47.3527050
  68.7680817  76.1299372  47.5480938  67.4023008  75.4831553  45.9494400
  66.5693045  74.5661783  45.8870220  67.3505735  76.4555693  45.1762533
  71.5721560  76.6013098  47.4593878  71.2565184  76.6819286  48.6876535
  72.2410727  77.5426006  46.7994213  72.4581814  77.2815275  45.8482122
  72.9780006  78.6111736  47.5256634  72.1664619  79.1297293  48.0361652
  74.0343571  77.9928923  48.4726095  73.5783100  77.4984455  49.3303061
  74.6646118  77.2595406  47.9695463  74.5356369  78.8504791  48.9213467
  73.5157919  79.6629858  46.5050173  74.1363955  79.1846561  45.5384684
  73.4522867  80.9520149  46.7609930  72.9365110  81.2827682  47.5639153
  74.1987991  81.9798470  46.0530186  74.8102140  81.6303921  45.2210665
  73.0704212  82.8594112  45.4637861  72.4907970  82.2009754  44.8167992
  72.3692799  83.1460190  46.2476015  73.3394003  84.1095066  44.6273279
  72.3847771  84.6185780  44.4945335  74.0309525  84.7582626  45.1648903
  73.8173723  83.7672043  43.1859159  74.1783333  82.5955296  42.8915787
  73.6286259  84.6675110  42.2599077  75.1993990  82.8197956  46.9279814
  76.2320042  83.3109474  46.4927006  75.0372553  82.8616524  48.2755518
  74.1423702  82.5582695  48.6322594  76.0491085  83.4352970  49.2020273
  76.9064808  83.8288212  48.6559916  75.3016138  84.5763302  49.9614048
  74.5306015  84.1539955  50.6058264  75.9354115  85.0287437  50.7241154
  74.7964716  85.6879425  49.1023016  73.4883499  85.5531216  48.5981655
  72.9056120  84.7375965  49.0003443  72.9513311  86.5007305  47.7220535
  71.9361067  86.4080524  47.3654890  73.7960100  87.5485516  47.3160791
  73.4624910  88.2584095  46.5736008  75.0833464  87.7206707  47.8794336
  75.6379700  88.6234093  47.6699877  75.5823421  86.8056774  48.8339424
  76.5659428  86.9390678  49.2595434  76.5553236  82.3830891  50.2108526
  76.1908293  81.2553406  50.2852774  77.4830484  82.7736378  51.0800123
  77.8834486  83.7002850  51.0467911  77.9546881  82.0059776  52.2749233
  77.0317650  81.6414547  52.7259731  78.6344957  81.2044811  51.9858503
  78.5484648  82.8949165  53.3625031  78.6033821  84.0975380  53.2726431
  79.1547585  82.2276783  54.2652130  79.1960192  81.2190437  54.2326498
  79.8140430  82.7722168  55.4615688  80.0745773  83.8244057  55.3470469
  78.8418722  82.7872849  56.7517710  78.3501482  81.8352890  56.9518280
  79.5431852  83.2233238  57.9799604  80.4106140  82.6179123  58.2429123
  79.8844147  84.2552376  57.8974056  78.8066435  83.1499100  58.7800980
  77.8571081  83.8104916  56.6608953  77.1968222  83.5054970  57.2874737
  81.0748100  81.9723511  55.8412409  81.0440826  80.8112812  56.1246014
  82.2639561  82.6531410  55.8567142  82.3376274  83.6377048  55.6438637
  83.5401440  82.0605469  56.2603140  83.5754585  81.0655880  55.8165741
  84.7877312  82.8751469  55.9824896  85.6609535  82.3582745  56.3805342
  84.9106789  83.0688572  54.4759369  85.1173496  82.1043873  54.0120745
  83.9459515  83.4548950  54.1467094  85.7515717  83.7250137  54.2512798
  84.8204899  84.0400696  56.6455317  84.1515064  84.5379925  56.1700058
  83.5861301  81.6546631  57.7695704  82.8715801  82.2067642  58.5762835
  84.5385838  80.7891941  58.1985998  85.2689075  80.5769825  57.5339985
  84.7912598  80.5747700  59.6638870  84.4034100  81.4362907  60.2074671
  83.9201736  79.4034100  60.1531219  83.8988781  79.2830133  61.2362432
  82.8945827  79.5184469  59.8023748  84.2161655  78.4141588  59.8040056
  86.1986351  80.2113533  60.1073027  86.8268490  79.2986536  59.5586777
  86.7634583  80.9401989  61.0715532  86.2452888  81.6294098  61.5974760
  88.1424236  80.7100677  61.5258551  88.8439369  80.4399681  60.7365370
  88.3677673  82.1747589  62.0393610  88.3367252  82.8827095  61.2111425
  87.6526546  82.5169945  62.7874136  89.7785759  82.0624352  62.7201843
  89.7436810  81.5116978  63.6601639  90.4946899  81.5059566  62.1155357
  90.5176353  83.3998585  62.8600407  91.7409039  83.2756138  63.0284548
  89.8855114  84.4690895  63.0541325  88.1960106  79.5481157  62.5674391
  87.5529861  79.6463728  63.6180115  89.0335560  78.5147858  62.2932959
  89.6503925  78.6173820  61.5001488  89.3401718  77.4688673  63.2755375
  88.3872890  77.1392107  63.6895800  90.1743031  76.3158226  62.6527643
  90.8858967  76.8203497  61.9991636  90.8835411  75.3387451  63.6310148
  91.5780067  75.8942556  64.2612648  90.1195812  74.8068333  64.1980553
  91.4535522  74.5845747  63.0884171  89.2045975  75.5724907  61.6992092
  88.5728741  74.9374628  62.3203135  88.5591888  76.2365103  61.1242056
  90.0905037  74.6888399  60.7374859  89.3375683  74.3977118  60.0050735
  90.8807755  75.2825069  60.2779865  90.4977512  73.8076019  61.2331486
  90.1410198  78.1138515  64.4453239  91.1349487  78.7935400  64.1358042
  89.6787453  77.8974390  65.6733799  88.8109112  77.3852921  65.7416916
  90.2082729  78.4711599  66.9321775  91.1256886  78.9408016  66.5773869
  89.2603397  79.5575094  67.4767637  89.8248386  80.2362251  68.1161261
  88.9200592  80.1634979  66.6370678  88.1010437  79.0765095  68.3829498
  88.2803726  78.8200140  69.7979546  89.2425537  78.9715195  70.2644825
  87.2506142  78.3323431  70.5445480  87.3320770  78.0308437  71.5784121
  85.9430599  78.2323170  69.9546766  84.9411106  77.6261759  70.6341171
  85.1454449  77.6165485  71.5720701  85.7980919  78.6090422  68.5679054
  84.8807144  78.6669731  68.0009270  86.8779945  78.9620781  67.7885818
  86.7795181  79.1212893  66.7249298  90.5633831  77.3719120  67.9145575
  91.3120842  77.7178240  68.8830566  90.2942848  76.0891771  67.6638699
  89.6527767  75.9242725  66.9013929  90.6267166  74.8965263  68.4625721
  91.6586781  74.9613857  68.8074589  89.8313236  74.8651314  69.8219919
  89.0915489  75.6654215  69.8413754  89.2146015  73.9663887  69.8169804
  90.4936600  74.8069859  70.6857157  90.6253815  73.5906267  67.6386309
  89.9455738  73.5783720  66.6146946  91.3126945  72.5208330  68.0305147
  91.8313885  72.6110268  68.8924408  91.5840435  71.3783598  67.1941805
  90.6725693  71.1652851  66.6356850  92.5080109  71.8193197  66.0826159
  91.8928909  72.2060728  65.2701187  93.0986118  72.5544882  66.6292620
  93.3794117  70.7568693  65.5054092  92.8596878  69.9117422  64.5224285
  91.8064785  69.9602270  64.2883348  93.6814404  69.0173531  63.7548876
  93.2529449  68.3708811  63.0033159  95.0478458  69.0680885  64.0275860
  95.9127903  68.1946707  63.4284019  95.5737114  67.2985029  63.3691597
  95.5066586  69.8398685  65.1145315  96.5620804  69.8622227  65.3425407
  94.7122574  70.7458782  65.7597780  95.1975155  71.3670063  66.4981031
  92.1524143  70.2120829  68.0532646  92.9607964  70.4581118  68.9279461
  91.6388607  68.9955044  67.8508663  91.0138798  68.9245462  67.0606375
  92.2322941  67.7756643  68.3513594  93.2667160  67.9806566  68.6271477
  91.3702393  67.3909283  69.5695782  90.3001881  67.2526169  69.4147825
  91.7635918  66.4189148  69.8671627  91.5826702  68.3812141  70.7190275
  92.5928974  68.7886524  70.6799889  90.8782196  69.2111254  70.7747698
  91.5341282  67.7354670  72.1119499  92.3493099  67.0120049  72.0988035
  91.8529510  68.4671211  72.8543377  90.2903938  67.1171188  72.4395657
  89.9716473  66.4591646  71.7427158  89.5366478  67.0291948  73.5223627
  88.7716866  66.0309792  73.5931778  88.7517262  65.3873634  72.8150606
  88.1398487  66.0215569  74.3810749  89.6888161  67.8459406  74.5046234
  90.3968811  68.5641861  74.4510984  89.1316319  67.6242828  75.3173494
  92.0603943  66.6506243  67.2965765  91.1035347  66.7168903  66.5889502
  93.0688381  65.7587004  67.1442509  93.0240440  65.2277994  66.2862062
  94.2659473  65.4700089  67.8948689  94.3954849  66.4194298  68.4144020
  95.4917431  65.0922394  66.9488430  96.3659000  65.4768038  67.4742651
  95.3776455  64.0359592  66.7052221  95.6038666  65.8515549  65.6360531
  95.3982067  66.9133329  65.7718706  96.6326809  65.8283901  65.2767467
  94.7657967  65.2938604  64.4466305  93.7041473  64.6442604  64.6357059
  95.1387978  65.6425190  63.3579254  94.0878773  64.3947601  68.9737844
  94.9205112  64.2182589  69.8542929  93.1049252  63.5667515  68.8816595
  92.4445057  63.6469555  68.1217194  92.8540134  62.5128126  69.8737907
  92.9032803  62.8939247  70.8938026  91.4824486  61.8730974  69.4656610
  91.6488171  61.5960026  68.4246826  91.3525391  61.0066319  70.1140976
  90.3293705  62.8468609  69.7118616  90.4160213  63.7138700  69.0569687
  89.3985939  62.2974205  69.5708990  90.1670074  63.3579779  71.1285639
  89.5251083  64.3930101  71.3407516  90.7121944  62.8366423  72.1299458
  93.9667416  61.3860655  69.7512245  93.9987564  60.6692457  70.7676363
  94.7017956  61.1688423  68.6084414  94.5725822  61.7913008  67.8236151
  95.3661728  59.9006081  68.2821083  95.9727192  59.6256304  69.1449976
  94.3454456  58.7785578  67.9360676  94.9371910  57.8849792  67.7374458
  93.9074993  58.5040665  68.8957357  93.1796932  58.9283848  66.9318581
  92.5383472  58.0572319  67.0655298  92.5252438  59.7721338  67.1506929
  93.6044598  59.0052891  65.4728413  94.4142532  58.2597589  64.9544430
  92.9785919  59.8934555  64.6698618  93.1766415  59.8159313  63.6825085
  92.4181843  60.6320047  65.0706053  96.3494015  60.0306034  67.1312284
  96.2147903  60.9054518  66.2374878  97.3277855  59.1278362  67.1709919
  97.4058437  58.5252619  67.9777813  98.2689285  58.7909222  66.0633993
  98.3750820  59.5742559  65.3129196  99.6514225  58.5567188  66.7602158
  99.7065926  57.7723217  67.5150490 100.2962399  58.2519150  65.9359550
 100.2948666  59.8441553  67.4504042 101.3067532  59.6681452  68.1547737
  99.9192047  60.9759760  67.2773743  97.9402733  57.4136305  65.3952694
  97.8851604  56.4127350  66.1597538  97.6784420  57.3173666  64.0963936
  97.8351974  58.1453323  63.5396147  97.4986172  56.0887909  63.3980513
  96.9873810  56.3836002  62.4816275  98.8763714  55.5210781  63.0585432
  99.3576717  55.0076818  63.8909340  98.6252975  54.6217537  62.4961662
  99.8643208  56.3741732  62.3407745 101.0474491  56.7792225  63.0247164
 101.1105347  56.5945053  64.0869331 102.0898819  57.4341488  62.3144913
 103.0312347  57.6937103  62.7758741 101.8295193  57.8941727  61.0447645
 102.5219822  58.4627008  60.4417133 100.6221008  57.5764513  60.3077269
 100.5466366  57.7390909  59.2427111  99.6764851  56.7863750  61.0135794
  98.7824917  56.4338207  60.5207443  96.5411091  55.0279713  64.0593100
  96.7001820  53.8108063  63.8358259  95.5101681  55.4694557  64.8161602
  95.5621624  56.4421558  65.0830889  94.4371223  54.6299696  65.3664446
  94.7822189  53.6229658  65.6008577  94.1983414  55.0260401  66.3534641
  93.1329823  54.6001673  64.6200657  93.2061386  54.7685957  63.3682442
  92.0070076  54.5450020  65.2844286  91.9442081  54.6323013  66.2886906
  90.6601620  54.4381666  64.6515369  90.7193375  53.9932108  63.6582518
  89.6457386  53.7150669  65.5702734  89.4918633  54.2737675  66.4934635
  88.2953167  53.8505888  64.8636103  88.1031418  54.9180746  64.7556829
  88.4746075  53.3759451  63.8988972  87.6056767  53.3717728  65.5587626
  90.0942230  52.2418165  65.9435034  91.0871506  52.3527050  66.3792753
  89.3832207  51.8037033  66.6439581  90.2771091  51.3875532  64.6836758
  89.2971420  51.3632679  64.2070484  90.8535004  51.9050550  63.9168167
  90.5078602  50.3238010  64.7410297  90.2910805  55.9320116  64.3253994
  90.0193787  56.7045021  65.3104877  90.5014706  56.3394260  63.0716038
  90.6033230  55.6157207  62.3744774  90.7810497  57.6565981  62.6132298
  91.7558575  57.9402494  63.0099535  90.8114624  57.6344442  61.0878754
  91.5816498  56.9381571  60.7560730  89.8664474  57.2095490  60.7494783
  91.0882568  58.9329720  60.3974295  91.0451889  58.8161135  59.3145657
  90.2735043  59.5948982  60.6909275  92.4239922  59.4826269  60.8471346
  92.5098515  60.2474499  61.8668842  93.3365250  59.4461203  59.9485397
  89.6990299  58.6556149  63.0770302  88.4880543  58.3594418  62.9597664
  90.0220490  59.8715162  63.5578632  90.9727192  60.1948881  63.4493780
  89.1768074  60.8788776  64.1835880  88.4024906  61.0223532  63.4299564
  88.4806252  60.5077839  65.4586267  87.9782963  59.5770693  65.1949215
  89.3649006  60.2527332  66.7047739  88.8700962  59.7611284  67.5423861
  90.0432491  59.4462633  66.4262915  89.8389816  61.1711264  67.0510387
  87.4033070  61.5393877  65.8189535  87.8453255  62.5148296  66.0220003
  86.8041515  61.6753960  64.9186087  86.4871597  61.1590719  66.9582987
  87.0674133  61.1021471  67.8792667  85.7298756  61.9392252  67.0355940
  86.0754395  60.1649475  66.7841864  89.8990631  62.2114944  64.3460464
  91.1207104  62.1731949  64.6135473  89.1666508  63.2767296  63.9953756
  88.2050419  63.1620264  63.7085629  89.6218395  64.6573114  64.0783262
  90.3467083  64.6698046  64.8922777  90.3662872  65.0680971  62.8331757
  91.0283852  64.2559624  62.5328970  89.4569111  65.5388308  61.6886044
  88.9685917  66.4861393  61.9171953  90.0726318  65.5787277  60.7900524
  88.7229824  64.8014212  61.3635206  91.2359619  66.3037539  63.1980419
  91.8638897  66.1580181  64.0770054  91.9146633  66.6125727  62.4029970
  90.6094170  67.1334839  63.5252857  88.4545517  65.5593872  64.4451714
  87.2842026  65.2276611  64.2571735  88.7712574  66.6622925  65.1071119
  89.7509098  66.8639755  65.2474689  87.7701283  67.5649452  65.7990694
  86.7706203  67.4170971  65.3901243  87.7555943  67.1151209  67.2865200
  88.7959385  67.0122433  67.5950432  87.2520733  67.8422785  67.9235506
  87.0898724  65.7478189  67.5188732  86.0373592  65.7039356  67.2389078
  87.7603912  65.0307274  67.0452785  87.2952557  65.3984165  68.9384794
  88.3660030  65.2748346  69.1007280  86.7743015  66.0589123  69.6316242
  86.6627502  64.1154385  69.2041159  85.6064892  64.2381048  68.9646101
  87.0621681  63.3215904  68.5729456  86.9240475  63.7030649  70.6574202
  86.4449692  62.8259325  70.8031178  87.8803253  63.4790611  70.8929062
  86.5257835  64.3278265  71.3438320  88.3220005  68.9458466  65.6991386
  89.4871712  69.1411066  65.9300184  87.4046898  69.9045181  65.5746937
  86.4249229  69.6594429  65.5649710  87.6116085  71.3244915  65.4475546
  88.5628414  71.5360069  65.9359550  87.8607655  71.7552090  63.9579296
  87.9811096  72.8378916  63.9954615  89.2027569  71.1432457  63.3928728
  89.0061569  70.1068497  63.1183767  89.4403172  71.6353655  62.4497461
  89.9196911  71.2748671  64.2032862  86.7033672  71.4283037  63.0078602
  85.8211517  72.0296574  63.2273579  86.9972706  71.6501427  61.9819403
  86.4570808  70.3867102  63.2140684  86.4826965  72.1925163  66.0598660
  85.3008938  72.0598173  65.9385824  86.8898582  73.3129787  66.7339134
  87.8819370  73.4462500  66.8685198  86.1113453  74.5533609  66.8961477
  85.0895882  74.3205023  66.5963411  86.1349106  75.0952578  68.3852577
  87.1766853  75.2857924  68.6431313  85.4329300  75.9265423  68.4508085
  85.5167103  74.0194941  69.3051815  84.4840908  73.9675474  68.9600611
  86.0511684  73.0715466  69.2430687  85.4848289  74.2518997  70.8505392
  84.5516014  74.7813749  71.0424805  85.4626179  73.3079863  71.3951874
  86.6737747  75.0099373  71.4537716  87.5742626  74.5178080  71.0863018
  86.6387367  76.0539103  71.1423445  86.6196537  74.9864674  72.9076910
  86.8047333  74.0756035  73.3028698  87.2155380  75.7042265  73.2947874
  85.6877041  75.1814461  73.2446909  86.4995670  75.6144953  65.9515476
  87.5872231  75.5879211  65.4419231  85.5640697  76.4463282  65.5549049
  84.6420670  76.2989569  65.9400082  85.6846809  77.5122690  64.5509529
  86.6989994  77.9110289  64.5666790  85.5736256  76.9020557  63.1686401
  84.6493149  76.3429451  63.0232430  85.4390526  77.7736282  62.5280571
  86.4191914  76.3466740  62.7628279  84.6113491  78.5652733  64.9109602
  83.8490677  78.4280777  65.8707380  84.6744442  79.7371101  64.2904091
  85.3720093  79.9243069  63.5843992  83.8282299  80.8817959  64.5772123
  82.8061771  80.5476570  64.7557354  84.3696880  81.7369747  65.7824945
  84.5599842  81.1103249  66.6538143  85.6595612  82.4413681  65.5434418
  86.3131905  81.8635654  64.8899841  85.4213715  83.4044552  65.0919628
  86.1103630  82.6860905  66.5052080  83.2409954  82.7602863  66.2492895
  82.9951382  83.5154629  65.5027246  82.3514557  82.2153473  66.5653038
  83.6371613  83.5606384  67.4487686  84.4217205  84.2494392  67.1355343
  82.8552723  84.2268562  67.8133249  83.8253689  82.8793812  68.2785749
  83.5511208  81.6732979  63.2878923  84.5764160  81.8715000  62.6311159
  82.3222446  81.9876862  62.9879475  81.6253185  81.6266251  63.6235809
  81.8764496  82.7444839  61.7934370  81.9937801  82.1160984  60.9105587
  80.8300209  83.0235767  61.9167185  82.5622177  84.1026783  61.5679884
  82.4742794  84.9241734  62.4428415  83.2175922  84.3030071  60.4606104
  83.0154610  83.6578751  59.7102451  83.8128757  85.6048107  60.0035620
  83.5913658  86.3727570  60.7447052  85.3563213  85.4558468  59.8928022
  85.5646038  84.8435020  59.0154505  85.7910347  86.4370060  59.7018433
  86.1682892  84.8483562  61.0603571  85.9471130  83.7818432  61.1020422
  87.2126961  84.8996353  60.7526541  85.9595776  85.5714703  62.4031830
  85.8538151  86.6426277  62.2313356  85.1292133  85.1263618  62.9513407
  87.0953465  85.4168415  63.2956553  87.9323196  85.0260448  62.8871775
  87.1907330  85.7433701  64.5638180  86.2205982  86.2057114  65.3450823
  85.2652264  86.4004517  65.0815630  86.4068699  86.6178131  66.2481737
  88.3565903  85.6603050  65.1059151  89.0485191  85.2788162  64.4767857
  88.5390377  85.9653187  66.0513163  83.0171871  86.0908985  58.7548351
  81.7922497  86.0990715  58.7533712  83.7688065  86.5986061  57.7330732
  84.7769070  86.5652466  57.7851534  83.3326244  87.4453831  56.5964460
  82.7425575  88.2828426  56.9687080  84.4350719  88.0582523  55.8547020
  85.0341034  87.2533321  55.4288435  84.0359783  88.6547661  55.0343323
  85.2837563  88.9203453  56.8076992  84.7355938  89.7833920  57.1855497
  85.6756783  88.3035278  57.6164198  86.5425205  89.2004681  56.0887671
  87.4782562  88.3922577  56.1368465  86.5889263  90.1836014  55.3122807
  87.3789310  90.3470802  54.7046089  85.7888508  90.7964706  55.2461290
  82.4182224  86.7474461  55.6553078  82.6238823  85.6045723  55.2072573
  81.3733387  87.4568748  55.2124023  81.3027573  88.3660030  55.6466913
  80.3845024  87.0817852  54.1675901  79.8429251  86.1990738  54.5076036
  79.2866898  88.1435680  54.0402174  79.8091555  89.0000057  53.6140347
  78.5327911  87.7529812  53.3567047  78.5416794  88.5649967  55.2777386
  77.8188229  87.7677441  55.4508400  79.2640638  88.5051537  56.0917902
  77.8458929  89.9442196  55.2259731  77.3014069  90.1236248  56.1530399
  78.6603355  90.6612301  55.1225901  77.0484686  90.1509857  54.0320158
  76.4968777  89.3820095  53.6791420  77.1556664  91.1661243  53.1725931
  77.9353619  92.2009754  53.3710766  78.6531687  92.2440815  54.0802956
  77.8812981  92.9351711  52.6796007  76.3957405  91.1347198  52.1177244
  75.6043386  90.5084515  52.0781040  76.4425039  91.9271088  51.4931917
  81.0574150  86.7302322  52.7987146  82.1066093  87.3293591  52.4449968
  80.4506779  85.9699249  51.9471025  79.7547722  85.3027153  52.2482014
  80.8430290  85.7884026  50.5560637  81.2063026  86.7511272  50.1964664
  81.9547272  84.7108555  50.4887676  82.3340321  84.7288990  49.4670534
  82.7706718  84.9071121  51.1843443  81.4871979  83.2949448  50.8455372
  80.9039879  82.4805737  49.8893690  80.6420040  82.8559494  48.9111805
  80.7024384  81.0847855  50.0822449  80.1555347  80.5371952  49.3289566
  80.9825802  80.5357647  51.3531303  80.5821037  79.5572472  51.5734100
  81.5401554  81.3494873  52.3555136  81.6908741  80.9047604  53.3280897
  81.8238163  82.6829720  52.1024179  82.3035145  83.2846355  52.8602409
  79.6745300  85.4647636  49.5845318  78.5976076  85.0320816  50.0265932
  79.8587990  85.6489944  48.2498693  80.7459450  85.9815693  47.8999186
  78.9403725  85.2974796  47.2215843  77.9670715  84.9643517  47.5818872
  78.4993219  86.5152550  46.4743853  78.1767511  87.2255611  47.2356462
  79.3299437  86.9174194  45.8943558  77.4232817  86.2751484  45.3798676
  77.9034853  85.6764317  44.6058941  76.5611744  85.7556534  45.7981873
  76.9148731  87.6389599  44.7234154  77.0439100  88.3568287  45.5334234
  77.6554203  88.0610561  44.0440559  75.4542255  87.6677990  44.2040396
  74.8855114  87.0176220  44.8688316  74.9384356  88.6241341  44.2904949
  75.3707170  87.1405029  42.8639221  75.9895802  86.3523388  42.7377844
  74.4425726  86.7868900  42.6805830  75.5974960  87.8988075  42.2365141
  79.5677805  84.2016792  46.3644123  80.7562733  84.4104862  46.0647678
  78.8446999  83.1246853  45.9586048  77.8756142  83.0995750  46.2420559
  79.2218399  81.9173145  45.2519846  80.1639652  81.5846348  45.6876755
  78.2477760  80.7584381  45.5184507  77.2060013  81.0741615  45.4625416
  78.4428120  79.5710802  44.5839834  79.4912815  79.2805195  44.6502352
  77.8649235  78.7265921  44.9594498  78.0703926  79.8249626  43.5915375
  78.3296013  80.2372742  46.9555855  78.1240177  80.9435654  47.7599382
  77.5618601  79.4679880  47.0384598  79.2549849  79.6795893  47.0996857
  79.3941450  82.1552563  43.7672997  78.4997654  82.8213024  43.1492615
  80.6006145  81.8220329  43.1874847  81.2968445  81.3966179  43.7827826
  80.9149933  81.9670296  41.7750263  80.1742840  82.5955105  41.2805939
  82.2408009  82.7345657  41.6362143  83.0714607  82.0611954  41.8475962
  82.3186874  83.0575657  40.5980873  82.4834728  83.9977360  42.4641037
  82.6370811  83.5713863  43.4554338  83.8213348  84.6454239  42.0489264
  84.7401524  84.1537476  42.3684978  83.8289547  84.8923302  40.9872866
  83.9703369  85.5737877  42.6003408  81.3761806  85.0180435  42.5129175
  81.0793209  85.1714706  41.4754057  80.5105495  84.7263432  43.1076288
  81.6802311  86.0003281  42.8745413  80.9117889  80.6516457  41.0591316
  80.3003025  80.6034565  39.9855518  81.4451504  79.5938683  41.6264963
  81.7983818  79.8088312  42.5479746  81.4735603  78.2343483  41.0579777
  80.4554462  77.9978943  40.7487297  82.3701096  78.1616592  39.8846602
  82.2591972  79.0715027  39.2947602  83.4384918  78.0970907  40.0907946
  82.0490837  76.9405222  39.0626812  82.1521091  76.0403299  39.6685958
  80.9871578  76.9762421  38.8194990  82.9167366  76.8972778  37.8156257
  82.4291897  77.2188330  36.7001462  84.1357613  76.6672468  37.9875112
  81.8401432  77.1942949  42.2120142  82.8616142  77.2491407  42.8717470
  80.9469986  76.2780619  42.4949789  80.1061344  76.2326050  41.9373178
  81.2514687  75.0900507  43.3933163  81.9595337  75.3927755  44.1647530
  79.8910189  74.5452738  43.9567327  79.2143965  74.3903017  43.1163359
  80.0889111  73.6186934  44.4956017  79.2266798  75.5138636  44.8686457
  78.9910698  76.3915491  44.2667675  77.9497051  74.8797798  45.4371929
  77.3575258  74.4610548  44.6234989  78.2356167  74.1143894  46.1586714
  77.3220110  75.6294155  45.9190035  80.1082993  76.0169983  45.9872293
  80.7647896  76.7626810  45.5388117  79.5092058  76.4561701  46.7849255
  80.6104946  75.1088285  46.3205767  82.0442677  74.0612030  42.5500727
  81.8668842  73.9563942  41.3433504  83.1456757  73.5381365  43.2295513
  83.4849358  73.8806581  44.1170645  84.0431881  72.6941729  42.5749350
  83.6904430  72.3168468  41.6150951  85.3882313  73.3617878  42.3136091
  85.9167671  73.6726379  43.2147837  86.0179329  72.5621367  41.9235611
  85.2053452  74.5217657  41.2506199  84.6111679  74.0594578  40.4623795
  84.5471478  75.2409744  41.7380857  86.5635204  75.1335144  40.9060097
  86.9789314  75.5689144  41.8148327  87.2167301  74.3345976  40.5550766
  86.3320732  76.0322809  39.7730923  85.4822445  75.8606243  39.2549872
  87.1402359  76.8880987  39.2416096  86.6655827  77.7326012  38.3976841
  85.7235432  77.4741983  38.1409812  87.1780205  78.3439112  37.7781606
  88.3860302  77.0064640  39.6239924  88.8164711  76.3951015  40.3030157
  88.9882469  77.6851702  39.1803789  84.3486881  71.4378691  43.5056305
  84.3066788  71.5775967  44.7299242  84.6896267  70.3113270  42.8122234
  84.5028114  70.2473068  41.8217182  85.0986576  69.1988325  43.6640692
  84.4299793  69.0529060  44.5124006  85.1909256  67.9221106  42.7642250
  85.6787205  67.1763515  43.3919191  83.9031410  67.4903202  42.0848942
  83.2243824  67.2463179  42.9021168  83.4239101  68.3551359  41.6260529
  84.0223885  66.6698933  41.3772345  86.0810947  67.9725266  41.7533731
  86.3795090  67.0640659  41.6682434  86.4735413  69.4476461  44.1893005
  87.1125031  70.4635286  43.8655186  87.0357227  68.5523558  45.0006199
  86.4162159  67.8133106  45.3008223  88.3251953  68.7218428  45.7011747
  88.9875317  69.2196178  44.9929142  87.9065418  69.6649504  46.8971539
  87.4291801  70.5735826  46.5302658  87.1875286  69.1302299  47.5178051
  88.9200783  70.1757669  47.8873205  89.7593784  69.4844055  47.9627752
  89.2442799  71.1434650  47.5044870  88.3880615  70.3360605  49.3289471
  87.7085972  69.4330883  49.8931742  88.5701942  71.5176392  49.8970318
  88.0948639  71.5295267  50.7881117  89.3578815  72.1118641  49.6812677
  88.8667393  67.4091244  46.2052917  88.2303238  66.5910244  46.8986464
  90.1364136  67.2289515  45.8910322  90.5884647  68.0235386  45.4616404
  90.8306980  65.9980774  46.0493946  90.3476810  65.5055571  46.8933249
  90.7162094  65.1801682  44.7277546  89.7975159  64.5935774  44.7235823
  90.6980801  65.9571838  43.9635420  91.7809868  64.2814064  44.5420218
  92.5427246  64.8531628  44.6622324  92.2531796  66.2476921  46.4097166
  92.9973793  66.7978811  45.5751848  92.8182507  65.9384060  47.6110649
  93.8072109  66.0864067  47.7529907  92.1151829  65.5077648  48.8542604
  91.7294121  64.5195770  48.6037350  93.0725098  65.3557873  50.0388098
  93.7384701  66.2172174  50.0891542  92.5213718  65.2961874  50.9773207
  93.9011002  64.0745449  49.8834515  94.2058086  63.5113811  50.9597683
  94.1520977  63.6162615  48.7387609  90.9339809  66.3863420  49.3953943
  91.1201763  67.5671053  49.6799994  89.7709179  65.8230448  49.6759748
  89.6439648  64.8453951  49.4564581  88.6637878  66.4142227  50.4215908
  88.6972713  66.1405611  51.4761448  88.7212944  67.5025654  50.4041100
  87.3084641  65.8962727  49.9069643  87.0567417  64.7260857  49.7966337
  86.5086269  66.8658066  49.5369720  86.8961430  67.7854538  49.6925020
  85.1498222  66.6794968  49.0119553  85.1754189  65.7776070  48.4003687
  84.0762329  66.2398100  50.0475502  84.3515015  65.3485012  50.6113720
  83.7321281  67.3189640  51.0231161  83.2879257  67.0690727  51.9866133
  84.6984482  67.7531433  51.2796545  83.1226635  68.0383778  50.4762173
  82.7973461  65.7116461  49.3360281  82.5627804  66.4400291  48.5597944
  83.0313873  64.8432779  48.7201929  81.5838909  65.4899693  50.2786732
  81.1324692  66.4805174  50.3346491  80.9687901  64.6698761  49.9082756
  81.8699837  65.2554321  51.3039780  84.7748184  67.8080654  48.0597067
  84.4181824  67.5257492  46.8800545  84.7871876  69.0632439  48.5115194
  85.1040936  69.2026949  49.4603252  84.2093563  70.3008509  47.9128885
  84.4447041  70.2052546  46.8528986  82.6715755  70.2645969  48.1090784
  82.2734165  69.2503548  48.0793762  82.4320889  70.6135941  49.1135406
  81.8163204  71.0182047  47.1130085  82.1528053  72.0549631  47.1111441
  82.0865536  70.7451487  46.0929489  80.2974033  70.8898163  47.3458052
  79.8569107  70.5579138  48.4379005  79.5023775  71.2730503  46.3625431
  78.5036898  71.1896992  46.4881372  79.8814440  71.3013220  45.4268026
  84.7970486  71.5947199  48.4069729  85.2059174  71.7165422  49.5750237
  84.8694038  72.5110388  47.4508905  84.4911766  72.3875570  46.5225601
  85.3398705  73.9225054  47.7072287  85.1648998  74.2793036  48.7222099
  86.8162060  74.2229080  47.5597715  87.0428276  75.2664042  47.7785254
  87.2312450  73.6085176  48.3587503  87.2429752  73.8515186  46.1591530
  86.6752815  73.0241299  45.7334137  87.0827770  74.6902657  45.4817009
  88.7281704  73.3756828  46.0123348  89.5475864  73.8532543  46.7985392
  89.1572857  72.6678753  45.0027943  90.1509094  72.5016880  45.0748348
  88.5993767  72.2916794  44.2495871  84.3991375  74.7968769  46.8581581
  83.7892342  74.3671322  45.8195972  84.2177773  76.0328102  47.2818899
  84.6855831  76.3007116  48.1359863  83.5394669  77.0145416  46.5606880
  83.0409622  76.5543318  45.7075739  82.5371742  77.7938557  47.4099064
  81.7964458  77.1008873  47.8089237  83.0187702  78.2176113  48.2911539
  82.0082283  78.5585451  46.8410683  84.6635723  77.9774380  46.0640478
  85.6249046  78.2318830  46.7639780  84.4616985  78.5024691  44.8792553
  83.7946129  78.0543137  44.2674875  85.1067162  79.7015905  44.3465757
  86.0080719  79.9625397  44.9011707  85.3209019  79.5800400  42.8041172
  85.7776070  78.6141872  42.5881386  84.3154144  79.6075153  42.3841906
  86.1132908  80.7787132  42.1744442  85.6408215  81.7359161  42.3949718
  87.0554447  80.8952808  42.7100372  86.4884663  80.6551933  40.7610178
  87.2537231  79.9067545  40.5552769  85.6398773  80.3781128  40.1355457
  86.9013882  81.9833088  40.0852489  86.0615540  82.6698112  40.1925373
  87.7690411  82.3648930  40.6234598  87.2498608  81.8734741  38.6181974
  87.8734112  81.1134911  38.3864594  86.3997364  81.7494488  38.0871606
  87.6151085  82.7406693  38.2512021  84.1888428  80.8592892  44.6139050
  83.0036736  80.7835960  44.2821980  84.6620750  81.8309212  45.3288555
  85.6048584  81.7864513  45.6884098  83.8401985  82.8841305  45.8911562
  82.8464413  82.8335762  45.4461956  83.7017441  82.6862431  47.3933506
  82.8927898  83.2916069  47.8022814  83.4466076  81.2141228  47.8383446
  82.5342083  80.8584785  47.3596573  84.3333435  80.6195450  47.6186085
  83.2939911  81.1952686  48.9174461  84.8517418  83.1135941  48.2817984
  84.7260666  83.0486107  49.3625784  85.6866741  82.4373817  48.0981255
  85.2204227  84.1244221  48.1074524  84.3280315  84.3233585  45.6219578
  85.4593372  84.5866013  45.1757383  83.5448742  85.3106594  46.0581493
  82.6358318  85.0342655  46.4007282  83.8699150  86.7147446  46.1503029
  84.9240017  86.9334888  45.9795856  83.0053711  87.4859619  45.0861406
  83.2970142  87.3381805  44.0463305  81.9961548  87.1238232  45.2822018
  83.1145096  88.9813709  45.2588940  82.6277924  89.2914677  46.1835814
  84.1335773  89.3623543  45.1920891  82.3990822  89.6529675  44.0915585
  82.3107433  89.2116451  42.9212904  81.7965508  90.8035278  44.3504190
  81.2996197  91.2358761  43.5847569  81.9181824  91.3341808  45.2011347
  83.5034847  87.1483898  47.5709391  82.3184681  87.0102882  47.9124546
  84.4184208  87.6469707  48.3876371  85.3507900  87.8267479  48.0434275
  84.1260815  88.1546593  49.7663975  83.5296154  87.3262405  50.1485729
  85.4469585  88.1990719  50.6011438  86.1033058  88.9801693  50.2174568
  85.1790047  88.6473942  52.0539618  84.8873425  87.8440857  52.7305317
  86.1325264  89.0168476  52.4313068  84.6613503  89.6043587  52.1199608
  86.2851238  86.8111134  50.4925251  86.5673351  86.5259457  49.4790459
  87.2238350  86.9199848  51.0357237  85.5745697  85.4966164  51.0178947
  84.7813416  85.3370094  50.2875376  86.3032532  84.6864986  51.0465002
  85.1010895  85.5185223  51.9994450  83.2476234  89.4195938  49.7328901
  83.4530067  90.3350163  48.8770103  82.2538185  89.5009899  50.5929327
  82.1450424  88.7900066  51.3019991  81.4066315  90.6609917  50.8212614
  81.5348721  91.3768387  50.0093412  79.9557829  90.1371002  50.9179211
  80.0781822  89.1935253  51.4496994  79.4692564  90.8004093  51.6330576
  79.1200733  90.0521564  49.6539450  78.7978220  91.0688305  49.4289494
  79.8847294  89.4838142  48.4173298  79.1732740  89.2625904  47.6217222
  80.6625080  90.1881886  48.1223631  80.4322815  88.5888195  48.7127352
  77.9646683  89.1087532  49.8929071  77.3629284  88.9755344  48.9938736
  78.3031750  88.1411648  50.2634287  77.2558403  89.5428848  50.5980301
  81.7457867  91.4497852  52.1128702  82.4917603  90.9263325  52.9566765
  81.2976074  92.7360344  52.1618509  80.6575012  93.4978580  51.0755157
  79.5926428  93.2650757  51.0760689  81.2322235  93.4652138  50.1499176
  80.7118130  94.9918365  51.5524626  79.8011923  95.4902649  51.2201357
  81.4911556  95.6132317  51.1113405  80.6662750  94.9211407  53.0743408
  79.6401691  94.6631622  53.3363867  81.0341549  95.7884693  53.6225176
  81.5745068  93.6653042  53.2666492  82.6331234  93.9225101  53.2308197
  81.3352776  93.2076454  54.6521091  82.2392750  93.4680843  55.4683352
  80.3395176  92.5239754  54.9786758  62.2815084 105.6878662  70.1511621
  61.6223955 105.9438515  70.8723688  61.9248486 105.6442451  69.2072344
  63.0335188 106.3612175  70.1167679  62.8279400 104.4079781  70.4527617
  63.3477831 104.3689156  71.4100170  61.6785526 103.3751583  70.4544497
  60.9162140 103.6837387  71.1697865  61.3450861 103.3406353  69.4172859
  62.1591711 102.0416164  70.9904623  62.8399134 101.6396523  70.2400589
  62.7114296 102.1453285  71.9244671  61.0266972 101.0604858  71.0642433
  60.2519941 100.8179760  70.1403761  60.9737253 100.3910542  72.1304750
  63.9229631 104.1308975  69.4468021  63.7187195 104.5335579  68.2904053
  65.0312185 103.5916138  69.9291754  64.8790455 103.1076336  70.8025074
  66.2896156 103.2990456  69.2678547  66.2789249 103.6917877  68.2511234
  67.4929857 103.9380836  70.0046396  68.3932734 103.8185215  69.4018984
  67.4525213 105.3806877  70.4436159  68.4622288 105.7817364  70.5316305
  66.9663620 105.9565735  69.6561527  66.9265699 105.5318165  71.3862896
  67.8603315 103.1707191  71.1288881  67.4402571 103.5277271  71.9148159
  66.4688826 101.7336845  69.1818714  65.7776594 100.9849930  69.8496532
  67.3278809 101.3413429  68.2271338  67.8911114 101.9606972  67.6620960
  67.5303745  99.9419975  67.9917526  66.5968466  99.4413757  67.7348375
  68.5077190  99.8177433  66.8303871  68.1598186 100.5256176  66.0780811
  69.5178413 100.0701523  67.1529436  68.6090231  98.4195518  66.1900711
  68.7204885  97.5966930  66.8961716  67.4292517  98.1589317  65.3211260
  66.5056944  98.4817028  65.8017159  67.5229502  98.7611675  64.4174480
  67.4988890  97.0911407  65.1136255  69.7880220  98.4531498  65.1757860
  70.0151587  97.5012207  64.6958447  69.7146511  99.2692852  64.4570112
  70.6091261  98.8425064  65.7776880  68.0744457  99.2716122  69.2570496
  67.6786852  98.2077599  69.6431589  68.8489103  99.9590015  70.0487804
  69.0262794 100.8979511  69.7216606  69.3881178  99.4748116  71.3408089
  69.9092102  98.5343266  71.1618185  70.5109882 100.4063606  71.8670988
  71.3328838 100.5330086  71.1624384  70.0491381 101.3857746  71.9917679
  71.2121725  99.8854637  73.2437468  71.9697189 100.6358337  73.4699535
  70.3728867  99.8533344  73.9384937  72.0029354  98.2777214  72.8762579
  73.6588621  98.8238239  72.3228741  74.0736341  99.5187092  73.0530739
  74.3133640  97.9532909  72.3666620  73.5355186  99.2339897  71.3205528
  68.3801651  99.1571331  72.4244404  68.3934069  98.0865860  73.0211306
  67.3201847 100.0077152  72.5554180  67.1871901 100.7819462  71.9206142
  66.1317348  99.7407913  73.3747435  66.4625597  99.6200752  74.4062853
  65.2769661 101.0003662  73.3107042  64.8120260 101.0201550  72.3250389
  64.5330286 100.9423161  74.1052437  65.9061289 102.3361778  73.5274887
  66.7349100 102.3711014  74.4560051  65.4895592 103.4251213  73.0063725
  65.4038239  98.4665966  72.9888058  65.1421499  97.5407791  73.7957287
  65.0823689  98.3340931  71.6875553  65.3057098  99.0913868  71.0576963
  64.5894814  97.0445538  71.1510229  63.6380148  96.8109608  71.6287851
  64.2428541  97.2234631  69.6244860  65.1145267  97.6147652  69.0999174
  63.9699650  96.2903023  69.1316938  63.2546568  98.3920670  69.4193697
  62.3136187  98.0955315  69.8826265  63.5358715  99.2387581  70.0455713
  62.9639196  98.7965202  67.9685450  62.2971535  99.6582985  67.9393959
  63.9369392  99.0287209  67.5356293  62.4190617  97.6286221  67.1519709
  62.0246267  96.8386173  67.6422930  62.0583248  97.6203728  65.9042645
  62.5043154  98.4311771  65.0031853  63.1080675  99.2229176  65.1726723
  62.0317984  98.3673668  64.1128159  61.1309528  96.8099689  65.5526066
  60.6877375  96.2404633  66.2592316  60.7092285  96.9913673  64.6529722
  65.5305719  95.7984734  71.2600040  64.9873734  94.7547245  71.5487814
  66.8606663  95.9454250  71.1323500  67.2691298  96.8374729  70.8924961
  67.8971481  94.9123001  71.4352083  67.7285242  94.0127659  70.8431816
  69.3503094  95.3851700  70.9980583  69.5234537  96.3609600  71.4518881
  70.3401136  94.3237495  71.4514256  71.3555765  94.7056293  71.3460016
  70.2250957  94.0312672  72.4951315  70.2911234  93.4288883  70.8309889
  69.5152903  95.5708027  69.4679594  69.5576811  94.6457672  68.8929558
  68.6838961  96.1812115  69.1154385  70.7854605  96.3187981  68.9785004
  70.5864954  96.6506386  67.9594851  70.9924793  97.1917439  69.5975351
  71.6535473  95.6639481  68.9029360  67.8030348  94.5488358  72.8697157
  67.5517607  93.3795452  73.1587076  67.7815914  95.5060863  73.8313913
  67.8086567  96.4653301  73.5163832  67.5217485  95.2579117  75.2806902
  68.2164669  94.5114613  75.6657648  67.7261066  96.5462971  76.0863113
  67.1933508  97.3679352  75.6075811  67.2248316  96.5171909  77.0537710
  69.1258097  97.0845318  76.3512993  69.7305965  96.2773037  76.7644739
  69.5629025  97.2729874  75.3707266  69.1723251  98.5351181  76.9499826
  68.5339785  99.1731358  76.3387966  68.8624144  98.4548283  77.9919052
  70.6416941  98.9047241  76.8934584  71.1807394  98.3481979  77.6601458
  71.0132980  98.5051537  75.9498692  70.7780266 100.3620720  77.0376539
  70.6528044 100.6116486  78.0082846  71.6498661 100.7686329  76.7299223
  70.0240278 100.8736229  76.6018772  66.2389803  94.5788288  75.6702805
  66.1540461  93.6533451  76.4473534  65.1561213  95.0585175  75.0759554
  65.2752638  95.8811283  74.5021772  63.8519049  94.5069885  75.3812313
  63.6213493  94.5326519  76.4462614  62.7062941  95.4949474  74.8324347
  62.8853750  96.4582348  75.3100491  62.8101826  95.6496811  73.7584829
  61.3053226  95.0522137  75.1654577  61.0735607  94.2090130  74.5147705
  61.2463474  94.6983433  76.1947346  60.1212358  96.0539627  75.0120258
  60.4460430  97.0724201  74.7990513  59.4686699  95.7774639  74.1838932
  59.2171669  96.1661148  76.2671709  58.7148619  95.2459621  76.5656900
  59.7535038  96.5536976  77.1333170  58.1671000  97.2479725  76.1438942
  58.5145855  98.1121731  75.7533550  57.3384380  97.0022106  75.6213808
  57.7552032  97.4874783  77.0344496  63.6027288  93.1002045  74.8809290
  63.0020618  92.3251438  75.5970097  63.9065313  92.7945805  73.6015463
  64.3962288  93.5325241  73.1160212  64.0089226  91.4142895  73.1318855
  63.0206728  91.0130405  73.3565187  64.2073393  91.3156796  71.5889645
  63.4810114  91.9716930  71.1091757  65.2173758  91.6545677  71.3585663
  63.9375830  89.8175049  71.1165619  64.2216444  89.6086693  70.0851583
  64.6473742  89.2810822  71.7462873  62.4820709  89.4030380  71.3644934
  61.5387630  89.6918201  70.7244158  62.3551321  88.7692547  72.4973297
  61.4638758  88.5332584  72.9097176  63.1682682  88.4125423  72.9786539
  64.9428940  90.4795837  73.9751911  64.5641375  89.3150520  74.2191458
  66.1674166  90.7601833  74.2852688  66.5665007  91.6359520  73.9789200
  66.9442701  89.9670315  75.2089643  66.9895172  88.9654160  74.7813892
  68.4562111  90.4430294  75.3591347  68.3750391  91.4608955  75.7405138
  68.9274120  89.7059631  76.0093737  69.0985537  90.4903030  73.9636374
  68.4237003  91.0934830  73.3563089  70.4641914  91.0943890  73.9308023
  71.2241554  90.3937817  74.2768049  70.8081579  91.3092422  72.9190588
  70.5665684  92.0084763  74.5156670  69.1262484  89.1026878  73.3340788
  69.7716236  88.4141636  73.8795471  68.1109667  88.7097454  73.2802677
  69.6578979  89.1660690  72.3846388  66.2048578  89.7621346  76.6364765
  66.1988878  88.6506653  77.1506786  65.5242825  90.8291340  77.2226858
  65.6935644  91.7656803  76.8845606  65.0046873  90.8315754  78.6011887
  65.7790661  90.5105591  79.2978859  64.6775293  92.3010826  78.9007616
  65.5300188  92.9026985  78.5854578  63.7847710  92.5378513  78.3219528
  64.4461775  92.5528240  80.4312038  63.5792160  91.9804478  80.7611561
  65.3477526  92.1328545  80.8771801  64.2755127  94.0331841  80.6521511
  64.9016142  94.6855545  80.0434494  63.2286406  94.1791630  80.3859520
  64.4089746  94.3565369  82.0357990  64.4130135  93.5233307  82.6066303
  64.3800974  95.5369091  82.5407124  64.6524858  95.7067680  83.7662315
  64.8153830  94.8610783  84.2938519  64.8245478  96.6329765  84.1304111
  64.1521645  96.6303253  81.8808460  63.7452078  96.5196037  80.9631157
  64.1522646  97.5313377  82.3372173  63.8916159  89.7868443  78.7509394
  63.5096169  89.4979954  79.9014664  63.2572889  89.4334030  77.6356649
  63.8096094  89.7448921  76.8495226  62.2240114  88.4429741  77.4282408
  61.4637613  88.7226391  78.1575584  61.5525103  88.6977673  76.0858536
  61.5229893  89.7780800  75.9439135  62.2329235  88.4053898  75.2860737
  60.1312447  88.1271267  75.9622288  60.2087593  87.0562553  75.7742691
  59.6555328  88.1800747  76.9415092  59.3102312  88.7760830  74.7734642
  58.3168888  89.5442200  75.0289249  59.6290207  88.5572338  73.6121225
  62.6452208  86.9653606  77.6824093  61.9556379  86.0827923  78.1908035
  63.9031506  86.7376328  77.4049616  64.4049597  87.5999069  77.2476101
  64.6654463  85.4599857  77.3017645  64.0112019  84.6110535  77.5002003
  65.3307867  85.2999210  75.9509230  66.0471106  86.1093426  75.8101177
  65.7941389  84.3163490  76.0283613  64.4241476  85.4599190  74.7450161
  63.1099749  85.1680183  74.6465492  62.5379896  84.7928429  75.4822922
  62.6553679  85.4185200  73.3659983  61.7049360  85.2513885  73.0679226
  63.5947323  85.7099438  72.4699974  63.7037134  85.8787632  71.0517883
  62.8935242  85.7776642  70.3448343  64.8663568  86.3073158  70.4739141
  64.9418688  86.3814640  69.3991137  66.0417604  86.5833092  71.2709618
  66.9586372  86.8585777  70.7709932  65.9292364  86.4649582  72.7012205
  66.8255281  86.6122246  73.2855034  64.7700596  85.9146214  73.3408880
  65.8390236  85.3506756  78.3086538  66.3329935  84.2364597  78.5852528
  66.2357998  86.4311028  78.9777994  65.8534145  87.3098850  78.6590052
  67.0590067  86.4599705  80.2162743  66.5573835  85.7424927  80.8656597
  68.5030127  85.9794807  79.9526358  68.4831285  84.9354076  79.6402121
  68.9346457  86.4426613  79.0653610  69.5310688  85.9263992  81.0550690
  70.6903028  85.4445744  80.8785629  69.1938496  86.4391899  82.1236134
  67.0446777  87.9531860  80.7336807  67.3989582  88.8616943  80.0048256
  66.6749287  88.1454182  81.9787407  66.3447952  87.3200893  82.4582481
  66.6851377  89.5120335  82.6587009  66.0367012  90.1557922  82.0643806
  66.0489655  89.3747425  84.0282345  65.0403786  89.0021706  83.8492489
  66.6069603  88.7072372  84.6848869  65.6817722  90.6500053  84.8499298
  64.9531126  90.2360821  85.5469418  66.5688705  91.0031605  85.3757095
  64.9674559  91.8943596  84.1444874  64.0680695  91.7484474  83.2830429
  65.3952265  93.0053043  84.4621277  68.1169844  90.1324940  82.8071499
  68.2238674  91.3762474  82.9287434  69.1092253  89.2345428  82.9288864
  68.8921452  88.2515621  82.8468990  70.5219078  89.6668816  83.0416965
  70.5834913  90.6162071  83.5737705  71.2912178  88.6549854  84.0112877
  71.2662506  87.6556587  83.5767365  72.3264074  88.9959908  84.0254974
  70.8497047  88.6654663  85.4747772  71.0420418  89.6844959  86.1308384
  70.1555395  87.6106167  85.9582424  69.9248075  87.7418041  86.9327450
  70.1254845  86.7116261  85.4988956  71.2703514  90.0832748  81.7471313
  72.0611715  91.0225964  81.7581940  70.9407234  89.4646454  80.5860615
  70.2630711  88.7325478  80.7439423  71.6570139  89.5979977  79.2441654
  72.7077675  89.4369125  79.4851303  71.3234043  88.4351826  78.2795382
  71.3424110  87.5253582  78.8795137  70.3023434  88.6836624  77.9900599
  72.1224356  88.1760406  77.0488262  72.1660852  89.1066742  76.4830303
  73.5232639  87.8620243  77.2574472  74.2158222  88.5748005  77.7051115
  73.6575508  86.9598198  77.8541851  73.9294910  87.7123356  76.2571096
  71.5404606  87.0261478  76.1895895  71.8248129  86.1191082  76.7230034
  70.4508448  87.0248890  76.2184143  71.9923115  87.0412636  75.1977730
  71.5621281  91.0433674  78.6443853  72.3423243  91.3926411  77.7912998
  70.5898142  91.8265438  79.1520309  69.9108934  91.4637661  79.8059130
  70.3708696  93.2932186  78.9066029  70.2003193  93.3894253  77.8343344
  69.1085911  93.7645531  79.6818161  68.8778830  94.7307205  79.2330408
  68.2631445  93.0921268  79.5363426  69.2715836  94.0221786  81.1831570
  69.6218824  93.1683731  81.7631721  70.0629711  94.7595024  81.3179111
  67.9707813  94.6378326  81.7858696  67.6904774  95.4509544  81.1162758
  67.1467638  93.9368725  81.6526508  68.1942415  95.1477623  83.2223320
  69.1656303  95.6231785  83.3583164  67.4048471  95.8542633  83.4788704
  68.1436968  94.0285683  84.2113018  68.4873772  93.1628323  83.8208008
  68.5727835  94.1464901  85.1179886  67.1950006  93.8122177  84.4819927
  71.5979099  94.1815662  79.1590500  71.5116787  95.3821850  78.9267921
  72.7053499  93.6769199  79.7947550  72.7707005  92.6820660  79.9563169
  73.9749050  94.4201374  79.8638773  73.7537384  95.3392220  80.4065418
  75.0577879  93.7397957  80.6493187  74.6873522  93.5993290  81.6647816
  75.3667593  92.8588295  80.0866890  76.3185930  94.6584225  80.7182026
  77.4410200  94.1397858  80.8150291  76.1546278  95.8895302  80.6771183
  74.4057751  94.7534180  78.4407806  74.4317293  93.8349247  77.5571012
  74.7329855  95.9951878  78.2092667  74.5121336  96.6493130  78.9464521
  75.1637697  96.5136051  76.9183779  75.3126001  95.7128239  76.1940145
  74.1340256  97.4658108  76.3575554  74.3809748  97.7124500  75.3249454
  73.1980228  96.9092369  76.3103342  73.9527893  98.8078499  77.0740891
  73.7821150  99.8200512  76.3996267  73.9756489  98.8323116  78.2922602
  76.5892649  97.0614529  77.0449305  76.9423342  97.9763508  76.2836552
  77.3782635  96.6897106  78.0228090  77.0037079  95.9574032  78.6089373
  78.7676859  97.1771812  78.2522964  78.8152075  98.2306576  77.9765511
  79.0672827  97.0977592  79.7477961  79.1951609  96.0438824  79.9949694
  79.9302101  97.7114201  80.0063992  78.0734158  97.6895714  80.5771732
  77.4030399  97.0163918  80.4392242  79.7924471  96.2903786  77.4677563
  80.8116245  95.9081268  78.0623817  79.5119381  96.0179806  76.2045431
  78.6039829  96.3080025  75.8704805  80.2743053  95.1178551  75.3544950
  80.7379150  94.4784641  76.1057281  79.3269539  94.2529678  74.5260096
  78.9307404  94.7819424  73.6592340  79.9525023  93.4897709  74.0630531
  78.1936264  93.5522652  75.3170395  77.5905466  94.3454266  75.7589722
  77.3336601  92.7239513  74.3149042  76.8038654  91.8519211  74.6982765
  76.5999603  93.4417820  73.9481592  78.0569649  92.3951721  73.5686874
  78.6198044  92.6006985  76.4488792  79.4272566  91.9287777  76.1579609
  78.9990234  93.1622791  77.3026562  77.8056192  92.0090008  76.8673182
  81.3043404  95.9190083  74.5137787  80.9047604  96.8656445  73.8304663
  82.5546169  95.4424953  74.3373442  83.1228828  94.4395447  75.1645756
  83.1075001  93.4736538  74.6596813  82.8544521  94.5202351  76.2179184
  84.5419407  94.9623680  75.2616549  85.1611614  94.1384983  75.6164885
  84.7059727  95.7897758  75.9520149  84.8972511  95.3286171  73.8842487
  84.9977875  94.4562531  73.2385206  85.7988739  95.9407997  73.8638544
  83.6018944  96.0665989  73.4920883  83.6736488  97.1165371  73.7759733
  83.5222721  96.0414886  71.9348478  84.1826344  96.8011475  71.2608814
  82.6898003  95.1105118  71.4011335  82.1241760  94.5775032  72.0461655
  82.4759865  94.8482609  69.9746370  83.5118580  94.6401596  69.7067690
  81.4934158  93.6486244  69.8378611  80.9248924  93.5474110  68.9133930
  82.0615578  92.7357292  70.0165796  80.4372406  93.5857010  70.8497477
  80.1124287  92.6827431  70.8218527  82.0479298  96.0183334  69.1467667
  81.2817955  96.8515682  69.6033621  82.5407410  96.1043453  67.9130077
  83.0540657  95.3618050  67.4599886  81.9868851  97.1321392  66.9786167
  82.2043514  98.0638695  67.5008106  82.7727413  97.0986366  65.6425571
  83.8495636  97.1120167  65.8110237  82.4588108  96.1845589  65.1385546
  82.3764133  98.1813240  64.6270895  81.3012123  98.7370968  64.6441889
  83.2048225  98.3820152  63.6102390  82.9998207  99.0510368  62.8819036
  84.1535568  98.0393505  63.6611986  80.5142212  96.8787193  66.7855215
  80.0845146  95.7769203  66.4093351  79.6668053  97.8948784  66.8985510
  79.9789476  99.2001057  67.3442984  80.6280804  99.6082306  66.5696049
  80.4696369  99.1736317  68.3172512  78.5987520  99.9209976  67.5318718
  78.6943150 100.9827232  67.3045063  78.2246447  99.8013306  68.5486460
  77.6407528  99.2300320  66.5982389  77.7361250  99.6443939  65.5945921
  76.6172123  99.2503452  66.9724798  78.2249832  97.7601910  66.6081190
  77.6989603  97.2005939  67.3815870  77.8829956  96.9882393  65.3653240
  77.0712471  96.0531998  65.2822351  78.5845709  97.3314190  64.2367506
  79.3445349  97.9955769  64.2749310  78.3958912  96.6334152  62.8843689
  77.4218512  96.8736267  62.4581814  79.5650101  97.2291565  62.0054626
  80.5023479  97.2921848  62.5581980  79.7998524  96.3394260  60.7845545
  80.4547501  96.9003773  60.1178169  80.2749348  95.3779984  60.9796667
  78.7946939  96.3014221  60.3646469  79.2156792  98.7335014  61.5620899
  79.1638851  99.1970634  62.5472450  80.0679398  99.2015362  61.0694456
  77.9180145  99.0614319  60.7440090  77.9648733  98.7475204  59.7012377
  77.0730877  98.5228252  61.1730862  77.6162958 100.1003933  60.8767843
  78.5061407  95.1142311  62.8833628  77.5314140  94.4712353  62.4496365
  79.5200539  94.6150875  63.6315060  80.0061798  95.3614712  64.1076469
  79.7898197  93.2351780  63.9387989  79.5708036  92.6051521  63.0767059
  81.2294292  93.0155468  64.4414377  81.1162186  93.5051346  65.4086924
  81.4443684  91.9506741  64.5306349  82.4382019  93.5182190  63.6090660
  83.4551716  93.9207172  64.2058849  82.4808788  93.3392525  62.3760366
  78.8241482  92.6531124  64.9443531  78.3161783  91.5382385  64.6958971
  78.5565519  93.4184170  65.9759665  79.0441084  94.2931175  66.1074829
  77.5471973  93.1058216  66.9934797  78.0069542  92.2570896  67.4998283
  77.4890232  94.2555428  68.0256414  78.4770536  94.3432999  68.4775209
  77.3216581  95.2421856  67.5936317  76.4552164  93.9669514  69.1596317
  75.3548765  94.8406410  69.3250751  75.1937532  95.6587601  68.6386871
  74.4126797  94.5416737  70.3017664  73.5483980  95.1708984  70.4550886
  74.5317936  93.4102726  71.1319399  73.9568090  93.2852840  72.0375729
  75.6448936  92.5331306  70.9424782  75.7136583  91.7176342  71.6472006
  76.6322231  92.8048134  69.9406481  77.4526548  92.1130657  69.8190498
  76.2347031  92.7631187  66.4304686  75.6429768  91.7068863  66.7697001
  75.8589983  93.5370541  65.3811026  76.4704752  94.3071842  65.1506710
  74.6151066  93.3714199  64.7012520  73.8203955  93.5908794  65.4142570
  74.3908739  94.4278812  63.6545801  73.3402491  94.3023777  63.3927870
  74.6956110  95.3763390  64.0969038  75.0382614  94.0042496  62.5470161
  75.9719706  94.2268467  62.5624084  74.3160725  91.9831562  64.1837645
  73.1677771  91.5763664  64.2407799  75.3514814  91.3412189  63.7369299
  76.2220478  91.8334866  63.5959101  75.2439451  89.9617767  63.2677698
  74.3058872  89.8507977  62.7238655  76.3466358  89.6426010  62.2574425
  77.3193645  89.8160076  62.7176905  76.3257408  88.5835934  62.0001888
  76.2276602  90.3078938  60.9089375  76.8427467  91.5964699  60.8003139
  77.4197531  91.9807339  61.6284466  76.6822433  92.3757935  59.6778011
  77.1812725  93.3263683  59.7952271  76.1100054  91.8503380  58.5335398
  76.0746717  92.6037884  57.3917770  76.6637421  93.3565617  57.4807930
  75.6191111  90.4874229  58.5795307  75.1868200  89.9973202  57.7196836
  75.7198095  89.7486019  59.7151518  75.2966499  88.7576008  59.7875977
  75.2252197  88.8893414  64.4451189  74.4842005  87.9242039  64.3373585
  75.8847761  89.1553116  65.6212664  76.5216398  89.9357891  65.6945801
  75.6558895  88.2844734  66.7792606  75.7830191  87.2460747  66.4732075
  76.6520834  88.5902309  67.9477501  77.6541281  88.3020306  67.6300192
  76.6538811  89.6607876  68.1526804  76.2809372  87.8350449  69.1538143
  76.5832901  86.5066147  69.3755531  77.2070932  85.8805943  68.7547779
  76.0177898  86.1115170  70.5535412  75.9683990  85.1268768  70.7729626
  75.1629734  87.0776558  71.0575056  74.1894960  87.1505260  72.0475054
  73.8504362  86.2126541  72.4620390  73.5792351  88.3080101  72.4621296
  72.9271078  88.3498573  73.3220005  73.8813925  89.4583797  71.7140198
  73.2472610  90.3091049  71.9153547  74.7446775  89.4351768  70.6007004
  74.8864317  90.3422546  70.0319004  75.4296589  88.2419395  70.2715254
  74.1676474  88.3372211  67.2131395  73.4964657  87.3404026  67.4850416
  73.5675240  89.5385838  67.1682119  74.1677570  90.3203201  66.9475079
  72.2016478  89.7879696  67.5739241  72.1181965  89.3708801  68.5774994
  71.8281698  91.2676525  67.6389837  71.8829918  91.6891766  66.6352844
  70.3910303  91.5206337  68.0247831  70.2045488  91.0611629  68.9954567
  70.1161003  92.5751972  68.0049133  69.7452307  91.0510826  67.2827768
  72.6602316  92.1347713  68.6492586  72.5485420  91.6787624  69.6329641
  73.7125731  92.2070026  68.3745575  72.1929121  93.1190681  68.6196947
  71.3465309  88.9062119  66.6719532  70.7001829  87.9653072  67.1042681
  71.4248371  89.1649246  65.3880548  72.0503950  89.8943806  65.0771523
  70.5965042  88.4979439  64.4136190  69.5334005  88.7024689  64.5404625
  71.0585260  89.1462612  63.0868244  70.9070969  90.2228355  63.1652403
  72.1295834  89.0177441  62.9305744  70.5101109  88.7376213  62.2380877
  70.8770275  86.9870663  64.3740702  69.8710680  86.2714481  64.1649866
  72.1062899  86.4497280  64.6230459  72.8783035  87.0709324  64.8184776
  72.2964001  84.9988651  64.9610901  72.0587206  84.3546867  64.1145372
  73.7461281  84.8410130  65.5567646  74.4447994  85.3063488  64.8614788
  73.8508797  85.2864361  66.5460682  74.0080023  83.7927532  65.7006550
  71.3066530  84.5350361  66.0241270  70.5748796  83.5375595  65.9010744
  71.2029600  85.3098202  67.1366405  71.7215252  86.1726189  67.2189283
  70.3352499  84.9222183  68.2535315  70.3508902  83.8356972  68.3391190
  71.0161114  85.3662014  69.5931053  71.2652779  86.4270020  69.6202230
  70.4133987  85.1949215  70.4850101  72.2051334  84.5269585  69.8207235
  72.2009325  83.3836555  70.2853394  73.3474874  84.9840450  69.3281031
  74.1976261  84.4391155  69.3483305  73.3858585  85.9187698  68.9474058
  68.8386965  85.3616238  68.1392193  68.0899858  84.9408054  69.0115023
  68.3528423  85.9411621  67.0146227  68.8988924  85.7984066  66.1770391
  66.8823719  85.9548378  66.7421579  66.3348246  85.9151077  67.6838160
  66.5717602  87.3001862  65.9690809  66.9393730  87.3134804  64.9430275
  65.4908371  87.4390030  65.9481001  67.0979023  88.5906219  66.6369104
  68.1584978  88.4154034  66.8172932  66.9628525  89.7123337  65.6466818
  65.8814764  89.8371792  65.5906868  67.4919176  90.6085873  65.9706211
  67.3293018  89.4142723  64.6643496  66.3395452  88.7927628  67.9265022
  66.7034531  89.7001553  68.4084892  65.2808237  88.9754009  67.7425289
  66.4967346  87.9722691  68.6266327  66.3636971  84.7963333  65.8643389
  67.0695162  84.4059658  64.9021578  65.1931858  84.2821407  66.1538839
  64.4418669  84.4486904  67.4068499  64.1230965  85.4909325  67.4215364
  65.0581074  84.2685509  68.2877016  63.3080339  83.4763241  67.3766661
  62.5558567  83.8997936  66.7110872  62.8917217  83.1162453  68.3174801
  63.8710022  82.3172855  66.5455532  63.1295061  81.7411995  65.9920073
  64.4934130  81.6727352  67.1662474  64.7294998  83.1173992  65.5127287
  65.6344175  82.5468063  65.3038120  64.0744305  83.3829689  64.1551113
  62.9145336  83.1516743  63.9925861  64.9034548  83.8820553  63.3231211
  65.8879757  83.9311504  63.5431290  64.5840454  84.3140602  61.9933605
  63.5330200  84.6029091  61.9981241  65.4963541  85.4587078  61.6323519
  66.5543032  85.2695942  61.8142319  65.5844116  85.7522678  60.0748634
  66.0959101  84.9114132  59.6064281  64.5627165  85.6606960  59.7062874
  66.1077309  86.6918087  59.8974276  65.2743292  86.7419624  62.4795866
  65.1043940  86.4573383  63.5179567  66.1666250  87.3667526  62.5189352
  64.1627884  87.6530552  61.9736195  63.2736683  87.0401859  61.8254471
  63.8542652  88.4664440  62.6303673  64.3259335  88.1344318  61.0093737
  64.7213268  83.0776882  61.0620403  65.7281923  82.4114704  61.1408281
  63.6719084  82.7461529  60.3175449  62.9271936  83.4244919  60.3906965
  63.4549618  81.5183067  59.5010471  63.5386133  80.5985451  60.0799608
  62.0062399  81.3732719  59.0350485  61.9490433  80.3187561  58.7651587
  61.3928032  81.5154076  59.9247694  61.6800880  82.2049713  57.7691460
  61.1122990  83.3155823  57.9233217  61.8467999  81.7534351  56.5877962
  64.5029783  81.5314484  58.2879591  65.0708437  82.5781727  57.9300499
  64.6301603  80.3449440  57.6720810  64.2866898  79.5200682  58.1429338
  65.6457567  80.1427841  56.5903616  66.6302586  80.0884628  57.0550203
  65.3950119  78.6884117  55.9812164  64.3657589  78.5604715  55.6460047
  66.0759735  78.6214113  55.1327467  65.8617401  77.5204229  56.8754435
  66.5959740  77.7169752  57.8832769  65.5639982  76.3662577  56.6322470
  65.6577778  81.1133671  55.4590178  66.7052937  81.6617203  55.1119900
  64.4864655  81.6710758  55.0919056  63.5909843  81.4413452  55.4986477
  64.3857050  82.6542377  53.9896822  64.8580647  82.1987724  53.1193161
  62.9868841  82.8543758  53.6382532  62.8890467  83.4916115  52.7593613
  62.4809790  81.9261074  53.3727503  62.2054768  83.5297203  54.6981001
  62.0105267  82.9224110  55.4155779  65.0645304  84.0272427  54.3256330
  65.6553650  84.7283077  53.4988022  64.8721075  84.5352650  55.5794001
  64.2623758  84.0328693  56.2086201  65.5126762  85.6711292  56.0900402
  65.6318283  86.3837624  55.2739143  64.5602083  86.2882900  57.1223879
  64.1697311  85.5012894  57.7675676  65.1328373  87.0112610  57.7033472
  63.3644342  87.0611763  56.5384531  62.7528143  86.3833904  55.9429502
  62.3870754  87.6889324  57.5317669  62.0266342  86.9447041  58.2419205
  62.8638506  88.5051918  58.0744553  61.5020275  88.1686878  57.1138763
  63.8008261  88.2505512  55.6769180  64.2084455  87.7555847  54.7954655
  62.9744816  88.9213657  55.4418182  64.6131897  88.8316536  56.1133575
  66.8707180  85.3567123  56.7500687  67.7061844  86.2294006  56.9914865
  67.2947073  84.1056347  56.8979120  66.6046762  83.3696556  56.9457197
  68.7786055  83.7550068  57.0946026  69.2470503  84.4350338  57.8060961
  68.8814354  82.2950649  57.6327181  68.0031681  81.7139721  57.3515177
  69.8419762  81.9513607  57.2488928  68.9580345  82.3063946  59.1882610
  68.1796551  82.8471947  59.7265673  68.8880014  81.3013077  59.6041727
  70.4363346  82.6891994  59.6527481  71.1882019  82.0838356  59.1464663
  70.6915808  83.7456989  59.5704842  70.5916071  82.3667049  61.0937309
  71.0465908  81.4740372  61.2211704  70.2237511  82.9928493  62.1739435
  69.7083282  84.2124176  62.0993710  69.4976091  84.6264458  61.2025547
  69.6357298  84.7494125  62.9517031  70.3963184  82.4296474  63.2958984
  70.6361771  81.4491272  63.3297777  70.2003098  82.8882790  64.1741610
  69.6227741  84.0413761  55.8079672  70.8440256  84.3738365  55.8703995
  69.0639639  83.9076710  54.5877886  68.2433844  83.3188152  54.5901442
  69.5980597  84.4328117  53.3341503  70.6244659  84.0659714  53.3380318
  68.9632225  83.7568569  52.0711422  68.0144215  84.2191601  51.7988491
  69.8070383  84.1831207  50.8605576  70.8647585  83.9460182  50.9750795
  69.3237305  83.7327576  49.9935627  69.7188807  85.2631664  50.7429171
  68.9287186  82.2318077  52.1442652  68.1983662  81.9374084  52.8979301
  68.5120869  81.8895340  51.1969709  70.2814627  81.5102959  52.4911404
  71.0801220  81.8879414  51.8526840  70.5911350  81.7416763  53.5102844
  70.0855875  80.4383659  52.5176764  69.6982050  85.9541607  53.3719540
  70.7816315  86.4839554  53.0616999  68.5889721  86.6743183  53.6145401
  67.7585125  86.1408138  53.8285971  68.4917927  88.1290913  53.4929037
  68.7655020  88.4539413  52.4890804  66.9922447  88.4815693  53.8020229
  66.3667536  87.9516697  53.0836439  66.6759062  88.1566715  54.7932243
  66.6751146  90.0180054  53.8324118  65.7434845  90.1077461  54.3910789
  67.3956680  90.4913044  54.4994116  66.7476416  90.6994629  52.4283123
  66.8990088  90.0228405  51.4138889  66.4869690  91.9685459  52.4354744
  66.4356613  92.4648190  51.5573025  66.5240431  92.4732494  53.3095455
  69.4771671  88.8273239  54.5253134  70.1274157  89.8235130  54.1791010
  69.7586679  88.1622314  55.6824923  69.0957594  87.5021935  56.0632944
  70.8059025  88.5562038  56.6728115  70.5450916  89.5048332  57.1420336
  70.8349323  87.2793865  57.6731777  69.9319744  86.6969109  57.4901915
  71.6180038  86.5809536  57.3780727  70.8755255  87.5964737  59.2041445
  70.2070045  88.4307766  59.4165564  70.3699303  86.4283466  60.0702333
  69.5012522  86.0303211  59.5457649  71.1632872  85.6809998  60.0824690
  70.1970291  86.8727779  61.0503817  72.3104429  87.8935432  59.5393181
  72.8520107  86.9482136  59.5051861  72.6822472  88.5008907  58.7140989
  72.3171473  88.4453678  60.4792881  72.1582937  88.7096596  55.9489298
  72.8813076  89.5817089  56.3513470  72.5176477  87.8982162  54.9458265
  71.8867493  87.1636105  54.6587229  73.8593674  87.8444481  54.3888760
  74.5952225  88.3708096  54.9967957  74.2832994  86.3233757  54.2675781
  73.6171675  85.8340454  53.5569954  75.2875566  86.2645531  53.8479233
  74.1999340  85.4388523  55.5166531  73.1317234  85.3431988  55.7112789
  74.8017931  84.0982342  55.1032114  75.7992077  84.2874622  54.7063971
  74.9460793  83.4869289  55.9940481  74.2121267  83.5020065  54.4068575
  74.9257898  85.8629227  56.8199062  75.9947014  85.9176350  56.6136646
  74.6079826  86.8013096  57.2743607  74.7951555  85.2021313  57.6768732
  73.9276075  88.4770679  52.9236126  75.0708342  88.7635612  52.5207043
  72.8206301  88.5386467  52.2298193  72.0677137  87.9117489  52.4752188
  72.6599932  89.2582607  51.0146236  73.3263922  88.8946056  50.2324677
  71.1954165  88.9495468  50.5940056  71.0584784  87.8745079  50.4771996
  70.5056953  89.3205929  51.3521004  70.9283829  89.7051048  49.2571926
  70.8996010  90.7793999  49.4392729  71.6805363  89.4404984  48.5139894
  69.6391630  89.1863346  48.6476231  69.6079683  88.1069565  48.7962341
  68.7611866  89.4502354  49.2372084  69.3584776  89.5639420  47.1742773
  70.2141809  89.1569519  46.6355467  68.5011148  88.9406490  46.9202089
  69.2065573  90.9712601  46.8549490  68.4013033  91.3531399  47.3301649
  70.0723839  91.4544392  47.0472479  68.8846064  91.0640907  45.9021473
  72.9850960  90.7511806  51.1997271  73.8803768  91.2524796  50.5250263
  72.4060965  91.4593983  52.1689129  71.8269825  90.9851456  52.8470087
  72.4672937  92.8741932  52.4086952  72.3078299  93.3701324  51.4512396
  71.1639309  93.2120228  53.2087278  71.1763573  92.5925350  54.1054964
  71.1316299  94.7256279  53.6686039  71.9459343  94.8633003  54.3799829
  71.2709284  95.3971481  52.8213930  70.1584196  94.9099636  54.1235590
  69.9796057  92.8998089  52.3055029  69.9150467  91.8343353  52.0848465
  69.0999317  93.2617950  52.8377056  69.8561764  93.6879349  51.0320950
  69.6456575  94.7515488  51.1439371  70.6072712  93.4832191  50.2691698
  68.8838625  93.4329033  50.6105852  73.7824821  93.2664394  53.0629921
  74.2476177  92.6886749  54.0492439  74.4348621  94.3397617  52.5178337
  74.0344429  94.7956467  51.7104149  75.5662584  95.0269318  53.1707001
  76.2417364  94.2762089  53.5808754  76.3702536  95.9025574  52.1219683
  75.6866169  96.6646957  51.7479515  77.2635508  96.2268925  52.6557589
  76.7965889  94.9390793  50.9740591  76.5825129  95.3703690  49.7882700
  77.1751261  93.7884808  51.2518024  75.1416922  95.9569263  54.3982029
  75.9156990  96.2629986  55.2935839  73.8729048  96.4817524  54.3746424
  73.2891941  96.2398338  53.5866928  73.4984398  97.5799847  55.2425241
  74.3660021  98.2316780  55.3461647  72.2634125  98.3239365  54.6717310
  71.5237522  97.5464439  54.4806433  71.8836975  99.1135025  55.3201866
  72.4908066  98.9694786  53.3713627  72.9870701  99.7822285  53.4928703
  73.1076574  97.0808601  56.6957283  71.9241333  96.9197845  56.9883823
  74.1311407  96.8531799  57.5476456  75.0904417  96.9663239  57.2526169
  74.0032291  96.1240482  58.8107681  73.7901163  95.0924301  58.5306454
  75.4391384  95.9263039  59.3801975  76.1447144  95.8032894  58.5585308
  75.5619907  96.8764305  59.9000549  75.4645252  95.0739479  60.0591326
  72.9265165  96.6586304  59.7896004  72.1546030  95.9580421  60.4429102
  72.8308344  97.9946423  59.9634886  73.2213783  98.5914040  59.2483330
  71.9207048  98.6497879  60.9079504  71.9423008  98.0469418  61.8158150
  72.3781729 100.0774765  61.2907934  72.5605631 100.4658318  60.2887869
  71.2947512 100.9083176  61.9871759  70.4530191 101.0739040  61.3147354
  70.9737730 100.4092407  62.9015017  71.7796659 101.8427658  62.2696161
  73.6838293 100.0086975  62.0570850  73.5999203  99.5339108  63.0346537
  74.3385792  99.3192291  61.5241337  74.3927193 101.3818169  62.3177004
  73.9819908 101.8780899  63.1969690  75.4522753 101.2540245  62.5393105
  74.2969322 102.0338726  61.4495134  70.4986572  98.5423946  60.3625154
  69.5453262  98.2188892  61.0769224  70.3193903  98.8053322  59.0463686
  71.1764956  99.0755177  58.5854292  69.0847301  98.6810684  58.3467245
  68.3192015  99.2821598  58.8374043  69.2834806  99.2607212  56.9760180
  69.3585396 100.3188515  57.2266722  70.0804949  98.7142944  56.4717388
  68.0623102  99.1362000  56.1128139  67.7455902  98.0939388  56.0744524
  67.2062016  99.6810627  56.5106916  68.4315300  99.6668339  54.6636868
  69.3573904 100.3831482  54.5423079  67.6668024  99.3087482  53.6477327
  67.9220343  99.7240925  52.7631712  66.8029976  98.8350391  53.8703108
  68.5044765  97.2519302  58.3776093  67.3056650  97.0597076  58.4256268
  69.3843937  96.2552929  58.2504416  70.3120232  96.6060448  58.0591822
  69.2056131  94.7832298  58.2838297  68.3149624  94.5172882  57.7145100
  70.4484272  94.0702915  57.6785612  70.5090761  94.5147896  56.6851616
  71.2796783  94.3854618  58.3092690  70.5040216  92.5545502  57.4927235
  69.6166515  92.0239735  57.8379154  70.5886889  92.3879623  56.4188623
  71.7418766  91.9069862  58.2768726  71.8486023  90.8764648  57.9381609
  72.6584053  92.4348640  58.0133820  71.4334488  91.7228317  59.7068977
  70.4962015  91.4288235  59.9418926  72.2209358  92.0379543  60.7232904
  73.4764385  92.3621273  60.5993509  74.0089560  92.3001289  59.7433805
  73.8926268  92.8195000  61.3979101  71.6725254  91.9873142  61.9372606
  70.6671524  91.9649315  61.8433571  72.1680784  92.1091938  62.8088570
  68.7808371  94.2629623  59.6832037  67.7902365  93.5503197  59.7389030
  69.4181633  94.8989773  60.7232618  70.0202990  95.6834984  60.5181885
  69.0422010  94.6358013  62.1256256  68.8213396  93.5684109  62.1265173
  70.1785326  94.9335098  63.1159067  71.0850334  94.4585419  62.7407360
  70.3915501  96.0023785  63.1001806  69.8652363  94.4360924  64.5704222
  69.1643953  95.1537323  64.9969387  69.2749453  93.0334759  64.5213890
  70.0052834  92.3500156  64.0882778  69.1185045  92.8308868  65.5809069
  68.2952261  92.8678036  64.0732813  71.0741282  94.4958305  65.4524088
  71.7363787  95.2892494  65.1059723  70.7797956  94.6324253  66.4929962
  71.6117334  93.5494995  65.3929234  67.7554750  95.3789425  62.5913000
  66.9696951  94.8102283  63.3824015  67.4931812  96.5460968  62.0746088
  68.2679367  97.0433903  61.6591930  66.1876202  97.1083832  62.0947886
  65.7834339  97.1176815  63.1070375  66.1790895  98.5275364  61.6183949
  66.8561554  99.1634178  62.1887732  66.3874960  98.5922813  60.5504656
  64.8048687  99.1445065  61.7843485  64.0666056  98.7446976  61.0892105
  64.5272589  98.9548302  62.8212023  64.7869635 100.6620884  61.4606476
  63.9215565 101.1596966  61.8983269  65.6463766 101.2000656  61.8607616
  65.0005007 100.8260250  59.9583817  64.4068003 100.3111267  59.3239546
  65.9024858 101.6519070  59.3526268  66.6136408 102.5934887  59.9129581
  66.5366030 102.6474190  60.9185696  67.1741295 103.2173634  59.3501568
  65.9616947 101.5944576  58.0710316  65.3052664 100.9223080  57.7003193
  66.6550684 102.1193123  57.5573492  65.0952435  96.2109756  61.4576817
  64.1726780  95.8696461  62.1842241  65.2330637  95.7429886  60.2158976
  65.9749460  96.1037636  59.6331882  64.2498493  94.8112297  59.6201658
  63.3128166  95.3670788  59.5870590  64.7876644  94.3704510  58.2377911
  65.7474422  93.8592434  58.3125496  64.0507793  93.6666298  57.8508186
  65.0791740  95.8177757  57.1429539  66.3855743  95.9345150  57.3970938
  64.0144539  93.4839439  60.4485893  62.8405571  93.0866146  60.5287361
  65.0555134  92.7999496  60.9972143  65.9347916  93.2960606  61.0263824
  64.9184322  91.5946484  61.7943239  64.3562984  90.7873440  61.3248825
  66.3127375  91.0188675  62.2563601  66.9404554  91.8603802  62.5494909
  66.1954021  90.4941559  63.2045221  67.0094776  90.0919056  61.2598610
  67.1977043  89.0969849  61.6633415  66.2855673  90.0163174  60.4484749
  68.3069658  90.7004166  60.7639694  69.0402985  91.4403629  61.4753008
  68.6672449  90.3916645  59.5999432  64.1034937  91.9257927  63.0591440
  63.1475592  91.2239361  63.3605194  64.4376040  93.0009365  63.7443829
  65.1671839  93.6545753  63.4982729  63.6330986  93.4388733  64.8958778
  63.4697771  92.5607300  65.5206060  64.4439793  94.5094109  65.7014179
  64.8946810  95.2495003  65.0401783  63.6992741  95.0960922  66.2392998
  65.4502153  93.8741875  66.6238832  66.0544109  93.1587124  66.0660887
  66.3446760  94.9974251  67.1821690  65.7135725  95.8008003  67.5621653
  67.0127869  94.6796799  67.9826498  66.9799280  95.3581619  66.3732052
  64.9061012  93.1958389  67.8067160  64.2769241  92.3972797  67.4135923
  65.6772137  92.6542091  68.3545494  64.3415213  93.8046074  68.5129404
  62.2452593  93.9759350  64.5769548  61.3882017  93.9790535  65.4522276
  61.9717026  94.3644333  63.3460426  62.6717710  94.5037556  62.6314783
  60.5632877  94.6518803  62.8921652  60.0621891  95.2479267  63.6548853
  60.4889536  95.4476070  61.5481091  61.2434053  95.0779057  60.8536816
  59.5538902  95.3493595  60.9966421  60.6463575  96.9535160  61.6730642
  60.9063339  97.4531651  62.7956438  60.5323839  97.6588726  60.6238651
  59.7605228  93.3750629  62.6922035  58.5285044  93.3248615  62.7675486
  60.4336500  92.3128033  62.3624086  61.4113855  92.2791100  62.1113968
  59.8087072  90.9710121  62.3292494  58.7651062  91.1052990  62.0447063
  60.4648352  90.1119614  61.1803913  61.5265799  90.3584290  61.1873007
  60.3019619  88.6022949  61.3722324  60.7740498  88.0732059  62.2000599
  59.2324829  88.4033489  61.4411736  60.6045961  88.1446171  60.4304028
  59.8550272  90.4057789  59.8037100  59.8404741  89.5897198  59.0812588
  58.8133097  90.7243347  59.8417091  60.5469799  91.5554237  59.0791845
  60.0825834  91.6949177  58.1029797  60.4179955  92.4776173  59.6457672
  61.5785456  91.3090611  58.8276100  59.7253704  90.3058052  63.7165880
  58.7217236  89.7138882  63.9937019  60.7500124  90.4621506  64.5795202
  61.6312218  90.8561039  64.2822456  60.7354641  89.8670101  65.9035063
  60.1169729  88.9909363  65.7083750  62.1365595  89.4332695  66.4756584
  62.8388596  89.0816402  65.7198524  62.6829386  90.2105331  67.0099068
  62.0108557  88.2049465  67.3468590  63.0175877  88.0179405  67.7205181
  61.3636541  88.4600163  68.1860065  61.4889956  86.6631222  66.5637445
  62.3738956  86.7404556  64.9797440  63.4341288  86.7526913  65.2324581
  62.1861315  85.9269714  64.2789602  62.0952225  87.6619053  64.4684982
  59.9290228  90.6699848  66.9064188  59.6042919  90.1610565  68.0462122
  59.4950151  91.9288921  66.5530109  60.0101185  92.4059486  65.8269358
  58.4784746  92.7490711  67.2389984  58.2836819  92.3168182  68.2204819
  59.0089464  94.1613197  67.6043892  59.0871525  94.6921730  66.6556120
  58.2127857  94.5244408  68.2542896  60.3611135  94.2871571  68.3662891
  61.0949707  95.2600384  68.2139730  60.6062317  93.3996773  69.2790413
  61.3725042  93.6171341  69.9000454  59.9855042  92.6148224  69.4161606
  57.0754957  92.6969814  66.5608120  56.0803413  92.7574730  67.3625326
  56.9258165  92.3813343  65.2332640  57.7341366  92.2358418  64.6454287
  55.6343174  92.0994759  64.6224928  54.8545408  92.8234005  64.8591280
  55.8029222  92.0913029  63.0853939  55.9777927  93.1153488  62.7554560
  56.5264082  91.3217068  62.8163147  54.4986296  91.7142963  62.3723078
  53.9710951  90.8279324  62.7247000  53.8693428  92.6004887  62.4545288
  54.8538446  91.4551163  60.9044409  55.1323032  92.4227524  60.4870319
  55.7078123  90.7907200  60.7724476  53.6313868  90.9904575  60.1003551
  53.3576488  90.0268745  60.5300951  52.8496170  91.7485714  60.0535059
  54.1141796  90.7598495  58.7612391  53.4204197  90.4090691  58.1164503
  54.5409584  91.6151905  58.4351158  54.8836422  90.1064587  58.7944889
  55.0015402  90.7806015  65.0802946  53.9619875  90.8325005  65.7723618
  55.7179499  89.6845150  64.7843266  56.6148424  89.8698235  64.3584824
  55.4216290  88.2809258  65.1337814  54.3636179  88.1344986  64.9163675
  56.2908316  87.3213482  64.2553234  57.3443508  87.5184822  64.4536543
  56.0034418  86.2806225  64.4049549  55.9478998  87.6184082  62.4916649
  57.1734381  87.5538445  61.9636679  55.4681492  87.9255295  66.6288519
  55.9591007  88.6480045  67.5160456  55.0015879  86.7180538  66.8719625
  54.6903753  86.1741447  66.0798740  54.7256517  86.2014103  68.2718468
  55.4176426  86.5283108  69.0479851  53.3307743  86.5413284  68.7923956
  52.5112247  86.2729549  68.1257486  53.2061720  85.9943581  70.1573896
  52.3399687  86.4452648  70.6416082  53.0685329  84.9136639  70.1217699
  54.1079283  86.2042904  70.7326031  53.2602167  87.9394722  68.9544249
  53.7131977  88.0813026  69.7888613  54.8447180  84.7011375  68.3544970
  55.8391190  84.1718102  68.9018250  53.9582014  83.9194679  67.7672577
  53.1989002  84.3772888  67.2835588  53.9853239  82.4511051  67.6748371
  53.9519882  82.0137691  68.6726999  52.7145100  81.9623375  66.9744110
  52.8451920  80.8805275  66.9475794  51.7865992  82.2397900  67.4745178
  52.5852633  82.3221207  65.6261539  52.7095842  83.2582569  65.4535532
  55.2584267  82.0333385  66.9990730  55.7996416  82.6790428  66.0772324
  55.6420803  80.7906818  67.2703218  55.1003885  80.2547169  67.9332066
  56.6033459  80.0008678  66.5921545  57.0252371  80.6460667  65.8215523
  57.7632856  79.4354773  67.4641705  57.3718071  79.0441513  68.4031630
  58.2304716  78.5163498  67.1105576  58.9874411  80.3345585  67.6725483
  59.4664764  80.6357288  66.7409277  58.5503912  81.6174507  68.4607649
  58.0205631  81.3394070  69.3718529  59.4590282  82.1434116  68.7537575
  57.9647636  82.3303318  67.8802872  60.0746012  79.7494936  68.5482550
  60.4455853  78.7412453  68.3641434  60.9716845  80.3684711  68.5338736
  59.6688366  79.7346306  69.5598078  55.8488798  78.7639904  65.9700394
  55.6675625  77.6965237  66.6038847  55.4822731  78.9178658  64.7336483
  55.7233095  79.7568846  64.2256641  54.8172808  77.7652693  64.0455198
  54.1822433  77.2380114  64.7574329  53.8082266  78.2177019  63.0370092
  54.3190622  79.0149879  62.4971199  53.6015415  77.3874760  62.3616457
  52.1976900  78.7429190  63.8484383  51.7475414  79.3878460  62.7684689
  55.9128189  76.8833113  63.4270525  57.1076345  77.2774649  63.3347130
  55.5509853  75.6853724  62.9197836  54.6091557  75.3637266  63.0918407
  56.3105869  74.8236370  62.0851564  57.3132610  74.8272085  62.5126314
  55.6384754  73.4196424  62.0912457  54.5705652  73.6354589  62.0581770
  55.9478664  72.8921556  62.9935408  56.2035894  72.2844791  60.7758093
  56.4106941  75.3673744  60.6724882  55.4545403  75.7848215  60.1108122
  57.6718235  75.2863312  60.1396275  58.3533239  74.8615551  60.7521820
  57.9586029  75.7992411  58.8012123  57.4259806  76.7501020  58.7843180
  59.5134354  76.0580635  58.7595415  59.7203732  76.7768574  59.5523930
  60.1295614  75.1698875  58.8996840  59.9287653  76.7246628  57.3832941
  60.0065184  76.0543346  56.5273046  59.1353559  77.4413443  57.1712399
  61.1666679  77.6333046  57.3761368  60.9746933  78.5138798  57.9891825
  61.9403982  77.0645571  57.8918648  61.5537739  77.9550123  55.9552050
  62.5312662  78.4267664  56.0555315  61.7442226  76.9504309  55.5775166
  60.5931520  78.7029171  55.1346302  59.6384239  78.4434366  55.3377485
  60.7385445  79.7000504  55.2030277  60.6605148  78.4095764  54.1705179
  57.4596596  74.9227571  57.7072763  57.0400333  75.4607153  56.6424513
  57.3496437  73.5982132  57.9370117  57.4457836  73.2808018  58.8910103
  56.9159269  72.6255608  56.9475555  57.3657894  72.9807997  56.0204458
  57.5192451  71.2428093  57.2524166  58.6048365  71.3247728  57.3060226
  57.1398783  70.9964609  58.2441330  57.0256042  70.0683451  56.4407158
  55.9485531  69.9046421  56.4761305  57.0770645  70.3587914  55.3913832
  57.8810215  68.8123894  56.6816759  59.0525389  68.6973810  56.3236761
  57.2626686  67.8035736  57.2506142  57.6667929  66.9603014  57.6322842
  56.3074589  68.0064774  57.5085163  55.3991795  72.6441908  56.6692114
  55.0606155  72.8076744  55.4522085  54.5275402  72.5298357  57.6228809
  54.8037815  72.2262192  58.5457039  53.1142855  72.7533722  57.4655247
  52.7560711  72.6324272  56.4431953  52.4518633  71.6305065  58.2130146
  52.9315805  70.6794167  57.9819393  51.3952351  71.4950752  57.9821730
  52.3764563  71.9400263  60.0584459  52.5794983  74.1750765  57.7267790
  51.7197180  74.6616316  57.0256233  53.0444288  74.8255587  58.8222790
  53.6999416  74.3357611  59.4143152  52.5530338  76.0704041  59.4081497
  53.1921101  76.2804222  60.2658033  52.5403404  77.3299265  58.4934235
  51.7157412  77.3545408  57.7810097  52.3987675  78.1957912  59.1402054
  53.8708162  77.4622869  57.7256966  54.7113800  77.6158714  58.4024191
  53.8587761  76.5896273  57.0726871  54.0746975  78.7194777  56.8255138
  53.8212252  79.8598289  57.2670126  54.1699505  78.5322142  55.5156326
  54.0534973  79.3703079  54.9641466  54.2246962  77.5852203  55.1687765
  51.2283278  75.9566164  60.1469660  50.7805681  76.9309044  60.7840061
  50.5881500  74.8064613  60.0796509  51.0705709  74.0108442  59.6867561
  49.2533588  74.6113348  60.6294870  48.6045170  75.4549885  60.3942204
  48.8128042  73.3192587  60.0228071  48.6812258  73.5294628  58.9613914
  49.5990515  72.5687551  60.1044750  47.4887753  72.6450062  60.6124449
  47.3347378  71.7075825  60.0780249  47.6326799  72.4413395  61.6735363
  46.2096024  73.4520292  60.4512358  45.1442575  73.0471992  60.9887314
  46.1603165  74.5087957  59.8891258  49.1728973  74.6600819  62.1744156
  48.0791044  74.8872328  62.7261496  50.3153944  74.4702911  62.8790522
  51.2345076  74.3880939  62.4684811  50.2272701  74.4392300  64.4123173
  49.3178225  74.9173069  64.7762442  50.2662039  73.0036449  64.8571157
  49.4280386  72.4446487  64.4410610  51.5086651  72.1023989  64.6648359
  52.4268198  72.6140642  64.9534416  51.4602327  71.1807489  65.2447653
  51.5035057  71.8925667  63.5952377  50.0822449  72.8730583  66.2409258
  49.2215967  73.2193995  66.4877701  51.3488960  75.1858330  65.1114559
  52.3705530  75.3834581  64.4886827  51.0632372  75.7398319  66.3116598
  50.3021717  75.4055500  66.8853617  52.0253706  76.6120481  66.9981146
  52.7453947  77.2112179  66.4407492  51.1808109  77.5123501  67.9270315
  50.5038834  77.9925680  67.2204447  50.4986954  76.9286680  68.5451984
  52.0458078  78.4893799  68.7820816  52.7508688  77.8144836  69.2673683
  52.5787354  79.1528320  68.1009579  51.0925055  79.3266582  69.6956539
  50.0674105  79.9263191  69.2492008  51.3543224  79.4690371  70.9063959
  52.8197241  75.7005310  67.8933525  52.2811413  75.2345324  68.9214325
  54.1409826  75.5228519  67.5665903  54.4720554  75.8655834  66.6760683
  54.9613667  74.6257210  68.3148432  54.3876982  73.7146139  68.4848261
  56.2576056  74.2316580  67.4444151  56.8777704  75.1140976  67.2869492
  57.1122026  73.4086275  68.2982445  56.4777422  72.6554775  68.7654972
  57.9030514  72.8214836  67.8314161  57.5493002  73.9471292  69.1391182
  56.0529661  73.5335684  66.0917902  55.4071665  74.1136742  65.4326105
  57.0238447  73.4016705  65.6141806  55.4285431  72.1316385  66.2282372
  55.2404165  71.7567492  65.2221727  56.1143970  71.4691162  66.7562246
  54.4966125  72.1853256  66.7910242  55.3243971  75.3410673  69.5569277
  55.2995300  74.7703028  70.6355381  55.6435061  76.6510868  69.5039177
  55.5593777  77.0979834  68.6020851  55.9560490  77.4858522  70.7299614
  55.1618671  77.1712446  71.4070129  57.3556519  77.1430779  71.3908100
  57.2774267  76.0682058  71.5540314  58.5860443  77.3844814  70.5377293
  59.1585779  78.2364607  70.9043932  59.1796923  76.4754963  70.4406691
  58.1703758  77.6487494  69.5653629  57.4075317  77.7204561  72.6158857
  57.7324963  77.0544958  73.2262087  55.6146765  78.9997578  70.5169249
  54.9669409  79.3041658  69.5407963  55.9586239  79.8389959  71.4344501
  56.5929174  79.6566963  72.1990061  55.6005526  81.2917328  71.2964535
  55.3588152  81.5779781  70.2728701  54.3920326  81.6697025  72.0946741
  53.5164928  81.0817337  71.8193054  54.4937801  81.6265488  73.6142015
  55.4473686  82.0793152  73.8858366  53.6105156  81.9375134  74.1720963
  54.6688557  80.5936432  73.9151096  54.0584564  82.9752445  71.7511940
  53.2071781  82.8889942  71.3158894  56.8839788  81.9491959  71.7939568
  57.6302576  81.4517498  72.6749659  57.0766783  83.1759644  71.3102293
  56.3829422  83.5436153  70.6748772  58.3966970  83.8122940  71.5288448
  59.0998030  83.0238056  71.2604666  58.7433863  84.9045849  70.5876732
  59.8035288  85.0753403  70.7748747  58.6727190  84.4963551  69.5794773
  57.9602480  86.1958218  70.8301830  56.8938923  85.9973717  70.7225037
  58.2433844  86.6376972  71.7855263  58.3531046  87.2476578  69.8116064
  59.4093513  87.1259975  69.5715284  57.8703880  86.9818687  68.8711596
  57.9697990  88.6845207  70.1781654  58.0338478  89.2430973  69.2443657
  56.9676352  88.7677193  70.5987024  58.8931942  89.2918777  71.0924816
  58.5543823  90.2108097  71.3391876  58.9540434  88.8491440  71.9982386
  59.8113918  89.3122101  70.6722498  58.6953163  84.2979240  72.9211330
  59.8612022  84.4107246  73.2701397  57.7337503  84.3494701  73.8710690
  56.8394661  83.9892864  73.5700369  58.0828094  84.4215679  75.2902603
  58.7649775  85.2587509  75.4381561  56.8108511  84.6654510  76.0809565
  56.0088205  83.9780807  75.8119440  57.0080090  84.3826008  77.1149921
  56.3105059  86.1029911  76.0922050  55.9521675  86.6778946  75.0645113
  56.3775253  86.7591286  77.2386312  56.2266541  87.7517700  77.1290541
  56.7303324  86.3477516  78.0909204  58.6563349  83.1759167  75.9014893
  59.2960310  83.2589436  76.9396162  58.4587955  81.9772434  75.3744316
  58.0120850  81.8776512  74.4740820  59.0532827  80.7573986  76.0241365
  58.9782286  80.8327293  77.1089363  58.1955338  79.4814825  75.6975365
  58.2365990  79.3013906  74.6233034  58.6027575  78.6323118  76.2463331
  56.6908836  79.6023703  76.0329676  56.3246536  80.4450512  75.4465723
  56.1540174  78.7071753  75.7190990  56.4742470  79.8330355  77.5098944
  55.5338764  80.5266762  77.9935026  57.3380709  79.3976164  78.3446503
  60.5455017  80.4559612  75.8117104  61.0891819  79.6045303  76.5229368
  61.1340714  81.1628628  74.8154926  60.6621408  81.8369579  74.2298508
  62.5563669  81.0500050  74.5578957  62.7966213  80.0238323  74.2797804
  62.8962374  81.9756794  73.3155966  62.3986292  82.9274654  73.5016012
  64.4129562  82.1255875  73.0992126  64.7916889  81.1355209  72.8453732
  64.5082474  82.7927494  72.2425270  64.9234438  82.5428295  73.9672041
  62.1610022  81.3443184  72.0865488  62.6691675  80.4307175  71.7780161
  61.1117983  81.1934566  72.3405504  62.1310329  82.2502422  70.8055878
  63.1335020  82.1731472  70.3846169  61.3815832  81.7648602  70.1804256
  61.8018389  83.2406330  71.1200094  63.2873869  81.3705826  75.8265686
  62.8029776  82.2676277  76.5301991  64.4918776  80.8535862  76.0120535
  64.8379850  80.0780869  75.4653120  65.3338623  81.3218307  77.0797300
  65.2006483  82.3991871  77.1779633  64.8621178  80.7144260  78.4384060
  65.2922106  81.3492203  79.2131042  63.7729406  80.7352257  78.4014606
  65.2440214  79.2556429  78.7368774  64.9427700  78.2337856  77.8250837
  64.4299984  78.3782244  76.8856144  65.1953745  76.9067049  78.1824827
  65.0294399  76.0689878  77.5213528  65.6218958  76.6137838  79.4715929
  65.8147621  75.5953503  79.7749043  65.8779478  77.6085567  80.4366016
  66.0408735  77.3298025  81.4672089  65.7030773  78.9359426  80.0163651
  65.8101702  79.6753025  80.7962894  66.7966890  81.0417271  76.7779922
  67.1033621  80.0374031  76.1818552  67.6576996  81.9710255  77.1635580
  67.3292875  82.7467251  77.7208138  69.0774965  81.8380928  76.9834948
  69.2261553  81.3549042  76.0178185  69.5623541  83.2457352  76.7564821
  69.0712500  83.5782051  75.8419466  69.2440748  83.7487411  77.6695967
  70.9422493  83.3610058  76.5047932  71.4476299  83.1821442  77.3011637
  69.7684431  81.0085583  78.0716848  70.2900839  81.6475201  78.9295244
  69.7687387  79.7343779  77.8611231  69.4439888  79.4591951  76.9452047
  70.5110502  78.7483883  78.7178516  70.2458620  78.8441753  79.7707558
  69.9259090  77.3372221  78.4751320  68.8552666  77.4350214  78.6547470
  70.0985193  77.0666981  77.4334383  70.3745270  76.2096786  79.4980764
  70.6931734  76.7746925  80.3740406  69.2766857  75.1759815  79.7497034
  68.9911127  74.7617197  78.7827826  69.6524191  74.3436289  80.3447819
  68.2957125  75.5461025  80.0476837  71.5953732  75.4843044  78.9694977
  71.1495590  74.8815632  78.1782627  72.3302698  76.2300825  78.6664248
  71.9587755  74.9424458  79.8426723  72.0083952  78.8223934  78.6880016
  72.6823235  78.6042976  79.6523476  72.5778055  79.2915201  77.5177526
  72.0020723  79.5743656  76.7376041  73.9855051  79.6253204  77.4186516
  74.4837475  79.1109514  78.2404041  74.4356155  79.0270901  76.0801363
  74.2457056  77.9542542  76.0475016  73.8358688  79.5554495  75.3390312
  75.7457876  79.3719149  75.8357382  76.2353802  78.5504389  75.7516146
  74.1659260  81.1369133  77.4628496  73.3272123  81.9068909  77.0481539
  75.3113699  81.5398407  78.0642843  75.9330606  80.8037758  78.3672857
  75.8945704  82.9036140  78.0875397  75.1461983  83.6820412  78.2361746
  77.0746851  82.9699993  79.0285873  76.9987154  82.4114037  79.9614906
  78.0215073  82.5854683  78.6494303  77.4291229  84.3973827  79.4716072
  77.5207186  85.0525284  78.6052942  76.6147041  84.8363686  80.0478935
  78.7138224  84.3653679  80.2037334  78.7617254  83.5682678  80.9456348
  79.4499445  83.9766121  79.5000982  79.2039728  85.6531620  80.6453991
  78.8569403  85.9601593  81.5428543  79.9628401  86.6043854  80.0430775
  80.0097275  87.8310966  80.5141830  79.2406845  88.0956554  81.1130905
  80.6158161  88.5193253  80.0909901  80.6348038  86.2289429  78.9568567
  80.7746410  85.2334118  78.8596439  81.2664127  86.8759727  78.5068178
  76.4484692  83.3314800  76.7256165  76.6101551  84.5472908  76.5481853
  76.5809011  82.4497986  75.7262278  76.3130188  81.4820957  75.8352566
  76.6838408  82.8905773  74.3075514  77.1862459  83.8578987  74.3088961
  77.4571848  81.8542480  73.4519958  76.9255686  80.9027290  73.4618711
  77.5526047  82.0956898  72.3933649  78.8241959  81.3203430  73.8412666
  78.8151741  80.8948135  74.8447323  79.1321230  80.4879379  73.2085037
  79.9632406  82.3689938  73.6261559  80.0018501  83.2184029  72.7393436
  80.8688831  82.3887920  74.5193481  75.3527975  83.1568527  73.5573816
  75.3288555  83.6613750  72.4541426  74.2509604  82.9036140  74.1829062
  74.3057966  82.3509121  75.0264740  72.8492880  83.4070206  73.8838816
  72.5454187  84.0989876  74.6693420  72.8599787  83.8879299  72.9057598
  71.8436575  82.2378063  73.8338041  72.0829105  81.1334610  74.3118334
  70.6586790  82.4693012  73.2713461  70.0858879  83.7483311  73.0297804
  70.5935526  84.2639256  72.2145891  70.1576996  84.3806934  73.9146900
  68.6817503  83.5708904  72.5664425  68.6748600  83.4848690  71.4798641
  68.0406952  84.2471504  73.1319809  68.3127689  82.2112274  73.2388544
  67.5751352  81.5969563  72.7224541  67.9421043  82.3295403  74.2570448
  69.5979500  81.4127445  73.2992983  69.7354174  80.8040714  74.1930103
  69.7196722  80.3976631  72.1145678  68.9248896  79.4661617  72.0716381
  70.5974007  80.6675911  71.1293459  71.3224268  81.3285923  71.3691902
  70.8150816  79.8754597  69.9753714  70.2297163  78.9600039  70.0613594
  70.0646305  80.6061268  68.8457632  69.1204977  81.0390663  69.1763258
  70.7404804  81.3422012  68.4104252  69.5855522  79.6564674  67.7113056
  70.4058361  78.9485168  67.5928211  68.6493969  79.2031097  68.0371761
  69.3192291  80.4434013  66.0390139  67.9375410  81.5777206  66.4271307
  66.9833708  81.0911846  66.6294765  68.1073666  82.3231125  67.2040796
  67.7497911  82.1608925  65.5255938  72.3039913  79.6542263  69.5577431
  73.0908060  80.6419945  69.5743895  72.7780247  78.4860134  69.2406750
  72.1074629  77.7311945  69.2669392  74.1364527  78.2013893  68.7650156
  74.4044065  78.9953566  68.0679321  75.1093721  78.1482220  69.9294233
  76.1010218  78.0995369  69.4795799  74.9243307  78.9958096  70.5893040
  74.8790216  77.2240877  70.4595375  74.2098999  76.8578339  68.0518866
  73.3679056  75.9818268  68.2130146  75.2430296  76.6486120  67.2089338
  76.0004854  77.3136854  67.2724771  75.4206419  75.4059219  66.4529181
  74.4622135  75.0541687  66.0710955  76.4130402  75.7247829  65.3564882
  77.4027014  75.8958673  65.7800484  76.3760376  74.9009085  64.6437788
  76.2896252  76.6984463  64.8823023  75.8665466  74.2513943  67.3103142
  76.7762375  74.3620539  68.1392765  75.3627062  73.0407429  67.1254683
  74.6258068  72.9584885  66.4396763  75.8666992  71.8462753  67.7915764
  76.7633247  71.9931126  68.3937407  74.9279881  71.4247322  68.8443232
  73.9300299  71.2787247  68.4309673  75.2168989  70.4501247  69.2377424
  74.9550390  72.3124933  70.1446819  75.8126783  71.9573832  71.2343693
  76.1898041  70.9454060  71.2435627  75.8834648  72.7743673  72.3029089
  76.5319347  72.5031948  73.1228733  75.1150513  73.9655399  72.3547029
  75.1942444  74.6889257  73.4968472  75.6372929  74.1837502  74.1824961
  74.4344330  74.4328260  71.2818241  73.9629602  75.3954792  71.4137936
  74.3215942  73.5775948  70.1730299  73.6477852  73.8296032  69.3675041
  76.2117481  70.7548237  66.7775774  75.4559088  70.5203819  65.8843613
  77.4268770  70.0611305  67.0000792  77.7692604  70.1235628  67.9482222
  77.9264736  68.9457893  66.2023878  77.5785494  69.1029453  65.1814318
  79.4639254  68.8663530  66.1233568  79.7883701  69.8398542  65.7557535
  80.1329422  68.5882473  67.4622917  79.7327566  69.2195177  68.2556629
  80.0311661  67.5402117  67.7440071  81.1922741  68.8065004  67.3270416
  79.9324274  67.7211571  65.2115345  79.5019817  67.7080107  64.2102098
  81.0218430  67.7540970  65.2250957  79.7064638  66.7312908  65.6080246
  77.2720909  67.6824427  66.8438387  77.1902514  67.4195528  68.0503798
  76.6496754  66.8274355  66.0149240  76.4177799  67.1486568  65.0858688
  76.1544847  65.4641581  66.2789488  75.8377218  65.5283213  67.3199320
  74.8776579  65.2594948  65.3569508  73.9682198  65.3111219  65.9555817
  74.9003172  66.0254765  64.5817995  74.9415779  64.0009737  64.4563437
  76.0402679  63.6230326  64.0710258  73.8053226  63.5043573  64.0289879
  73.8988256  62.6090860  63.5709000  72.9361773  63.8635397  64.3973494
  77.4051857  64.4814825  66.2870598  78.3990431  64.7806692  65.5671263
  77.3679256  63.2182550  66.8634701  76.3163280  62.5343752  67.4756145
  75.3202295  62.6342821  67.0444393  76.1512613  62.9146481  68.4837055
  76.7526484  61.0934591  67.6345348  76.5104389  60.5629492  66.7136717
  76.2909937  60.6005049  68.4900904  78.2703590  61.1480236  67.8100014
  78.8325214  60.2744246  67.4800158  78.4310293  61.3538313  68.8682699
  78.5593033  62.4427319  66.9662762  79.3874788  62.9480267  67.4631691
  79.1073132  61.9526243  65.6107569  80.3069592  61.6712713  65.5810022
  78.2865477  62.0138836  64.5865965  77.3232222  62.3031330  64.6784449
  78.6518812  61.6353559  63.1600142  79.5211267  60.9850883  63.0617046
  77.3898506  61.0193157  62.4214315  76.6041470  61.7698812  62.5075626
  77.6047421  60.8135366  61.3728237  77.0552874  59.6926498  63.0600834
  77.5688696  58.4930420  62.6492214  77.0988655  57.5297070  63.4241915
  77.1534491  56.4847183  63.1569433  76.1219835  58.1081724  64.1623831
  75.4473257  57.4931955  64.5945072  76.1541080  59.5024490  64.0561056
  75.4468632  60.2335548  64.4190073  79.1323233  62.8740072  62.4132490
  79.8721409  62.6770735  61.4456940  78.9818048  64.1190863  62.9209852
  78.7091064  64.1559219  63.8927746  79.6843338  65.2607536  62.3002720
  80.2488232  65.7130098  63.1156921  80.3135872  64.9730539  61.4580297
  78.6712122  66.3372326  61.8035650  79.0648699  67.4605989  61.5747166
  77.3991966  66.0222864  61.5188503  77.1124506  65.1008463  61.8168879
  76.3652182  67.0096779  61.1735916  76.6069412  67.3694801  60.1734829
  75.0646734  66.2072182  61.0008192  74.7535992  65.8882952  61.9956160
  74.2805099  66.8978500  60.6906223  75.1746035  65.0047016  60.0674677
  75.1382637  65.2049112  58.7008715  75.0254250  66.1952019  58.2849503
  75.2749348  64.1026163  57.8037596  75.2163029  64.3073082  56.7449570
  75.5002213  62.8497267  58.3120537  75.5812407  61.8344307  57.4497604
  75.3193140  62.1374559  56.5773106  75.5332470  62.6464128  59.6746635
  75.7362366  61.6477633  60.0322819  75.2875423  63.7151861  60.5482101
  75.1278019  63.5561705  61.6044283  76.1888218  68.1559467  62.1324301
  76.3317966  67.9832888  63.3597422  75.7524490  69.3275976  61.6164303
  75.4810429  69.4576693  60.6523132  75.7696199  70.5112839  62.4053907
  75.8796883  70.2338028  63.4537172  76.9902468  71.4844131  62.1652365
  77.0222378  71.8846369  61.1518764  77.0042229  72.6458454  63.1484461
  76.4807415  73.4898090  62.6992321  76.5697002  72.3851109  64.1134882
  77.9995155  73.0388451  63.3559084  78.3324575  70.8058023  62.1951151
  78.4151602  69.9613190  61.5109301  79.0165424  71.5981197  61.8912172
  78.4382772  70.3324127  63.1712341  74.4328499  71.2391281  62.2199249
  74.0816450  71.5215015  61.0897827  73.6670065  71.3142490  63.3295250
  74.0233421  70.9974909  64.2199135  72.3148155  71.8873692  63.3501196
  72.0403147  72.1904707  62.3397350  71.3501644  70.8582401  63.8324022
  71.4467192  70.8047533  64.9168015  70.3055096  71.1248922  63.6721325
  71.4822245  69.4717550  63.1746769  70.9742403  69.1048717  61.9256258
  71.3066530  67.7759504  61.7983389  70.9260321  67.0944166  61.0519886
  71.9708729  67.3649311  62.8723001  72.3272038  66.4435053  63.0823231
  72.0619249  68.3666801  63.7499571  72.6290798  68.3535433  64.6689653
  72.2059488  72.9975080  64.3750048  72.8891039  73.1231165  65.3851652
  71.3262463  73.9255810  64.1560507  70.7601213  73.7329626  63.3421087
  71.3299942  75.2777624  64.6664619  72.3329306  75.5304098  65.0105476
  71.0392094  76.1311769  63.4139347  71.4126730  75.6770515  62.4961138
  69.9545145  76.1217499  63.3069372  71.4813995  77.6224661  63.6586952
  71.0651922  77.9352331  64.6163225  72.5662756  77.6928949  63.7373734
  71.0189915  78.5190439  62.4895239  70.6536484  78.0809021  61.4127922
  71.0932493  79.7701216  62.7229357  70.2782345  75.4907990  65.7838297
  69.1601515  75.8540916  65.6681252  70.6914473  75.0896692  66.9838762
  71.6852903  74.9241781  67.0545387  69.8000383  74.8426104  68.1495905
  68.9724588  74.2755699  67.7233553  70.5306196  73.9816618  69.2065620
  71.3867426  74.5232821  69.6088123  69.4828844  73.5623550  70.2924681
  68.5433578  73.1958389  69.8788786  69.9740553  72.9428196  71.0428143
  69.1966295  74.4454288  70.8637238  71.1617947  72.7367783  68.5024118
  72.0184708  73.0750036  67.9194784  71.5345526  72.1230125  69.3224382
  70.1851797  71.9136333  67.6130342  69.9086046  72.3876905  66.6712952
  70.5572891  70.9138441  67.3893070  69.2214012  71.6259193  68.0331039
  69.3896008  76.2300920  68.7528276  70.2531528  77.0067072  69.1365719
  68.0653572  76.3030767  68.9842558  67.5628805  75.5185556  68.5941935
  67.2909403  77.4082756  69.7275257  67.9820585  78.2304573  69.9131870
  66.2004280  77.9613924  68.7979507  66.6609764  78.4984541  67.9687595
  65.7159376  77.0590115  68.4250069  65.1733875  78.9109421  69.5169544
  64.7001123  78.3925104  70.3508234  65.8258486  80.2183056  69.9238253
  66.3839436  80.2107143  70.8600807  66.5558815  80.5185509  69.1721582
  65.0173569  80.9371853  70.0567341  64.0408611  79.1038418  68.4861851
  64.4062662  79.5046139  67.5406885  63.5069227  78.1537390  68.4684134
  63.3091450  79.7297144  68.9970493  66.7805195  76.8691158  71.0093117
  65.9890509  75.9038448  70.9572411  67.1939373  77.3289871  72.2229052
  67.8274107  78.1044197  72.3552322  66.7554665  76.7664289  73.4928846
  66.4937305  75.7314301  73.2729578  67.8131199  76.7322874  74.5804405
  67.2663260  76.2269115  75.3765059  69.1060877  76.0118818  74.2014837
  68.9559269  75.3690004  73.3341551  69.7656822  76.8016863  73.8419867
  69.5720053  75.4726791  75.0262785  68.2524633  77.9704189  75.1494980
  67.4879646  78.5274887  75.3132629  65.4291534  77.4382305  73.9485741
  65.2715492  78.7135983  73.8480139  64.4687939  76.6087151  74.4412518
  64.6543789  75.6159163  74.4442987  63.0363321  76.9136190  74.5859098
  62.8768921  77.9665804  74.8181725  62.2774696  76.4489985  73.3483315
  62.4688578  75.3813744  73.2403564  60.7524872  76.5082836  73.4314966
  60.2955866  77.4317741  73.7871885  60.2681351  76.2480116  72.4903488
  60.3940535  75.8265209  74.2027473  62.6000547  77.1782351  72.1337891
  62.0219088  76.7528343  71.3134956  62.2345829  78.2044411  72.0959187
  63.6433649  76.9887495  71.8814135  62.5173616  76.2239122  75.8421993
  62.6945210  75.0551701  76.0413694  61.8741608  76.9482183  76.7231226
  61.7069197  77.9189968  76.5001345  61.3884354  76.4748287  78.0521965
  62.2529888  75.9512949  78.4603119  61.0804892  77.6997566  79.0061283
  61.8506241  78.4295893  78.7564564  60.1500940  78.1685495  78.6856651
  61.0185623  77.3871040  80.4386711  59.7249126  77.2120237  81.0510063
  58.8699389  77.3744059  80.4114246  59.7193336  76.9833469  82.4578857
  58.7911892  76.9243097  83.0069447  60.9631062  76.8817282  83.1215668
  60.9483576  76.8364239  84.4925404  60.0743008  76.6013670  84.8125076
  62.1966219  76.8749332  82.4556828  63.0830765  76.8999624  83.0721092
  62.2338295  77.1781206  81.1046124  63.1722355  77.3449564  80.5967140
  60.2920866  75.3711748  77.8767347  60.3798723  74.2952824  78.3926153
  59.3066168  75.7301474  77.0167542  59.3967772  76.6301012  76.5672398
  57.9565859  75.0996208  76.8744040  58.0229568  74.1473007  77.4005079
  56.8230724  75.9010983  77.6623821  57.1377659  76.0043669  78.7008429
  56.7518187  76.8457079  77.1231794  55.3282833  75.3929996  77.6802254
  54.9333334  75.0348330  76.7295265  55.4278135  74.5522499  78.3667612
  54.2817545  76.4428282  78.2659149  54.7918606  76.8555307  79.1363001
  54.1554785  77.2181273  77.5102282  52.9672670  75.6209373  78.3284473
  52.5532484  75.5232143  77.3248863  53.1402779  74.6274567  78.7421608
  51.9033623  76.2746954  79.1583157  51.7627001  77.2179699  78.8258219
  51.0035563  75.8306980  79.0429163  52.2564888  76.2322283  80.1036263
  57.6777029  75.0641870  75.3767633  58.1802893  75.9209108  74.6964836
  56.8828917  74.0553284  75.0681353  56.6123962  73.4457779  75.8266783
  56.4374781  73.7856245  73.7299109  56.1451006  74.7718000  73.3692408
  57.5476265  73.2979965  72.9204035  58.3028269  74.0837288  72.9402399
  58.1007814  72.4111128  73.2295322  57.1995974  73.2878113  71.8875027
  55.1960135  72.7709007  73.9205265  54.9284077  72.2493887  74.9865150
  54.5128250  72.5369692  72.8348494  54.9564314  72.8320456  71.9768000
  53.5446596  71.4943171  72.6773643  53.8846588  70.6249523  73.2401323
  52.1877337  71.8697548  73.1990385  52.2923088  72.4939823  74.0864563
  51.6350698  72.3715162  72.4047422  51.2232542  70.3931236  73.7412405
  50.1517248  71.0559988  74.1854525  53.4525871  71.2465572  71.1541080
  54.3223953  71.6151237  70.3744507  52.5372601  70.3155899  70.8131599
  51.9212866  70.1252270  71.5906143  52.1740389  69.8846960  69.4551563
  51.3075495  69.2309380  69.5546246  51.8708801  71.1376810  68.6086559
  52.7298307  71.8086386  68.6196232  51.7081022  70.8179855  67.5793839
  50.6154299  71.8131876  69.1359234  49.6036911  71.1148357  69.4151878
  50.6755638  73.0854511  69.2954540  49.8911333  73.5850143  69.6894121
  51.4558506  73.6152077  68.9340448  53.4324980  69.0576315  68.9086437
  53.6226416  69.1045570  67.6827908  54.2784834  68.5021925  69.7864771
  53.9622211  68.5569668  70.7441187  55.4154968  67.6345348  69.3619108
  55.4884148  67.5643587  68.2766199  56.6665125  68.1957102  70.0109768
  56.6281939  68.2906580  71.0961580  57.3996735  67.4185801  69.7949982
  57.1296930  69.5635271  69.4249916  56.3214207  70.2904320  69.5050049
  58.3373690  70.1666117  70.1741171  59.1072607  69.4277620  70.3965425
  58.8591290  70.8978081  69.5566940  58.0478764  70.5809975  71.1398220
  57.5929785  69.2834663  67.9646826  56.7846584  68.8724232  67.3599005
  57.8657150  70.2328873  67.5039101  58.3970690  68.5728931  67.7732849
  55.1333523  66.2066698  70.0241566  54.9848032  66.1084700  71.2233305
  55.1816988  65.2102041  69.1745949  55.1036739  65.4430771  68.1949043
  55.4186630  63.7468386  69.4729710  54.7902632  63.6770391  70.3608561
  55.0048590  62.8794241  68.2389069  53.9452982  63.0533552  68.0513573
  55.6314373  63.3275700  67.4677610  55.1398325  61.3830137  68.4230661
  54.7323370  60.7611704  69.3536568  55.5516577  60.6478739  67.3985243
  55.7345343  59.6752548  67.6001883  55.7062340  61.0063362  66.4670134
  56.8787861  63.5552788  69.9511051  57.7037334  64.3733120  69.6092987
  57.0608664  62.4411011  70.7062197  56.3434935  61.7303944  70.7256889
  58.3586788  62.0572233  71.3126087  59.1113758  62.7025795  70.8597708
  58.3777714  62.2621298  72.8395367  57.5032139  61.7570114  73.2495451
  59.2066813  61.7823601  73.3599472  58.3534479  63.7108135  73.3164263
  57.4289274  64.1752672  72.9734182  58.4275961  63.7598801  74.8219347
  59.4210339  63.4464693  75.1427984  58.2112312  64.7742510  75.1570892
  57.7015781  63.0423784  75.2042913  59.5071125  64.5035028  72.6848125
  60.5309725  64.2411232  72.9512119  59.4409227  64.5539999  71.5980005
  59.2459726  65.5294180  72.9444313  58.6268759  60.6171370  70.8781195
  57.8335762  59.7116756  71.1660767  59.7250509  60.3978157  70.1272249
  60.3856897  61.1568880  70.0408316  60.1256466  59.1401958  69.5229435
  59.2315435  58.5277510  69.4063568  60.6488371  59.3243074  68.1416035
  61.4412165  60.0721931  68.1716871  61.2381077  58.0104399  67.5872946
  61.6449594  58.1328821  66.5835142  62.0887852  57.6094151  68.1383133
  60.4343033  57.2821379  67.6948833  59.5758677  59.7959089  67.1394730
  59.7558212  59.4511032  66.1212254  58.5983658  59.3204737  67.2204208
  59.6145868  61.3148737  67.0408058  58.9223909  61.7651653  66.3293266
  59.1591501  61.6177320  67.9836512  60.6323528  61.6898012  66.9327021
  61.0349655  58.3648109  70.4980612  62.2752237  58.6335516  70.5822849
  60.4314661  57.4088669  71.1980438  59.4271326  57.3096895  71.1582470
  61.2838268  56.3927507  71.8101168  60.7294655  55.4584932  71.8992138
  62.1955442  56.2998009  71.2200022  61.6727924  56.7902422  73.2747316
  61.0905743  57.6498318  73.9589882  62.5876999  55.9754229  73.8637733
  63.1042385  55.3498745  73.2621241  63.1982565  56.0979748  75.2012968
  62.3594904  56.2652016  75.8770275  63.6471081  54.6625376  75.5800390
  64.3406010  54.2593431  74.8420668  64.3194866  54.6835232  76.4376926
  62.6070547  53.5891819  75.8181238  62.2733545  53.7727880  76.8394089
  61.7549467  53.7675667  75.1622343  63.2600689  52.2063303  75.6808710
  64.2418861  52.1411467  76.1497927  62.6540470  51.4618015  76.1971235
  63.3466578  51.9004679  74.2260265  64.0434217  52.3901606  73.6830521
  62.8832197  50.8395720  73.5567999  63.1581783  50.7375669  72.2754240
  63.8413620  51.3153696  71.8069077  62.7371740  50.0409746  71.6774130
  62.0561457  50.0245762  74.1199875  61.8237305  50.1032352  75.0997305
  61.7650366  49.2189217  73.5849380  64.3991423  57.0629740  75.3202438
  65.3202820  57.0459318  74.4636393  64.4619179  57.9653358  76.3756657
  63.4743690  58.1382370  77.4650145  63.6900568  57.3214388  78.1538057
  62.4286795  57.9642773  77.2113037  63.6214113  59.5166397  78.0329037
  63.4010792  59.5997715  79.0971565  62.9774332  60.2117109  77.4941397
  65.1112986  59.7369146  77.8594351  65.6459856  59.0955925  78.5600901
  65.5225658  60.7426214  77.9461432  65.4677677  59.0275002  76.5312147
  65.3331709  59.7379303  75.7155704  66.8736982  58.5951090  76.4741945
  67.1745396  57.5805664  77.0499611  67.8325272  59.2780399  75.8340645
  67.5392389  60.2059555  75.5637836  69.2154360  58.8161659  75.7237387
  69.4549799  57.9088736  76.2783051  69.4679499  58.4020996  74.3149090
  68.8961744  57.4982166  74.1047525  69.1061497  59.1470146  73.6061668
  70.8247185  58.2019567  74.1213465  70.8548594  57.7508783  73.2744551
  70.1058102  59.9552584  76.2373734  69.7137594  61.1258745  76.3260794
  71.3614130  59.6390009  76.5649843  71.6243172  58.7195063  76.2401724
  72.3330355  60.6949568  77.0361996  71.8509579  61.6663074  77.1465635
  72.6950741  60.4763889  78.4911537  73.4174538  61.2453461  78.7649822
  71.5613031  60.3758192  79.4959259  70.7685375  59.7238636  79.1290760
  71.8336916  60.0676298  80.5053425  71.1412048  61.3799524  79.5536137
  73.4134007  59.2389297  78.5953569  73.3440018  58.8365936  79.4642162
  73.6202526  60.7037878  76.2287188  74.4681835  61.5742826  76.4134312
  73.7311888  59.7902966  75.2739143  72.9310560  59.2124653  75.0594568
  74.8723459  59.5761299  74.4312859  75.7627535  59.4221306  75.0408459
  74.6949291  58.2574224  73.5756683  74.4278002  57.4779320  74.2892075
  73.8528156  58.4069204  72.8999519  75.9517527  57.8096485  72.8425741
  76.3278818  58.5722828  72.1606493  76.6721153  57.6626682  73.6472988
  75.7755089  56.4789104  72.1764708  75.8887100  55.4285479  72.8085518
  75.4475546  56.3662910  70.9808969  75.2063894  60.8189821  73.5472918
  74.3984842  61.2616253  72.6819992  76.3103771  61.4330578  73.8566399
  76.8698978  60.9178495  74.5211697  76.7641830  62.6978207  73.2665730
  77.7376080  62.9243040  73.7016106  77.0006418  62.4766445  71.7795467
  77.2505283  61.4347839  71.5791035  76.0254860  62.6171303  71.3132572
  78.0139637  63.3339357  71.0467005  79.3611336  63.1028748  71.2005377
  80.0468636  64.1381836  70.6139421  81.1264706  64.1602707  70.6330347
  79.1292429  64.8941994  70.0110817  79.4186449  65.7271957  69.5186710
  77.8693342  64.4166374  70.2519608  76.9359112  64.9368143  70.0953293
  75.9333229  63.9120340  73.5760641  75.9800529  64.8634195  72.8071451
  75.2476501  63.9130163  74.7764111  75.3222322  63.0457401  75.2886295
  74.3443727  64.9896622  75.1186132  73.5316086  64.9863863  74.3923187
  73.6281061  64.7597837  76.4778996  73.2406712  63.7434006  76.5483093
  74.4241190  64.8274469  77.2194386  72.6533651  65.6959391  76.6836834
  72.3986483  65.5634928  77.5997448  74.9982643  66.3798380  75.1189184
  76.0307360  66.6009045  75.8028412  74.3265200  67.2930384  74.3980837
  73.4653139  67.1030140  73.9058161  74.9279547  68.6232328  74.1988039
  75.9757376  68.4181452  73.9792776  74.1960239  69.3538523  73.0956554
  73.1331015  69.2978621  73.3305311  74.5087004  70.3952503  73.0193233
  74.4138861  68.7791061  71.7790413  75.5261087  68.2411528  71.3001633
  76.4919233  68.2381344  71.7834806  75.3005457  67.7839565  70.0479126
  75.9997606  67.4306154  69.4104576  74.0104151  68.0206919  69.6545362
  73.2139444  67.7414799  68.4946632  73.6098337  67.1221113  67.7034235
  71.8713617  68.0803919  68.4517336  71.2538862  67.8868389  67.5870609
  71.3079739  68.7819719  69.5205832  70.2636099  69.0571117  69.5187140
  72.0974064  69.0624571  70.6785202  71.5968466  69.6036530  71.4677906
  73.4307289  68.7055826  70.7176399  74.9344826  69.5473051  75.4350138
  75.7030201  70.4558754  75.5083132  74.0531683  69.1702032  76.3324881
  73.4731388  68.3677912  76.1329699  73.8881302  69.8952818  77.5610256
  74.5804691  70.7370758  77.5732279  72.4123192  70.4130745  77.5668049
  71.7997265  69.5212126  77.4348545  72.1603918  70.7671785  78.5664272
  72.0933199  71.4395523  76.4699459  72.4533939  72.8270817  76.5844202
  72.6638222  73.3055544  77.5295019  72.2308493  73.6503553  75.4677200
  72.3678112  74.7183847  75.5511093  71.8420219  73.1880760  74.2040443
  71.5820122  73.7833595  73.3412409  71.6471148  71.8322468  74.0783358
  71.5203142  71.4282417  73.0848074  71.7229557  70.9869003  75.1938629
  71.5055180  69.9488735  74.9898434  74.1964293  69.0137005  78.7757158
  73.4657097  68.0564308  79.0601730  75.3176594  69.2660427  79.4831228
  76.4000416  70.0847435  79.0979815  76.0771418  71.1164808  79.2370796
  76.6843700  69.9856901  78.0503893  77.5423431  69.7645426  80.0495052
  78.1677866  70.6235123  80.2925968  78.1266356  68.9712286  79.5832872
  76.7941332  69.2910767  81.3157368  76.4607191  70.1731253  81.8624783
  77.2903681  68.6881542  82.0762157  75.5961370  68.6008406  80.8090019
  75.9383011  67.5707769  80.7089996  74.3771029  68.6124802  81.7395592
  73.6482525  69.5767879  82.0192432  74.0055466  67.4378872  82.2418690
  74.5866823  66.6496086  81.9948864  72.9214525  67.1393538  83.1984329
  73.0551195  66.3256502  83.9112568  72.7358723  68.0488682  83.7697983
  71.5739775  66.7077971  82.5458717  70.7469893  66.1870337  83.2843113
  71.4089823  66.8997574  81.1931324  72.2016573  67.2307062  80.6618690
  70.1680040  66.5906525  80.5827713  69.4023991  66.3821220  81.3300705
  69.7051048  67.7596807  79.8153162  70.4957867  68.1243563  79.1596222
  68.8641024  67.4952412  79.1743135  69.3045521  68.9364576  80.8085346
  70.2351427  69.9272728  81.1879253  71.2842464  69.8237467  80.9532738
  69.8140860  71.0344028  81.9313812  70.5553913  71.7287540  82.2984505
  68.4743977  71.1405945  82.4184704  68.0648184  72.2263527  83.1052208
  67.1493626  72.1974993  83.3928108  67.6078844  70.1025915  82.0458889
  66.5637541  70.2599812  82.2726536  67.9644108  69.1239643  81.1651039
  67.1771097  68.4595680  80.8408546  70.3117418  65.3394508  79.6916103
  71.3281965  64.9921608  79.0228128  69.2051840  64.6394062  79.5286369
  68.4168863  64.8710155  80.1160431  68.9984703  63.5608006  78.5260344
  69.9814939  63.2677221  78.1574202  68.2921886  62.3925924  79.2383623
  67.3625851  62.7540207  79.6780348  68.0992985  61.6046000  78.5103798
  68.8821220  62.1327782  80.1173210  68.2336044  64.1282463  77.3601913
  67.4005938  65.0075817  77.5144863  68.4882021  63.6631250  76.1410427
  69.1981983  62.9823828  75.9116840  67.7456808  64.0212393  74.9026442
  67.1898222  64.9366379  75.1055431  68.7543249  64.3119144  73.8130569
  68.1966686  64.7523880  72.9865599  69.3898344  65.1256275  74.1624880
  69.5844173  63.0682945  73.4147978  70.8681345  62.9318762  73.7484932
  71.4253855  63.5550594  74.4322443  71.4335203  61.8337870  73.1781054
  72.4180794  61.6314363  73.2771158  70.5396843  61.3393927  72.2227764
  70.6910419  60.2890968  71.3244677  71.6583347  59.8087311  71.3236570
  69.5825434  59.8042631  70.5747080  69.7425461  58.9536667  69.9287319
  68.4260178  60.5671597  70.6436443  67.5613260  60.3180361  70.0464439
  68.2196999  61.6393185  71.5503836  67.2712660  62.1499872  71.6284275
  69.3105412  62.0253944  72.4355316  66.6774559  63.0128670  74.4251537
  66.8612146  61.7648220  74.4479036  65.5804205  63.5820389  73.9148951
  65.4438114  64.5810699  73.9729595  64.5805025  62.7276516  73.1377268
  65.0600910  61.8474913  72.7094650  63.3563232  62.2628260  74.1105843
  62.7910280  63.1561279  74.3762302  62.5157166  61.1387300  73.5181808
  62.9878616  60.1563168  73.5252094  61.6593170  61.0773897  74.1896820
  62.0812273  61.3280964  72.5366211  63.9880562  61.6529465  75.2421093
  64.5438242  62.3390818  75.6188583  64.1055679  63.5197735  71.9354343
  63.7593842  64.6705961  72.0825195  64.0512371  62.9483318  70.6901646
  64.3543386  61.9940710  70.5574226  63.6023998  63.5506916  69.4785023
  64.3217325  64.3509722  69.3046761  63.8459778  62.5497150  68.3541059
  63.3985281  61.5734100  68.5404444  63.2762098  63.0491972  66.9959784
  62.1892929  63.0465364  67.0778894  63.6015081  64.0347576  66.6628838
  63.4110117  62.2691345  66.2466860  65.3411150  62.4454117  68.0855131
  65.8800411  62.1328211  68.9799070  65.5107260  61.6774702  67.3307991
  65.6023550  63.3846426  67.5979662  62.2034550  64.1490507  69.5805979
  61.2880468  63.4801102  70.0587416  61.9705534  65.3300667  68.9914846
  62.7182627  65.8426666  68.5462141  60.6469297  65.9367275  68.9520454
  59.9461317  65.2181387  69.3770361  60.5763626  67.0184755  70.0081921
  61.2283468  67.8284883  69.6812391  59.5535421  67.3932695  70.0465345
  60.8813763  66.6985846  71.0045528  60.0171185  66.3242149  67.5999451
  60.6621408  66.9839287  66.7947245  58.7360048  66.0670042  67.4722481
  58.3020926  65.6535816  68.2852125  58.2021666  65.8693552  66.1222696
  58.8336849  66.4158583  65.4218292  58.3834743  64.3974304  65.7723665
  59.4255352  64.0793896  65.8047867  57.8912067  63.8300180  66.5621901
  57.6976585  63.9617062  64.4351196  57.4080467  64.8251629  63.8362312
  58.4277868  63.5442019  63.7417984  56.5876245  62.9934168  64.4688654
  56.7587566  61.7996073  64.7493076  55.3446674  63.4006405  64.2319918
  54.5784903  62.7434683  64.2666149  55.1499319  64.3771791  64.0630102
  56.7564678  66.3370466  65.9490013  55.8377886  65.8376312  66.5442133
  56.5930367  67.3108912  65.0445366  57.4044323  67.6070547  64.5210648
  55.2923965  67.9425383  64.7321844  55.0781393  68.6482620  65.5347729
  55.4694605  68.7750721  63.4364843  55.7100487  68.0779314  62.6338577
  56.2622547  69.5171881  63.5305071  53.8827705  69.6415710  63.0516958
  54.0520239  67.0126104  64.6801424  54.0012312  66.0487700  63.9486742
  52.9816437  67.3616648  65.4667521  53.1155252  68.1622934  66.0677242
  51.7169857  66.7025566  65.6295776  51.9933891  65.6801414  65.8871937
  50.8389187  67.2306299  66.6844749  50.1365089  66.4187527  66.8731403
  51.4158535  67.4714994  67.5773478  50.0180483  68.4820127  66.3494158
  50.6111431  69.3744421  66.1496544  49.4604921  68.3697319  65.4195595
  49.0302801  68.7666082  67.4374819  48.3790827  67.9011726  67.5602293
  49.4552326  68.8334751  68.4390068  48.2902384  70.0432682  67.1314859
  49.0865612  70.7874727  67.1429491  47.8826237  69.9098349  66.1294079
  47.2837305  70.5262995  68.1391191  46.6725206  69.7495842  68.3470631
  47.7724266  70.9146070  68.9331579  46.7013121  71.2780237  67.7988195
  50.9236288  66.6737604  64.2612028  50.1395082  65.7306194  64.0573835
  51.2548447  67.5702238  63.3453178  51.9323254  68.2803154  63.5838413
  50.7021475  67.5863266  62.0146561  49.7754908  67.0197248  62.1061563
  50.3151703  68.9869547  61.6476345  51.2485695  69.5447206  61.5717077
  49.7418356  69.0222692  60.1958418  49.3914890  70.0188017  59.9269962
  50.4937363  68.7653017  59.4497061  48.9693689  68.2539892  60.1619720
  49.4331884  69.7143936  62.6451349  49.9601412  69.7663546  63.5978794
  49.2990541  70.7083082  62.2182417  48.0570221  69.1792393  62.9258823
  47.5322866  69.8086739  63.6446047  47.5226593  69.0917969  61.9798803
  48.1776285  68.2049227  63.3994484  51.4819050  66.9047594  60.9279633
  51.0729837  65.8236742  60.4541588  52.6725769  67.4395132  60.5209208
  52.9859257  68.3493567  60.8276796  53.3366156  66.9398022  59.3611145
  52.6711035  66.4456320  58.6533022  53.7164116  68.1802225  58.5835266
  52.8756952  68.8649130  58.4717417  53.9674330  67.8718758  57.5686312
  55.1208782  68.9656734  59.3365145  54.4656706  65.9979582  59.5967102
  55.2425194  65.6838083  58.6370468  54.6750212  65.5833578  60.8766508
  54.1222620  66.0073900  61.6079187  55.7467604  64.6771240  61.2297201
  55.7350492  64.5796490  62.3152924  55.4828167  63.2743120  60.8148098
  55.6289577  63.2128143  59.7363997  56.1276674  62.5462008  61.3068676
  54.4211674  63.1117201  61.0007334  57.1635246  65.1935816  60.9669065
  58.1254816  64.4450569  60.7958555  57.3561573  66.5245438  60.8488989
  56.5369320  67.0937586  61.0069180  58.7197256  67.1504450  60.7721138
  59.2725134  66.7027521  59.9462175  58.5088921  68.6734867  60.5835724
  57.8881693  68.7985706  59.6963501  58.0602169  69.1228008  61.4695215
  59.7728014  69.3520164  60.4714775  59.5840597  70.2926922  60.4383516
  59.4554996  66.8420219  62.1027660  58.8232517  67.0249128  63.1304789
  60.7557726  66.4904261  62.0955229  61.2307358  66.3914824  61.2096786
  61.5553713  66.6597986  63.2721758  60.9476566  66.4113903  64.1422796
  62.7705908  65.7813072  63.2628250  63.4883404  65.9771681  62.4662304
  63.2093620  65.8718252  64.2564964  62.5158978  64.2496157  63.2972050
  61.4939642  63.6124802  64.0471458  61.6269255  62.2951078  63.7635279
  61.0551167  61.5424252  64.2859316  62.6949549  62.1059132  62.9151201
  62.9348946  61.1724806  62.6130676  63.2232237  63.2887840  62.6193142
  64.1202307  63.4139061  62.0309877  61.9363451  68.1491232  63.3778620
  62.7433872  68.7184381  62.6989317  61.1747217  68.7177992  64.3365002
  60.5349493  68.1967306  64.9189806  61.3295364  70.0606585  64.7990751
  61.4198256  70.7100344  63.9282846  60.0494099  70.5687952  65.5344677
  59.9836349  69.9099350  66.4003086  60.2251434  72.0394707  65.9660959
  60.8940268  72.6072311  65.3192997  59.2775249  72.5519848  66.1317778
  60.7581377  72.0258284  66.9167948  58.8090801  70.3194618  64.6492529
  58.6931133  69.2759752  64.3563414  58.0149460  70.5936480  65.3437090
  58.7672043  71.2480593  63.3971882  59.1121531  72.2616339  63.6015940
  59.4750547  70.8122969  62.6920938  57.7538490  71.2044001  62.9980516
  62.6978731  70.3000784  65.6237698  63.1630278  71.3899469  65.9128809
  63.2284164  69.1849279  66.1770344  62.7039957  68.3494711  65.9600067
  64.3915129  69.1791201  67.1220827  65.3274727  69.1673613  66.5635681
  64.3643188  70.1563692  67.6041126  64.2973518  68.0987120  68.2128382
  64.0514469  66.9222832  67.9263067  64.7144318  68.4518051  69.4163942
  64.7983646  69.4534540  69.5151758  64.7491217  67.5822401  70.5830717
  64.0518141  66.7685890  70.3834724  66.2023115  67.0437384  70.6989288
  66.8909216  67.8613043  70.9122467  66.2520790  66.3696098  71.5540123
  66.9654226  66.3672209  69.5984364  67.1512604  65.0438166  69.4249344
  66.6778421  64.2421532  69.9723101  68.0436993  64.9288273  68.3684778
  68.3006859  64.0820408  67.8816462  68.2962418  66.0773849  67.7401066
  68.9463854  66.4052057  66.5120506  69.3317175  65.6124687  65.8879614
  68.9850998  67.7644110  66.0823584  69.5125389  68.0413342  65.1815128
  68.5476065  68.7183285  66.9721031  68.5530663  69.7255039  66.5822792
  67.8946686  68.4003115  68.1426096  67.4024677  69.2394924  68.6115551
  67.7100182  67.0623302  68.5421276  64.1897249  68.2624292  71.8291044
  64.4099522  69.4957399  72.0794582  63.4862041  67.5313568  72.7395582
  63.4690809  66.5393114  72.5507593  63.3467674  67.7673149  74.1546106
  63.0849648  68.8084888  74.3430614  62.2724295  66.8418503  74.5964336
  61.6459799  66.6428804  73.7269068  62.6712465  65.8780575  74.9129009
  61.5681410  67.3788786  75.8528090  62.2562170  67.5220156  76.6859722
  61.2052107  68.3584070  75.5415010  60.4340506  66.4467049  76.3182163
  59.6236324  66.5069342  75.5917835  60.7885027  65.4163361  76.3465500
  59.8105907  66.8653440  77.6867771  60.4928017  66.6065884  78.4965563
  59.5660877  67.9264927  77.6390934  58.5907507  65.9990692  77.8814220
  58.4929466  65.8275557  78.8719368  57.7033091  66.2565708  77.4736881
  58.7469721  65.0613451  77.5402927  64.6602964  67.4485159  74.9286604
  65.3737783  66.4802217  74.5546198  64.9592352  68.1675720  75.9872007
  64.4081259  68.9955044  76.1630058  65.9231997  67.8114653  76.9795370
  66.3724756  66.8535948  76.7173481  67.0308304  68.8371372  76.9419050
  66.5423059  69.8115206  76.9370556  67.6659298  68.8362741  77.8277636
  67.9118586  68.7470722  75.7385874  67.5241089  69.5471954  74.6376705
  66.7622900  70.3049707  74.7463608  68.1457996  69.2335653  73.4157276
  67.7519274  69.6619701  72.5059271  69.3091154  68.4583139  73.3339405
  69.7689962  68.2263851  72.3846674  69.8153067  67.8364801  74.4636154
  70.6197596  67.1232700  74.3606949  69.0345526  67.8942537  75.6418943
  69.2881155  67.3686790  76.5506697  65.3503466  67.7789497  78.4019804
  64.6843719  68.7110662  78.8894129  65.5795288  66.6677237  79.0676498
  66.2035370  65.9674644  78.6930132  65.0322485  66.3685894  80.3936672
  64.4032001  67.1577406  80.8055401  64.1297913  65.1556635  80.3222847
  63.7156773  64.8323822  81.2773228  62.8626490  65.4375315  79.5443201
  63.0225897  65.8646393  78.5543203  62.3589039  64.4720459  79.4976282
  62.0969820  65.9394932  80.1358318  64.8276949  64.1244841  79.8009014
  65.1865292  63.5761929  80.5024815  66.1715364  66.1138725  81.3904858
  67.1538496  65.5346966  80.9915447  65.9697533  66.4653540  82.6061726
  65.1154423  66.9774675  82.7734756  66.9912148  66.5116453  83.6773109
  67.9310846  66.9402981  83.3294582  66.5388298  67.3927784  84.7777557
  65.4968596  67.1743917  85.0116539  67.2401667  67.4751282  85.6080914
  66.5467215  68.4320879  84.4493103  67.1770144  65.0818491  84.1626358
  66.2078953  64.3456602  84.4287682  68.4587574  64.6179533  84.2574024
  69.1680527  65.2748823  83.9650917  68.9010572  63.2417536  84.6474075
  68.1699848  62.6359034  84.1120815  70.3381491  62.9257870  84.2045784
  70.5517817  61.9169664  84.5577621  70.5159998  62.8774261  82.6777267
  69.7459984  62.2026062  82.3038006  70.2345228  63.8183832  82.2049904
  71.4864445  62.5145006  82.3391628  71.2766647  63.8998842  84.5972252
  71.2841415  64.6336651  83.9782619  68.8477850  63.0534458  86.1743546
  68.9609194  61.9571257  86.6211796  68.5737610  64.0633059  86.9537354
  68.5829496  65.0027704  86.5830231  68.4345675  63.9391661  88.4833527
  68.0340958  62.9531145  88.7187862  69.8941040  64.0980148  89.0536404
  69.9119139  63.8515568  90.1152611  70.5396557  63.3623409  88.5739040
  70.4984283  65.5510664  88.9593124  70.4084015  65.9237003  87.9389477
  69.9134016  66.1247921  89.6781254  71.8943977  65.5916166  89.4185257
  71.8198824  65.2359390  90.4461670  72.4360228  64.8867702  88.7877083
  72.4067879  67.0196629  89.4551945  72.2184515  67.5235701  88.5071945
  71.8467283  67.5412655  90.2313137  73.8406610  67.0464897  89.8730183
  74.3292427  66.5042639  89.1749001  74.0296459  68.0266523  89.7191906
  74.1296291  66.7411947  90.7913876  67.5588799  65.0076914  89.0324974
  66.9871998  65.8302212  88.3398247  67.2459698  64.9795389  90.3428364
  67.8931952  64.3939447  90.8510399  66.3190031  65.7499170  91.1937809
  65.4340696  66.0191011  90.6171322  65.8590937  64.7148848  92.2470284
  65.5534649  63.8068342  91.7272854  66.7525959  64.4901037  92.8294468
  64.7037268  65.0548553  93.2229137  64.8268175  66.0130978  93.7276173
  63.8047981  65.0006580  92.6088428  64.4760799  63.9348507  94.2585468
  64.3537283  63.0017996  93.7085056  65.3397417  63.8398218  94.9166965
  63.2471704  64.1643667  95.0747299  63.2430267  65.1733112  95.4871559
  62.4547386  64.2366552  94.3297958  63.0287170  63.1402016  96.0760307
  62.9446936  62.2358990  95.6341267  63.7341595  63.1054974  96.7980099
  62.1840191  63.2557726  96.6175365  66.8550920  67.0325518  91.7464638
  66.0556078  67.9318142  92.0146370  68.1407166  67.2478437  91.7848492
  68.6991358  66.4376736  91.5570545  68.8403654  68.5200882  92.0610619
  68.1745100  69.1077614  92.6930237  70.0064135  68.3046198  93.0459023
  69.5985937  67.6235199  93.7928200  70.7386589  67.7328587  92.4758053
  70.6546307  69.5553303  93.5953999  71.8285990  69.4796991  93.9931965
  70.0014162  70.5800819  93.7358665  69.3265772  69.2227459  90.7705975
  70.5231714  69.4031191  90.5697632  68.3786869  69.7661686  89.9087238
  67.3925734  69.7839975  90.1263618  68.6781263  70.8527327  88.9180374
  69.2177010  71.6790342  89.3808365  69.7059298  70.3243351  87.7757359
  69.8243523  71.0952711  87.0143318  70.6740284  70.1296902  88.2372570
  69.2594910  69.0370607  87.0874119  68.8949871  68.2457399  87.7424335
  68.3931971  69.1844511  86.4424992  70.6116390  68.4454966  86.1295033
  70.2919674  69.4107485  84.6549416  71.1930799  69.7014570  84.1149521
  69.7493172  68.7405872  83.9882183  69.7603559  70.3411865  84.8543835
  67.4724627  71.3903141  88.2175350  66.5730762  70.6682539  87.8073692
  67.4182653  72.7588654  88.1363678  68.2223797  73.2732487  88.4663773
  66.2155294  73.4861660  87.6371861  65.3752899  72.7928591  87.6749706
  65.8375978  74.6414280  88.5171318  65.4936123  74.1627502  89.4339943
  66.6805792  75.2548265  88.8352966  64.7408104  75.4032516  87.9950523
  63.9911222  74.8108959  88.0882549  66.5086412  74.1114283  86.2066650
  67.5485563  74.7426081  86.0740280  65.6695032  73.9282036  85.1731968
  65.9458065  74.5766735  83.9120293  66.8927622  74.2233086  83.5039711
  66.0370541  75.6602955  83.9864731  64.7467804  74.2556143  83.0609798
  64.9607944  73.4334469  82.3780918  64.3712234  74.9678135  82.3262405
  63.5951376  73.8412380  83.9695740  62.8405237  73.1752729  83.5510635
  63.1611156  74.7707605  84.3379688  64.3842077  73.2038736  85.1203918
  63.8392019  73.4322500  86.0363197  64.5503139  71.7151070  84.9152088
  65.6718969  71.3027191  84.6302128  63.5033560  70.9019184  85.1365376
  62.6489401  71.4254951  85.2627754  63.5595131  69.4725084  84.9736691
  64.5330620  69.0829897  85.2713013  62.5585508  68.7479782  85.9145260
  61.5312481  69.0932417  85.7981396  62.6643991  67.6690912  85.8009529
  62.8311729  69.0435362  87.4210358  63.2292175  70.0461102  87.5776100
  61.9030380  68.9290905  87.9810047  63.8005781  68.0632973  88.0901337
  63.5105896  66.9151211  88.3690071  64.9554634  68.4389162  88.3957481
  65.5306005  67.6300621  88.5830212  65.3689003  69.3007755  88.0696106
  63.3591795  69.0588236  83.5623837  63.5903883  67.9037142  83.2316017
  62.9946423  69.9813461  82.6924229  62.6317549  70.8433247  83.0737495
  62.7372217  69.8497534  81.2006855  63.6662388  69.3569040  80.9141064
  61.5866947  68.9572573  81.0094738  61.5790606  68.7031651  79.9495268
  61.7025375  67.9991817  81.5161991  60.2414083  69.5517588  81.4590931
  60.2731323  69.5349503  82.5485039  60.1911306  70.6046629  81.1816597
  59.0026379  68.6953020  81.0015774  58.9204168  68.8352537  79.9237347
  59.1115284  67.6125669  81.0643291  57.5877714  69.1724253  81.4868641
  57.5255060  70.2602959  81.5144062  56.8020868  68.9166403  80.7759666
  57.3402500  68.5875940  82.8960991  57.5782061  67.6060390  82.8917217
  57.9705048  68.9983082  83.5700321  56.4060974  68.7440538  83.2467842
  62.6124430  71.1616707  80.4844761  62.0628595  72.1394110  81.0097218
  63.3231640  71.2449217  79.3524790  63.7205124  70.3899527  78.9902115
  63.3861017  72.3835325  78.4127665  62.4379969  72.9062700  78.5389900
  64.6390581  73.2335186  78.8158655  64.4152975  74.2557955  78.5109329
  64.7566319  73.2328987  79.8995113  65.9372139  72.8944397  78.2213449
  66.7859602  72.0850325  79.0085411  66.4180040  71.7046976  79.9499989
  68.0215168  71.6914177  78.5117149  68.6649513  71.0019302  79.0380239
  68.5230827  72.1802282  77.2630739  69.5450115  71.9517326  76.9987822
  67.7326250  73.0433083  76.5303040  68.0210209  73.3815002  75.5460024
  66.4438772  73.4785843  77.0074081  65.7096243  74.0911674  76.5053940
  63.4623623  71.7250919  77.0066452  63.3693743  70.5015087  76.8787813
  63.6777735  72.5385618  75.9129333  63.6161757  73.5453844  75.9640217
  63.6715555  71.9638491  74.5493317  63.9949560  70.9239674  74.5957899
  62.2540331  72.1781349  73.8919353  62.0930195  73.2500172  73.7768364
  62.3373699  71.8634796  72.8516722  60.9901476  71.6291428  74.6089315
  60.4517555  72.2228289  75.6721115  60.8297873  73.1672668  76.0347795
  59.3462086  71.5171337  76.1497211  58.6816692  71.8174648  76.8485022
  59.1234493  70.4755592  75.2948904  58.1213665  69.5400333  75.2132559
  57.3727131  69.5319891  75.9916210  58.0661249  68.6226463  74.0991497
  57.2826004  67.8897810  73.9750528  59.0785503  68.6465788  73.1610680
  59.1056585  67.8923035  72.3885822  60.0822783  69.6167517  73.2780933
  60.9852028  69.4851112  72.7003384  60.0970840  70.5385017  74.3371868
  64.8182631  72.6481009  73.7808657  65.0387144  73.8305044  73.8952446
  65.5381918  71.9007349  72.9191256  65.2833366  70.9297752  72.8077984
  66.3255787  72.5673056  71.9121695  66.3884830  73.6456680  72.0580196
  67.3677301  72.2530174  71.9691467  65.7519960  72.2746086  70.5859375
  65.9986305  71.1354971  70.1078939  65.1110840  73.2475710  69.9869680
  65.2768230  74.1799641  70.3380775  64.5187473  73.0416536  68.6274576
  64.5076084  71.9531012  68.5724783  63.1220865  73.5566473  68.7513447
  63.2230663  74.6291971  68.9172983  62.6898193  73.3109426  67.7813625
  62.1968269  73.0850792  69.8967981  62.6517725  73.4885073  70.8014393
  60.8757401  73.8502359  69.7209597  60.9675694  74.9363422  69.7276688
  60.2721214  73.5112333  68.8790464  60.2817297  73.5660982  70.5895901
  62.0996475  71.5365267  69.9374199  63.0468893  71.0263205  70.1121330
  61.4012289  71.2237740  70.7136202  61.6232872  71.1774683  69.0251350
  65.4706478  73.5706234  67.5518847  66.3379717  74.4098091  67.9380608
  65.4268599  73.2400370  66.2699699  64.7386408  72.5773001  65.9425163
  66.3656998  73.7527990  65.2200842  67.3145342  74.1260815  65.6054115
  66.6746712  72.6937962  64.1058683  67.0782661  73.2840347  63.2831669
  67.7087688  71.6812897  64.5191717  67.2795916  71.0946941  65.3314638
  67.9580688  70.9457636  63.7543535  68.6215639  72.2635698  64.6450901
  65.5735970  71.9809294  63.7025881  64.9503660  72.6196289  63.3486795
  65.6523275  74.8631620  64.5105124  64.5730829  74.6728706  63.9392233
  66.2029362  76.0955858  64.6385765  67.0217800  76.1484861  65.2274704
  65.7031202  77.3377275  63.8741446  64.8708010  77.7904701  64.4130039
  66.8491268  78.3823156  63.8650894  67.1229982  78.5863495  64.9002028
  67.7159595  78.0382967  63.3008575  66.4062309  79.7489452  63.2271576
  65.6520414  79.6182871  62.4511242  65.8399916  80.3965378  63.8965607
  67.6949835  80.5166435  62.6242447  67.4319267  81.5435982  62.3707390
  68.3890247  80.5789471  63.4624147  68.3485651  79.7048521  61.6122627
  69.2073727  79.2593145  61.9021797  67.7937412  79.2894459  60.5019188
  66.6024590  79.5816851  60.1541090  66.2386084  80.4229069  60.5784512
  66.4203358  79.2519903  59.2169714  68.4825563  78.4948635  59.7584677
  69.2307520  77.9891682  60.2107716  67.9773426  78.0674791  58.9954424
  65.1530313  77.0195675  62.4561167  64.1146040  77.4376440  62.0482159
  65.9154987  76.2293816  61.7005634  66.8014908  75.8839798  62.0408916
  65.6121540  75.8572197  60.2931070  65.5871868  76.8192625  59.7812939
  66.6382074  74.9645281  59.6960163  66.2051725  74.6089125  58.7610722
  67.5881672  75.4433680  59.4585419  66.9273806  73.9374065  60.5468464
  66.4448214  73.1931496  60.1796579  64.2207766  75.2806568  60.0823402
  63.6074877  75.5571699  59.0551662  63.5510969  74.6690893  61.0423756
  64.0628099  74.5960236  61.9100809  62.2515965  74.0511084  61.1181259
  61.9182396  73.6608458  60.1565313  62.4240351  72.8587961  62.1240425
  63.4119225  72.4466372  61.9183683  62.4492836  73.2006931  63.1587267
  61.6611624  72.1173716  61.8865156  61.1085987  74.9979305  61.6165733
  59.9663830  74.5852566  61.8297386  61.3888311  76.3186884  61.7439175
  62.2874784  76.6057062  61.3831520  60.5527258  77.1797037  62.5995827
  59.6136332  76.6582870  62.7848864  61.3115168  77.3917198  64.0154362
  62.3606014  77.6584339  63.8874102  60.9307384  78.2033157  64.6354580
  61.2841749  76.0554838  64.8468542  61.7508364  75.1678705  64.4196844
  62.1942806  76.4155054  66.0280895  61.9404364  77.3926449  66.4390182
  62.3081541  75.6685448  66.8137074  63.2192707  76.4080000  65.6573677
  59.8549795  75.8156157  65.4285622  60.0098896  74.9329662  66.0490751
  59.6336412  76.6959000  66.0320568  59.1208458  75.6145763  64.6483469
  60.2980614  78.5352278  61.9090509  61.1081123  79.0241861  61.1270428
  59.1969967  79.1876030  62.2426558  58.5266018  78.7731552  62.8742456
  58.7874460  80.4418468  61.6670513  59.7041893  80.9763527  61.4180613
  57.9957247  80.2283669  60.3912258  58.4799194  79.4467926  59.8057222
  56.4746380  79.8036671  60.6366730  55.9283161  80.7387829  60.7599354
  56.0510635  79.3305683  59.7507477  56.3688469  79.1269064  61.4845610
  58.1549168  81.4879131  59.5241022  57.7579737  82.4096107  59.9495411
  59.2202091  81.5959263  59.3201637  57.3018599  81.3908672  58.1557465
  56.2312984  81.2131214  58.2577419  57.4836969  82.3278713  57.6293755
  57.7527905  80.5291557  57.6635838  58.0330324  81.2115002  62.6800871
  57.0436668  80.7630730  63.3264256  58.5353136  82.4523926  62.8732061
  59.8410845  83.0311203  62.6298523  59.7999382  83.4464931  61.6229391
  60.6746244  82.3342419  62.7174616  59.9568129  84.1963768  63.6046600
  60.5562019  85.0493813  63.2865191  60.4382944  83.7667656  64.4831324
  58.5845232  84.6618843  63.9720535  58.2963324  85.6002617  63.4982491
  58.4584522  84.8097038  65.0445986  57.6915455  83.4866714  63.5831833
  57.3254728  82.9824734  64.4775438  56.4149570  83.8916779  62.8141737
  56.3812065  83.9171219  61.5576935  55.2917051  84.1006470  63.5265923
  55.3121233  83.6597157  64.4350386  53.9523220  84.2691517  62.9064751
  54.1212034  84.8586464  62.0053244  53.2839918  82.9264164  62.4934101
  53.5530853  82.1595287  63.2197571  51.7432880  83.0343723  62.1610880
  51.1344290  83.1532860  63.0573320  51.6033125  83.8488579  61.4503670
  51.4666796  82.0737457  61.7265987  53.8675451  82.5665283  61.2599373
  54.8149347  82.7020645  61.3352919  53.0524492  85.1031876  63.8090086
  53.0544567  84.8904037  65.0489664  52.5150108  86.1364746  63.3215904
  54.2322874  70.6771851  60.8975554  77.7928305  48.7091780  54.7649002
  78.1791210  49.6386433  54.6813822  78.3029604  48.1577301  54.0897942
  78.0424976  48.3281898  55.6663561  76.3444662  48.8448381  54.5515490
  76.3552952  49.1205549  53.4970474  75.6172085  47.4654579  54.6829796
  76.1513233  46.7772007  54.0279055  75.8647537  47.1254206  55.6885624
  74.0880203  47.4691534  54.4279814  73.2144594  46.9385672  55.4022026
  73.5286236  46.2572050  56.1790228  71.8566895  46.9893360  55.1999235
  71.2532187  46.4213514  55.8924723  71.2995529  47.6186275  54.0499258
  70.2281523  47.6188326  53.9139080  72.1260405  48.1765890  53.0844784
  71.6310072  48.5954952  52.2208452  73.5232496  48.0811548  53.3027172
  74.1860008  48.4700871  52.5438404  75.6845760  49.7612619  55.5449009
  76.0620451  49.7544861  56.7118549  74.8098803  50.6199169  55.0546360
  74.5492649  50.4142475  54.1007566  74.0594387  51.6675472  55.8292866
  73.8226366  51.1943579  56.7822409  74.9081659  52.9023933  56.1070490
  75.8016062  52.4796724  56.5665817  75.3553915  53.7075806  54.9199820
  76.2798357  54.2682600  55.0583315  75.5211878  52.9826546  54.1230536
  74.6542788  54.4382429  54.5166540  74.1657352  53.7069273  57.1757078
  73.2197094  54.1514206  56.8665838  73.9285088  53.0179071  57.9863119
  74.9438477  54.8627281  57.8747797  75.9131289  54.4198370  58.1037903
  75.2394438  55.5419731  57.0751905  74.3133879  55.3630972  58.6098051
  72.7632093  51.9033480  55.0484991  72.7983093  52.3937702  53.9018154
  71.6182518  51.6714859  55.6518221  71.5979099  51.5499163  56.6542768
  70.2786684  51.9167900  55.0285912  70.3429890  51.2891912  54.1397238
  69.1689682  51.2514448  55.8969069  69.3386793  51.6393757  56.9013023
  67.7792025  51.4456129  55.3940535  67.7540588  51.0594368  54.3750620
  66.9907713  51.0260439  56.0189056  67.6457453  52.5244713  55.3143358
  69.4286156  49.7104120  55.9566259  68.6070347  49.1840219  56.4424467
  69.4928408  49.3084240  54.9454975  70.2991724  49.4849873  56.5725994
  69.9867868  53.3117342  54.6947002  70.2299261  54.1815090  55.4671192
  69.4655991  53.5960674  53.4772491  69.2601156  52.8740120  52.8015900
  69.1109133  54.9166059  52.9273510  68.7647486  54.9769545  51.8955469
  68.2533073  55.3185368  53.4668589  70.1729107  55.9144449  53.2070732
  69.8120308  57.0663691  53.5184574  71.4664412  55.5014801  53.0103731
  71.6613674  54.5327711  52.8013086  72.5894880  56.2669325  53.3679581
  73.5095119  55.7063723  53.2023239  72.5258541  57.1203089  52.6928282
  72.6799536  56.8114710  54.7716331  73.5950708  57.5729656  54.9859667
  71.7647886  56.5941906  55.7282066  71.0339451  55.9099245  55.5949736
  71.6415262  57.3853827  56.9686174  72.6460123  57.7478075  57.1871567
  70.7193422  58.5428524  56.7124891  69.6834517  58.2081938  56.6573906
  70.6913710  59.0578175  57.6727629  71.1662054  59.5138502  55.6694412
  72.0549583  60.0181675  56.0487652  71.3622236  58.9478064  54.7587967
  70.0590324  60.6037664  55.3646708  69.1214037  60.0671530  55.2197552
  70.0097990  61.2665939  56.2285805  70.3648520  61.4304399  54.1777182
  71.3113117  61.9248199  54.3965816  70.4803276  60.7289171  53.3514977
  69.3225336  62.4341726  53.8864708  68.4691381  61.9166374  53.7316275
  69.0919781  63.0045033  54.6875143  69.5064640  62.9674196  53.0486679
  71.1001444  56.5765572  58.1488180  71.1337614  57.0798779  59.2492867
  70.6134844  55.2922440  58.0303144  70.5593204  54.8740578  57.1125507
  70.0273037  54.4770098  59.1214991  69.9170923  55.0365925  60.0503826
  68.6118078  54.0994024  58.6523438  68.6734009  53.4981346  57.7452707
  68.1916046  53.4199142  59.3938541  67.7623415  55.3698111  58.5249043
  67.3688412  56.1741543  59.6781969  67.8826189  56.0787535  60.6233597
  66.4323282  57.2531176  59.4783974  66.1297798  57.8269911  60.3418398
  65.8428144  57.4675703  58.1897545  64.9387121  58.4630966  57.9603910
  64.7505093  59.1223431  58.6323833  66.3323259  56.7184925  57.0937109
  65.9577274  57.0363998  56.1319351  67.2363853  55.6672621  57.2616386
  67.5889587  55.1835823  56.3626719  70.9798193  53.3137512  59.3577576
  70.9097815  52.2207499  58.7316465  71.8695879  53.4830427  60.3694153
  71.7537117  54.3092346  60.9386921  72.8328180  52.4519587  60.7205200
  73.1494188  51.8383360  59.8771191  74.1199684  53.1738663  61.1298037
  74.5714521  53.9296198  60.4870749  73.8622761  53.7770987  62.0003223
  75.3045177  52.2134447  61.3796043  75.1598835  51.7178488  62.3395872
  75.4608202  51.4926815  60.5770016  76.5596819  53.0563593  61.4676046
  76.8610859  53.5544777  60.5461168  76.3979673  53.9584446  62.0576859
  77.7108145  52.2515726  62.0426750  77.3815775  51.9154406  63.0258942
  77.8362465  51.3138771  61.5012932  78.9816284  52.9396963  62.0870972
  79.0682364  53.4290504  62.9663754  79.7932625  52.3393822  62.0559359
  79.2125511  53.4437466  61.2428808  72.0994806  51.4911366  61.7158413
  71.4404678  51.9443274  62.6087761  72.2817421  50.1401806  61.4503145
  72.9051828  49.8634911  60.7054281  71.4808464  49.0405607  62.1637869
  70.4141188  49.2644978  62.1710587  71.6088009  47.6497602  61.4022303
  72.5850630  47.1820068  61.5295887  70.9225464  46.9470119  61.8747711
  71.2862873  47.7472687  59.8797226  71.9516373  48.4744072  59.4142294
  71.5346241  46.3185787  59.2677593  71.4952755  46.3090420  58.1785107
  72.6096439  46.1661625  59.3637371  70.9715271  45.5649376  59.8182631
  69.8422050  48.0913544  59.5906067  69.6141386  49.0182924  60.1167917
  69.7000360  48.2525873  58.5220146  69.1452503  47.2870684  59.8261499
  71.9707060  48.8496494  63.6243391  73.1223202  48.8474703  63.9798450
  70.9621191  48.7411642  64.5307779  70.0619268  48.8827276  64.0952110
  71.0916138  48.6034966  65.9893799  72.1110821  48.8990593  66.2372208
  70.2971506  49.6446991  66.8000317  69.2490339  49.5668125  66.5110826
  70.3882456  49.5068121  68.3421803  71.4463806  49.5394802  68.6017656
  69.8488617  50.2904654  68.8742065  70.0271845  48.5123730  68.6045218
  70.7014847  51.1473274  66.5310526  71.6278315  51.4019489  67.0459795
  70.6930542  51.4380789  65.4805803  69.8876286  51.7344189  66.9565725
  70.8792973  47.1329689  66.3906193  71.8342113  46.5833902  66.9403553
  69.7156572  46.5762329  66.0052490  69.0912771  47.1658611  65.4736567
  69.2949963  45.1691532  66.2737226  70.2072620  44.5819712  66.1684132
  68.6834526  44.9923420  67.6978350  68.3546829  43.9758539  67.9140663
  69.4735575  45.3406715  68.3630466  67.4952936  45.9489298  67.8704166
  67.8568935  46.9762373  67.9149151  66.7618561  45.8450985  67.0707941
  66.7104530  45.8204269  69.2104959  66.3253832  44.8219490  69.4175100
  67.4709988  46.0420561  69.9591970  65.7251978  46.8743658  69.3818283
  64.7493410  46.7565727  69.1495943  66.0788584  48.1648779  69.6614647
  67.2784615  48.5908699  69.9243927  67.9246569  47.8664207  70.2031422
  67.4901772  49.5768356  69.8682499  65.1176262  49.0029383  69.7279215
  64.1799498  48.6280394  69.7457743  65.3592920  49.9516344  69.9762630
  68.3938265  44.6383762  65.1855898  67.8507996  45.4529095  64.5411396
  68.2584906  43.3683681  64.9204206  68.9942884  42.7244616  65.1735830
  67.0678902  42.5887203  64.4057608  66.9121742  43.0779791  63.4442568
  67.5126934  41.0513115  64.1249609  68.5586786  41.1110783  63.8242245
  67.4522781  40.5080652  65.0680065  66.6362810  40.3637362  63.0719280
  65.6646347  40.0105381  63.4172583  66.4329815  41.0711241  62.2679520
  67.2396946  39.1096020  62.4565697  68.2167387  39.3396473  62.0316410
  67.4448967  38.4284425  63.2824135  66.3031673  38.5657954  61.3529205
  65.4093885  38.3259344  61.9288778  66.0159349  39.3221951  60.6225395
  66.9171953  37.4956751  60.5658007  66.9356537  36.6846800  61.1675024
  66.3347006  37.2929788  59.7659779  67.8687954  37.7163172  60.3091526
  65.7723761  42.6653671  65.2222919  65.8059788  42.7967548  66.3852501
  64.6323490  42.6398230  64.5074606  64.7805023  42.4917984  63.5194111
  63.2776546  42.6488543  65.0901365  63.3043337  42.6843977  66.1792326
  62.6677513  43.9952040  64.6549892  62.9350996  44.0271330  63.5987663
  61.1580515  44.2167950  64.7584391  60.6219530  43.4575748  64.1889906
  60.8015728  44.1291904  65.7847643  60.7709360  45.1220942  64.2908049
  63.5167265  45.1907587  65.1015759  64.5878983  45.0975370  64.9226999
  63.1051779  46.0615540  64.5912313  63.5203743  45.5087948  66.6109180
  63.6053467  44.6145916  67.2283936  64.2543125  46.2756109  66.8587589
  62.5613928  46.0101557  66.7416620  62.4682951  41.3534498  64.6282864
  61.8277121  40.7140779  65.4391289  62.6200247  40.9933758  63.3523798
  63.2613802  41.5907288  62.8504467  61.9134092  39.9001074  62.7266884
  61.9399691  38.9499760  63.2602119  60.9446621  40.3118849  62.4437141
  62.5362921  39.2733479  61.4397097  63.5141563  39.8737311  60.9383965
  61.9019318  38.2001162  60.8976889  61.0492611  37.8765416  61.3316917
  62.0856380  37.5767159  59.5369482  62.3747349  38.3342266  58.8084555
  63.3403873  36.7442822  59.6945524  64.0590334  37.2798467  60.3148842
  63.1117678  35.8675361  60.3004837  63.8618040  36.3788724  58.4595633
  64.5912313  36.9680762  58.2537079  60.8652973  36.8534374  58.9504576
  59.9922466  36.4638233  59.6684742  60.8832693  36.6516519  57.6517725
  61.7368269  36.9055128  57.1752357  59.8037720  35.8347178  57.0924902
  59.8249578  34.8127913  57.4710655  58.8498735  36.2662601  57.3957157
  59.9162340  35.7301974  55.5313349  60.9883547  35.9044194  54.9682856
  58.8090229  35.2274704  54.9016809  57.9284334  35.0717020  55.3711462
  58.7353849  34.7937799  53.4376287  59.6125317  34.1913199  53.2015133
  57.4632120  33.9692760  53.2340193  56.6348171  34.6738267  53.1600237
  57.6671839  33.4754324  52.2839546  57.1945047  32.9549575  54.1984606
  56.2496185  33.0396938  54.3454504  58.7903786  36.0622430  52.5231314
  58.8364649  35.9410071  51.3176346  58.9010525  37.2638297  53.0744028
  58.5350704  37.3304391  54.0134048  59.2531776  38.4928679  52.3464823
  59.0342474  38.1899238  51.3225698  58.2438517  39.6604323  52.7344275
  57.8645611  40.1396799  51.8318987  57.3848534  39.2068887  53.2289219
  58.8998604  40.6283283  53.6658859  59.6127605  41.6373253  53.0042410
  59.4912148  41.9059229  51.9652557  60.5557013  42.4382925  53.6823940
  61.0648346  43.2234287  53.1431913  60.7818937  42.1344423  55.0158453
  61.5420008  42.6945496  55.5401659  60.0697994  41.0680151  55.6764793
  60.2894163  40.7481194  56.6843700  58.9931870  40.4955435  55.0362444
  58.5573387  39.6179652  55.4904461  60.7547045  38.9017272  52.5069857
  61.1523914  39.6252680  51.6143322  61.4500666  38.5330200  53.5552263
  60.9842968  38.0243063  54.2930365  62.7140379  39.1563058  53.8834190
  63.5183001  38.6384201  53.3608627  62.5854111  40.2082014  53.6283159
  62.9765368  39.2104316  55.4219723  62.8718233  38.2585335  56.0715771
  63.3558798  40.4282713  55.9139299  63.3306885  41.2577295  55.3382015
  64.0072966  40.6260872  57.2524834  63.6078405  39.8530078  57.9089022
  65.5648375  40.4525185  57.0997095  65.9565449  40.8928394  56.1827660
  65.9551907  41.0372448  57.9326630  66.0731411  39.0233660  57.1356201
  65.6899834  38.2614732  58.0193090  67.0227623  38.6108422  56.3721800
  63.6398363  42.0244026  57.7208757  63.7443686  42.9725027  56.9923925
  63.3589888  42.1062422  59.0249205  63.3375168  41.2357855  59.5367241
  63.0294752  43.3398056  59.7644186  63.0882740  44.1801834  59.0727472
  61.6007900  43.2554197  60.3101063  61.5246725  42.3667049  60.9365940
  61.2361765  44.5498133  61.0862303  61.0655642  45.3639221  60.3817987
  60.3402472  44.4344950  61.6962433  62.0016050  44.9823380  61.7305422
  60.5820274  43.1230593  59.1528988  60.8975220  43.7181997  58.2959461
  60.6525707  42.1067142  58.7653875  59.1286135  43.3778906  59.4222736
  58.5097742  42.7980804  58.7374687  58.8732576  42.9288816  60.3821087
  58.8919592  44.4370413  59.3207407  64.0308619  43.6332512  60.8440351
  64.1399622  42.8948736  61.7414236  64.7867298  44.7029734  60.7051897
  64.4340897  45.3679037  60.0316811  65.7707405  45.2480650  61.6814423
  65.8945131  44.6253204  62.5674295  67.1182442  45.3560400  61.0368538
  67.0731258  45.6812286  59.9974728  67.5695372  46.2118959  61.5388012
  68.1091118  44.2535830  61.1656237  67.7941895  43.0658913  60.4228830
  67.0759201  43.0142593  59.6180105  68.6495876  41.9588614  60.5208635
  68.5640287  41.0363054  59.9659157  69.8799706  42.0605659  61.2747288
  70.7092571  41.0100508  61.2820339  71.5873003  41.2866163  61.5543461
  70.1424837  43.2343388  62.0374584  71.0271549  43.2411194  62.6569033
  69.2514181  44.3174171  62.0048237  69.4198895  45.1671648  62.6497602
  65.2533054  46.5316916  62.3003960  64.1383266  46.9414568  62.0148277
  66.0426188  47.1959591  63.1634331  66.8052197  46.6652536  63.5595322
  65.8603907  48.4837341  63.6854076  65.1828098  49.0653324  63.0603218
  65.1413250  48.3411074  65.0414467  64.1370916  47.9527903  64.8716688
  65.6034088  47.5642729  65.6506348  65.0997496  49.6671867  65.8422375
  65.0809383  50.5417156  65.1918983  63.8057184  49.7727394  66.6107607
  62.9975176  49.6258879  65.8942795  63.8398409  48.9617777  67.3382807
  63.7697935  50.7516527  67.0888186  66.3268518  49.8958874  66.7174101
  67.1034050  50.3226995  66.0826635  66.0656643  50.6137276  67.4949598
  66.6202259  48.9857912  67.2406292  67.1809721  49.3483353  63.6953878
  68.1962061  48.8834667  64.2382288  67.2710848  50.4617643  62.9840374
  66.4259624  50.8106279  62.5548935  68.4228182  51.4315271  62.9611492
  69.3906355  50.9349442  63.0306721  68.3849621  51.9054413  61.5171003
  69.2769766  52.5166368  61.3798141  68.6600208  51.1066771  60.8283186
  67.4379206  52.4254227  61.3727903  68.3545208  52.5217819  63.9370584
  67.3459959  52.7916050  64.6288824  69.4637537  53.2561779  64.1134644
  70.1820087  52.9037905  63.4969950  69.6312666  54.6848202  64.5457840
  68.7192297  54.9676561  65.0714254  70.7432365  54.8898554  65.5547142
  70.4221058  54.2692280  66.3912535  72.1580219  54.2943382  65.0733042
  72.5534344  54.7872877  64.1851902  72.8034782  54.3842411  65.9470367
  71.9821787  53.2286167  64.9269199  70.8835554  56.3129330  66.1015940
  71.4132023  56.9790316  65.4204988  69.8670483  56.7034101  66.1499548
  71.1847925  56.3581419  67.5939560  71.1863375  57.3668528  68.0069923
  70.3332520  55.8372927  68.0317831  72.1633863  55.9148550  67.7782488
  69.8900700  55.4991817  63.3139277  70.6166887  55.1122189  62.3952532
  69.2696142  56.6729927  63.2380390  68.6192417  56.8588114  63.9880991
  69.5349741  57.7116585  62.3005295  69.6740055  57.2906351  61.3047791
  68.3268642  58.7140036  62.3217344  67.3806524  58.1729269  62.3173237
  68.3630514  59.2944622  63.2436132  68.4157991  59.6880388  61.2003136
  69.4422293  60.0449467  60.6586456  67.3160839  60.3198147  60.9314823
  67.2452831  61.0122442  60.1996183  66.6182518  60.1951361  61.6509247
  70.7987976  58.4678364  62.7054548  70.8017254  59.1911793  63.7221813
  71.8436384  58.3402729  61.8793249  71.6939640  57.6977491  61.1145639
  73.1283283  59.0838814  62.0842457  73.4002399  58.7052107  63.0695295
  74.1899872  58.3629322  61.1770487  75.1086044  58.4117556  61.7617369
  73.9611673  56.8049431  61.0648441  74.8650885  56.4752007  60.5527020
  74.0651274  56.3906097  62.0676517  73.0019665  56.5481853  60.6152821
  74.3306303  59.0818882  59.8265743  73.3419466  58.9906740  59.3768120
  74.4948959  60.1498222  59.9702168  75.3351641  58.5781860  58.8019228
  75.2886486  59.0827179  57.8368425  76.3155651  58.6830187  59.2665958
  74.8603868  57.6470613  58.4925842  73.0443382  60.6434727  62.0871115
  73.9419460  61.2181044  62.6255703  72.0617056  61.2649250  61.3769913
  71.3138533  60.6390333  61.1141634  71.8701887  62.7076244  61.2488508
  72.8432131  63.1945848  61.1841059  71.1809206  63.0928516  59.9522305
  71.2607336  64.1623640  59.7576237  71.7790222  62.3451042  58.6417770
  71.4836979  62.8800154  57.7391386  72.8601694  62.4105787  58.7640142
  71.4219713  61.3171721  58.5786724  69.8183966  62.7162170  60.0531864
  69.8656797  61.7574453  60.0421858  71.1615562  63.3322382  62.4441385
  71.4031410  64.5114803  62.7290487  70.3202724  62.5083256  63.1728792
  70.1766348  61.5483618  62.8937149  69.5183659  63.1003714  64.2760515
  69.9074364  64.0807724  64.5508862  68.1472778  63.4668922  63.7418032
  67.8561115  64.4359255  64.1471434  68.1667280  63.6415005  62.6660585
  67.0223475  62.4861860  64.1073799  67.0975971  61.3299990  63.7653160
  66.0019064  62.9173565  64.7860003  65.2605247  62.2728300  65.0205946
  65.9695435  63.8939714  65.0415087  69.3699980  62.3053694  65.6451559
  68.9486694  62.9736805  66.5939331  69.6224499  60.9614563  65.7138014
  69.9033165  60.6191397  64.8060417  69.5024586  60.0802517  66.9204473
  70.3144360  59.3992090  67.1753502  69.5134878  60.8174372  67.7232790
  68.1889868  59.3505383  67.1467161  68.1057644  58.7452126  68.1900883
  67.1532059  59.4046783  66.3472509  67.2335148  60.0288725  65.5572939
  65.9678984  58.5136366  66.5154314  65.6601524  58.6072779  67.5568867
  64.7322321  58.9404964  65.7247782  63.8985538  58.3457804  66.0981321
  64.5582581  60.0003576  65.9106112  64.9365282  58.6973619  64.1977835
  65.8943415  59.1041136  63.8733578  64.9315596  57.6330233  63.9627075
  63.6877680  59.2509604  63.4909439  62.5644684  59.3967199  64.0439129
  63.9427042  59.6094942  62.3064613  66.2350368  57.0072651  66.2652016
  67.0828009  56.6304874  65.4956341  65.4370165  56.1922073  66.9012976
  64.7164154  56.6163158  67.4678373  65.2203035  54.7755718  66.5504265
  66.1377001  54.4200897  66.0812569  64.7782183  53.9365673  67.8198671
  64.0309954  54.4998693  68.3788347  64.3935013  53.0008984  67.4141312
  65.9905767  53.5502100  68.7504101  66.8062544  53.3922720  68.0448437
  66.3278770  54.4837093  69.2008781  65.7755518  52.4193096  69.8181391
  66.6689920  51.5919447  70.2685642  64.6710014  52.3373604  70.3338051
  64.1606236  54.7297668  65.4716063  63.0391693  55.3020811  65.6105947
  64.3739271  53.8535976  64.4527245  65.2268314  53.3161879  64.3907261
  63.4203863  53.6010408  63.3629370  62.3705673  53.7456369  63.6180449
  63.5818434  54.5251989  62.1608162  63.0064249  54.0896845  61.3439178
  62.9530430  55.9273958  62.3834562  61.8963623  55.8693600  62.1223783
  62.9841089  56.2998247  63.4073877  63.4645271  56.6830111  61.7871904
  64.9827957  54.6670055  61.6886711  65.3380489  53.6702108  61.4273548
  65.1041937  55.2781391  60.7943153  65.6006765  55.1005507  62.4750328
  63.4946918  52.1323299  62.9614687  64.5528889  51.5441465  62.5988531
  62.3398590  51.4218473  63.0361176  61.5435410  51.9489908  63.3649111
  62.0562840  50.1093483  62.3837852  62.6792336  49.3280935  62.8193045
  60.6180811  49.6700859  62.5355291  60.0125980  50.3629541  61.9512129
  60.4346561  48.6943054  62.0857430  60.2098131  49.7434425  63.5435152
  62.4831295  50.1451588  60.9173059  62.3358870  51.1426783  60.2223635
  62.9637527  49.0435171  60.4104137  63.0958557  48.2731295  61.0500669
  63.5313272  48.8517618  59.0292072  63.1798792  49.6600628  58.3879328
  65.0939989  48.9374781  59.0595102  65.4795456  48.2093620  59.7731638
  65.7178736  48.5768318  57.6903629  65.5095625  47.5387287  57.4314165
  65.3735971  49.2616272  56.9153643  66.8029356  48.6513042  57.7624321
  65.6432533  50.2768421  59.4996262  65.0217772  51.0035801  58.9764404
  65.4936075  50.4774761  60.5604982  66.6958046  50.2701139  59.2164373
  63.0574846  47.4937773  58.4491682  63.2976961  46.4289141  59.0570354
  62.4472427  47.5184202  57.2664070  62.1893692  48.4151030  56.8796778
  61.9743347  46.3321638  56.5396070  62.1060514  45.3945589  57.0796537
  60.4672575  46.5225363  56.3152981  60.0046825  46.7308760  57.2800350
  60.1918221  47.3280430  55.6345606  59.8320580  45.2003241  55.8834314
  60.1374578  44.9663591  54.8635817  60.2718973  44.3315935  56.3732767
  58.3181620  45.2562141  55.8788919  57.9916334  45.6757736  56.8304396
  57.8950548  45.8773565  55.0894213  57.6423693  43.8670444  55.8447599
  58.2616425  43.1740713  56.4143038  56.6788244  43.9256001  56.3509798
  57.3861361  43.2908297  54.4872665  57.1138048  43.9724112  53.7934494
  58.1167746  42.7899313  54.0021133  56.7236137  42.5341988  54.5804501
  62.8259897  46.1024380  55.2145767  62.8798580  46.9162750  54.3180180
  63.7158680  45.0910950  55.2138519  63.8828516  44.5623112  56.0580111
  64.5663977  44.8028374  54.0747404  64.5402908  45.6276751  53.3626604
  66.0562134  44.5943594  54.5303011  66.2285376  43.6532307  55.0524855
  66.7283249  44.5539761  53.6731339  66.4512491  45.7125568  55.5698204
  65.7262373  46.5262127  55.5905390  66.7292833  45.1240301  56.8877316
  67.6030064  44.4833136  56.7686224  66.9158173  45.9067726  57.6230001
  65.8755636  44.5464993  57.2423124  67.6526213  46.4968967  55.0357580
  67.9701471  47.1037197  55.8837271  68.5318232  45.8528423  55.0531912
  67.4301100  47.1123362  54.1640806  64.0750504  43.4648323  53.3484602
  64.3003750  42.3394775  53.8406944  63.4314919  43.6613131  52.2240829
  63.3002949  44.6199036  51.9342566  63.0279255  42.6010942  51.2249279
  62.1952820  42.0742607  51.6910458  62.4206352  43.2274723  49.9014807
  61.7761755  44.0510798  50.2088022  63.2529545  43.5330200  49.2674541
  61.6682243  42.2412920  49.0046358  62.3551607  41.4304829  48.7621355
  60.8444309  41.7536879  49.5259094  61.2520695  43.0714321  47.7484083
  60.0624990  43.4165049  47.5903034  62.1642065  43.2335663  46.8605661
  64.1055012  41.5111494  50.9896994  65.3336573  41.8052721  50.7650328
  63.7535334  40.2465868  50.9566116  62.8328180  39.9545979  51.2517834
  64.5920563  39.1653419  50.5244493  65.2993679  38.8552690  51.2936497
  63.6702490  38.0274343  50.2745008  63.1606817  37.6957273  51.1791611
  63.0628204  38.2120395  49.3884706  64.4445467  36.8586206  50.0419188
  64.8642683  36.6170573  50.8708191  65.2974033  39.4478488  49.1949034
  64.6977520  39.9345255  48.2966089  66.6258764  39.1764283  49.0609264
  67.1122026  38.7955666  49.8600101  67.3682213  39.4469357  47.8212309
  67.3795176  40.5191803  47.6256227  68.8642263  39.1169095  48.1251287
  69.0625906  39.8350787  48.9207363  68.9195013  38.0933952  48.4958935
  69.8537064  39.4711232  47.0088625  69.2926550  39.6647739  46.0946274
  70.3589678  40.3946114  47.2916698  70.9125423  38.3798623  46.6891479
  70.6398964  37.1599531  46.8259716  72.1236467  38.6600852  46.5468931
  72.7196693  37.8459668  46.5923357  72.4348307  39.6176100  46.4668131
  66.7881298  38.5910249  46.7229891  66.6636515  37.3870492  46.9150257
  66.3937855  39.3054962  45.6246901  66.5319729  40.3059435  45.6352901
  65.8836269  38.6097074  44.3669558  65.5343199  39.3771815  43.6762524
  67.0411873  37.9310179  43.6426497  67.5025845  37.2479844  44.3558645
  66.7194128  37.2326660  42.8700781  68.0740929  38.8843679  43.0490685
  68.5191965  39.5423174  43.7954521  68.8973665  38.2902598  42.6523829
  67.5430965  39.7620726  41.9012880  67.0385027  39.1587806  41.1466169
  66.8143749  40.4678965  42.2999048  68.6257219  40.4507446  41.1552429
  69.1560221  41.1431074  41.8090916  69.2283154  39.6382570  40.7492399
  68.1076145  41.1916447  40.0250101  68.8103247  41.7809582  39.6019101
  67.7711439  40.5713654  39.3024230  67.3173094  41.7582178  40.2979851
  64.5869732  37.7177453  44.5086718  64.5119762  36.6817832  43.8039207
  63.6570978  38.1898093  45.4019451  63.7959099  39.0864134  45.8457184
  62.4267292  37.4310875  45.6730652  62.6582718  36.4837503  46.1599398
  61.5432882  38.2744288  46.6473198  61.0275126  39.1530228  46.2598324
  60.7898188  37.7259278  47.2125959  62.1959543  38.6790061  47.4209166
  61.7203903  37.2370291  44.3355322  61.7969275  38.1227851  43.5063314
  61.0765934  36.0880184  44.2138672  61.2013674  35.4020762  44.9446344
  60.5170441  35.5972886  42.9699421  61.3192129  35.5145860  42.2365952
  59.6884727  34.2229939  43.0992222  60.0137758  33.5705996  43.9095640
  58.6570120  34.4531918  43.3660650  59.6729946  33.3549333  41.8104649
  59.2078447  34.0081382  41.0721827  60.7289982  33.1948376  41.5929031
  59.0333128  31.9737148  41.8736172  59.4116831  31.4466739  42.7495003
  57.9583693  32.0505738  42.0369911  59.4916725  31.1696815  40.6724739
  60.4546118  31.1595678  40.3679276  58.7063026  30.3603721  39.9275112
  57.5014114  30.1310253  40.2720499  57.1880484  30.5572295  41.1324310
  56.9919777  29.4140339  39.7755647  59.1807938  29.8751831  38.8229513
  60.1135874  30.0608945  38.4830832  58.6101151  29.2493558  38.2727075
  59.5241976  36.5964532  42.3631811  59.5127964  36.7744279  41.1448765
  58.8275146  37.3870611  43.1189346  58.9722300  37.2624946  44.1107178
  58.2548571  38.6557102  42.7981806  58.6968899  38.9247394  41.8388414
  56.7587757  38.5020876  42.5616169  56.5262079  37.5334835  42.1191025
  56.2872601  38.4927249  43.5443115  56.1337614  39.5522308  41.6885662
  56.4622879  39.6982622  40.3165913  55.7558584  40.8441353  39.9492788
  55.7364368  41.2403202  38.9447570  55.0484753  41.3760376  40.9441853
  54.4272184  42.1659517  40.8433199  55.2962399  40.6015491  42.0627689
  54.9614000  40.7395172  43.0802393  58.5785913  39.7075796  43.8786936
  58.3811951  39.3714356  45.0145531  58.8979387  40.9825563  43.5579109
  58.9103651  41.4949036  42.2029161  57.9060793  41.6306496  41.8015671
  59.4134903  40.8199644  41.5105057  59.5197725  42.8628969  42.4084806
  59.1391945  43.5749769  41.6762209  60.5707359  42.6847887  42.1807814
  59.3941927  43.2817364  43.8682795  58.7095690  44.0958738  44.1061354
  60.3337193  43.6816835  44.2496395  58.9866018  42.0155334  44.5636415
  59.6814537  41.6196775  45.3043032  57.6784658  42.2875643  45.2898264
  56.5752888  42.1451664  44.7298288  57.7897930  42.4627781  46.6024017
  58.7103796  42.6455784  46.9755030  56.7269373  42.3778963  47.6136541
  55.7933474  42.0734167  47.1405745  57.0736551  41.3034391  48.6278725
  58.0006742  41.3926411  49.1942453  56.3349438  41.3195229  49.4292164
  57.0679426  39.9328852  48.0034542  56.3857412  39.8253584  47.1601629
  58.0250359  39.7060561  47.5337410  56.6542101  38.8712263  48.9640856
  57.4879599  38.2611609  49.6791410  55.3657341  38.6533070  49.1282463
  55.0698948  38.0944610  49.9158144  54.6970844  39.3234038  48.7761402
  56.6002798  43.7799549  48.3101559  55.6890249  44.5606470  48.0751038
  57.6824808  44.1797018  48.9218664  58.4841299  43.5661411  48.9534807
  57.7495050  45.5155468  49.5983553  56.9248629  45.5099726  50.3111267
  59.0445280  45.6282854  50.4005384  59.0737438  44.7430801  51.0358810
  59.8036003  45.6448698  49.6184683  59.3338013  46.7945242  51.3304329
  59.2093611  47.6991367  50.7352114  58.2332182  46.8170929  52.3376703
  58.5262966  47.5355864  53.1031561  57.2955322  47.1413660  51.8863487
  58.1192827  45.8158445  52.7531433  60.7507229  46.6291618  51.9342279
  61.4880657  46.5786934  51.1330509  60.9902668  47.4219370  52.6429033
  60.7467079  45.7176113  52.5318623  57.4983168  46.7508268  48.7850666
  56.9703245  47.7417994  49.2719507  57.8356552  46.6538811  47.4976397
  58.3483839  45.8139467  47.2702026  57.2562313  47.4172020  46.3398457
  57.7602959  48.3829880  46.3040209  57.5255203  46.5666819  45.0845718
  58.5950089  46.5692663  44.8741388  57.2010756  45.5292034  45.1650095
  56.8225288  47.1642303  43.8567543  55.7607698  47.2610950  44.0834570
  57.2774696  48.5396719  43.4956837  56.8145704  49.2794132  44.1488409
  58.3633852  48.6310720  43.4727144  56.8537140  48.6780500  42.5010061
  57.0519209  46.1715126  42.7243376  58.0895615  46.2581778  42.4020147
  56.8682003  45.1267433  42.9749346  56.4577007  46.5130377  41.8767643
  55.7613993  47.8313303  46.5841579  55.4712486  49.0526438  46.5751553
  54.8917341  46.8535757  46.7211533  55.2280521  45.9074831  46.8302107
  53.4671450  47.1669388  46.6674900  53.2463360  48.0720234  46.1016560
  52.6659012  45.9655428  45.9861469  52.5885820  45.0622606  46.5912867
  51.6631699  46.3917065  45.9543419  53.2123661  45.6118441  44.6682692
  52.6436806  46.2209606  43.5154772  51.9876623  47.0647669  43.6705017
  52.9177952  45.7487106  42.2370577  52.5368977  46.2488890  41.3589144
  53.8189507  44.6637964  42.0283604  54.1967583  44.3042231  40.7645845
  53.8546610  44.8157835  40.0277805  54.3869257  44.0720558  43.1553555
  55.1148272  43.2842112  43.0294132  54.1037655  44.5393133  44.4548655
  54.7315311  44.1811466  45.2573776  52.8185415  47.4308109  48.0347681
  51.8010664  48.1600094  48.2046461  53.4985733  46.9903755  49.1093493
  54.2040014  46.2732506  49.0187693  53.4094143  47.5467014  50.4865551
  52.3580790  47.4433899  50.7551050  54.3183661  46.8177414  51.4974213
  55.2839088  47.3212671  51.4495516  53.8486099  46.9817066  52.4672413
  54.4382477  45.2581501  51.2829924  53.4858799  44.8212337  51.5833235
  54.6899652  44.9550152  50.2666998  55.4244995  44.7211027  52.3235416
  55.2897549  45.0743198  53.5164928  56.2677002  43.8618135  51.9446278
  53.7254143  49.0601015  50.4902220  53.0434465  49.8046827  51.1367273
  54.7996283  49.5602846  49.8595047  55.3905535  48.9327240  49.3331194
  55.1778889  50.9811020  50.0039053  55.5440426  51.1983776  51.0073090
  56.3459539  51.4102411  49.0383148  57.2106981  50.7517242  49.1200638
  55.9277058  51.3340044  48.0346441  56.6672945  52.7421188  49.3933153
  56.8415308  53.1190586  48.5277748  53.9478970  51.8866968  49.8617458
  53.5782957  52.6600647  50.7347298  53.3059645  51.8510771  48.7059402
  53.6607313  51.2397814  47.9844427  52.0273685  52.5141859  48.4348488
  52.1973658  53.5905933  48.4584284  51.4894295  52.1731520  47.0475292
  51.6146564  51.1242485  46.7787981  50.4251623  52.3869085  47.1463013
  52.0895672  53.0516434  45.9827471  51.8526363  54.0830517  46.2438154
  53.1775713  52.9929113  45.9526968  51.7500257  52.6340151  44.5833588
  52.3041296  53.2729721  43.8957548  52.0074224  51.5796328  44.4827557
  50.2288818  52.7856827  44.3020821  49.5897198  52.4140787  45.1030111
  49.9381256  53.8188744  44.1121292  49.9294519  52.0351839  43.0967999
  50.5925608  52.2801256  42.3754215  49.9210072  51.0423088  43.2818031
  49.0788984  52.2768021  42.6086617  50.9645700  52.2485590  49.4782639
  50.3968811  53.2159233  50.0092363  50.7210875  51.0364532  49.8921204
  51.2852573  50.3267288  49.4470310  49.6783161  50.7109690  50.8424425
  48.7309885  51.1427593  50.5195999  49.4838905  49.2154169  50.8809423
  49.0652943  48.9193058  49.9190712  50.4182053  48.6703444  51.0153151
  48.5289335  48.6963987  51.9230509  48.9038515  48.8576317  52.9337645
  47.1410275  49.3198347  51.8304062  46.7466640  49.2663860  50.8156538
  46.4469624  48.7769747  52.4720240  47.1874475  50.3700161  52.1186256
  48.4242678  47.2207975  51.8919897  47.8208351  46.8113327  52.7021170
  47.8835440  46.8680382  51.0137653  49.3957138  46.7300463  51.9516039
  49.9917173  51.3716555  52.2459841  49.0883875  51.9811153  52.8576946
  51.2302923  51.3239384  52.7169514  51.9310617  50.8431435  52.1711874
  51.6022253  51.9859028  54.0286255  50.9643507  51.6271114  54.8363924
  53.0687618  51.8242073  54.4130707  53.6862993  52.0921135  53.5557652
  53.3823156  52.5220490  55.1894712  53.5619497  50.4405069  54.8613358
  54.3207073  49.6509409  53.9897537  54.5257187  50.0223064  52.9965401
  54.7814655  48.3715725  54.4593811  55.3102636  47.7038670  53.7953424
  54.4534779  47.9050970  55.7696724  54.8262548  46.5743494  56.0440969
  55.1589489  46.0914755  55.2839994  53.7266159  48.7540770  56.6497374
  53.5148764  48.4646559  57.6684618  53.1459999  49.9973249  56.1353159
  52.6239777  50.6705570  56.7991352  51.2787724  53.4841824  53.8936758
  50.5214071  54.0358448  54.6730232  51.7511225  54.2367744  52.8851509
  52.3368740  53.8183737  52.1766758  51.4616966  55.6356192  52.6117468
  51.8096018  56.1509657  53.5070038  52.2001982  56.1593866  51.3969135
  53.2228899  55.7838631  51.4313126  51.6883945  55.7703590  50.5166721
  52.1155643  57.6482868  51.3656044  51.1102724  57.9453897  51.0668993
  52.3748016  58.1080818  52.3192739  53.1210899  58.2617235  50.3497458
  54.1355038  57.8897142  50.4935598  52.6394367  58.0307484  49.3996096
  53.0417013  59.7717142  50.6054544  52.1112537  60.1985121  50.2310038
  53.0284929  59.9671650  51.6777086  54.0999794  60.5427933  49.9807978
  54.0809584  61.5386820  50.1479673  54.9504471  60.2110767  50.4129744
  54.1633177  60.4244566  48.9797497  49.8629284  55.9488249  52.4753952
  49.4399738  56.8910694  53.1261110  49.0511894  55.0852966  51.8489695
  49.4681406  54.2283154  51.5145588  47.5849056  55.1384020  51.9451571
  47.2528505  56.0953856  51.5426397  46.9700241  54.0298033  51.0034752
  47.5177097  53.1153107  51.2311792  45.4759741  53.6472130  51.2916470
  45.2374220  52.6560497  50.9059143  45.3717279  53.5378742  52.3711252
  44.7484446  54.3707895  50.9239101  47.1426344  54.4783926  49.5195770
  46.5398169  55.3802490  49.4129229  48.1683969  54.8188114  49.3780470
  46.9416571  53.4158468  48.4459400  47.3276806  53.7726641  47.4910736
  47.5530148  52.5570726  48.7231588  45.8922577  53.1306124  48.3717728
  47.0658970  55.2060699  53.4112883  46.1904669  56.0044956  53.7919092
  47.4918318  54.1808987  54.0960789  47.8498650  53.4666252  53.4782362
  47.1703434  53.9682388  55.5231380  46.0878515  53.9238453  55.6429100
  47.7313375  52.5265169  55.9344196  48.8191128  52.5452471  55.8674097
  47.4457264  52.3771572  56.9756794  47.1493721  51.2991428  55.1955795
  47.1661234  51.3316536  54.1061926  47.9343319  49.9908113  55.5347919
  47.8228712  49.7100639  56.5821028  47.4271345  49.2378616  54.9315357
  48.9954424  50.0144243  55.2866220  45.6291723  51.1299181  55.5426025
  45.1041460  50.2531290  55.1635361  45.4913759  50.8351994  56.5829134
  45.0792980  52.0604801  55.4019117  47.6347971  55.0291538  56.5287304
  46.9869614  55.3116608  57.6053095  48.8206530  55.5981779  56.2919617
  49.4080639  55.1190853  55.6244850  49.4219494  56.5079308  57.1917439
  49.7148991  55.9112024  58.0555725  50.6584501  57.1485662  56.4929152
  51.2331724  56.2607241  56.2292242  50.2315474  57.7018023  55.6563854
  51.5267563  58.1201744  57.2936010  50.9226847  59.0046549  57.4958181
  51.8377209  57.7032995  58.2515240  52.8477716  58.5074425  56.5564871
  53.9025116  57.8300476  56.6649628  52.8458405  59.5629692  55.7178307
  53.6716795  59.9091625  55.2506638  52.0028496  60.1092672  55.6128454
  48.6009550  57.6159382  57.8378344  47.9613066  58.3550406  57.1375656
  48.6064863  57.7542448  59.1391516  49.1897440  57.1679020  59.7189045
  47.8462410  58.6012030  59.9583054  48.4750652  59.1743374  60.6396294
  47.2224760  59.2731810  59.3688393  46.9941139  57.8327274  60.9276485
  46.7684793  58.3369064  62.0282078  46.5989304  56.6155434  60.4851246
  46.9392395  56.4119053  59.5562410  45.7343626  55.7518482  61.2649441
  44.7618532  56.2384987  61.3390827  45.6815529  54.8358536  60.6764984
  46.2871122  55.2675962  62.6190996  47.4713135  55.1700115  62.7717495
  45.4375219  55.0305700  63.7090015  44.4323254  55.1220846  63.6728287
  45.9847212  54.4324255  64.9428749  46.8286180  55.0153446  65.3118563
  44.9056292  54.3573952  65.9915638  44.2256451  53.5371256  65.7615995
  45.4815340  53.9974070  67.2940826  46.2728882  54.7215271  67.4877691
  44.7144604  53.9936304  68.0684757  45.9026909  52.9941845  67.3594618
  44.1384840  55.6615353  66.3637924  43.3008766  55.5615044  67.0540905
  44.7786856  56.3621521  66.8998671  43.7509155  56.2127066  65.5069971
  46.4104033  53.0004644  64.5710230  45.7681608  52.1983004  63.8153124
  47.5806332  52.7065229  65.1058626  47.9869938  53.3166218  65.8006716
  48.0742025  51.3361311  64.9465179  48.7113380  50.9963036  65.7630110
  47.1462297  50.7678938  64.8826933  48.7674189  51.1116791  63.5810328
  49.0745926  49.9694204  63.3268261  48.9624977  52.1765518  62.8239489
  48.6927223  53.0945826  63.1472826  49.9633121  52.2654867  61.7679548
  50.2821684  51.2396955  61.5830612  49.2013597  52.7069569  60.4523563
  48.7375212  53.6470127  60.7511044  50.1736164  53.1166553  59.3438435
  49.6687651  53.3511114  58.4066916  50.8262110  53.9748812  59.5040464
  50.8461905  52.3047876  59.0670395  48.1679344  51.6754436  59.9450827
  47.3875713  51.4339972  60.6667805  47.6974487  52.1580601  59.0884447
  48.8569355  50.3501177  59.5132971  49.6376419  50.4547596  58.7598705
  49.1665268  49.8149633  60.4109955  48.1712866  49.6731281  59.0037155
  51.1338806  53.1761026  62.0849705  51.0148954  54.1805935  62.7259922
  52.3686981  52.7527475  61.7339659  52.7135801  51.4810848  61.1307144
  52.2722244  51.4401340  60.1349068  52.3729181  50.6602907  61.7618608
  54.2529249  51.4486599  61.0247183  54.6329546  51.6186619  60.0173569
  54.5035553  50.4379320  61.3467741  54.7160769  52.5350666  61.9683123
  55.6116247  53.0753756  61.6614485  54.8376417  52.0861959  62.9541349
  53.5542631  53.5708809  61.9549322  53.5687208  54.0628195  62.9274988
  53.7783813  54.5407629  60.8507538  53.6620283  54.2610455  59.6519756
  54.1610050  55.7448435  61.2576675  54.1534805  56.0515499  62.2199488
  54.6289349  56.7534685  60.2656698  53.8150597  56.9794130  59.5767212
  55.0719833  57.9936218  61.0165882  54.1808462  58.4949923  61.3942146
  55.6911325  57.6503849  61.8454075  55.8566570  58.9630795  60.1871061
  57.2098541  58.9785051  59.8171711  57.4063730  60.0657272  58.9889812
  58.3285284  60.3104258  58.4828615  56.2750053  60.7640648  58.9685774
  56.1584282  61.6125250  58.4331989  55.3139925  60.0848389  59.6981525
  54.3397236  60.4883194  59.9314022  55.7934666  56.2006474  59.3783855
  56.8388605  55.8384752  59.8747635  55.7080460  56.1922836  58.0615520
  54.8202085  56.4475298  57.6532650  56.7354965  55.8095932  57.0319796
  57.3985004  55.0223064  57.3907375  56.1476564  55.1401901  55.7355261
  55.1940536  55.6172180  55.5092621  57.1059942  55.2835131  54.5318270
  58.0838346  54.8948574  54.8162222  56.6839838  54.7181129  53.7009668
  57.2581768  56.3088417  54.1947174  55.9395647  53.6120844  55.9665012
  55.7333851  53.0922794  55.0308752  56.9304895  53.2267714  56.2067032
  55.0641918  53.2589293  57.1689224  55.6279039  53.3131886  58.1002617
  54.1496229  53.8497591  57.2197437  54.7831964  52.2066593  57.1257687
  57.7415562  56.9903040  56.8392754  57.5095129  57.9523516  56.0705566
  58.9524651  56.8892241  57.3186111  59.1118479  56.1280823  57.9630995
  60.0901127  57.8123093  57.1802616  59.7494936  58.8177776  57.4274731
  61.2004805  57.3382378  58.1035185  61.4821911  56.3408327  57.7660227
  62.1654034  57.8396893  58.0289030  60.8008432  57.3279572  59.5737457
  59.7924995  56.9149685  59.6018457  61.4836693  56.7386580  60.1857758
  60.6233740  58.6748314  60.3444815  61.4183235  59.3747950  60.0871706
  59.6560287  59.1677618  60.2477407  60.7675982  58.5067797  61.8486691
  61.5261841  59.0103149  62.2858238  59.8792696  58.0756807  62.6754570
  58.6935091  57.7298594  62.2298574  58.3909130  57.9871893  61.3012457
  57.9962444  57.5450373  62.9367971  60.1694012  57.8549290  63.9365768
  61.0820007  58.1379461  64.2639303  59.4678974  57.6867771  64.6434879
  60.5750036  58.1396484  55.7587290  60.9446955  59.2845440  55.4716110
  60.6987047  57.1497631  54.8736286  60.3361464  56.2260866  55.0619745
  61.4185905  57.1213818  53.5754728  60.9811735  57.7169943  52.7742147
  62.8648901  57.6504421  53.7737417  62.9940844  58.7309790  53.8357782
  63.1726551  57.2279310  54.7302294  63.9293337  57.1433258  52.7941751
  64.5064306  58.0074358  51.8521023  64.3255997  59.0721607  51.8438768
  65.5124283  57.2214460  51.2014103  66.1882782  57.6273918  50.5701160
  65.5061913  55.9321213  51.5911198  66.1801243  54.8344421  51.0716295
  66.6896725  54.8757792  50.1202869  65.9039354  53.5298967  51.6352129
  66.3995171  52.6636219  51.2224531  65.1490879  53.4284496  52.7748442
  64.9671745  52.4312687  53.1475878  64.5176840  54.5984221  53.2749939
  63.7688541  54.4503689  54.0390205  64.6766853  55.8595467  52.6927280
  61.4377880  55.6114054  53.0211258  61.1603355  54.6501398  53.7455034
  61.6860437  55.4564953  51.7310905  61.8357277  56.3175154  51.2247896
  61.6455936  54.2026949  50.9459305  61.8589258  53.3441639  51.5827322
  60.2204895  54.0292835  50.3897715  59.5594597  54.0368176  51.2564230
  59.8950100  54.9445724  49.8953962  59.9085999  52.8684425  49.4213247
  60.0391865  51.5274000  49.7939634  60.3779984  51.2096596  50.7689762
  59.9251461  50.4902220  48.7975264  59.9731302  49.4344378  49.0198183
  59.6402073  50.8540869  47.4704695  59.4904804  49.7967768  46.5739918
  60.2756548  49.2450380  46.5477228  59.5121622  52.2138548  47.0742178
  59.3866873  52.4875736  46.0370398  59.6400547  53.2222652  48.1073046
  59.6826553  54.2536020  47.7895975  62.6392221  54.1548395  49.7282124
  62.9487610  55.1892185  49.1282368  63.1323957  52.9829454  49.3402004
  62.8223372  52.2208548  49.9260139  63.9646339  52.7524805  48.1761169
  63.4757185  53.3212757  47.3852110  64.9657679  53.1610775  48.3135271
  64.0322304  51.2815952  47.6345778  63.2574844  50.4093981  48.0558586
  65.0282097  51.0768223  46.7563629  65.5934668  51.8591833  46.4588881
  65.4694271  49.7527599  46.2770414  65.0489902  48.9388847  46.8677616
  64.7676706  49.4989204  44.9756575  63.8188457  50.0344181  45.0083828
  65.3332853  49.9598551  44.1658878  64.5803070  47.9937029  44.5051241
  64.2739487  47.3333216  45.3163815  63.7448978  47.8988457  43.8114452
  65.8268499  47.3816299  43.8420010  66.7945719  48.0689955  43.4390020
  65.7319641  46.0923576  43.5191917  66.5342617  45.7306814  43.0236006
  64.9043846  45.6180143  43.8511753  67.0152092  49.6786928  46.2465572
  67.7729273  50.2892113  45.5538797  67.6053762  48.7741327  47.0588827
  67.0442820  48.0348730  47.4573374  69.0775871  48.5755491  47.2308111
  69.6790123  49.4700098  47.0685673  69.4527006  48.1044292  48.6903620
  68.8054752  48.6269236  49.3947744  69.1433954  47.0593786  48.7079144
  70.9392929  48.2676888  49.2024183  71.1024189  47.6724625  50.1008558
  71.5296459  47.7942801  48.4178925  71.5100241  49.6657467  49.4607115
  72.1731234  50.2773905  48.6278772  71.1777163  50.2629852  50.4900122
  69.6850443  47.6065493  46.1356688  70.3935957  46.6423893  46.4320898
  69.3824863  47.9465008  44.8467779  68.7529612  48.7271547  44.7268438
  69.9133301  47.3078537  43.6163712  69.4805670  47.7628613  42.7254248
  71.4510536  47.3668909  43.6000204  71.8306780  48.3177757  43.9739275
  71.8108702  46.5906858  44.2754030  72.0969868  47.1693754  42.2605181
  71.8552113  46.2145233  41.7937136  71.7655039  47.9564476  41.5832138
  73.6245871  47.2225285  42.5072527  73.8787222  48.2358646  42.8181648
  73.9653826  46.4586926  43.2061911  74.2592525  46.9727564  41.1672258
  74.0621328  45.9867525  40.7464647  74.0170956  47.7130795  40.4047394
  75.6698465  47.2746420  41.4585161  76.2360096  47.0105934  40.6648874
  75.8077908  48.2404137  41.7199564  76.0533142  46.7856073  42.2546959
  69.5263815  45.8046818  43.4292316  69.3297195  45.4408455  42.2797918
  69.2701244  45.0699234  44.5471144  69.6153736  45.4784536  45.4038525
  68.8298512  43.6489487  44.4157219  68.5381556  43.4657097  43.3815861
  70.0403404  42.7270746  44.7122240  70.3861475  42.9738188  45.7160378
  69.6869087  41.6979218  44.6487427  71.2103748  42.9659462  43.7277794
  72.3825598  43.1124020  44.1198301  70.9696579  42.7666521  42.5019312
  67.6290274  43.2260132  45.3134489  67.2575998  42.0636463  45.3273296
  66.9330788  44.2304468  45.8803940  67.4486828  45.0982523  45.9145641
  65.8518219  44.2026520  46.9018650  65.1106739  43.6599827  46.3150835
  66.3252878  43.3811665  48.1123352  65.3817272  43.4433651  48.6544847
  66.4548111  42.3324585  47.8448772  67.4884081  43.8103151  48.9858198
  68.8013983  43.5022545  48.6251593  69.0074301  42.9107094  47.7453709
  69.9185753  44.0900993  49.3341160  70.9178734  43.8821650  48.9811802
  69.6785355  44.8136425  50.5578232  70.6184959  45.3274059  51.3849688
  71.4982319  45.3391790  51.0008764  68.3434725  45.1122093  50.9293509
  68.2249737  45.7926846  51.7596006  67.2742605  44.6546364  50.0785923
  66.2314892  44.8575783  50.2731228  65.3059149  45.5510616  47.2701311
  66.0495853  46.4929533  47.4515247  64.0674353  45.6067371  47.6413345
  63.5070038  44.7715139  47.7331161  63.4229851  46.8641996  48.2332802
  63.8134909  47.7029800  47.6570368  61.9084311  46.7445469  48.0853176
  61.5381289  45.7977772  48.4785128  61.4559650  47.5351429  48.6839294
  61.4375687  46.9213963  46.6887474  61.4410496  47.9937220  46.1206198
  60.8430672  45.9293032  46.1097908  60.6073713  45.9916210  45.1296568
  60.8659077  44.9828672  46.4617014  63.6912298  47.0754719  49.7108459
  63.8837481  46.0799599  50.4378796  63.5499668  48.2982540  50.2161455
  63.4513330  49.0066957  49.5030642  63.9734697  48.7250185  51.6162634
  63.8799810  47.8667307  52.2816181  65.4007006  49.2538357  51.7323875
  65.4171753  50.2738905  51.3485575  65.6935024  49.2432022  53.2816982
  65.4313469  48.2892323  53.7392044  66.7772293  49.3312311  53.3584499
  65.1951456  50.0731134  53.7826872  66.3612986  48.3289337  50.9745359
  66.1506271  48.4100676  49.9081707  67.3810625  48.6208391  51.2254953
  66.2466478  47.2805309  51.2498617  63.0029726  49.7744942  52.2019577
  62.8367758  50.8144188  51.5756798  62.3438358  49.6105003  53.3656073
  62.4766207  48.7472439  53.8728142  61.4908552  50.6259871  54.0118933
  61.5372562  51.5230083  53.3943939  60.0374937  50.0758362  53.9712858
  59.9641323  49.8789930  52.9017210  59.9902773  49.0925503  54.4392824
  58.9235592  50.9839535  54.5428944  59.2312622  51.4608479  55.4734850
  58.7012672  52.1695328  53.6020803  57.8075314  52.7042150  53.9237165
  59.5195580  52.8890371  53.6307049  58.5900545  51.9259739  52.5454807
  57.6026917  50.3167057  54.6184063  57.2870064  49.9751616  53.6326075
  57.7055120  49.4440842  55.2634430  56.8600941  51.0182428  54.9985361
  61.8115568  51.0229683  55.4648924  62.1187878  50.1172972  56.2426472
  61.6717529  52.3426723  55.8667755  61.3566828  53.0328846  55.2001095
  61.9271946  52.7945805  57.2107887  62.1809483  51.9419003  57.8405857
  63.2048559  53.6836195  57.1608496  63.0595875  54.6403503  56.6591883
  63.6313772  54.0917540  58.5534859  62.8207302  54.5650434  59.1075134
  63.9887094  53.2163334  59.0957499  64.4604588  54.7914171  58.4475946
  64.4441223  53.0774069  56.4883757  65.3312159  53.6982441  56.6137695
  64.7062159  52.0745134  56.8254232  64.3133068  53.0671120  55.4062986
  60.7310629  53.4801912  57.8657722  60.0047922  54.2523336  57.2772121
  60.4396963  53.0851507  59.0932989  61.0829544  52.4458313  59.5378113
  59.1501188  53.3650303  59.7912169  58.5786533  54.1622257  59.3158150
  58.2335615  52.0910645  59.7842169  58.5974789  51.4264154  60.5677366
  57.2251558  52.3927498  60.0674295  58.1149197  51.3406515  58.4853220
  57.5296068  51.8141556  57.6970911  59.0862751  51.2539911  57.9984379
  57.4652863  49.6353292  58.6742973  58.8679361  48.7064886  59.1787100
  59.1706705  48.9288473  60.2019453  58.5324621  47.6744127  59.0768147
  59.7089148  48.9190292  58.5186386  59.4162416  53.7523413  61.2648487
  60.4950857  53.4955883  61.8311405  58.4134340  54.4025040  61.8371820
  57.6161337  54.7478104  61.3222265  58.5091352  54.7042656  63.2296371
  59.2630959  55.4856920  63.3246088  57.0949125  55.2583933  63.5914278
  56.7759943  56.0200071  62.8798532  56.3564539  54.4613981  63.5043573
  57.0539188  55.9791803  64.9748993  55.9147978  56.2115765  65.4316521
  58.0453539  56.5180349  65.4400158  58.8034821  53.4819555  64.1508007
  58.3519316  52.4019575  63.8138056  59.4686556  53.7360859  65.3064442
  59.6907330  54.7005796  65.5077791  59.9321747  52.7445841  66.2670565
  60.7218552  52.1387720  65.8226490  60.3904772  53.5246992  67.4793148
  61.3074350  54.0049696  67.1378040  59.5282507  54.1452503  67.7234173
  60.7229614  52.7487946  68.7718868  59.7943020  52.2399521  69.0302896
  61.8574858  51.6988468  68.6528730  61.3781691  50.8460188  68.1722021
  62.6171398  52.0968628  67.9801130  62.2102451  51.5129948  69.6673298
  61.1304092  53.7605333  69.8224545  61.3188553  53.3089352  70.7964420
  62.0056295  54.3229008  69.4971371  60.3355312  54.5049381  69.8686123
  58.7904119  51.7430162  66.6208601  57.6465940  52.1087599  66.9201756
  59.1033888  50.4758167  66.7041874  60.0708151  50.1859093  66.6924381
  58.2508755  49.3911171  67.2825098  57.4132442  49.8249054  67.8286791
  57.6900053  48.5428333  66.1459208  58.5144663  48.0980825  65.5886364
  57.0834160  47.7515173  66.5863323  56.7594242  49.3158054  65.1346970
  57.1695375  50.3090620  64.9520731  56.5536785  48.4939575  63.8251352
  57.4118900  48.3685827  63.1649399  56.2675238  47.5253439  64.2350149
  55.6290913  48.7951374  63.3326578  55.3525019  49.4897366  65.7556486
  54.9290323  48.5214901  66.0226202  55.4103804  50.1469517  66.6233015
  54.6848297  49.9336386  65.0172234  59.0928364  48.5342026  68.3100033
  60.3330660  48.4826517  68.2362890  58.3515930  47.8279209  69.1902542
  57.3478746  47.9351568  69.1563845  58.9058542  46.9915676  70.2663231
  59.9642992  47.2097158  70.4084826  58.3933020  47.2274208  71.1989307
  58.8632107  45.4672861  69.9334526  59.0955210  45.0262785  68.8115549
  58.7884426  44.6154356  70.9254265  58.6572409  45.0035906  72.3224831
  57.5923491  44.9636030  72.5516224  59.2352057  45.8607435  72.6679564
  59.2622566  43.8610840  73.1407404  58.8042450  43.7500858  74.1235971
  60.3318977  44.0707684  73.1417036  58.9541149  42.7089882  72.2201109
  58.1375933  42.0632410  72.5432205  59.8363924  42.0698738  72.1852160
  58.7038517  43.2000303  70.7859945  59.5419598  42.9016352  70.1561975
  57.3291636  42.7984667  70.1584482  56.2219143  43.1940746  70.4637814
  57.4850607  41.8877697  69.2761517  58.4111071  41.5165424  69.1188812
  56.3587761  41.1944962  68.6474657  55.7112074  41.9165707  68.1501102
  56.9511271  40.1550674  67.6825380  57.4236536  39.3961406  68.3061123
  56.1277866  39.6624136  67.1653271  57.9180336  40.7617140  66.7938089
  57.5947285  40.5367231  65.9183359  55.5910206  40.4184198  69.6980429
  56.1465693  39.8311639  70.6251097  54.2480230  40.4769373  69.6440125
  53.8330746  40.9871769  68.8774776  53.3089685  39.7195339  70.5376720
  53.2623434  40.1178455  71.5512133  51.9061089  40.0359869  69.9920845
  51.8121529  41.1214399  70.0246382  51.7530823  39.6619344  68.9797735
  50.7925892  39.4447184  70.9090853  50.8999920  38.3600521  70.9008312
  50.7294035  39.9308157  72.3657036  49.8646402  39.5603633  72.9162073
  51.6059208  39.5664763  72.9014969  50.8023262  41.0183716  72.3620892
  49.3639612  39.7807908  70.5490732  48.7733221  39.0241385  71.0655260
  49.1044235  40.7419825  70.9927559  49.1125774  39.8140454  69.4889736
  53.7029600  38.2175398  70.6260204  53.4835148  37.5594831  71.6214275
  54.1286135  37.6207757  69.5552111  53.9631462  38.0497980  68.6559534
  54.6865225  36.2575364  69.5167589  53.8954878  35.5596995  69.7913313
  55.2548647  35.8481979  68.1033659  54.4285965  35.5555439  67.4554968
  55.8177710  36.6322780  67.5969458  56.1103535  34.5693898  68.2366705
  56.4519644  34.4402790  67.2096682  56.9861937  34.7344351  68.8641834
  55.4373837  33.2667994  68.6606693  54.1876364  33.0208993  68.4877157
  56.1201429  32.3544216  69.1250277  55.8280134  36.0652614  70.5791616
  55.8338356  35.1677918  71.4393377  56.8817043  36.9234586  70.4549408
  56.8563128  37.6333809  69.7369814  57.9350662  37.0473957  71.4810896
  58.4699965  36.1048603  71.5976286  58.9311361  38.0570984  70.9838200
  58.4887266  39.0446949  70.8533335  59.6645164  38.1917572  71.7788887
  59.6433735  37.5885201  69.6947908  59.5397854  36.3779688  69.3685293
  60.3420544  38.3997011  69.0707445  57.3960400  37.3224163  72.9055214
  57.8904629  36.9275188  73.9104652  56.2722254  38.0334020  73.0170393
  55.8830118  38.4408164  72.1788120  55.7721233  38.3829427  74.3940020
  56.5642309  38.3907557  75.1427364  55.0624609  39.7014928  74.3075895
  54.2176962  39.5905614  73.6277628  54.6159649  39.8147583  75.2954721
  55.9439945  40.9366083  73.8857841  56.5831423  40.7193232  73.0299950
  54.9625778  42.0502996  73.7251759  54.2081833  41.7281485  73.0073977
  54.3408442  42.3580933  74.5658970  55.4498148  42.9928970  73.4757614
  56.9302654  41.2758017  75.0516844  57.6495123  42.0450354  74.7705030
  56.4399862  41.5691757  75.9799385  57.5623941  40.3995609  75.1956463
  54.8005342  37.2565579  74.8912764  54.6093321  37.0818877  76.1182404
  54.3147039  36.3552380  73.9984465  54.5763731  36.4176631  73.0249310
  53.5485268  35.1344252  74.2322111  52.8814411  35.1970577  75.0919628
  52.6340532  34.9285316  73.0289125  51.8726063  35.7082224  73.0480862
  53.1840563  35.0356746  72.0939732  52.0189285  33.6021614  72.9832935
  50.8625698  33.3805084  73.6937284  50.4059029  34.1205883  74.3341446
  50.1946402  32.1395659  73.5075331  49.2346478  31.9613242  73.9691019
  50.6568098  31.1574817  72.6578808  50.2012920  30.1833606  72.5579166
  51.9280052  31.3633919  72.0604324  52.3772287  30.6130981  71.4266729
  52.6198816  32.5876427  72.2042274  53.4367132  32.8123927  71.5343952
  54.4848871  33.9702868  74.5012379  54.2564964  33.2004142  75.4190302
  55.6488228  33.8212204  73.8618755  55.8689213  34.4664788  73.1166935
  56.7356730  32.9203558  74.2974281  56.3302851  31.9122910  74.3844414
  57.8078747  32.9300404  73.1709194  57.3633480  32.4775720  72.2844839
  57.9326677  33.9877367  72.9389572  59.1700363  32.3913264  73.5197783
  59.7945833  32.6872993  74.4997931  59.6371174  31.5676141  72.6537275
  60.4601717  31.0922194  72.9953098  59.0542650  31.1844039  71.9232845
  57.2691727  33.3217001  75.7482052  57.5292587  32.4917316  76.5954304
  57.3600245  34.6331930  75.9611940  57.1047258  35.3817964  75.3330851
  57.8623343  35.1372552  77.2534847  58.8245630  34.7220945  77.5532579
  58.0951309  36.6466951  77.1052361  58.8607931  36.6535783  76.3294697
  57.2789335  37.1217847  76.5609741  58.6681032  37.3869300  78.2091522
  59.7491169  36.8106055  78.8799334  60.2415657  35.9306312  78.4932280
  60.1680231  37.3608112  80.0753593  61.0563087  36.9163299  80.4993725
  59.5750904  38.5267758  80.5876255  59.8131609  38.9952826  81.5311432
  58.4557533  39.0827417  79.9289751  57.9587793  39.8683500  80.4787350
  57.9683781  38.4781432  78.8166523  57.0609665  38.8723588  78.3835316
  56.8515444  34.7988105  78.3261871  57.2825003  34.3921065  79.3997955
  55.5945396  34.7711420  78.0567455  55.2833319  34.8749661  77.1015072
  54.5452023  34.2999148  78.9697361  54.9156904  34.4988489  79.9753523
  53.2755470  35.0742340  78.6960840  53.0396748  35.1035762  77.6323128
  52.4660826  34.6490145  79.2894268  53.5151958  36.7798281  79.3542433
  54.0052605  37.2491455  78.2033873  54.2891359  32.8002572  78.8986683
  53.1890917  32.3522067  79.2558336  55.3217268  32.0501232  78.4775496
  56.1548376  32.4636412  78.0838156  55.2349949  30.5638528  78.4442568
  55.9994364  30.1995301  77.7579594  55.4437542  29.9748421  79.8433828
  54.9069881  30.5400014  80.6053352  55.1922894  28.9145041  79.8668098
  56.8748379  30.1065993  80.1848507  56.9373941  29.4693995  80.9001637
  53.9991426  30.0543928  77.7149105  53.3414125  29.1051507  78.1326866
  53.6841059  30.5885887  76.4940453  54.2783737  31.3464642  76.1897755
  52.7062225  30.1644564  75.5103111  52.5778961  30.9976363  74.8193407
  53.2729864  28.9714599  74.7406244  53.4228325  28.1303191  75.4174757
  52.5397348  28.7503290  73.9650249  54.6028233  29.3748045  74.0107965
  54.4659328  30.3237271  73.4922361  55.4047680  29.4798803  74.7415113
  54.9395895  28.2495475  72.9961252  54.9573231  27.3234153  73.5706425
  54.0973091  28.1754827  72.3082495  56.2977934  28.3801270  72.2965956
  57.0278263  27.7244353  72.5358009  56.5658712  29.2615390  71.3351631
  55.6912804  30.0961876  70.8565807  54.8204994  30.1326656  71.3669872
  55.9326124  30.7961297  70.1696062  57.7430010  29.3243742  70.7646751
  58.4122944  28.5696030  70.8143568  57.8073120  30.0211954  70.0363874
  51.3685083  29.9001241  76.0911226  50.7535410  28.8975787  75.8176470
  50.8863831  30.8706737  76.8205261  51.4942837  31.6371107  77.0717907
  49.5036030  31.0363269  77.2931290  48.7411642  30.8606434  76.5342331
  49.2038012  29.9757791  78.4014797  49.4633436  29.0139556  77.9591751
  49.9007368  30.1898456  79.2117596  47.7285099  29.9323392  78.8664436
  47.4874926  30.8676338  79.3716478  47.1604109  29.8264050  77.9422474
  47.2642803  28.7547398  79.7820139  47.2512102  27.8087187  79.2407417
  47.9018402  28.7203503  80.6654358  45.9289026  29.0506458  80.2973938
  45.6202841  30.0119901  80.2715302  45.1687765  28.1701446  80.9235668
  45.5179739  26.9707227  81.1533928  46.3846922  26.6048884  80.7858849
  44.8634720  26.3746428  81.6396332  43.9755535  28.6014557  81.3498020
  43.7813854  29.5625997  81.1077213  43.3114719  28.0068398  81.8247032
  49.2323589  32.4439263  77.7787590  50.0486851  33.0812597  78.4063339
  48.0046749  32.9848266  77.5000811  47.3909521  32.4138546  76.9366693
  47.5457430  34.2410302  78.1028175  48.2016277  34.4051099  78.9578009
  47.4165630  35.3248096  77.0258713  46.7254639  34.9615693  76.2652540
  47.0085669  36.2395930  77.4557734  48.6175728  35.7643557  76.1942339
  49.9047709  36.0080242  76.7634630  50.1867056  35.6155634  77.7293253
  50.9117842  36.6732740  76.0408354  51.7800045  36.9156051  76.6357040
  50.6954145  37.0894384  74.7185373  51.4898872  37.5309634  74.1352129
  49.4529295  36.7724967  74.1257381  49.2225409  37.0719314  73.1139755
  48.4088278  36.1579633  74.8911285  47.4440575  36.0207963  74.4255018
  46.1565304  34.1228104  78.6826706  45.2969790  33.3947110  78.1610107
  45.9017801  34.8051548  79.7948265  46.6301107  35.3402233  80.2457523
  44.5366716  35.0312304  80.2962112  44.1265440  34.1041231  80.6966686
  44.3976784  36.1394167  81.3786888  43.3599663  36.2827277  81.6798878
  45.1896381  35.8724308  82.6094627  44.8950863  36.5394306  83.4196854
  44.9936152  34.8530436  82.9419136  46.2568521  35.8516574  82.3887253
  44.9782896  37.3888373  80.9939957  45.9050751  37.3627615  81.2429810
  43.6246777  35.4733276  79.1744709  43.9542198  36.2788033  78.2848787
  42.4366426  34.9445176  79.2198753  42.1923733  34.3347430  79.9870825
  41.2686348  35.3125215  78.3183718  41.4543629  35.1749706  77.2531557
  40.0177813  34.5568275  78.7980080  40.1668119  33.4771156  78.7875509
  39.7938657  34.8756218  79.8160124  38.6898541  34.8548508  78.0298471
  37.8216767  34.4192386  78.5244322  38.4481263  35.9015512  78.2144642
  38.6768603  34.7094107  76.2205219  38.4929705  32.9241633  76.2791252
  39.4033742  32.5130248  76.7152739  37.5719666  32.5843573  76.7528200
  38.4154439  32.5192523  75.2700949  41.1645746  36.8641329  78.5090637
  40.9554386  37.4714541  77.4990177  41.3901997  37.4862576  79.6988964
  41.6327715  36.9848609  80.5414295  41.4574480  39.0094709  79.6785021
  40.4589367  39.3873978  79.4588423  41.7936230  39.6045518  81.0773182
  41.1831474  39.1384506  81.8507385  42.8506088  39.5808434  81.3425159
  41.5510368  41.1073208  81.0272598  42.2020149  41.5920067  80.2996540
  40.5079842  41.2534523  80.7465553  41.9011545  41.6581583  82.4010181
  41.2715435  41.3269758  83.2268524  42.9134274  41.3792849  82.6936531
  41.6952944  43.1623077  82.3625183  42.3291779  43.6942577  81.6530609
  40.6477928  43.4063578  82.1856499  41.9778490  43.7564278  83.7545776
  41.8952465  44.7630405  83.7518883  41.2755919  43.4584475  84.4165039
  42.8931332  43.7027407  84.1782188  42.4918461  39.6089220  78.7074757
  42.1361017  40.3629351  77.8234005  43.7676525  39.2303848  78.7981176
  44.0398502  38.5811472  79.5223427  44.7663927  39.5884967  77.8441620
  44.8656940  40.6724262  77.9019594  46.1613703  39.1745925  78.2302284
  46.1103344  38.1310296  78.5408211  47.2803068  39.4153666  77.1809053
  47.2818041  40.4161644  76.7490530  48.2190704  39.1224575  77.6510382
  47.0116949  38.7299204  76.3770914  46.6964912  39.9086595  79.2553425
  46.4571333  39.4320321  80.0535488  44.2976522  39.2946625  76.3825798
  44.2768478  40.2917194  75.6831741  43.7695646  38.1211066  76.0576820
  43.8307047  37.3534107  76.7111349  43.4555721  37.7466035  74.6713495
  44.3037510  37.9220867  74.0096092  43.0747843  36.2450314  74.5233250
  42.1902418  36.0371566  75.1253843  42.6553154  35.8684945  73.0500507
  43.5242271  36.0983348  72.4333906  42.4417734  34.8027277  72.9685640
  41.7678404  36.4243746  72.7475834  44.2414284  35.2830601  74.8352242
  45.1107168  35.5635309  74.2404318  44.5656729  35.3629494  75.8728075
  43.8682461  34.2755842  74.6513081  42.3783159  38.6763906  74.1073751
  42.4817133  39.1618490  72.9896355  41.3070154  38.9329362  74.7968197
  41.3447666  38.7079549  75.7807207  40.2871895  39.8655462  74.2213202
  40.1449013  39.6987200  73.1536007  38.9106631  39.5455098  74.8584843
  39.0521955  39.7047782  75.9274578  38.1595564  40.2806091  74.5694017
  38.3901525  38.1333685  74.4369888  39.0146089  37.3556995  74.8767471
  37.0245886  37.9393101  75.1139402  36.4225388  38.7630177  74.7303534
  36.5866041  36.9599771  74.9211359  37.1175766  38.0534363  76.1939573
  38.2695627  37.8712106  72.9064989  37.8102589  36.8905282  72.7823544
  37.5165772  38.4999919  72.4313688  39.2448068  37.8845406  72.4198580
  40.5106974  41.3863659  74.3571568  40.0027037  42.1513796  73.5280800
  41.3691854  41.8961287  75.3201723  41.6168165  41.3352871  76.1228180
  41.8203783  43.3461952  75.1850176  40.9720278  44.0304899  75.1968670
  42.8561878  43.6320496  76.3055468  43.6386347  42.8747416  76.3541365
  43.2753468  44.5986748  76.0261774  42.2497511  43.7287951  77.6714945
  41.3063955  44.2748451  77.6682568  41.9638348  42.7279472  77.9949903
  43.3034658  44.6187782  78.8445139  44.4913673  43.2949162  79.2707396
  45.3440380  43.8045835  79.7193956  44.0458155  42.6038980  79.9863386
  44.7899866  42.8878546  78.3046961  42.5504303  43.6081934  73.8489294
  42.4244833  44.6423054  73.3081675  43.3607912  42.6572418  73.3795309
  43.3611679  41.7672443  73.8570261  44.0428114  42.6783705  72.0867491
  44.2804193  43.7172222  71.8577766  45.2702045  41.7954111  72.1000147
  44.9717426  40.7483673  72.0478678  45.7935333  42.0293427  71.1729193
  46.2659597  41.9784212  73.2089520  45.7153320  42.0494366  74.1469669
  47.2024012  40.7924891  73.4793234  47.8475904  41.0548115  74.3177843
  46.6440725  39.8613191  73.5757256  47.8143024  40.5757141  72.6037169
  47.0216608  43.2644558  73.0277061  47.7929449  43.4965277  73.7621117
  47.5684929  43.2503128  72.0849037  46.3448906  44.1189003  73.0246735
  43.0804253  42.4198055  70.9213877  43.3208084  42.9795504  69.9066019
  42.0667934  41.6176414  71.1833334  42.1311712  41.0821152  72.0372486
  41.0590076  41.3193893  70.1290751  41.4487219  40.7947302  69.2567492
  39.9334598  40.5530882  70.6548214  39.3197656  41.0882044  71.3794804
  39.2785096  40.2950525  69.8226213  40.3757763  39.6352935  71.0422754
  40.3814888  42.5812674  69.4935656  40.5179167  42.7169657  68.2729197
  39.9659038  43.5119009  70.3693581  39.8752761  43.2531118  71.3414288
  39.7497272  44.9246740  70.0512171  38.7549162  45.0011921  69.6123552
  39.5113778  45.8010530  71.2736225  38.5671282  45.5145168  71.7366457
  40.3522873  45.5454445  71.9183254  39.4827580  47.2740078  70.9292412
  39.4054723  48.1367159  71.8608141  39.4906664  47.6470900  69.7054052
  40.8401966  45.3910875  69.0316820  40.4637241  45.6856966  67.9193401
  42.0741749  45.4368019  69.5405722  42.2573900  45.0987148  70.4745054
  43.1481457  46.0163498  68.7532949  42.7995920  47.0050955  68.4549570
  44.4301176  46.2571716  69.6055937  44.9018383  45.2874088  69.7641468
  45.1393080  46.7557526  68.9448643  44.3016195  46.9638586  70.9805918
  43.3950281  47.5580072  71.0954142  44.1833258  46.1615658  71.7088985
  45.3794813  47.9590607  71.3635159  46.1872196  48.4547663  70.5650663
  45.4612732  48.3124781  72.6463318  46.2350798  48.9212227  72.8716183
  44.8482800  47.9275799  73.3507442  43.4077311  45.2515793  67.3900938
  43.3691645  45.9059095  66.3505507  43.6032248  43.9452839  67.3811483
  43.5875082  43.4416151  68.2564592  43.8149595  43.1342316  66.1701775
  44.6965742  43.5293770  65.6654787  43.9265156  41.6477108  66.4349127
  42.9839182  41.3439178  66.8902445  43.9592791  41.0783482  65.5060101
  45.0423431  41.3330889  67.3202515  45.9490013  41.7966175  66.9313955
  44.8293352  41.6764212  68.3326006  45.4562426  39.5938087  67.5542498
  45.9323883  39.5093703  69.3359089  45.6209612  38.5682034  69.7890377
  47.0040798  39.7048116  69.3730974  45.4780769  40.3519154  69.8572683
  42.6979685  43.3647346  65.1713085  42.9407597  43.5605240  64.0137768
  41.4346457  43.3458710  65.5776167  41.2639093  43.2624340  66.5695763
  40.2553797  43.5352373  64.6840143  40.2172804  42.8833771  63.8112450
  38.9011097  43.3833122  65.3849459  38.8064265  43.8009930  66.3872814
  37.6629329  43.9407635  64.5568085  36.7159986  43.7576580  65.0646305
  37.7313948  45.0285769  64.5655203  37.6843762  43.5669088  63.5331535
  38.7381124  41.8554115  65.5949116  38.6602736  41.4090061  64.6035671
  39.5415831  41.4157486  66.1858702  37.4267054  41.3661671  66.2119293
  36.6094685  41.4540005  65.4960346  37.5950432  40.3039932  66.3895416
  37.2046995  41.8704128  67.1524382  40.2880716  45.0059271  64.1534233
  40.2421474  45.2140856  62.9605865  40.4904461  45.9944248  65.0086498
  40.6531000  45.7416010  65.9728718  40.6647539  47.3757076  64.6079016
  39.7073698  47.7427197  64.2380095  40.9272194  48.2637072  65.7693672
  41.8151808  47.8694820  66.2635422  40.9645557  49.3251085  65.5241251
  39.8995090  48.2959318  66.6989899  40.1356888  47.6403189  67.3592854
  41.7471647  47.6642895  63.5984421  41.5117264  48.5012865  62.7352905
  42.9117823  46.9224787  63.5642290  42.9873848  46.1462688  64.2060089
  43.9082241  47.0289898  62.4963474  44.1506147  48.0877113  62.4043894
  45.0914860  46.1782551  62.8440666  44.6968937  45.1687050  62.9590082
  45.8067513  46.1883593  62.0216322  45.8776665  46.6081667  64.0842152
  45.2611303  46.5361977  64.9802065  46.7985344  46.0378218  64.2059278
  46.5825701  47.9775953  64.0724564  47.4258327  48.0117846  64.7622681
  46.9283438  48.2910109  63.0874157  45.5426025  48.9547157  64.3716955
  45.2339649  49.4879818  63.5714006  45.0403214  49.3883801  65.5222940
  45.4688168  48.9410782  66.6703987  46.2462139  48.2992315  66.7319632
  45.3068924  49.4506741  67.5272512  44.0868950  50.2465487  65.5839777
  43.6176777  50.4971313  64.7254086  43.7112570  50.4720259  66.4940119
  43.3024025  46.6227484  61.1250067  43.2985067  47.4599314  60.1805019
  42.7207661  45.4350710  61.0253716  42.3925400  45.0085688  61.8800449
  42.3196650  44.9916220  59.6817017  43.1334972  45.2168751  58.9924717
  42.2324991  43.4412098  59.6547461  41.7032576  43.1745100  58.7399340
  43.6638355  42.9773045  59.6751547  44.1265249  43.0629683  60.6583548
  43.5924721  41.9314671  59.3764353  44.3217087  43.4127760  58.9230442
  41.3716030  42.7943039  60.8312368  41.9656420  43.1300306  61.6812420
  40.3795910  43.2323837  60.9412432  41.2528133  41.2668800  60.7705688
  40.5632639  40.9241867  61.5420532  40.8601189  40.9563065  59.8023558
  42.1819210  40.7820272  61.0702038  41.0273123  45.7568932  59.1843319
  41.0860872  46.2764978  58.0867624  40.0221205  45.9209824  60.0841808
  40.1755381  45.6654215  61.0491943  38.8958597  46.8279457  59.8687792
  38.2034826  46.3015175  59.2118216  38.2473254  47.1159887  61.2217712
  37.9510188  46.1991453  61.7313862  39.0312767  47.5704241  61.8275833
  37.0638967  48.1218481  61.0882187  37.3715377  49.0662861  60.6393385
  36.3408804  47.5976276  60.4632854  36.4584780  48.5132837  62.3767185
  36.2849951  49.7621918  62.5148106  36.0579777  47.7004576  63.2625675
  39.2981243  48.1397581  59.1703701  38.6928844  48.6050606  58.1809187
  40.3548050  48.8234758  59.6783113  40.6808710  48.5600710  60.5972290
  40.9048367  50.0854969  59.0676880  40.0661039  50.7812262  59.0918398
  42.0578241  50.7574415  59.9343204  41.6085005  50.8732653  60.9206200
  42.8380251  49.9963713  59.9472380  42.6846981  52.0916080  59.4478846
  41.8910599  53.2772827  59.4167042  40.8540154  53.2175159  59.7122860
  42.4575424  54.4689226  58.9116859  41.8303919  55.3393078  58.7871218
  43.8449049  54.5653820  58.5639381  44.2912292  55.7288885  57.9462290
  45.1995659  55.6220865  57.6544857  44.6580076  53.3584309  58.5543871
  45.6437540  53.4341764  58.1196833  44.0575838  52.1539068  59.0911531
  44.6455050  51.2623596  59.2520714  41.2574530  49.8688984  57.5883770
  40.6507921  50.4774952  56.7195892  42.2332525  48.9587069  57.3155737
  42.5845814  48.5112286  58.1501007  42.7261114  48.5504341  56.0032654
  43.1528044  49.3959379  55.4636717  43.8089085  47.4868822  56.1998415
  43.3463717  46.6334057  56.6955566  44.3365288  46.8597889  54.8701334
  43.4696007  46.3463068  54.4543552  44.8070145  47.6603222  54.2992687
  45.0408888  46.0610104  55.1023912  44.9065542  48.0203819  57.1417427
  45.5148029  47.1811342  57.4790812  45.5951643  48.6193514  56.5457964
  44.5550203  48.6489201  57.9599524  41.6040039  48.0918074  55.0883675
  41.5995741  48.3966732  53.8881588  40.5977821  47.4155569  55.6867409
  40.6376266  47.3408127  56.6931820  39.3247700  46.9309855  54.9753189
  39.6275449  46.3995409  54.0731001  38.5801196  45.9912205  55.8271122
  38.3469534  46.4169312  56.8030787  37.6309323  45.8462381  55.3112411
  39.2169166  44.6745300  56.1512709  38.6145401  43.6052895  56.7559004
  39.4866920  42.5692797  56.7592096  39.1964769  41.5511656  56.9727945
  40.6535769  42.9873657  56.2164116  41.4127588  42.3646498  55.9798241
  40.4884100  44.2769957  55.8004141  41.2860918  44.8549652  55.3576279
  38.5456824  48.2227659  54.5467949  38.2751632  48.3418941  53.3612061
  38.2821417  49.1625643  55.4427004  38.5400629  48.9590216  56.3977718
  37.5929689  50.4616308  55.1328659  36.6580749  50.2775908  54.6035194
  37.2653127  51.2173986  56.3944292  38.2355070  51.5413618  56.7710924
  36.2613654  52.3437166  56.3045692  36.5635300  52.9788160  55.4718351
  35.2408791  52.0388269  56.0727262  36.3200068  52.9893780  57.1808052
  36.7207336  50.2924395  57.2191143  37.3321533  49.5964146  57.4707365
  38.5026240  51.2862301  54.2535067  37.9678798  52.1643782  53.5962152
  39.7748089  51.0660744  54.0578842  40.1676750  50.4336166  54.7403479
  40.6713438  51.7197514  53.0821753  40.3737402  52.7293491  52.7989101
  42.0423222  51.9592524  53.8044643  42.5167370  51.0727739  54.2253971
  42.6361465  52.3646164  52.9852200  42.0930910  52.9798746  55.0071478
  41.7210674  52.3820066  55.8391619  43.1329489  53.0561018  55.3249502
  41.1870003  54.2237997  54.8463678  41.3157940  54.8181820  53.9418173
  40.1398516  53.9262390  54.7912359  41.3980675  55.0468731  56.0987329
  40.8361959  54.6878290  56.9609928  42.4557877  55.0257921  56.3611937
  41.0628986  56.4703131  55.9864426  41.6405725  57.0127296  55.3602028
  40.1313591  56.6382265  55.6341028  41.0368872  56.9380283  56.8812418
  40.9319687  50.9621859  51.7893171  41.9541121  51.1310625  51.0663271
  39.9401855  50.1636887  51.4361763  39.2266512  50.0069857  52.1336126
  39.8572612  49.4996881  50.0792694  38.8547015  49.0888882  50.1984930
  39.8708582  50.5153990  48.8914490  40.8864689  50.7146358  48.5494804
  39.2962551  50.0200367  48.1087971  39.0352941  51.7581081  49.1454172
  37.8874421  51.6652441  49.4832087  39.5611501  52.9723120  48.9463854
  39.0429258  53.8207150  49.1245937  40.5639458  53.0635643  48.8677454
  40.9065628  48.3708048  49.9326801  41.2455750  48.0106497  48.8324070
  41.3528156  47.7374077  50.9938049  40.9821272  48.0581617  51.8768740
  42.3414278  46.6038704  50.9468842  42.4119616  46.1924028  49.9399948
  43.7705088  47.0853233  51.3459301  43.7958431  47.8785563  52.0930862
  44.4277477  46.2732029  51.6567469  44.5765448  47.6071024  50.1594877
  44.3814993  48.9162445  49.7319508  43.6103582  49.4714975  50.2452230
  45.1790237  49.3798018  48.6762381  45.0373077  50.3327703  48.1882191
  46.0088062  48.5249853  47.9915714  46.5806484  48.8386631  47.1307564
  46.1919689  47.2308588  48.4380674  46.7570114  46.5188265  47.8548574
  45.5536890  46.7487144  49.6187782  45.6075668  45.7299089  49.9730921
  42.0570374  45.3635168  51.8601799  41.3315582  45.3837299  52.9021931
  42.5352669  44.1934204  51.4607000  43.0971336  44.2474508  50.6231499
  42.6060486  42.9926682  52.2476292  42.2709560  43.2440948  53.2539082
  41.8232584  41.8367195  51.5833473  42.2755480  40.8692503  51.8013859
  40.4191971  41.9882727  52.1358585  39.9596572  42.9316807  51.8410730
  39.8046064  41.1127281  51.9265556  40.5722189  41.9838047  53.2150555
  41.7947340  41.8924570  50.0381804  41.3922453  42.8424931  49.6867132
  42.8019476  41.9462776  49.6249914  41.0917234  40.7450724  49.3486214
  41.0425997  40.8764553  48.2676840  41.6747570  39.8533082  49.5786762
  40.0568199  40.6663704  49.6816111  44.1411400  42.6826382  52.3649073
  44.9405813  42.6500654  51.3698244  44.6573400  42.4415684  53.5759163
  44.0219355  42.4201918  54.3607140  45.9808159  41.8137455  53.7861538
  46.7253256  42.4405098  53.2952690  46.2890673  41.6678381  55.2832127
  46.1015463  42.6429224  55.7328224  45.5791616  40.9480715  55.6907320
  47.6495361  41.2015629  55.6251526  48.0966234  39.9368477  55.5244684
  49.3029594  39.9618936  56.1365509  49.9301672  39.0834761  56.1738968
  49.6400452  41.1699963  56.5275764  50.4728508  41.3971090  57.0519400
  48.6165142  41.9757605  56.3089180  48.5406256  42.9751730  56.7111826
  46.2944460  40.4651785  53.0778027  47.2806883  40.3914642  52.3313999
  45.4992056  39.4151616  53.2894468  44.7420454  39.6065998  53.9298820
  45.4041195  38.0412722  52.7329779  44.4008064  37.6795602  52.9579973
  45.5968618  38.0863619  51.1572981  46.6271019  38.3780503  50.9532785
  45.3003263  37.0947814  50.8153439  44.7262383  39.1348934  50.4063702
  43.7275219  39.1333652  50.8430195  45.1593685  40.1127815  50.6166983
  44.5986366  38.7660646  49.0021849  44.2293072  37.7430034  48.9311790
  43.9390373  39.4857764  48.5173798  45.8222914  38.8659286  48.2522678
  46.6072989  39.2255569  48.7762260  46.1060238  38.2503891  47.1113110
  45.2208090  37.6513076  46.4179516  44.2717218  37.7410913  46.7515230
  45.3968716  37.2821474  45.4944611  47.2876310  38.3394337  46.5418959
  47.9608297  38.9744902  46.9463778  47.4163103  37.8804111  45.6514788
  46.4104891  37.0561624  53.4102201  46.5595293  35.8798718  52.9901695
  47.0990467  37.4273419  54.5384645  47.1264553  38.4124112  54.7597933
  48.1326294  36.6307020  55.1625443  47.8664684  35.5862927  54.9998283
  49.4936180  36.8820000  54.4285250  49.2735291  36.8185425  53.3628607
  49.9045944  37.8707552  54.6323919  50.7582045  35.9192729  54.6128368
  50.6511307  34.8601222  55.2753115  51.8250275  36.2178183  54.0627527
  48.3181810  36.7479658  56.6890717  49.3784666  36.4809275  57.2301865
  47.2302246  37.1963596  57.3708725  46.3516951  37.1973944  56.8725872
  47.3569012  37.6580667  58.7551785  48.0471182  38.5011530  58.7853146
  45.9982967  38.2968688  59.2063284  45.2101517  37.5777984  58.9830399
  46.0522366  38.5026717  60.7275677  45.2714443  39.1808534  61.0718536
  45.9605026  37.5640106  61.2740135  47.0125484  38.8306093  61.1255217
  45.6179953  39.6486712  58.5552454  45.6260920  39.5312643  57.4716139
  44.6022987  39.8742294  58.8801718  46.3804722  40.9122324  58.8764524
  46.0446978  41.7558908  58.2734585  46.1846495  41.0934687  59.9332905
  47.4580050  40.7602406  58.8137674  47.7507687  36.4769077  59.5885277
  47.0034647  35.4973483  59.8410225  48.9066362  36.6242433  60.2580643
  49.4224739  37.4531245  59.9992847  49.5125866  35.6815124  61.2536287
  48.9416599  34.7543120  61.3030243  50.9140635  35.2626872  60.7957840
  51.4183235  36.1903143  60.5249929  51.3964653  34.7429371  61.6235828
  51.0053205  34.3587780  59.6380329  50.7551050  33.3295417  59.8952532
  50.3910017  34.7073054  58.8078260  52.5299454  34.3151402  59.1571283
  53.1595373  34.0145969  59.9946213  52.6225233  33.5843110  58.3537483
  53.0039692  35.6644607  58.5437107  53.1851006  36.4248133  59.3034172
  53.9671612  35.4050565  58.1043053  52.1494055  36.2253308  57.4308681
  52.1372461  35.5905414  56.6453791  51.1830521  36.3459563  57.6986456
  52.5121117  37.1093845  57.1037626  49.5349932  36.3543248  62.6609325
  49.3514872  37.5645685  62.8081369  49.9127722  35.5589581  63.7265348
  49.9482489  34.1211534  63.8603544  50.8224201  33.8391042  63.2735252
  49.1427851  33.6298585  63.3145046  50.0737953  33.8363767  65.3367758
  50.5921173  32.8793979  65.3970957  49.0672970  33.7376666  65.7433701
  50.9211206  35.0740790  65.7937241  51.9673300  34.8018742  65.6542587
  50.7729673  35.2021170  66.8659973  50.3637409  36.1552215  64.9310112
  49.4710922  36.6329980  65.3347540  51.4999628  37.1732473  64.6243477
  51.5864420  38.2249069  65.2720451  52.3715878  36.8667936  63.6337376
  52.3764086  35.8950686  63.3583736  53.6143684  37.5667477  63.3270550
  54.1193056  37.5798297  64.2929554  54.4022274  36.7167687  62.1882248
  53.8513756  36.6981268  61.2478447  55.3557873  37.2188711  62.0247555
  54.6348095  35.2375507  62.4696255  53.6049128  34.5103884  62.5624752
  55.8042049  34.8383617  62.6398945  53.5093832  39.0423679  62.8488970
  54.5021772  39.7903419  63.0304480  52.3112488  39.3866777  62.3570967
  51.5020609  38.7947273  62.4792194  52.2378683  40.7384729  61.7050076
  53.1428480  40.9209585  61.1255121  51.0864735  40.7291842  60.7001162
  50.1101255  40.3923130  61.0484743  50.9293604  41.7578173  60.3755569
  51.4459848  39.8818660  59.4692707  51.1722040  38.7001801  59.3677235
  52.1233845  40.5280924  58.5291576  52.5625992  39.9732471  57.8085089
  52.3996925  41.4736843  58.7519026  52.0850849  41.8603277  62.7798748
  52.1151018  43.0392170  62.4336052  51.8622923  41.5398550  64.0372753
  52.0872974  40.5822229  64.2662239  51.5000772  42.4223757  65.1025057
  51.2105227  43.3698416  64.6480083  50.2898502  41.8491840  65.8172941
  50.5553341  40.8817673  66.2435818  50.1498175  42.4716091  66.7010784
  49.0392542  41.7038012  64.9978304  48.2020855  42.7742672  64.7590494
  48.3670568  43.7555361  65.1789284  47.0328140  42.5395441  64.0086937
  46.2525177  43.2794046  64.1094637  46.6001606  41.2534285  63.6456060
  45.5696535  41.0815668  63.3718967  47.5030565  40.2184439  63.9067841
  47.1121502  39.2416716  63.6628389  48.7275696  40.4329395  64.5026970
  49.3531704  39.5684123  64.6688652  52.6227474  42.6225471  66.1144400
  53.2681417  41.6213608  66.4879990  52.8501987  43.8285112  66.5882874
  52.1962214  44.5540142  66.3312626  53.9355946  44.3036795  67.4771118
  54.0616179  43.4858227  68.1865644  55.3214502  44.5814705  66.6907740
  55.1166010  45.4218197  66.0274935  56.0818768  44.9403095  67.3843765
  55.8995485  43.5699081  65.6841612  55.6463861  42.6202345  66.1554670
  55.2606440  43.6691093  64.2976952  55.2984762  44.6884966  63.9136076
  55.6396103  42.8622055  63.6704874  54.1907215  43.4741497  64.3708801
  57.3751593  43.8319874  65.5285978  57.6197100  44.7262335  64.9553442
  57.8032494  43.8765478  66.5300274  57.7966881  42.9309702  65.0829792
  53.5087585  45.5176926  68.3709240  52.4835634  46.1085415  68.0567503
  54.2441416  45.7637453  69.4856024  55.1461554  45.3300762  69.6212721
  53.8985062  46.8659878  70.3456402  52.8184557  46.9538689  70.4633999
  54.4595575  46.6060448  71.7299223  55.5109119  46.3249731  71.7911530
  54.3117714  47.5119066  72.3178673  53.6442137  45.4517078  72.4311304
  53.8510895  44.4572258  72.0357752  54.0437460  45.4415035  73.4452200
  51.8444633  45.5735111  72.4907637  51.6867018  46.9237947  73.7393761
  52.0848083  46.5727949  74.6914339  52.2231388  47.8333664  73.4691906
  50.6323099  47.0569611  73.9814997  54.4826317  48.2109308  69.8619795
  55.5100012  48.2504082  69.1948462  53.9743614  49.3108845  70.4467964
  53.1312037  49.2252827  70.9962225  54.6983242  50.5725765  70.5671740
  55.5103683  50.7123804  69.8536301  54.0102530  51.3991642  70.3899336
  55.5111217  50.8740568  71.8891621  55.4722023  50.1760244  72.9013300
  56.0999155  52.0543098  71.9242001  56.0823107  52.6047182  71.0775375
  57.1021366  52.4398756  72.9722118  57.0974159  51.7293596  73.7987995
  58.5745668  52.3837280  72.4192953  58.6879635  53.1622648  71.6648912
  59.6837711  52.7951336  73.4835768  59.4377232  52.3153543  74.4308758
  60.6263113  52.5617599  72.9883432  59.6250010  53.8812971  73.5535526
  58.9749479  51.0755205  71.7904902  58.3220863  50.9752798  70.9234142
  59.9364328  51.1610413  71.2841940  58.8663626  49.7425795  72.6412392
  57.8404617  49.3764877  72.6814461  59.3859625  48.9612579  72.0865726
  59.2591286  49.8268652  73.6545134  56.8070173  53.7983608  73.5732985
  56.3568878  54.7251654  72.8576231  57.2648430  54.0225410  74.8214006
  57.4397564  53.2184505  75.4070139  57.1579170  55.3129673  75.4320288
  57.3445654  55.1611328  76.4951372  57.8792238  56.0031414  74.9944448
  55.7616520  55.9487343  75.3102160  54.7518969  55.4591131  75.7711887
  55.6714725  57.0107794  74.5643139  56.4748096  57.3603153  74.0617418
  54.3886614  57.6456642  74.3676710  54.0132999  57.9686308  75.3387070
  54.7043085  58.8882208  73.4109116  55.5231428  59.4194412  73.8961172
  55.0650597  58.5346317  72.4450254  53.5921574  59.9200726  73.3144188
  52.7203274  59.6021366  72.7426386  53.2643414  60.1692581  74.3236494
  54.2380428  61.1648989  72.7170277  54.9894857  61.5786219  73.3895350
  54.6162033  60.9070015  71.7277908  53.2589006  62.2264481  72.4775982
  52.7366972  62.1406412  71.6173363  53.1152391  63.3322144  73.1425810
  53.8521671  63.6462736  74.1772127  54.5522785  62.9983377  74.5090723
  53.6621618  64.5124865  74.6606112  52.2847033  64.2363071  72.6953173
  51.9692755  64.0656519  71.7511320  52.2925377  65.1477671  73.1303930
  53.3074617  56.7037868  73.6728382  52.1630049  57.0703888  73.4253931
  53.7467766  55.5364990  73.0796099  54.6990252  55.2766705  73.2936430
  52.9246044  54.5596504  72.3089647  51.8929863  54.9093151  72.2689152
  53.3796597  54.5738029  70.8830643  54.3210030  54.0497923  70.7175732
  52.6549101  53.9882231  70.3174305  53.4093714  55.9573650  70.2270603
  52.3287916  56.6208315  69.7533417  52.7084112  57.8995800  69.6301174
  52.0588541  58.7147427  69.3473005  53.9987421  58.0524111  69.8108387
  54.5107079  58.9129448  69.6786785  54.4646740  56.8527317  70.1702023
  55.5055904  56.5650463  70.1816034  52.9485512  53.2149458  73.0045652
  52.5608826  52.2306204  72.3937845  53.1854057  53.1145859  74.3339252
  53.4211731  53.9515209  74.8477840  53.3153009  51.7934513  74.9497032
  54.0673447  51.2481785  74.3794298  53.9365578  52.0118141  76.3434887
  54.6951246  52.7843666  76.2176657  53.2093573  52.2206211  77.1281481
  54.8507833  50.4813623  76.8825150  53.8737965  49.5704508  76.9078207
  52.1031809  50.8760023  74.8469400  52.2651720  49.6648073  74.9867582
  50.8640909  51.3769436  74.7131205  50.8067513  52.2874498  74.2797756
  49.6600008  50.5408430  74.8069382  49.8992634  49.5564079  75.2090979
  48.6906672  51.1746264  75.8766508  48.2574177  52.1377039  75.6066990
  47.8077078  50.5363274  75.8441401  49.0807724  51.2423515  77.3646688
  49.4187403  50.3029251  78.0658102  48.9880705  52.4837828  77.8811884
  49.0454769  52.6375198  78.8777685  48.6904335  53.2112360  77.2468948
  48.9189053  50.3452253  73.4704304  47.7248478  50.0976229  73.5006189
  49.5727491  50.4691792  72.3062801  50.4799986  50.9082365  72.3713064
  49.0596104  50.3013706  70.9088612  47.9836082  50.1289797  70.8842802
  49.3515062  51.5456486  70.0893688  50.4313040  51.6926146  70.1125479
  49.0540791  51.2867928  69.0731812  48.7557840  52.8969765  70.6164408
  47.6748800  52.7626324  70.5752277  48.9146185  52.9940462  71.6904259
  49.1506386  54.1787434  69.7669029  50.2243471  54.2763042  69.6064806
  48.6895227  54.2310095  68.7806273  48.7865305  55.4523468  70.4888535
  47.7118063  55.4971218  70.3125906  48.9744043  55.3280258  71.5553141
  49.3552780  56.6452789  69.8697281  49.1091490  57.4614048  70.4114437
  50.3573084  56.6911936  69.9877310  49.1782093  56.5956450  68.8766098
  49.7909546  49.0140533  70.3253651  51.0113001  49.0413475  70.2503395
  48.9807129  47.9444742  70.0263453  48.0009460  48.1283760  70.1886606
  49.3771744  46.8582821  69.0585375  50.4359531  46.6437674  69.2037344
  48.5125113  45.5575991  69.2949009  48.7694931  45.3502226  70.3336763
  47.4360132  45.7152557  69.2285204  48.8927317  44.1886997  68.5426807
  49.1877794  44.3474245  67.5054455  50.0060511  43.5071850  69.3643284
  49.8217297  43.3748960  70.4304552  50.2716446  42.5556660  68.9037275
  50.8709717  44.1652346  69.2807436  47.7553892  43.2594252  68.5440636
  46.7943287  43.6672115  68.2307196  47.8733015  42.3226070  67.9994869
  47.5604630  42.8343296  69.5286417  49.1641903  47.4199247  67.6501894
  47.9694033  47.7340126  67.2460842  50.2487707  47.6303673  66.9015217
  51.1376238  47.4115562  67.3283243  50.1780987  47.9195595  65.4666710
  49.3633127  48.6300087  65.3270531  51.4406586  48.7138939  65.1471567
  52.3150253  48.1566048  65.4833317  51.5663815  48.7640762  64.0655947
  51.6549969  50.1168108  65.7961416  52.1204281  50.1801968  67.1320057
  52.2224855  49.2811394  67.7216530  52.2951698  51.4465380  67.7708387
  52.7729225  51.5464687  68.7342501  52.1490860  52.6070023  66.9980621
  52.3647547  53.5637331  67.4503422  51.8299389  52.5791502  65.5997753
  51.7096806  53.5011339  65.0503349  51.5908289  51.3126612  65.0415230
  51.3271427  51.2970495  63.9943266  49.9187994  46.6560173  64.6387625
  50.0972700  45.5775690  65.0953722  49.8056412  46.8461037  63.3131933
  49.7648144  47.8109694  63.0174446  49.9017668  45.8489752  62.1806479
  50.2566910  44.9227619  62.6326036  48.5014534  45.5827808  61.6224909
  47.8538275  45.1874161  62.4050331  48.0408335  46.5222883  61.3171101
  48.4398460  44.5164204  60.5787897  49.2907524  44.5800972  59.9005508
  48.3581877  43.1001997  61.0421038  49.0728903  42.9095221  61.8426991
  47.3700619  42.8834105  61.4479399  48.5262585  42.4524450  60.1817131
  47.1450186  44.8169136  59.8179483  46.2106848  44.4666147  60.2566051
  47.0334673  45.8705425  59.5619774  47.1821451  44.2252016  58.9032936
  50.8764744  46.2532759  61.0947895  50.7924652  47.3850012  60.5813122
  51.8318605  45.3542662  60.7061720  51.8445539  44.4370985  61.1289501
  52.7881098  45.5383587  59.6872044  52.4234200  46.3411951  59.0464640
  54.2084217  45.9892702  60.2620602  54.8112631  46.3032246  59.4099379
  54.0831614  47.3294306  61.0609102  53.4725332  47.9800701  60.4348898
  53.4765959  47.0385647  61.9185686  55.0170612  47.8641987  61.2340021
  55.0202465  44.8259115  60.9157324  54.4305229  44.5072842  61.7752695
  55.0589466  43.9481449  60.2706480  56.4913225  45.2784014  61.1739492
  57.1324396  44.4127607  61.3404799  56.8865633  45.9083843  60.3770733
  56.5599537  45.9366941  62.0400047  52.9780865  44.3575144  58.7791443
  52.4954987  43.2777786  59.0614605  53.7133265  44.4538498  57.6847410
  54.1747713  45.3331137  57.5001717  54.0671062  43.4272957  56.6754627
  54.7527599  43.8822126  55.9606028  54.8548889  42.2538185  57.2694778
  55.7708597  42.6175308  57.7351141  54.2840528  41.7932892  58.0758047
  55.1639128  41.1781549  56.2670612  55.3565216  40.0212002  56.6808414
  55.2990532  41.5462923  55.0418520  52.8783703  42.9274130  55.8565187
  52.1280622  42.0130777  56.1756277  52.7560854  43.4979486  54.6957874
  53.4596443  44.0815353  54.2662239  51.5628433  43.3839703  53.8627720
  50.7932663  42.7080584  54.2355919  50.9236479  44.7942734  53.7469339
  51.6520405  45.4300451  53.2436085  50.1263809  44.7285080  53.0065632
  50.2486372  45.3866005  55.0409698  50.9132624  46.2300158  55.8923197
  51.9407320  46.4006853  55.6066942  50.3502607  46.8168974  57.0219326
  50.9477520  47.3950529  57.7112389  48.9781904  46.5743303  57.2370005
  48.5874033  46.9889927  58.1544638  48.3053780  45.8415413  56.3278961
  47.2693253  45.6108379  56.5273094  48.8869333  45.2571058  55.1983118
  48.2807016  44.6799278  54.5158482  51.9222450  42.8305054  52.4712229
  51.4766073  43.3475351  51.4282513  52.8663921  41.9080687  52.4734783
  53.1967306  41.6411972  53.3898640  53.5114479  41.3900471  51.2782764
  53.7058496  42.3283339  50.7587337  54.4314146  40.8644342  51.5341806
  52.7060795  40.6162167  50.2584600  53.2324266  40.4594660  49.1700602
  51.4978313  40.2388859  50.5762815  51.0481215  40.7405806  51.3287210
  50.5651331  39.5608473  49.6289396  50.9777737  39.5472026  48.6201572
  50.4075623  38.1010056  50.2094507  50.0417328  38.1236696  51.2359762
  49.5506716  37.5421023  49.8333263  51.6592264  37.2414804  50.2289391
  52.3512697  37.6709342  50.9533405  51.2067509  35.8779502  50.7434988
  52.0773077  35.2222371  50.7600307  50.8495235  35.9839797  51.7678213
  50.4170322  35.4353952  50.1363802  52.3224211  37.0356131  48.9123058
  51.6851473  36.5506673  48.1728363  52.4803925  37.9952025  48.4200335
  53.2492924  36.4963150  49.1076946  49.2413378  40.3205919  49.6535969
  48.2272625  39.7867990  49.2291212  49.2133045  41.6001701  50.0775385
  50.0618696  42.0562172  50.3809500  47.9941368  42.3996735  50.1438284
  47.2473288  41.6760874  50.4706383  48.2110977  43.5862827  51.1337042
  49.0793228  44.1407585  50.7775545  47.2812796  44.1441631  51.2446117
  48.5318661  43.1361055  52.0731449  47.4916363  42.8359032  48.7488222
  48.2410240  42.9391050  47.7689743  46.1927319  43.0244064  48.6529112
  45.7310772  42.9355764  49.5468283  45.4657459  43.3496809  47.4229908
  46.1442184  43.7053680  46.6475773  44.8405361  42.0641327  46.8788338
  45.6449556  41.3660002  46.6472816  44.2488003  41.4945936  47.5954819
  44.0769577  42.1980524  45.5985069  43.1796789  42.7751970  45.8218861
  44.6371603  42.7002478  44.8097944  43.6378384  40.8138371  45.1731205
  44.5596266  40.2438498  45.0568295  42.8867435  40.3348780  45.8012581
  42.9949570  40.8986139  43.7581015  41.9189024  41.0721111  43.7681961
  43.6121798  41.6306877  43.2373190  43.2331038  39.6069694  43.0112267
  44.1870403  39.3250489  43.1862164  42.5436974  38.9093328  43.2523108
  43.0980968  39.7159553  42.0162392  44.3073845  44.3379259  47.6470041
  43.6855412  44.3487453  48.7248516  44.0815210  45.3106737  46.7417955
  44.8806810  45.4813480  46.1482382  42.9835129  46.2749672  46.6086626
  42.7896690  46.7980623  47.5450945  43.4073162  47.3226309  45.5599451
  44.4105101  47.7416611  45.6381702  43.4686613  46.8755865  44.5677328
  42.4106026  48.5161066  45.7313538  41.4389896  48.1440687  46.0563898
  42.7419615  49.0586710  46.6167498  42.4385595  49.4422531  44.4854975
  41.6646147  50.1693773  44.7312737  43.3994150  49.9562073  44.4589472
  42.1162748  48.7522030  43.0941439  42.9403973  48.0557203  42.9397488
  41.1890411  48.1792450  43.1016016  41.9702435  49.7217131  41.9650555
  41.5679550  49.3814659  41.1033726  41.4468336  50.5503607  42.2089577
  42.8973150  50.0096416  41.6862583  41.6959572  45.5139494  46.1717367
  41.7270708  44.8097229  45.1562309  40.6794214  45.4606485  47.0491123
  40.6558228  45.9978104  47.9041004  39.4771409  44.5539713  46.7994928
  39.8758459  43.7393761  46.1948633  38.8740897  43.9712906  48.0303574
  38.1050158  43.2539129  47.7440166  39.6012473  43.4225607  48.6288834
  38.2117558  44.9866295  48.9852428  36.9319129  45.5005407  48.7160015
  36.3248968  45.1629019  47.8889990  36.3662791  46.4177132  49.5308113
  35.3625274  46.7884445  49.3843889  37.1084547  46.8977499  50.6499910
  36.5476179  47.9070663  51.4182806  37.1303725  48.0490351  52.1678448
  38.4189868  46.3405609  50.9462452  38.9198804  46.6945982  51.8351603
  38.9509630  45.3724337  50.1403093  39.9466538  44.9710369  50.2581263
  38.3909607  45.3543282  46.0813951  37.4500513  44.8315620  45.5860567
  38.4206796  46.7054653  45.9939146  39.1060209  47.2644472  46.4817190
  37.5525260  47.4372482  45.0745678  37.2477603  46.7484331  44.2866850
  36.2483668  47.9064131  45.8353329  35.4664946  48.3246756  45.2014256
  35.8283114  46.9919300  46.2541103  36.5544248  48.9948177  46.9813395
  37.2828245  48.5381556  47.6514053  36.9372272  49.8221970  46.3838339
  35.3243756  49.3814564  47.7305984  34.5730400  49.5654631  46.9626570
  34.9915242  48.5663891  48.3732319  35.4626060  50.5562973  48.6831617
  36.3208866  51.0884857  48.6984253  34.8671484  50.7437277  49.8614502
  33.7530947  50.1650333  50.1146173  33.3237410  49.6830893  49.3377733
  33.2304120  50.3979826  50.9468651  35.3306365  51.6344357  50.6715727
  36.2773275  51.9054937  50.4470587  34.8915648  51.5972662  51.5803814
  38.3013844  48.6401558  44.4265509  39.3740845  49.0444851  44.9009752
  37.7058530  49.1523314  43.3548594  36.9073796  48.6400557  43.0082893
  38.0391264  50.4661226  42.7986860  39.0900254  50.4316187  42.5114250
  37.1182919  50.7385397  41.5374613  37.2381377  49.9635744  40.7803822
  36.0864067  50.8315468  41.8760872  37.3505116  52.0422029  40.8358669
  36.9974232  52.1283340  39.6506977  37.8428602  53.0335665  41.3756275
  37.9037166  51.4947605  43.9631510  36.9316530  51.4611244  44.7488880
  38.8539028  52.3993015  43.9762402  39.5743394  52.3272419  43.2720518
  38.9411831  53.4921789  44.9878979  38.6123753  53.0122185  45.9096527
  40.4035711  53.8302183  45.2935553  40.5839252  53.7823486  46.3674641
  41.0684061  53.0325413  44.9621916  40.9948111  55.0401974  44.6335745
  40.5754423  56.1784267  44.9015427  41.8117952  54.7930384  43.6373281
  42.2643948  55.5142546  43.0941010  41.9418192  53.8121223  43.4348392
  37.9952097  54.7060442  44.8098135  37.8051662  55.5190516  45.7107067
  37.3883033  54.8071051  43.6302042  37.5922251  54.0553331  42.9872751
  36.5144897  55.9222031  43.2330465  36.4321756  56.5791225  44.0989494
  37.1804571  56.6902971  42.0812082  37.3938560  56.0569906  41.2201166
  36.4694524  57.4713469  41.8118906  38.4965563  57.5161743  42.4737024
  39.1260195  56.7752934  42.9666233  39.1191101  57.8358793  41.6380501
  38.1284261  58.6936951  43.3946323  37.8065157  59.5371342  42.7838278
  37.2433281  58.4576941  43.9854002  39.2314100  59.1455936  44.2448616
  39.8605490  58.4258890  44.5709181  39.6769404  60.3424931  44.5001364
  39.0271878  61.4679480  44.2230940  38.1772566  61.4453077  43.6779261
  39.5341206  62.3194456  44.4182158  40.9097290  60.5055523  45.0083160
  41.3524055  59.7756767  45.5481434  41.3049698  61.4350080  45.0061846
  35.1578188  55.4730272  42.9090166  34.3082500  55.8408451  43.6883974
  34.7599745  54.6319723  41.9397688  35.5170226  54.3911743  41.3160706
  33.4830141  53.9275980  41.7450190  32.7152753  54.7006750  41.7771387
  33.4459543  53.1359959  40.3702021  32.4463916  52.7483463  40.1734734
  33.8641620  53.9754343  39.1280437  33.6008978  55.0099039  39.3486238
  34.9419236  54.0390205  38.9780736  33.4524441  53.6063766  38.1886888
  34.3411970  52.1300888  40.3786755  35.1986384  52.4496555  40.0883722
  33.0543184  52.8727055  42.8182697  31.8491769  52.7096176  43.0521822
  33.9363432  52.2202110  43.5536385  34.8846960  52.5248671  43.3865643
  33.6923623  51.1815977  44.5287323  34.6249509  50.8736944  45.0015640
  32.8206229  51.7188311  45.6681585  31.7528462  51.7472887  45.4510260
  32.8773808  50.8915806  46.3756418  33.3472276  53.0297089  46.2597561
  34.4281626  52.8894806  46.2556744  33.0784607  53.8342905  45.5752754
  32.7516651  53.3812618  47.6179218  31.7255330  53.6161518  47.3351145
  32.6998591  52.4622488  48.2017279  33.4880567  54.4093180  48.3500767
  34.2939544  54.8645353  47.9458427  33.2932067  54.8349714  49.5822954
  32.2375059  54.5753717  50.3077507  31.5545750  53.9424562  49.9164391
  32.1433306  55.0087595  51.2151670  34.1440296  55.5741644  50.2088022
  34.9755549  55.9160280  49.7485924  33.8041592  56.0402298  51.0378838
  33.2108092  49.8585129  43.9802217  32.7126503  48.9976883  44.7145367
  33.4428120  49.6492863  42.6495171  33.8484287  50.4337835  42.1594763
  33.2949471  48.3573580  42.0233250  32.2439408  48.1115341  42.1752119
  33.5538912  48.5925531  40.5450583  34.5251632  49.0809345  40.4662323
  33.6335039  47.5999594  40.1017523  32.5039506  49.4210577  39.8542976
  31.4918900  49.0252829  39.9391794  32.4183130  50.3808784  40.3637123
  32.7917218  49.6544456  38.4095454  33.7967849  49.3364191  37.9029799
  31.7167997  50.0261068  37.6655412  31.7777729  50.2352333  36.6793108
  30.7918859  50.2194309  38.0222821  34.1837025  47.3387051  42.6788998
  35.4037428  47.5110149  42.6087666  33.6869001  46.2392235  43.2954025
  32.6952338  46.0504484  43.3279800  34.5185828  45.1507854  43.8016319
  35.2275825  45.6266737  44.4790888  33.5584235  44.1971922  44.5683718
  32.8866386  44.8759222  45.0938559  33.0119228  43.6074543  43.8323975
  34.1314483  43.2023859  45.4859209  34.6554756  43.5029793  46.7384863
  35.2432179  42.3783779  47.1729755  35.6691885  42.3265457  48.1640673
  35.1466942  41.4287329  46.2142038  35.4307437  40.4661512  46.3276005
  34.4950676  41.9285440  45.1177835  34.3186021  41.3997173  44.1927958
  35.2388287  44.3848801  42.6461792  34.8286533  44.5375490  41.5005112
  36.3406825  43.7517023  42.9608822  36.6522646  43.8244629  43.9188623
  37.1281672  42.9122782  42.0653486  37.4313450  43.6502790  41.3226938
  38.4245062  42.4101591  42.7453852  38.8536477  41.7409992  41.9996214
  39.4626164  43.4458733  42.9054022  39.6387291  43.8543558  41.9103003
  39.0576100  44.2871857  43.4677792  40.3813839  43.0026293  43.2894707
  38.1750393  41.6693068  44.0107059  37.7205300  42.4195719  44.6577215
  37.4434280  40.8646059  43.9378643  39.4055557  40.9316921  44.6132851
  39.7692513  40.1520777  43.9439392  40.1792574  41.6747761  44.8064566
  39.1332650  40.4601812  45.5575514  36.3462543  41.7018557  41.3901234
  35.4476190  41.0830736  41.9339180  36.8299294  41.2484121  40.2044773
  37.7792501  41.8606949  39.2759299  38.5693359  42.4218750  39.7748804
  37.1653175  42.5702763  38.7212396  38.2576442  40.7534599  38.3571792
  39.1524196  40.2868509  38.7691903  38.4359312  41.1034298  37.3404026
  37.0526576  39.8346257  38.3311796  37.3665738  38.7994885  38.1968379
  36.4194417  40.1561880  37.5042939  36.4239860  39.9977660  39.6989846
  35.3354621  39.9429202  39.7136831  36.8910050  38.8617873  40.6712723
  37.9990029  38.8877010  41.2541294  36.0460067  37.8622699  40.7077694
  35.1672244  38.0316591  40.2396345  36.3469863  36.5099740  41.2171459
  36.7120886  36.5678072  42.2425508  35.0681424  35.6745219  41.2395716
  34.2917609  36.1814880  41.8125677  34.7435331  35.4620767  40.2209473
  35.1527452  34.3016863  41.8803883  34.9244523  34.2467809  43.2899475
  34.5994329  35.1165771  43.8415003  35.0874829  32.9806757  43.9034986
  34.8703074  32.8829813  44.9569178  35.3479314  31.8416739  43.1074429
  35.2539110  30.5695462  43.6328936  35.8978152  29.9903393  43.2187653
  35.6420445  31.8860817  41.7423153  35.8307290  31.0140347  41.1337662
  35.4667139  33.1655431  41.1472893  35.4206753  33.2756710  40.0739050
  37.4698973  35.7861996  40.3940916  37.4596763  35.9633207  39.1812086
  38.3903742  35.0901818  41.0889006  38.4025979  34.9965620  42.0944786
  39.4618917  34.3235302  40.3935432  39.3697953  34.5008564  39.3220162
  40.8428574  34.7841954  40.7387447  41.0429573  34.4109392  41.7431068
  41.5437746  34.2457795  40.1008368  41.1636257  36.2115645  40.5162764
  40.5187082  36.7979121  41.1707830  42.2180414  36.4598346  40.6374216
  40.8270168  36.5881205  39.0605307  41.3748503  35.9034181  38.4131026
  39.7528791  36.4848709  38.9066958  41.2353373  37.9713631  38.7868977
  41.4146137  38.6221099  39.5382214  41.5340519  38.5834694  37.6944065
  41.8077469  37.9598832  36.5936422  41.4376163  37.0232558  36.5172887
  42.0591974  38.4040856  35.7221150  41.6968822  39.8969316  37.6775527
  41.4910841  40.4982710  38.4624958  41.9008589  40.2233410  36.7437673
  39.2404819  32.7808809  40.6007528  39.1256142  32.2792101  41.7049265
  39.0956831  32.1484828  39.4882798  39.2759323  32.5894570  38.5976887
  38.7806892  30.6811571  39.5394325  37.9062033  30.5790544  40.1820421
  38.4686399  30.1603675  38.1227803  39.3501115  30.3635454  37.5146508
  38.2946682  29.0956974  38.2787108  37.2143126  30.8668780  37.4478579
  37.4667764  31.9064546  37.2389483  37.1193171  30.3285575  36.5048385
  35.8818531  30.6275654  38.2155180  35.0171804  31.4922929  38.0883431
  35.6921363  29.5616674  38.9121628  39.9306512  29.8715281  40.1153898
  40.9996510  29.8818779  39.5215654  39.7110868  29.0438843  41.1376095
  38.8679004  29.3179059  41.6213942  40.4781818  27.8068900  41.4571762
  40.3013229  27.5276756  42.4958563  40.0162697  26.7074347  40.4330254
  40.2972031  27.0584130  39.4400573  40.5584955  25.7952166  40.6819248
  38.5141087  26.4562726  40.4584217  37.8653049  26.3217950  39.4119644
  37.9654384  26.2522483  41.5655708  42.0064640  27.9789639  41.4849186
  42.8106737  27.1946549  40.9310627  42.3584938  29.0329647  42.2612047
  41.6447401  29.6334100  42.6486683  43.8299704  29.3394732  42.5150633
  44.3392897  29.4085193  41.5538549  44.0133286  30.6259632  43.2636166
  43.6721468  30.4917574  44.2901087  45.0722408  30.8837962  43.2819223
  43.2232618  31.7902756  42.7317858  43.5858583  32.0883250  41.7480230
  42.1830559  31.4774275  42.6412392  43.2291031  33.0136681  43.6532879
  44.1697979  33.4996796  43.3944654  42.4014997  33.6742020  43.3946943
  43.1400919  32.7742052  45.1767874  42.1848965  32.3954082  45.5404043
  43.8508892  31.9818807  45.4115152  43.4196901  34.0392828  45.9943867
  44.3539381  34.3171692  45.7297087  42.8813171  34.8604250  45.7577705
  43.3232117  33.8825011  46.9874668  44.6439743  28.2752872  43.2685995
  44.1795588  27.3345304  43.9391899  45.9858704  28.3617711  43.2447720
  46.3935423  28.9680147  42.5473690  46.9009829  27.7917099  44.2326260
  46.4550734  26.8610001  44.5834064  48.2264662  27.5498199  43.4656048
  48.6208296  28.5170197  43.1539917  48.8519382  27.0643377  44.2147303
  48.1836987  26.5379429  42.2368431  49.1399050  26.4342880  41.5387869
  47.1050167  25.8574677  42.0311165  46.8998718  25.4850936  41.1149549
  46.3569164  26.0165429  42.6907778  46.9339514  28.7141752  45.5053949
  46.4006138  29.8252583  45.4880095  47.4844885  28.1857204  46.5995836
  47.8966999  27.2665668  46.5265036  47.4530411  28.7966061  47.9243851
  46.4061165  28.8754725  48.2173634  48.2151270  27.8773260  48.8867950
  47.7952576  26.8861723  48.7152672  49.2291069  27.9256964  48.4897995
  48.2647753  28.4388280  50.3198004  48.5574436  29.4884396  50.2920437
  46.9178677  28.2181454  51.0281754  46.7499352  27.1651101  51.2540579
  46.9178391  28.8532352  51.9140434  46.0858631  28.6587501  50.4788733
  49.3041182  27.6058197  51.0893774  49.1666508  26.5245295  51.0858107
  50.2023172  27.6525640  50.4736280  49.3881989  28.0054188  52.1000051
  47.9536724  30.2237964  47.9292727  48.9783573  30.5228567  47.3118973
  47.2133303  31.1254525  48.6110163  46.4867163  30.6483483  49.1253138
  47.7524233  32.3756957  49.0920067  48.8056946  32.3310566  48.8150072
  47.1366692  33.6399460  48.5021877  46.9761753  33.4415007  47.4424887
  45.8624268  34.0570068  49.1836977  46.0647202  34.3246841  50.2207756
  45.3108501  34.7983646  48.6055517  45.2050257  33.2016516  49.3395662
  47.9329491  34.8141122  48.5405540  48.6098957  34.5456195  47.9150486
  47.7910137  32.4105263  50.5941963  47.0067072  31.7469001  51.2624693
  48.6640263  33.2521200  51.1535740  49.3243694  33.7425256  50.5674410
  48.7792730  33.2892513  52.5885582  49.2913485  34.1963387  52.9096031
  47.8484964  33.4666848  53.1273317  49.4576359  32.0795584  53.2536936
  49.7019958  31.0607266  52.5578499  49.7582912  32.1256733  54.5336914
  49.5522738  32.9950237  55.0047398  50.5776215  31.1532164  55.3716660
  51.2673664  30.6516838  54.6928310  51.3898516  31.8831086  56.4782047
  50.7350922  32.3592496  57.2080564  52.2145271  30.9414101  57.2129536
  51.4759636  30.2732205  57.6558352  52.9275656  30.3482985  56.6403294
  52.8296947  31.4220142  57.9736757  52.0903254  32.9569125  55.9643888
  51.5086412  33.6279225  55.5997038  49.7102880  30.1163435  56.1142683
  48.9104605  30.5026126  56.9537210  49.5565701  28.8875508  55.5315590
  50.1934433  28.7455988  54.7606230  48.5451651  27.8011060  55.6743002
  47.7374220  28.1226587  55.0168324  49.0672874  26.4699197  55.0308609
  48.9984465  26.4330316  53.9436626  50.0646210  26.1505294  55.3332233
  48.4972095  25.5623221  55.2293015  47.8963947  27.6507616  57.0868731
  46.6701174  27.6386952  57.2115421  48.7397957  27.5072193  58.1312370
  49.7222662  27.5397158  57.8992796  48.3111000  27.4812436  59.5394516
  47.8569078  26.5232134  59.7924137  49.5832014  27.8493047  60.4077053
  50.2007484  28.6124516  59.9340534  49.1456509  28.2461047  61.3237858
  50.4334545  26.6518641  60.8248091  49.8998356  25.9039235  61.4112711
  50.7938385  26.0710192  59.9757814  51.6106844  27.2894454  61.5778637
  52.2172213  27.9985046  61.0144377  51.1163330  27.8614068  62.3630857
  52.5127888  26.3641405  62.3120832  52.2676134  25.4063702  62.5186348
  53.7069178  26.7097878  62.7854586  54.2751074  27.8781557  62.6681042
  54.0208054  28.4722328  61.8918943  55.2161312  27.9302835  63.0312252
  54.4801188  25.8046770  63.3311939  54.1850233  24.8574638  63.5204268
  55.3703070  26.0037804  63.7648058  47.2458458  28.5192919  59.8485756
  46.1521244  28.1451559  60.3263569  47.4662018  29.7558355  59.4148302
  48.2696629  29.8422813  58.8089609  46.5734005  30.8791065  59.6714640
  45.9270239  30.4997969  60.4629374  47.2825766  32.0487690  60.3012133
  48.0906725  32.2515154  59.5983839  46.6748095  32.9309583  60.5023670
  48.0590057  31.6200733  61.5739632  47.3750973  31.4470410  62.7456522
  46.3223457  31.6726303  62.8306770  48.0323315  30.9584713  63.9177275
  47.4703836  30.9068966  64.8385763  49.3748140  30.5606079  63.8646126
  50.0310183  30.1548147  64.9868774  49.5116615  29.7255850  65.6707096
  50.1050901  30.7541919  62.6860476  51.1766005  30.6279826  62.6376534
  49.4367075  31.2691712  61.5118599  49.9735403  31.2296081  60.5755568
  45.6248474  31.2367392  58.4629917  44.4265509  31.2570143  58.6013126
  46.1789560  31.3328290  57.2329903  47.1435213  31.0544086  57.1225405
  45.3319407  31.5991664  56.0333204  45.0472307  32.6513243  56.0306454
  46.3161278  31.4905620  54.7998381  46.8218184  30.5285883  54.8834229
  45.8088350  31.3968778  53.8396406  46.8881416  32.4183726  54.8084116
  44.0884924  30.7755613  55.9371805  44.2044544  29.5481801  56.1091995
  42.9285049  31.4743853  55.8465576  43.0815315  32.4624777  55.9892368
  41.5894222  31.0306692  55.5520487  41.1922884  30.8016801  56.5409613
  40.9504080  32.2398782  54.9134064  40.6115961  32.8844547  55.7244730
  41.5752983  32.8742051  54.2847252  39.8265886  31.9527340  54.1743422
  39.0584254  32.1975017  54.6955109  41.5246582  29.7957492  54.6429825
  42.2584295  29.6030378  53.6956024  40.6436539  28.8560748  55.0650978
  40.2035284  29.0950918  55.9421730  40.4199600  27.5789022  54.3062305
  41.3158321  26.9612908  54.2424393  39.2858839  26.7344809  54.9472141
  38.4803796  27.4537539  55.0952435  38.8968420  25.5582476  54.0146780
  38.2746816  24.8728895  54.5902634  38.3338881  25.9942293  53.1893873
  39.7590160  25.0297689  53.6079073  39.8322940  26.1074734  56.2250566
  40.5476952  25.3434181  55.9208918  40.2287531  26.9400835  56.8061543
  38.7866306  25.6578588  57.2147465  39.3053150  25.4822278  58.1572008
  37.9499507  26.3330793  57.3940468  38.3405924  24.7134519  56.9028950
  39.9877977  27.9715919  52.8334761  40.3993988  27.2829056  51.9611168
  39.2255902  29.0905380  52.6309824  39.0493751  29.7499776  53.3754206
  38.9594269  29.5529413  51.2244177  38.2070446  28.8995337  50.7827330
  38.5108256  31.0262275  51.2194920  39.3502474  31.6081786  51.6000271
  38.3216000  31.2953067  50.1803160  37.2451091  31.2710333  52.0223045
  36.5209079  30.3653216  52.2142172  36.9873953  32.4912834  52.4821663
  36.1263728  32.6246142  52.9930115  37.7701640  33.1291485  52.5045347
  40.1709509  29.5501900  50.3020906  40.2082157  28.8728118  49.2786503
  41.2527132  30.2003741  50.7759142  41.0994148  30.7156014  51.6309834
  42.5789309  30.1976943  50.1095676  42.4912691  30.7609248  49.1804886
  43.5109997  31.0776472  51.0030890  43.8218260  30.5162334  51.8841696
  44.3935442  31.3535452  50.4259491  42.9136419  31.8682861  51.4571285
  43.2351255  28.8089538  49.9186802  43.8240719  28.5312390  48.8490295
  43.0959988  27.8792357  50.8838987  42.6090908  28.1513405  51.7259121
  43.4428883  26.4771342  50.8031654  44.4409227  26.4936352  50.3652668
  43.5589981  25.7438421  52.1405745  42.6132536  25.8186555  52.6772928
  43.5891628  24.6783209  51.9128609  44.5425606  26.0683131  53.1354284
  45.2132559  25.1926780  53.9216852  45.8041239  25.9520602  54.9091482
  46.3195896  25.4526401  55.7161665  45.4327011  27.1878576  54.7913456
  45.5205297  27.8690100  55.5319023  44.6935415  27.3080325  53.6700344
  44.1757011  28.1884265  53.3191061  42.6729679  25.6425929  49.8112345
  43.2086420  24.6857929  49.2999458  41.4123249  25.9742284  49.5488739
  40.9821081  26.6398191  50.1749802  40.5943680  25.5804968  48.4291172
  40.7910299  24.5168400  48.2947111  39.1309261  25.7769608  48.7517786
  39.0310264  26.8602300  48.8199759  38.5374260  25.5204391  47.8742504
  38.6476398  25.0526500  50.0113297  39.2078972  25.3251243  50.9057426
  37.2666526  25.4996490  50.4128170  37.2263813  26.5569091  50.6748915
  36.6191697  25.4407406  49.5379496  36.9014025  24.7931433  51.1581659
  38.6083531  23.5157895  49.7691774  39.6087456  23.1526041  49.5337915
  38.3380437  23.0111599  50.6967497  37.8618407  23.3017516  49.0043211
  40.8540869  26.3356185  47.0614576  40.4760551  25.7876492  46.0167503
  41.4710093  27.4797177  47.1536207  41.6299772  27.9618812  48.0267477
  41.8074608  28.3758736  46.0118675  42.7004719  28.9416051  46.2775183
  41.9691992  27.8337598  45.0801706  40.7650232  29.3986893  45.5745459
  41.0175419  30.1190925  44.5875740  39.6356201  29.4856167  46.3216925
  39.6427965  28.9710021  47.1907282  38.6300874  30.5141330  46.3546896
  38.1310940  30.5766511  45.3876352  37.6044083  30.1716757  47.4309254
  38.1606889  30.1066899  48.3660364  36.5930271  31.3021588  47.5715780
  35.9847951  31.5099502  46.6912460  35.8611774  31.0907388  48.3511925
  37.0766258  32.2119832  47.9271793  36.8662024  28.8107562  47.2556973
  36.2399435  29.0015340  46.3842010  37.5402427  28.1163764  46.7540836
  36.1317563  28.3087754  48.4568405  35.9699416  27.2456074  48.2790947
  36.5848231  28.4429479  49.4390965  35.1284266  28.7339973  48.4320164
  39.3158770  31.8890452  46.6792059  40.0061607  31.9256186  47.6875305
  39.0859723  32.9130888  45.8754539  38.4060144  32.7102327  45.1566982
  39.6651244  34.2548919  46.0066366  40.7510281  34.1634440  46.0301733
  39.3521118  35.1784658  44.7891808  39.6753836  34.6938205  43.8679266
  38.2729220  35.3311276  44.7769737  39.9168205  36.6092062  44.8068619
  39.5571113  36.9615698  43.8401413  39.4149184  37.1447587  45.6127024
  41.4229059  36.7635775  44.8430967  42.0153999  37.2080493  43.8120842
  41.9452000  36.4315844  45.9273624  39.2414355  34.9928904  47.3226595
  38.1739879  34.7138262  47.8099060  40.1059723  35.8004737  47.9455996
  40.9564066  36.0532451  47.4629259  39.8087263  36.3693547  49.2671299
  39.1908455  35.7001591  49.8658848  41.1740780  36.5592384  49.9388933
  41.8665314  37.0552540  49.2587614  40.9192085  37.2214508  50.7663107
  41.9711351  35.2764177  50.4660845  43.0006504  35.5327988  50.7160234
  41.5771103  34.9875259  51.4404488  41.9729900  34.1190815  49.5351076
  42.7095175  34.0297318  48.6149836  41.0588789  33.1894755  49.8004341
  40.7666969  32.5799227  49.0499830  40.4185772  33.3222008  50.5701733
  39.0613604  37.7092791  49.1669035  39.2138481  38.4629869  48.2375002
  38.3261299  37.9958034  50.2706051  38.5417867  37.4821115  51.1130524
  37.5869346  39.2610931  50.4830217  38.0026793  40.0998878  49.9247313
  36.0967827  39.0706944  50.0768805  36.1190367  38.7533164  49.0343428
  35.5067468  38.3566642  50.6514406  35.4446268  40.3343010  50.2399111
  34.6601820  40.3928900  49.6896267  37.7343798  39.5607877  51.9626713
  38.4852815  38.8951206  52.6573133  37.1179366  40.6656218  52.4423552
  36.5628719  41.1310530  51.7385197  37.3054552  41.2778330  53.7762022
  38.3067369  41.6550970  53.9840746  36.4030290  42.4869013  53.9045525
  35.3854299  42.2555351  53.5898066  36.4542842  42.8596783  54.9275494
  36.8896794  43.7839508  53.0975485  37.9018497  44.0119982  53.4316301
  36.8282056  43.4892130  52.0499563  35.9323049  44.9826717  53.3713055
  35.5174017  44.9563789  54.3789101  36.5196586  45.9002924  53.4042883
  34.9712515  45.1798058  52.2329760  34.9725389  44.5409346  51.4507055
  34.1096282  46.1430931  52.1348238  33.8888693  47.1665096  52.9462051
  34.5983076  47.2984600  53.6528826  33.1092763  47.7919483  52.8007412
  33.3126163  45.9934187  51.1336327  33.3860683  45.2015257  50.5110502
  32.6321578  46.6654253  50.8088493  37.1621633  40.2234793  54.9296427
  37.8484964  40.2002096  55.9580326  36.1638093  39.3446231  54.7289801
  35.5544662  39.4989467  53.9384174  35.9700942  38.0998373  55.4690933
  35.5092216  38.4609365  56.3884974  35.0454807  37.1355605  54.7537613
  34.6942258  36.4488769  55.5239487  34.1212583  37.6364040  54.4655418
  35.6861186  36.4289975  53.5540390  36.1450815  37.2318721  52.9771090
  36.4315772  35.7280445  53.9296150  34.6711898  35.6922293  52.6618147
  34.3217516  34.8583102  53.2705593  33.8918209  36.3895416  52.3545027
  35.3709865  35.1783156  51.4962482  36.3094878  35.5112100  51.3274336
  34.8012424  34.5486856  50.4996204  33.5412836  34.1972756  50.6149387
  33.0963016  34.3485618  51.5089226  33.0526614  33.5118651  50.0567675
  35.5127692  34.2764020  49.4414949  36.4767194  34.5619965  49.3448591
  35.0599194  33.7499762  48.7080765  37.2750735  37.2860909  55.8509970
  37.4481559  36.8066430  56.9367218  38.2218814  37.1102738  54.9048901
  38.2768321  37.7320099  54.1108322  39.3451357  36.1637235  54.9992609
  38.8291764  35.2401471  55.2617359  40.0450993  35.9072971  53.6493540
  40.4518890  36.8365812  53.2505369  40.9595251  35.3377223  53.8152266
  39.1349792  35.2615476  52.5741291  39.4282055  34.1205788  52.1129322
  38.0862880  35.8334041  52.1425295  40.4094505  36.5361595  56.0395384
  40.9691143  35.6722498  56.7696905  40.7667589  37.8328824  56.1504173
  40.1816320  38.5490346  55.7443905  41.6245270  38.2616091  57.2814941
  42.6041746  37.7854252  57.2409821  41.9526529  39.7474217  57.0825624
  40.9979010  40.2661991  56.9964409  42.3881483  40.1180983  58.0104876
  42.7704573  40.1427126  55.8439398  43.4028149  39.2619967  55.2478409
  42.9024839  41.3479376  55.4398727  40.9902382  38.0339479  58.6562061
  41.7242765  37.8336549  59.5882845  39.6477127  38.2226491  58.7740612
  39.1296196  38.4326792  57.9328918  38.9452839  38.0587125  60.0587463
  39.4845676  38.6346984  60.8107519  37.5089645  38.6212134  59.8919153
  37.0977616  38.2058954  58.9718485  36.7980361  38.2249141  60.6169176
  37.3922634  40.2025127  59.7354889  38.0053282  40.7559013  60.4468298
  37.7403498  40.3772736  58.7174559  35.7082558  40.9150839  59.8825979
  35.4219484  40.7857752  61.6156578  34.4920993  41.2556124  61.9361734
  35.5002594  39.7238278  61.8485498  36.2424517  41.2618065  62.1525669
  38.9385080  36.5414739  60.3795004  39.1612053  36.1668038  61.5466690
  38.6470485  35.7382178  59.3507624  38.5208297  36.2131214  58.4683609
  38.7829185  34.2993307  59.5069170  38.1332946  34.1074157  60.3608799
  38.2977295  33.5405707  58.2317162  37.3031449  33.8591242  57.9195881
  38.9910030  33.9086795  57.4754286  38.3638144  31.9782782  58.3951187
  39.2756939  31.6886067  58.9172983  37.5038242  31.6429377  58.9748335
  38.4656310  31.1637664  57.1007061  37.8448176  31.5818405  56.0855341
  39.0312314  30.0565982  57.2244310  40.2170181  33.8567829  59.8889637
  40.3634214  33.1964183  60.9612370  41.2256527  34.1465497  59.1303539
  41.1064720  34.6670580  58.2730532  42.6616669  33.9919043  59.4790316
  42.8493690  32.9188919  59.5179605  43.5896397  34.5248008  58.4504318
  43.5348701  35.6080985  58.5579920  44.6194887  34.2269492  58.6473799
  43.1602669  34.1622496  57.1366930  42.4388409  34.7558403  56.9158030
  42.9312134  34.4228625  60.9067678  43.4311724  33.6270404  61.6817951
  42.4370289  35.6186914  61.3171101  41.8830109  36.0449743  60.5881071
  42.6205015  36.0668540  62.7114201  43.6546516  36.0394788  63.0547571
  42.1089268  37.5091982  62.7319479  42.8376675  37.9547215  62.0547867
  41.1580420  37.5450420  62.2003174  42.0902109  38.2266760  64.0971994
  41.3853979  37.6640677  64.7094154  43.4998465  38.3741021  64.7771788
  44.0054178  37.4123263  64.6906281  44.1929340  39.0632010  64.2946100
  43.3754158  38.5441399  65.8466196  41.5512180  39.6725225  63.9380836
  41.3996029  40.2320433  64.8611498  42.1235609  40.2503681  63.2123995
  40.5538559  39.6494198  63.4989500  41.8902636  35.1728535  63.7414551
  42.4036789  35.0622916  64.8393202  40.7533932  34.5012665  63.4496927
  40.3428936  34.6107841  62.5333977  40.2992725  33.4691334  64.3170881
  39.6515346  33.8552904  65.1041174  39.6288109  32.7688742  63.8188648
  41.3283587  32.4835801  64.8369980  41.5666437  32.3674440  66.0667801
  42.0389795  31.8903923  63.8790655  41.9344282  32.2094154  62.9264879
  43.0685282  30.9277773  64.3041420  42.5518608  30.1946926  64.9236107
  43.6576080  30.2228975  63.0601025  44.2581320  30.9560800  62.5216627
  44.2954540  29.4128203  63.4137058  42.5467634  29.7677517  62.1186161
  41.6543293  28.7878132  62.5811434  41.7363310  28.4728980  63.6109495
  40.7585764  28.2265735  61.6688061  39.9989748  27.4786592  61.8421030
  40.6965113  28.7005162  60.3613901  39.8868895  28.0799747  59.3975687
  39.6151376  28.6564517  58.6796379  41.5549088  29.7989893  59.9697924
  41.4999342  30.2380443  58.9845991  42.4922705  30.2725744  60.8360958
  43.0924129  31.1293197  60.5673504  44.1792631  31.5079355  65.1445484
  44.6859169  30.7318735  65.9322309  44.6096611  32.7423859  64.8880148
  44.1248417  33.2671523  64.1740990  45.4988241  33.5869646  65.7331276
  46.4824438  33.1256032  65.8211136  45.7800961  34.9273944  65.0503969
  44.7850466  35.3169727  64.8354435  46.6464376  35.9134531  65.8770418
  46.9632435  36.7675090  65.2784395  46.0398149  36.3821459  66.6519213
  47.4996090  35.4399776  66.3628578  46.3657284  34.8007059  63.6618662
  47.3393202  34.3275595  63.7897396  45.6691742  34.2757201  63.0081844
  46.4904833  35.7760477  63.1914949  44.9146843  33.8718200  67.1151924
  45.6692410  33.6785841  68.0859232  43.7261772  34.3991470  67.3074627
  43.1666327  34.5062542  66.4734745  43.0908775  34.4786191  68.5999250
  43.8003492  35.0504065  69.1981030  41.8244648  35.4184127  68.4977484
  41.1162424  34.9584627  67.8085709  41.3320351  35.4264808  69.4701433
  42.1230125  36.8510389  68.1209946  42.8240490  36.8529868  67.2863436
  40.8986950  37.6251698  67.6304531  39.9506760  37.5617599  68.1646299
  41.2020159  38.6656666  67.5144243  40.6353617  37.3113513  66.6203642
  42.7756500  37.6122403  69.2984962  42.1283340  37.7295256  70.1675987
  43.5499668  36.9882536  69.7447824  43.1196499  38.5864329  68.9510632
  42.8120470  33.1962013  69.3324327  43.0758810  33.0884886  70.5268097
  42.4967623  32.0960498  68.6074209  42.4687433  32.2672367  67.6124287
  42.4259377  30.7374287  69.0975952  41.7922354  30.7771635  69.9835634
  41.8058586  29.8438573  68.0723906  42.3580217  29.9164748  67.1354055
  41.8677521  28.8357186  68.4821844  40.3247356  29.9795794  67.6946640
  39.7273564  29.6648693  68.5503483  40.1977062  31.0608840  67.6422596
  39.8709369  29.1067290  66.1360264  39.2324328  27.5125337  66.8002033
  39.8943448  27.2718191  67.6320887  38.2454658  27.6822853  67.2305346
  39.0929294  26.7367029  66.0473919  43.8148832  30.1726842  69.5393372
  43.8712597  29.5878577  70.5956888  44.9168587  30.4037285  68.8515949
  44.7842789  30.7675099  67.9187536  46.3384914  30.1979160  69.2124414
  46.5583515  29.1476202  69.4038582  47.1605873  30.6784463  67.9650545
  46.9409704  30.0366569  67.1118402  46.7723608  31.6677403  67.7228308
  48.6288166  30.7023287  68.2369328  49.3162489  29.5319080  68.2411098
  48.7312460  28.6613774  67.9835272  50.7093143  29.4530702  68.4506750
  51.2979937  28.5607862  68.2967854  51.4235926  30.7103419  68.6199760
  52.8152800  30.7619309  68.8142157  53.1994438  31.6364455  68.9103508
  50.7183218  31.9340849  68.6550951  51.2057352  32.8922129  68.7591124
  49.2821789  31.9334173  68.5022306  48.6803579  32.8196812  68.6391449
  46.7182446  30.9665561  70.5255699  47.2152948  30.4264283  71.4397669
  46.3982344  32.2235417  70.5856323  46.0890102  32.6645494  69.7312355
  46.7646122  33.0389762  71.7331886  47.8170490  32.8538656  71.9481564
  46.5980721  34.5795417  71.4602757  45.6502295  34.7260070  70.9423542
  46.6917276  35.1303053  72.3962164  47.6738834  35.2722669  70.5658817
  48.9987564  35.2629209  70.9299517  49.2574978  34.6798921  71.8014622
  50.0032806  35.9295774  70.2251005  51.0058594  35.9085298  70.6260920
  49.5987034  36.6663337  69.1239643  50.2566147  37.2818375  68.5283899
  48.2652330  36.7028332  68.6752892  47.9423189  37.2056723  67.7756929
  47.3193264  35.9641790  69.3818140  46.2723160  36.0530400  69.1322565
  46.0418081  32.6786590  72.9923916  46.5582943  32.8069544  74.0890598
  44.8016596  32.1632099  72.8663206  44.4025421  32.1568489  71.9385481
  43.9894390  31.4922881  73.9681149  44.0130663  32.0956993  74.8755550
  42.5722408  31.3854933  73.2992268  42.1176815  32.3716736  73.2047510
  42.5987482  31.0621548  72.2586250  41.6637802  30.3666091  74.0457773
  41.0994434  29.5038772  73.4988689  41.4966202  30.4951572  75.2889967
  40.8302975  29.8211217  75.6379795  41.9004869  31.2344742  75.8461380
  44.5417452  30.1187706  74.4455242  44.5959282  29.9303102  75.6873798
  44.9532080  29.2592740  73.5285473  44.7433758  29.5631170  72.5884628
  45.5994654  27.9305911  73.7053251  46.2859440  28.0034876  74.5488501
  44.4951868  27.0155835  74.2232513  44.9787426  26.1902857  74.7459030
  43.9397955  27.4401188  75.0595617  43.5128260  26.4925218  73.1729078
  43.0770969  27.3669696  72.6896095  44.0784311  25.8412552  72.5065422
  42.3088741  25.7569575  73.7813520  41.9779348  26.1885190  74.7259855
  41.3855886  25.8132768  73.2047462  42.6310873  24.3490314  73.9659119
  42.8242970  24.0975213  74.9248266  42.7263689  23.3735585  73.0517387
  42.5052309  23.4944797  71.7978144  42.6682711  24.4114590  71.4070892
  42.5742769  22.6197028  71.2977123  42.7781200  22.1523929  73.5284138
  42.9362583  22.0647860  74.5220995  42.6132298  21.3568330  72.9284191
  46.3629532  27.4474764  72.4092436  45.9639311  27.6337218  71.2351608
  47.5029421  26.8537140  72.6465797  47.7157879  26.6916466  73.6205053
  48.5051298  26.6300154  71.6041851  48.6825275  27.5882268  71.1158609
  49.7899246  26.1942792  72.2728252  50.5209064  25.9752107  71.4945126
  50.4165840  27.3581290  73.0450535  51.1184835  26.9799232  73.7882948
  50.8425951  28.1044674  72.3745346  49.7231627  27.8426218  73.7324667
  49.7591734  25.1284051  73.1861353  50.5791092  24.6907902  72.9457140
  48.1029654  25.5297327  70.5890465  48.6676168  25.5168295  69.4915485
  47.3256159  24.4779825  70.9425688  47.0443201  24.5259643  71.9114208
  47.3225355  23.1147456  70.3591728  48.3111620  23.1174326  69.9001360
  47.2762871  22.0022511  71.4276218  47.3225498  21.0609484  70.8799887
  48.1026554  22.0268154  72.1379805  46.0486412  22.0295382  72.1633720
  45.8875513  21.1312771  72.4613333  46.2126589  23.0308652  69.2890787
  45.3452539  22.1201348  69.3105984  46.3400698  23.9635324  68.3237886
  46.9814444  24.7168541  68.5268879  45.7074070  23.9048386  66.9488716
  44.6696997  24.1717911  67.1488667  46.1985588  25.0669384  65.9910583
  47.2869062  25.0213814  66.0300541  45.9233379  24.8092008  64.9683571
  45.7628298  26.5396690  66.1741209  46.3160133  27.1893477  65.4958820
  44.2474651  26.8428826  65.8621883  43.7543249  26.6317368  66.8110514
  44.0886927  27.8559589  65.4926300  43.9548874  26.1317301  65.0896883
  46.0414648  27.2415018  67.5287867  45.7116365  28.2735348  67.4095249
  45.4369926  26.9282436  68.3800077  47.0842457  27.3565149  67.8245687
  45.7767916  22.5421429  66.1499405  46.8838549  21.9980049  66.0220146
  44.6637964  21.9816422  65.6635618  43.3320856  22.5911021  65.8436441
  43.2832336  23.5713720  65.3695345  43.0933571  22.5580978  66.9066715
  42.3332071  21.6515350  65.0927067  42.2787046  21.8841743  64.0292168
  41.3160753  21.8410850  65.4356623  43.0192804  20.2870107  65.3641796
  42.6678085  19.5439398  64.6483517  42.6626968  20.0063181  66.3552237
  44.5703936  20.5639124  65.3324795  45.1608276  20.0912094  66.1173677
  45.1969099  20.2294993  63.9613724  44.5770931  19.5506990  63.1664991
  46.4700270  20.4689121  63.7720299  46.8811703  20.8184409  64.6257782
  47.3229837  19.9929523  62.6604843  47.0904112  18.9600003  62.4015999
  47.0918179  20.8401632  61.3770008  47.8700447  20.6639504  60.6344271
  46.0887051  20.6304264  61.0056829  46.9656515  22.3755956  61.5723658
  47.9721117  23.1891704  61.7570257  49.0299988  22.9815030  61.8214512
  47.4974728  24.4334340  62.1249628  48.0490589  25.2304077  62.4090147
  46.1376095  24.5258141  62.0644569  45.2661943  25.5742502  62.2099876
  45.5966377  26.5977025  62.3087168  43.9191198  25.3102207  62.1159601
  43.1583786  26.0767817  62.1080685  43.4798336  23.9664674  62.0158672
  42.4235773  23.7417865  62.0003223  44.4204426  22.9448247  61.8107557
  44.0956783  21.9206595  61.7011499  45.8031511  23.1853795  61.8517256
  48.8597202  19.9942493  62.9920387  49.7132111  19.9488652  62.1517324
  49.1921854  19.9505365  64.2773533  48.4914923  19.7376800  64.9729252
  50.5495834  19.9173117  64.8715353  51.2158298  20.5432653  64.2779016
  50.5075645  20.5365944  66.2442398  49.5778751  20.2379537  66.7285872
  51.3860798  20.2377510  66.8160772  50.3476334  22.0968604  66.2596941
  51.3227654  22.4939251  65.9776354  49.6703959  22.3498845  65.4439545
  49.9202156  22.6964426  67.5775433  49.7705793  22.0872927  68.6120653
  49.5937061  23.9649820  67.4736595  49.2474937  24.5146894  68.2470036
  49.7421408  24.3313432  66.5442228  51.1105299  18.4642494  64.9226189
  50.4567432  17.5595534  65.3992033  52.3919153  18.2510185  64.7104120
  52.9714251  19.0318668  64.4373894  52.9749060  16.9751215  64.8727894
  54.0569401  17.0274067  64.9934816  52.5537348  16.5440071  65.7810068
  52.6636887  15.9889793  63.7603664  52.8673792  14.7902381  63.8485575
  52.3008490  16.5092731  62.5568962  52.2030210  17.5046313  62.4162149
  52.1786213  15.6442022  61.3355064  51.6313696  14.7768378  61.7046881
  51.4274883  16.3626599  60.1826096  52.0017862  17.1669114  59.7227526
  51.2891817  15.5950892  59.4211531  50.0956154  16.9116247  60.5973244
  50.2661705  17.5080585  61.4935827  49.4798183  17.7355909  59.4401979
  49.0798616  17.0329452  58.7091494  48.7434053  18.3952451  59.8991632
  50.2499914  18.4007013  59.0496016  49.1161537  15.7568741  60.9869909
  49.4276953  15.3486931  61.9484615  48.1505823  16.2589622  61.0476494
  49.0028572  15.0774598  60.1422071  53.5442066  15.2898657  60.8799648
  54.4040442  16.0801530  60.4930162  53.7178183  13.9626348  60.7145643
  53.0013990  13.2900345  60.9479189  54.9361753  13.3631766  60.1454639
  55.7404423  13.9263213  60.6188726  55.1267958  11.8637395  60.4639673
  54.9503613  11.7792511  61.5362692  54.3245363  11.3123560  59.9736023
  56.5167952  11.3516474  60.1353216  56.4459038  11.2339675  59.0540171
  57.3703480  12.0071208  60.3082514  56.8470907  10.0078583  60.8809280
  57.1979094  10.2218270  61.8905020  55.9286118   9.4417441  61.0359097
  57.8312349   9.1605580  60.0465393  57.8560734   8.1666392  60.4933119
  57.4164295   8.9742541  59.0559149  59.2111540   9.7878486  60.0818396
  59.5351601   9.8330665  61.0373926  59.9036169   9.1928571  59.6498871
  59.2321968  10.6894541  59.6271133  55.0637913  13.6445689  58.6910677
  54.1268396  13.5082757  57.9207850  56.2180042  14.0865457  58.2939482
  56.9634676  14.1077483  58.9750767  56.5185022  14.3678737  56.8838263
  56.0238314  13.6205781  56.2633801  55.9268379  15.7021236  56.5562963
  56.2286997  16.0387671  55.5645084  54.8500824  15.7504094  56.7186785
  56.3907242  16.3498497  57.3001814  58.0220175  14.2303085  56.6423368
  58.8585949  14.4200242  57.5101900  58.3433723  13.7915313  55.4484081
  57.6234484  13.3225560  54.9174881  59.6950483  13.7052023  54.9931479
  60.3393030  13.3434367  55.7944965  59.9603891  12.5278389  53.9988184
  61.0036659  12.4113548  53.7053871  59.5871353  11.6054034  54.4436693
  59.4503260  12.8053129  53.0763483  60.3150368  14.9542224  54.5065498
  61.5525484  15.0673974  54.6123600  59.5970297  15.8588469  53.8884640
  58.6304808  15.6911135  54.1287851  59.9976873  17.1850502  53.3493996
  61.0183001  17.3841774  53.6762047  59.9840117  17.2450960  51.8691206
  60.5960894  18.1238759  51.6661215  60.8062458  16.0605097  51.1979246
  60.4868937  15.1055098  51.6151667  60.8662558  16.0100317  50.1107502
  61.8763351  16.2136698  51.3377714  58.7151289  17.2844684  51.3438845
  58.6955595  17.3484862  50.3862190  59.1521215  18.3243763  53.9283228
  58.0115509  18.1122875  54.2550755  59.6642876  19.5163095  54.0854263
  60.5891037  19.6073520  53.6898041  58.9479303  20.7537031  54.5002031
  58.6190748  20.4258108  55.4863262  59.8705769  21.9489741  54.4995403
  60.5350637  21.9724965  53.6358261  59.2652035  22.8514671  54.4150829
  60.5324173  22.0799136  55.8950186  60.8998013  23.1044888  55.9531593
  59.7330523  21.9449496  56.6236448  61.5868139  21.0514998  56.2893677
  61.9140530  21.2433791  57.3112249  61.1399221  20.0594783  56.2239456
  62.8270769  20.9166980  55.4182911  62.6209068  20.4979873  54.4332647
  63.2151794  21.9326568  55.3454494  63.7919664  20.0539422  55.9552670
  63.7642670  20.1732135  56.9578171  63.5352325  19.0850341  55.8311462
  64.7079945  20.2770162  55.5930185  57.7217627  20.9997129  53.6251211
  56.6505718  21.3222790  54.1145468  57.8253031  20.6911182  52.3207998
  58.6830282  20.2872920  51.9724751  56.6623402  20.7635903  51.3921404
  56.2354088  21.7577958  51.5239954  57.1712112  20.5398369  49.9659014
  57.9249239  21.2954164  49.7442865  57.6487684  19.5743513  49.7989368
  55.9980392  20.7806849  49.0360880  56.3650227  20.5045128  48.0475760
  55.2270937  20.0392294  49.2458344  55.4309607  22.2324777  49.0039396
  54.8619413  22.5517249  49.8770952  56.3070536  22.8713703  48.8926840
  54.5602703  22.2533894  47.6927996  55.1341772  22.3356032  46.7697763
  54.0600204  21.2898088  47.5960255  53.6192465  23.4219813  47.8119040
  53.0021143  23.2749319  48.5977936  54.1216755  24.2585039  48.0724669
  53.1209230  23.4888554  46.9359446  55.5781031  19.7858810  51.8150043
  54.4428587  20.1287699  51.9090796  55.9216642  18.5079384  52.1330690
  56.8358612  18.1026924  51.9912243  54.9599934  17.5192237  52.6110983
  54.0560722  17.5033641  52.0021868  55.5183887  16.0595584  52.6572227
  56.4695692  16.0993505  53.1880522  54.8923445  15.3918433  53.2491112
  55.7959032  15.4408395  51.2186527  54.8127365  15.1408279  50.8560562
  56.2390423  16.1834264  50.5551052  56.7901373  14.2420769  51.2214279
  56.8572903  13.4547734  52.1858072  57.5306368  13.9230585  50.1486301
  58.2802105  13.2547164  50.2561283  57.5932884  14.5866907  49.3898392
  54.3619442  17.8995478  53.9748287  53.2129192  17.6663053  54.1492605
  55.1305246  18.5154688  54.8869848  56.0894489  18.7447357  54.6678782
  54.6752739  18.9946795  56.1437893  54.1701317  18.1639421  56.6365433
  55.8739185  19.4805229  56.9372940  56.5986156  18.6676240  56.9832850
  56.1882162  20.4080343  56.4587116  55.4896116  19.9298263  58.4594297
  56.2617207  20.6136036  58.8121319  54.5957899  20.5534697  58.4753036
  55.4956722  18.7147737  59.4058704  54.7076416  18.0046821  59.1551065
  56.4533567  18.2433045  59.1852903  55.4857874  19.1600013  60.9413671
  56.1681366  19.9907207  61.1213732  54.4808578  19.4749773  61.2224531
  55.7443905  18.0200243  61.9153547  55.0137424  17.3327136  61.7976475
  56.5940666  17.5084615  61.7244291  55.9412050  18.2464707  62.8797722
  53.6760616  20.1126909  55.9890938  52.6150417  19.9161541  56.5694427
  53.9569044  21.1019397  55.1625013  54.8493767  21.0928988  54.6897268
  53.0941153  22.1999741  54.7691917  52.7081633  22.8376985  55.5644560
  53.9462852  23.1498265  53.8350773  54.9469328  23.2331300  54.2591906
  54.1380930  22.7782035  52.8284979  53.3988667  24.5784879  53.6830330
  52.8210640  24.9699712  52.4648237  52.5554180  24.2648101  51.6911411
  52.3898363  26.3278532  52.3210430  51.9200706  26.6308475  51.3969660
  52.5476503  27.2656798  53.3700228  52.1505928  28.5592937  53.1611872
  51.7606926  28.7492204  52.3047304  53.0185509  26.8290997  54.6212864
  53.1226492  27.4811292  55.4759312  53.4629822  25.4909015  54.7453785
  53.7623644  25.1593518  55.7286644  51.7809629  21.7079234  54.1529322
  50.6560612  22.0233989  54.5730400  51.9241095  20.9099174  53.0585527
  52.8305483  20.6591439  52.6903343  50.7534552  20.2365899  52.4010944
  50.0514841  20.9848022  52.0329666  51.1669588  19.5496905  51.0835505
  51.8118858  18.6730409  51.1440134  50.3091383  19.0101767  50.6820726
  51.7658424  20.4946375  50.0593758  52.7393961  20.8795452  50.3629160
  51.9153357  19.7903073  49.2410374  50.8150148  21.6824317  49.6320677
  51.3503456  22.7661085  49.2742920  49.5753956  21.5085936  49.5830488
  49.8809052  19.3159747  53.2698822  48.7025547  19.4478762  53.2367420
  50.4827929  18.5425937  54.1909790  51.4705944  18.3388078  54.1379309
  49.6656275  17.8730953  55.2281618  48.8371277  17.3122001  54.7956276
  50.5789948  16.8857813  55.8681488  51.6139460  17.2269404  55.8439255
  50.2851868  16.6102242  56.8809891  50.5953455  15.5565906  55.1096106
  49.6316385  15.0554013  55.2000046  50.7263279  15.7449555  54.0440273
  51.7485332  14.6556592  55.6550264  52.7072716  14.9809098  55.2511311
  51.6308451  14.5860839  56.7364216  51.6157389  13.1778812  55.1979160
  50.7638645  12.8027809  55.7651043  51.3574553  13.0224466  54.1504240
  52.8092480  12.3859084  55.5517435  52.7898121  11.4625931  55.1428270
  53.6432028  12.8139603  55.1757288  53.0307102  12.2844303  56.5319300
  49.0317297  18.8186288  56.2787199  47.9157734  18.5236657  56.7836285
  49.6881294  19.9091041  56.7631531  50.6740808  20.0034928  56.5654516
  49.0067387  21.0281515  57.4847269  48.7037897  20.5326724  58.4071302
  50.0033808  22.1341586  57.8176498  50.5472803  22.2545600  56.8807507
  49.4992256  23.5956049  58.1294632  48.8140535  23.4501576  58.9646196
  50.3218889  24.2560267  58.4036207  48.9175892  23.9395666  57.2741890
  50.9846306  21.6862702  58.9138699  50.4254532  21.7121220  59.8491478
  51.3050508  20.6733990  58.6698866  52.2428274  22.5406885  59.0760660
  51.9931602  23.5661507  59.3484592  52.7824831  22.0069671  59.8583794
  52.7492619  22.6011682  58.1127548  47.7321005  21.5749955  56.6796017
  46.6336155  21.6542268  57.2502708  47.9183531  21.9552851  55.4433441
  48.8472843  21.9152141  55.0489092  46.8220997  22.3794389  54.5862818
  46.3518906  23.2552719  55.0334215  47.2682285  22.7009010  53.1399679
  48.0281353  23.4780335  53.2218409  47.7297831  21.8064499  52.7216101
  46.2258863  22.9758859  52.3515320  45.7558250  23.7187266  52.7373219
  45.7054234  21.3137221  54.5254469  44.5367670  21.6206288  54.9035215
  46.0652399  20.0947618  54.1742992  47.0169306  19.8737144  53.9183187
  45.1324558  19.0409303  54.0478945  44.4257784  19.5029509  53.3585119
  45.7540798  17.7282798  53.5175657  45.8778095  18.0060720  52.4708462
  46.6655970  17.4885631  54.0650797  44.7867155  16.5081978  53.6046934
  44.3998861  16.3593423  54.6128130  43.8840580  16.7196095  53.0314398
  45.4937220  15.2126992  53.0949450  44.7340155  14.2319000  52.8458834
  46.7365074  15.2091265  52.9099178  44.4066477  18.8322127  55.3433418
  43.1737375  18.8878977  55.3376389  44.9996710  18.5665643  56.5263128
  46.0038090  18.4606719  56.5019035  44.2471743  18.4321606  57.8038645
  43.5644674  17.5899935  57.6908493  45.2649593  18.0947387  58.9444447
  45.7925987  17.1835375  58.6626482  46.0298967  18.8667452  59.0280056
  44.7060728  17.8595889  60.3923941  45.4747343  17.7905500  61.1621284
  44.0170288  18.6486304  60.6936264  43.6987925  16.6745472  60.4448795
  43.0119038  16.8589234  59.6188736  44.3501377  15.8118701  60.3047562
  42.8603077  16.6695631  61.7452002  42.2630501  17.5765252  61.6513586
  42.1235228  15.8737969  61.8547773  43.6823463  16.7787564  63.0232239
  44.2597914  17.5864506  63.2083988  43.0542374  16.8679392  63.8091135
  44.2903662  15.9820580  62.8979683  43.3927345  19.6905494  58.1780910
  42.2061634  19.4924283  58.4885359  43.9515829  20.8739376  57.9711533
  44.8772430  21.0133195  57.5919008  43.0599451  22.0880342  58.1450033
  42.6179504  22.1967721  59.1354132  43.9245176  23.4065175  57.9639196
  44.7800541  23.4750628  58.6358261  44.3083954  23.4514952  56.9447422
  43.1084299  24.7171521  58.2598209  42.2161341  24.8582363  57.6498985
  42.6548958  24.5772648  59.2410660  43.8305855  26.0157323  58.0660439
  44.8047352  25.9009385  58.5413885  44.0518951  26.2373257  57.0219994
  43.1929493  27.1836281  58.7432003  42.2366524  27.3560452  58.2493687
  42.9992390  27.0000243  59.8000193  43.9525509  28.4165955  58.5295582
  44.9235392  28.1998229  58.7035990  43.7550545  28.8356256  57.6320553
  43.6253214  29.1848826  59.0976810  41.8655443  22.0708537  57.2319794
  40.7838106  22.2874308  57.7814484  41.9808674  21.8201804  55.9102106
  42.9047918  21.7704701  55.5052471  40.8794403  21.7482400  54.9954939
  40.2969313  22.6694965  54.9870110  41.5677738  21.5289330  53.5756350
  42.2200537  22.3964310  53.4752607  42.2494411  20.6832647  53.4846306
  40.5530691  21.5510654  52.3856306  39.9260592  22.4319100  52.5237417
  41.1291075  21.5775728  51.4606571  39.6449709  20.0627732  52.0559835
  40.9337044  19.1439641  51.2081146  41.7356157  18.9819980  51.9283962
  40.6196785  18.1881905  50.7886076  41.3635302  19.7094750  50.3813362
  39.8824310  20.6754160  55.3966856  38.6330557  20.8190012  55.3011227
  40.3529501  19.5228601  55.9149408  41.3298941  19.4690716  56.1655092
  39.5027280  18.2729292  56.0039377  38.6071372  18.4069598  55.3972578
  40.2632236  17.0402277  55.4427814  39.5910716  16.1837173  55.4947615
  40.4859209  17.1804297  54.3850231  41.4686537  16.8055904  56.1008215
  42.0906687  17.5048590  55.8869886  38.9953637  18.0329609  57.4363279
  38.8340497  16.9058359  57.9027176  38.8114834  19.1793275  58.0845881
  38.9750576  19.9790192  57.4897432  38.2047725  19.2627442  59.4026804
  37.9417706  18.2611024  59.7427464  39.2165279  19.7239745  60.4718733
  39.3506980  20.8034897  60.4029560  38.8177061  19.2522550  61.8457842
  37.7316952  19.3405640  61.8754578  39.0709281  18.2056105  62.0146513
  39.3341827  19.8749030  62.5763083  40.4176188  18.9549243  60.2305222
  41.0401058  19.3125701  59.5931816  37.0471334  20.2635264  59.4959164
  37.2684813  21.5391588  59.4763374  35.7897830  19.8070550  59.6390486
  35.3949738  18.3700681  59.6522903  35.6654787  17.8991973  60.5973864
  35.9596133  17.9346764  58.8278389  33.8614202  18.3910131  59.4267130
  33.3278322  17.5155556  59.7967863  33.6560464  18.5361993  58.3661270
  33.4723878  19.6966743  60.0912094  33.4179878  19.5312715  61.1672115
  32.5238562  20.1349115  59.7808266  34.6232653  20.6585670  59.9046946
  34.3888736  21.2204885  59.0005875  34.7955251  21.6876745  61.0588741
  35.4904151  21.3929701  62.0113993  34.3146014  22.9191637  60.8821869
  33.8234282  23.1727386  60.0368690  34.5790792  24.0642929  61.8360615
  35.6638098  24.1639328  61.8751621  33.9415860  25.3752446  61.4930058
  32.8981471  25.0670457  61.4270544  34.0615630  26.4949322  62.6098108
  35.1136732  26.7459226  62.7446032  33.5954475  27.4448466  62.3480844
  33.7895775  26.1397600  63.6037874  34.4048738  25.9872341  60.1343441
  33.6176252  26.7164946  59.9432373  35.4214215  26.3666010  60.2383280
  34.3009806  25.3019238  59.2931223  34.3452692  23.6502862  63.2434368
  35.1821971  23.8380861  64.1268778  33.1671357  23.0014038  63.6300278
  32.4496222  22.8031802  62.9474020  32.8059864  22.5338411  64.9183226
  32.7157497  23.3643198  65.6185102  31.3922405  21.9097924  64.9147701
  30.6686115  22.6045656  64.4884539  31.4179945  21.0886574  64.1984081
  30.8773518  21.2658596  66.2112713  30.0619054  20.6444311  65.8411741
  31.6368341  20.6511879  66.6944504  30.2451324  22.3623896  67.0866013
  30.7869887  22.5266266  68.1970406  29.3184376  23.1499314  66.7147779
  33.9331603  21.5942001  65.4941893  34.2135930  21.5690255  66.6339350
  34.4821739  20.7300711  64.6413994  34.2213798  20.7672882  63.6663580
  35.4451990  19.6549106  64.9068022  35.0497484  19.3005323  65.8587122
  35.1583457  18.5335445  63.8868618  35.4095006  18.8776791  62.8835726
  36.0860419  17.2701144  64.0320444  35.9406567  16.6298711  63.1619596
  37.1381927  17.5508893  64.0794468  35.8409834  16.8979299  65.0267982
  33.7076831  18.0397856  63.8285685  33.0851889  18.7967837  63.3515358
  33.6846137  17.1085167  63.2626104  33.3687472  17.9245448  64.8581028
  36.8640614  20.2305460  65.0000286  37.6049972  19.8773527  65.8724928
  37.1591806  21.3097525  64.1940451  36.4236784  21.5327573  63.5387564
  38.2593799  22.1526337  64.3074369  39.1306829  21.4984131  64.2770100
  38.1999612  23.1240201  63.1070042  37.9724503  22.5869107  62.1862173
  37.4105144  23.8340926  63.3533382  39.5425010  23.9887094  63.0565643
  40.3124046  23.2495689  63.2779789  39.5048380  24.4533038  61.5934420
  40.4184866  25.0324392  61.4594650  39.5151615  23.5866904  60.9324026
  38.6174464  24.9935031  61.2635565  39.5949268  25.2335382  63.9295149
  38.6213136  25.6962585  64.0909672  39.8326087  24.9450517  64.9534225
  40.2806520  26.0242915  63.6252213  38.2247782  22.9418039  65.6866980
  39.2640543  23.0548167  66.3596535  37.0350385  23.3201385  66.1630964
  36.2081671  23.2132888  65.5930328  36.8398190  23.9848042  67.4383736
  37.6978636  24.6471262  67.5532150  35.6390262  24.9158549  67.4430370
  34.7918892  24.2835879  67.1771479  35.3990412  25.5030704  68.3294249
  35.9145808  26.0411143  66.0605001  35.7965493  24.9905419  65.2436399
  36.7654252  23.0874372  68.7663460  36.5071654  23.5685825  69.8438501
  37.0233727  21.7744493  68.6582899  37.3086047  21.4270282  67.7538347
  37.1771526  20.9419012  69.9083424  36.3144493  21.1632943  70.5366945
  37.3360181  19.4106233  69.5566368  38.3127332  19.2899907  69.0880442
  37.4958682  18.9721334  70.5416584  36.2929749  18.6808300  68.7403584
  35.4036522  18.5297334  69.3522215  35.9976983  19.2043138  67.8310347
  36.6639590  17.1909082  68.3785677  35.7995534  16.8331611  67.8191757
  37.5632572  17.1069300  67.7683926  36.9443274  16.3099468  69.6111822
  36.7871761  16.7877853  70.5781746  36.2450242  15.4759037  69.5524502
  38.3575106  15.7822859  69.5052624  38.5085702  15.5689549  68.5296726
  39.0298033  16.4541900  69.8468304  38.4793377  14.9145257  70.0075102
  38.2682300  21.5169144  70.8317518  39.2962861  21.9957280  70.3949404
  38.0313587  21.5305424  72.1555281  37.2440886  20.9747005  72.4577618
  39.0112662  22.0772696  73.1194401  38.7561560  21.7447758  74.1256571
  39.9805331  21.6009855  72.9718542  39.0338898  23.6293030  73.1480646
  39.6827793  24.1221881  74.1278076  38.5109711  24.3919206  72.1888971
  37.9598284  23.9850664  71.4467287  38.4964347  25.7916617  72.1598196
  39.1653872  26.1288643  72.9515886  38.9090133  26.4285827  70.8223867
  38.0954146  26.3210511  70.1050377  38.9242792  27.5093460  70.9631777
  40.2887487  26.1142039  70.1915646  41.4876318  26.8282223  70.5466366
  41.5142298  27.6370907  71.2617731  42.7227783  26.4393425  69.9374771
  43.5775566  27.0087266  70.2714825  42.7840424  25.3909516  68.9929485
  43.7618732  25.1711106  68.5905457  41.6119194  24.6529865  68.7557840
  41.6124916  23.7842846  68.1140995  40.3801966  25.0113773  69.3198347
  39.5285439  24.4002104  69.0598869  37.1299529  26.2885404  72.6312494
  36.0755515  25.7877088  72.1416998  37.0415068  27.2993565  73.5153055
  38.1932521  28.1656837  73.8497019  38.7014151  28.5254717  72.9550362
  38.8172245  27.5555801  74.5027971  37.6044965  29.3987393  74.5711088
  37.3506355  30.2005792  73.8777781  38.2813263  29.7518229  75.3491402
  36.2591910  28.8800812  75.2292204  35.5165005  29.6776676  75.2101183
  36.2710381  28.3873963  76.2014484  35.8487153  27.8448033  74.1235065
  35.1405287  27.1208668  74.5266008  35.0554824  28.3898354  73.0201387
  35.6033015  29.2184973  72.2621584  33.7248540  28.1708193  73.0843210
  33.3866000  28.0118704  74.0226269  32.7648115  28.2972193  71.9186974
  33.1729317  27.7089381  71.0968256  31.4087105  27.6887488  72.3124027
  30.7228971  27.7112746  71.4654970  31.6408753  26.6598725  72.5873756
  30.9055328  28.2973123  73.0637836  32.6404786  29.7523665  71.4407873
  32.0662594  30.0833631  70.3794193  33.0775404  30.6976390  72.2374249
  33.6410546  30.3601241  73.0046511  33.1139278  32.1554375  71.8789911
  32.1189260  32.4861693  71.5811729  33.4885716  33.0271578  73.0833292
  34.4043136  32.6509309  73.5393620  33.6411357  34.0006280  72.6172972
  32.4527454  33.1782532  74.1239595  32.6464915  34.0421557  74.7597456
  31.5237141  33.4297729  73.6123562  32.1557164  31.9062400  74.9570465
  33.1455064  31.1725712  75.2915621  30.9822273  31.5737295  75.2849913
  33.9868569  32.4625754  70.7026625  33.5675454  33.1207132  69.7583914
  35.2076817  31.9128466  70.5970955  35.5172348  31.4583659  71.4442873
  36.0048795  31.9778275  69.3903875  36.0387397  33.0297995  69.1069937
  37.4672627  31.5318489  69.7481775  37.5037169  30.4673600  69.9797726
  37.9389501  31.6735649  68.7757969  38.1530762  32.4594307  70.6813192
  38.7632990  31.9640160  71.8758965  38.8070083  30.9218931  72.1560240
  39.3674588  32.8777981  72.7363491  39.7802019  32.5743890  73.6871290
  39.3156362  34.2634249  72.4791002  39.6992254  34.9503064  73.2189989
  38.6897278  34.7253442  71.2932396  38.7174225  35.7875705  71.1000824
  38.1186223  33.8417673  70.4052496  37.7530718  34.1533566  69.4379425
  35.4425812  31.1253047  68.2583046  35.6961632  31.4041424  67.1115637
  34.6723557  30.0667095  68.6072540  34.5981026  29.7282171  69.5559454
  33.9598274  29.2992258  67.5077868  34.7243214  28.9661884  66.8058348
  33.4425163  27.9683900  68.1394053  33.4032869  27.2625327  67.3097467
  34.0983152  27.7233458  68.9748573  32.4321079  27.8676629  68.5356712
  32.9090834  30.0869966  66.8379259  32.9104662  30.0682139  65.6201458
  32.0584750  30.8004761  67.5568151  32.2241998  30.7959676  68.5531187
  31.0047579  31.6742229  66.9948006  30.4962659  31.1450672  66.1888647
  29.9223137  32.0505190  68.0349731  29.5854878  31.0974717  68.4428310
  30.3784251  32.7126098  68.7709761  28.8019085  32.9137254  67.4563885
  29.3055010  33.8060498  67.0845604  28.4024048  32.4149036  66.5733957
  27.4091816  33.4107924  68.5064411  26.5500140  31.7777872  68.6287880
  27.2723556  31.0112596  68.9094305  25.8803773  31.8720627  69.4836521
  25.9585214  31.6481638  67.7224541  31.5865612  32.8211212  66.2085104
  31.1306214  33.0844760  65.0463963  32.6257396  33.3984113  66.7113304
  32.8721619  33.1403327  67.6561975  33.5008669  34.2480445  65.8912468
  32.9173565  35.1207852  65.5980778  34.6815133  34.8583508  66.5751362
  34.2535305  35.4193163  67.4059534  35.2730870  34.1278505  67.1269655
  35.5377269  35.7677627  65.7239723  36.6864800  35.2778268  65.0953865
  36.9788265  34.2386270  65.0638103  37.5484681  36.1219406  64.4256306
  38.3468199  35.6863236  63.8431597  37.2711134  37.4930334  64.3811703
  38.0322146  38.3053350  63.6427069  38.4067607  37.7814126  62.9307938
  36.1613250  37.9765248  65.1291990  36.0247231  39.0406632  65.2530909
  35.2681398  37.0852375  65.6882620  34.4587040  37.5241399  66.2526894
  33.9036179  33.6242557  64.5315790  33.6622190  34.2090440  63.5133314
  34.6402216  32.5292349  64.5732307  34.7201014  32.0248032  65.4445934
  35.1414967  31.9121480  63.3058786  35.6107950  32.6863790  62.6988935
  36.1975431  30.8137608  63.7507296  36.9299150  31.3738155  64.3321705
  35.6866741  30.1870513  64.4817209  36.7743182  29.9452639  62.6536131
  36.0022378  29.3803096  62.1312904  37.5828457  30.7893801  61.6418314
  38.4456277  31.3024163  62.0666885  37.9384685  30.1734138  60.8158684
  36.9351053  31.5840077  61.2715530  37.7497268  28.9670420  63.2789326
  37.3973203  28.5702062  64.2309999  37.9890323  28.1874657  62.5556803
  38.6424637  29.5435524  63.5213327  34.0949631  31.2227988  62.3441267
  34.2706704  31.2302160  61.0984230  33.0258536  30.7068229  62.9941559
  33.0316138  30.7065725  64.0041399  31.8482780  30.2382207  62.2153902
  32.0527530  29.4064593  61.5412521  30.8089805  29.6871400  63.1615210
  30.7136774  30.2885652  64.0655708  29.8785973  29.9334979  62.6498556
  30.9607244  28.2895613  63.4428787  31.0986948  27.4420166  62.6346731
  30.9403896  28.0025315  64.7359324  30.9982681  27.0314288  65.0074196
  30.6446862  28.7310266  65.3699303  31.3300943  31.4318848  61.4727545
  31.1610770  31.4824724  60.2545404  31.0321569  32.5771451  62.2176600
  31.1198616  32.5840163  63.2238245  30.4781842  33.8279915  61.5480661
  29.4320941  33.6670017  61.2875128  30.4096055  35.1074719  62.4024200
  30.0030851  34.9351549  63.3989859  31.3955688  35.5383158  62.5766373
  29.5724392  36.2209296  61.7775106  28.1794143  36.2375402  62.0286608
  27.7832603  35.4862189  62.6957273  27.3925376  37.2956443  61.5367794
  26.3452935  37.4038982  61.7775440  28.0212784  38.3213925  60.7895422
  27.3872089  39.3998909  60.2863169  27.8543758  39.9351668  59.6406889
  29.4704747  38.2107139  60.4768753  29.8069978  38.9209890  59.7361612
  30.3157043  37.2084522  61.0592175  31.3681149  37.0776987  60.8549309
  31.3889909  34.2546844  60.3577137  30.9512424  34.3861651  59.2112637
  32.7154946  34.3672848  60.5913258  32.9840064  34.1916347  61.5490055
  33.8381696  34.7012043  59.6282911  33.5337996  35.6796288  59.2566156
  35.1589131  34.7447109  60.4052258  35.2899027  33.7680793  60.8712006
  35.9364915  34.9828959  59.6794558  35.3226209  36.0774279  61.7137003
  34.7368932  35.6338048  62.8295040  33.9886475  33.7122202  58.4238243
  34.5793581  34.1753697  57.4646330  33.6150551  32.4287629  58.5802984
  33.2121134  32.2683382  59.4924450  33.6995006  31.2487388  57.6823139
  34.6207380  31.3325548  57.1057796  33.6142898  29.9186873  58.5525465
  32.8692055  29.9275923  59.3480778  33.2270169  29.1918230  57.8385496
  34.9962497  29.4335008  59.0497112  35.5623555  30.3587413  59.1572189
  34.8701048  28.9085650  59.9966145  35.6179881  28.3776188  58.1518412
  36.3890505  27.7189898  58.5515499  34.8030472  27.7098966  57.8723478
  36.0649562  29.0382838  56.9314575  36.9468451  29.4894028  57.1286106
  35.7545066  28.8349509  55.6811762  34.7419786  28.0146909  55.4000568
  34.1411352  27.4945450  56.0233831  34.4262934  28.0065632  54.4406939
  36.4100409  29.5225430  54.7632122  37.1287131  30.1386833  55.1153183
  36.1045718  29.6362877  53.8072538  32.4934053  31.1744380  56.7472506
  32.7010417  30.7628894  55.5792904  31.3445020  31.6798210  57.1558762
  31.2496781  32.1834040  58.0262327  30.0332117  31.6366410  56.3725758
  30.0350308  30.7497668  55.7388926  29.2348528  31.5186810  57.1052456
  29.8092604  32.9455900  55.5058527  28.7631464  33.0597138  54.8400211
  30.7758784  33.8629460  55.5114794  31.5377593  33.7088037  56.1563683
  30.7664061  35.1498652  54.7992134  29.7769094  35.5608320  54.9994659
  31.8636608  36.0395789  55.3378439  32.7895403  35.4678106  55.4005289
  32.0522022  36.8543029  54.6387148  31.5152168  36.7820287  56.6769123
  31.2548828  36.1612511  57.5342083  32.6924181  37.6466489  57.0504999
  33.0118799  38.2553029  56.2045765  32.4709296  38.2725525  57.9149580
  33.5139799  37.0455837  57.4401855  30.4675317  37.8019261  56.4663935
  30.2208662  38.3413243  57.3808956  30.6881666  38.5236502  55.6799221
  29.5813537  37.2786498  56.1072731  30.9244871  34.9537182  53.2555437
  31.8106866  34.2789912  52.7745104  30.0677896  35.6334925  52.4692917
  29.5512223  36.3551092  52.9515028  30.2293086  35.8398485  51.0153818
  30.5410743  34.8357153  50.7279491  28.8436365  36.0551953  50.4079676
  28.3703327  36.8004155  51.0472870  28.8694406  36.4629602  49.3974447
  28.0010939  34.7433543  50.4816914  28.3114147  34.1169882  49.6453476
  28.2951856  34.2926359  51.4295626  26.5621996  35.0997186  50.4511499
  25.9882140  34.2113757  50.7147598  26.3626432  35.7985640  51.2634897
  26.1851716  35.4688501  49.1082430  26.6414309  34.9476147  48.3732271
  25.2805781  36.3375592  48.7693930  24.3699646  36.7863941  49.5478964
  24.3018007  36.5106344  50.5171299  23.5419726  37.2401023  49.1891766
  25.3263187  36.7878914  47.5713634  25.9430957  36.3775659  46.8848372
  24.7414041  37.5707054  47.3160553  31.4082241  36.7102790  50.5356741
  32.0369673  37.3405266  51.3892698  31.6499758  36.6912293  49.2317677
  30.9907532  36.0950327  48.7521029  32.7548552  37.4851632  48.6124754
  33.6407399  37.3669100  49.2364359  33.0150270  36.7256522  47.2310448
  33.1800628  35.7082748  47.5857401  32.1647477  36.7715693  46.5505934
  34.2139125  37.3235440  46.5136480  35.5349636  36.9366789  46.8658304
  35.7464266  36.2923121  47.7063513  36.6087508  37.4964809  46.1728001
  37.6153421  37.4284506  46.5582132  36.4088464  38.1489110  44.9400520
  37.2474098  38.4698105  44.3398571  35.1323652  38.4971404  44.5995140
  35.0001335  39.1173339  43.7252855  33.9812899  38.1641936  45.3570938
  33.0153322  38.5569501  45.0759077  32.6060200  38.9844894  48.4310913
  33.4887648  39.7733927  48.7551165  31.3326478  39.4410586  48.1195450
  30.6929922  38.7308073  47.7932262  30.9371853  40.8403635  47.9039860
  31.8941927  41.3542080  47.9945564  30.3538775  41.1381340  46.5101004
  29.5536947  40.4350090  46.2789726  29.8397160  42.0984745  46.5487719
  31.4373088  41.1764383  45.4266930  31.9903159  42.1123600  45.5062389
  32.2691631  40.4848337  45.5601454  30.8436465  41.0831261  44.0474749
  30.4001284  40.0089169  43.6096096  30.7855415  42.1596098  43.4014034
  30.1321769  41.3945627  49.0847063  29.2622375  42.1789646  48.8621378
  30.4695916  40.9498692  50.2978897  31.2181807  40.2735472  50.3459167
  29.6552563  41.3280725  51.4947748  28.9085412  42.0979500  51.3003445
  28.9220715  40.0769377  52.0725250  28.5229301  39.5133972  51.2291908
  29.5824027  39.4771433  52.6988840  27.7456641  40.5029583  52.9833937
  27.4369931  39.5344305  53.3768082  28.1542730  41.1668873  53.7451887
  26.5621591  41.1037731  52.1282816  26.2203193  40.7242107  50.9837294
  25.9115958  42.1340036  52.4435759  30.5908823  41.9926119  52.4962473
  31.5431666  41.3940907  52.9317617  30.2407146  43.1686258  52.9810905
  29.3941307  43.6360884  52.6897669  31.0723066  43.8682699  53.9235973
  32.1267080  43.7203789  53.6902237  30.8444619  45.3470898  53.6459875
  31.0113597  45.6363583  52.6084089  29.8825860  45.7789707  53.9223433
  31.5656757  45.9628773  54.1833591  30.7617736  43.4965467  55.3507328
  29.6571517  43.8139868  55.7881594  31.7151213  42.9532766  56.1264610
  33.1160831  42.7039909  55.8808613  33.6313868  43.6618185  55.9525156
  33.2239246  42.3464537  54.8568344  33.7047458  41.5855265  56.7857361
  34.7198892  41.8139648  57.1103907  33.6510873  40.6940794  56.1607981
  32.7705169  41.6774702  57.9746914  33.3101225  42.3006582  58.6878300
  32.5801015  40.7046175  58.4279013  31.4603972  42.3074579  57.4694109
  30.6611228  41.5691328  57.4050283  30.9397888  43.3640385  58.5587120
  31.2544370  44.5190382  58.5331106  30.1594996  42.8711700  59.5280552
  29.8864412  41.8991613  59.5008326  29.6484423  43.7556124  60.6320715
  29.4824910  44.7968149  60.3555632  28.1954670  43.3307076  61.0120153
  27.6108146  43.1711769  60.1060152  28.1872678  42.3947620  61.5706253
  27.4811840  44.2395163  62.0283318  28.1138754  45.0642586  62.6920462
  26.2442088  44.2598295  62.1506071  30.5801821  43.6085367  61.8450069
  30.4295015  42.8051805  62.7680588  31.6528654  44.4046211  61.7694855
  31.7969656  44.8757792  60.8878136  32.8038144  44.4060135  62.7676249
  33.2089758  43.3941603  62.7569580  33.9702320  45.2971935  62.3408031
  33.6936522  46.3458776  62.4497366  34.7732329  45.1956463  63.0708599
  34.5162344  45.1513290  60.9458160  35.7339454  44.4885159  60.7726574
  36.2616181  44.0337372  61.5979671  36.2112880  44.3485117  59.4334459
  37.1875191  43.8901615  59.3761015  35.4510975  44.8210907  58.3709335
  35.9785271  44.7173309  57.0923996  36.8502498  44.3205404  57.1576214
  34.2276144  45.4883623  58.5671854  33.6959219  45.8137369  57.6852369
  33.7932205  45.7403278  59.9061871  32.8222871  46.1982250  60.0246000
  32.3777199  44.5851469  64.1621304  32.6364303  43.8030434  65.0781631
  31.4014959  45.4890442  64.3994904  31.1246109  46.1564159  63.6937666
  30.9115744  45.7036114  65.7429504  31.8280125  45.6976128  66.3330460
  30.3924561  47.1078968  65.9395504  31.2121844  47.8076172  65.7766581
  29.4745374  47.2242355  65.3633642  29.9384761  47.4447489  67.3893547
  28.9615321  47.0162439  67.6131010  30.6084108  46.9981623  68.1240988
  29.9366117  49.2369604  67.7356195  31.8417358  49.3539810  68.0546141
  32.1408534  48.9799881  69.0337753  32.3962379  48.8273668  67.2778893
  32.1732116  50.3897238  68.1285191  29.8776627  44.6433067  66.2817574
  29.7512507  44.4305325  67.5220394  29.2450905  43.8916922  65.4156303
  29.4524217  44.0416431  64.4385767  28.4849119  42.6827383  65.8020258
  27.7142239  42.9490757  66.5253544  27.6972389  42.0240879  64.5687008
  26.9716311  42.7538538  64.2094946  28.3682513  41.8529034  63.7269545
  26.9828558  40.7926273  64.8924685  25.6236863  40.8376884  65.0886822
  25.0931716  41.7762423  65.0248528  24.9610233  39.6207523  65.3507471
  23.8988447  39.5517087  65.5335522  25.7174659  38.3844447  65.3635693
  25.1623511  37.2109222  65.6708479  25.7717204  36.4691448  65.6648922
  27.0756483  38.4189892  64.9972296  27.6614213  37.5121665  64.9663591
  27.7368307  39.6529794  64.7859669  28.8046598  39.6936393  64.6294785
  29.4520450  41.6094255  66.4632797  29.1515446  41.1719704  67.6118422
  30.6112027  41.3153648  65.8897495  30.7607675  41.8294859  65.0333548
  31.6731358  40.4566050  66.3517523  31.2713790  39.4600439  66.5349483
  32.7684832  40.3842211  65.2864027  33.1490278  41.3984251  65.1652670
  33.5920715  39.8285866  65.7348156  32.5159359  39.6160936  64.0073633
  33.4281564  39.4802475  63.4264135  32.0887661  38.2006001  64.3490791
  32.3995876  37.5862360  63.5040665  32.5629497  37.8445077  65.2636576
  31.0230875  38.0673909  64.5353174  31.4888501  40.1833916  63.1088352
  31.9812536  41.0264635  62.6242065  31.3148165  39.4250441  62.3454714
  30.4950571  40.3891754  63.5064888  32.2653079  41.1103106  67.6453352
  32.6009393  40.3666639  68.5836792  32.4033976  42.4093723  67.7248144
  32.1298933  42.9927826  66.9470453  32.7755880  43.1060696  68.9694309
  33.7739873  42.7192068  69.1734886  32.9223967  44.6282864  68.8129997
  32.0537138  45.0092840  68.2760382  32.9917836  45.0612783  69.8109007
  34.1506886  45.0806856  68.0418682  35.0372052  44.7319078  68.5715246
  34.1747952  44.5116234  67.1125174  34.2593098  46.5135908  67.9562569
  33.2795548  46.8939114  67.6672316  34.5361137  46.8949223  68.9391470
  35.2590156  46.9384718  66.9370937  34.9361849  47.1562910  66.0051966
  36.5413642  47.1566105  67.1206760  37.1890306  46.8465376  68.2603836
  36.6798592  46.4515162  69.0380764  38.0857444  47.2397518  68.5081530
  37.1744514  47.7053499  66.1132145  36.7509937  47.7428055  65.1970339
  38.1655455  47.8431845  66.2504530  31.8455434  42.8608513  70.1327324
  32.3157430  42.5835180  71.2709522  30.5381680  42.9054880  69.8760796
  30.3067112  43.2436943  68.9529610  29.4211698  42.6451063  70.8175707
  29.5449734  43.1331348  71.7843151  28.0463266  43.1233644  70.1729584
  28.0765200  44.2078257  70.0674725  27.9824281  42.7491760  69.1511917
  26.7733836  42.6608610  70.8959579  25.9014606  43.0129480  70.3446960
  26.7041969  41.5735865  70.8619595  26.4937854  43.2935715  72.2387600
  27.4004745  43.8742638  72.8087902  25.3109193  43.1505680  72.7812243
  25.1360321  43.5697985  73.6833096  24.5526958  42.6505423  72.3394394
  29.2990947  41.2009382  71.2584972  29.1408539  41.0311222  72.4624395
  29.6424317  40.2116251  70.4307890  30.0799656  40.4741096  69.5591402
  29.8019576  38.7771869  70.8072662  28.8832045  38.4408236  71.2877464
  30.1559639  37.8197169  69.7054291  31.1383796  38.0317092  69.2835045
  30.2547216  36.8350315  70.1623106  29.0848207  37.7192450  68.5937929
  28.9411449  38.6344028  68.0193853  29.5602846  36.7581224  67.5740767
  28.9915729  36.8544674  66.6492033  30.5921793  36.9805050  67.3023462
  29.6122837  35.7594800  68.0078030  27.7007771  37.1900702  69.2097902
  27.1774387  37.8126001  69.9355173  27.0149016  36.8668175  68.4267282
  28.0712771  36.3038969  69.7250843  30.9295273  38.5236526  71.9045496
  30.7886052  37.7373409  72.8353500  32.0896959  39.3060255  71.8220425
  32.2734690  39.7653913  70.9415245  33.1542635  39.2157817  72.8379202
  33.0772710  38.1733012  73.1467962  34.5389557  39.5135570  72.2463655
  34.5613098  40.4632664  71.7119026  35.2756858  39.6529007  73.0375147
  34.9603343  38.5237384  71.1609173  35.1188946  37.1531177  71.5956450
  34.9247980  36.7833972  72.5916529  35.7046199  36.2000871  70.7228613
  35.8278918  35.1704121  71.0244799  36.1228132  36.5916443  69.4282293
  36.7315149  35.9133220  68.8487816  35.8810830  37.9665494  69.0085506
  36.2101817  38.2053542  68.0080175  35.1849461  38.8578153  69.8304176
  35.1171517  39.8791718  69.4859838  32.8851867  40.0071573  74.1166258
  33.3192348  39.4785500  75.2217484  32.3344636  41.1808491  73.9556313
  32.1628499  41.4722490  73.0039263  31.8646431  42.0677090  75.0434017
  32.6635289  42.2910357  75.7505131  31.3101411  43.3605194  74.4119835
  32.1071982  43.7070036  73.7541485  30.3465962  43.1058168  73.9705992
  31.0977435  44.4579649  75.4186296  30.2932334  44.1740131  76.0970354
  32.0173955  44.5481682  75.9967327  30.5436897  45.7899332  74.8452282
  30.7027531  46.5664339  75.5934572  31.1294866  46.1515331  74.0001249
  29.2019510  45.6534004  74.3834019  29.0473294  45.0443983  73.5926390
  28.2664514  46.5823793  74.5211554  28.3438611  47.6010942  75.2650261
  29.0861034  47.8681231  75.8957958  27.4481726  48.0217695  75.4672241
  27.1639633  46.4987278  73.7912416  27.1051979  45.6772661  73.2065582
  26.5469956  47.2824574  73.6324453  30.7723117  41.4041281  75.9065056
  30.8708215  41.4990091  77.1517611  29.9808788  40.4649353  75.3763962
  30.0050712  40.3224993  74.3767786  29.1026592  39.5925617  76.1953735
  28.4924388  40.2446651  76.8202639  27.9913211  38.9120698  75.3491020
  28.4025860  38.3591890  74.5045376  27.2377920  37.7869296  76.0538292
  27.1332216  38.0489278  77.1066904  26.3398552  37.3659658  75.6015015
  27.8986549  36.9245458  75.9662962  26.9581079  39.8983836  74.8310328
  26.2782645  40.1587296  75.6422853  27.5412250  40.7777786  74.5576525
  26.1990404  39.3624163  73.6087561  26.8598962  39.5722556  72.7677250
  25.9982109  38.2910776  73.6088848  25.2499485  39.8953557  73.6662149
  29.8633027  38.6082911  77.0817327  29.6234918  38.5937166  78.2636690
  30.8454013  37.9954052  76.5802383  31.1254072  38.2558441  75.6454277
  31.7820358  37.2476029  77.4554157  31.2274289  36.5775371  78.1123209
  32.8228974  36.4960957  76.5461540  32.2634268  35.8833838  75.8392763
  33.4565353  37.2305799  76.0490274  33.7574649  35.5581427  77.4260283
  34.2365289  36.0730934  78.2587481  32.9919267  34.4710374  78.2137394
  32.1038008  34.2353153  77.6274204  33.6260629  33.6279130  78.4878016
  32.6561403  34.9191117  79.1489315  34.9081850  34.8443532  76.6800404
  34.9981380  35.1800990  75.6469488  35.8972144  35.0496125  77.0896721
  34.7308588  33.7752676  76.5629387  32.4987078  38.1181097  78.5534859
  32.3517323  37.7802396  79.7298050  33.2991648  39.0287185  78.0990028
  33.2308745  39.1449976  77.0980453  34.1916060  39.9007154  78.8415289
  35.0654268  39.4323564  79.2944956  34.6490526  40.9406281  77.7828169
  35.0178194  40.4404306  76.8873215  33.8180161  41.6079903  77.5545359
  35.8518314  41.7471266  78.2036448  37.1235228  41.1374950  78.2294989
  37.1684027  40.1489449  77.7968836  38.2424212  41.9427013  78.5690832
  39.2354894  41.5387106  78.4386730  38.0367804  43.3109999  78.8901234
  38.9034677  43.9166832  79.1101313  36.7565680  43.8767290  78.9040756
  36.6835070  44.9189901  79.1774845  35.6562018  43.0825424  78.5588026
  34.6767497  43.5246420  78.6666155  33.4324765  40.4683352  80.0318050
  33.9141941  40.3492928  81.1863899  32.2368979  41.0750008  79.8719740
  31.9803596  41.2775850  78.9163303  31.2977791  41.5515709  80.9489250
  31.9538641  42.0695686  81.6484547  30.3443360  42.5523138  80.3991413
  30.0082278  43.2133961  81.1979580  30.8273458  43.1359386  79.6154451
  29.0025949  42.0172596  79.7896910  29.1654062  41.0323763  79.3519735
  28.2442093  41.8931484  80.5627060  28.3472800  43.0182648  78.8007164
  29.0891886  43.2730675  78.0439138  27.5692320  42.3952103  78.3596468
  27.6993084  44.1222000  79.3912554  27.7554154  44.2093897  80.3959274
  27.2421813  45.2129269  78.7920856  27.0623207  45.3361320  77.5083399
  27.4028230  44.5502853  76.9729805  26.7304778  46.2018347  77.1076584
  26.8359804  46.2026310  79.4763565  27.2288346  46.3043594  80.4012489
  26.4783239  47.0227432  79.0077305  30.6874752  40.4894304  81.9251156
  30.3966451  40.7568169  83.0927467  30.4773712  39.2659163  81.4577961
  30.8793354  39.1084218  80.5447102  29.9844408  38.1269217  82.2799492
  29.2310023  38.4774494  82.9853249  29.4164228  37.0457602  81.4123440
  30.2445316  36.5908599  80.8688354  28.7236094  35.9535766  82.2373486
  28.4041882  35.1757431  81.5437794  29.3863344  35.5615401  83.0088520
  27.7922916  36.2966871  82.6879311  28.4768033  37.4601150  80.3869820
  29.0140605  37.7559137  79.6484232  31.1079955  37.5979686  83.1916809
  30.8410501  37.3075342  84.3211842  32.3850918  37.6018596  82.7215195
  32.4523520  37.8747272  81.7514038  33.5647750  37.4194407  83.6334705
  33.3410978  36.5566206  84.2608452  34.8771691  37.1813059  82.7935410
  34.9616957  37.9476190  82.0230103  35.6994677  37.2192907  83.5080242
  34.7628427  35.8092380  82.0632267  33.7816119  35.6299186  81.6237640
  35.8276820  35.8323693  80.9417248  36.7970681  35.8220935  81.4400005
  35.7526779  34.9391460  80.3215408  35.6251264  36.6904616  80.3008270
  35.2458501  34.6625042  82.9494572  34.4040775  34.3165183  83.5492992
  35.6565309  33.8835716  82.3070335  35.9592152  35.0493979  83.6771488
  33.7788892  38.7406063  84.4711590  34.4094706  38.6277509  85.5331516
  33.3875918  39.9223828  83.9474297  33.0040550  39.8140335  83.0193901
  33.4172869  41.2858391  84.6169949  32.6648450  41.9648886  84.2159653
  33.1293416  41.1645603  86.1458111  32.2171593  40.5717421  86.2135410
  33.9127421  40.6968689  86.7421818  32.6583552  42.5097370  86.6537762
  32.1522903  43.3870125  85.9442043  32.6227355  42.6985073  87.9311085
  32.4182343  43.6486101  88.2060337  32.9535985  42.0106173  88.5924911
  34.7663951  41.9356346  84.4294357  35.2072406  42.8740120  85.0993633
  35.5267596  41.4834118  83.3859730  35.1766658  40.7120228  82.8359699
  36.7543030  42.1941710  82.8856659  37.3468399  42.3146582  83.7925720
  37.5578737  41.3280630  81.8165207  36.9326568  41.0484695  80.9685612
  38.4054446  41.8580627  81.3819695  38.0584860  40.1353741  82.4979877
  39.0030670  40.1167870  83.5612679  39.2123222  38.8353944  83.8837624
  39.8183322  38.4495759  84.6901703  38.6895394  38.0991530  82.9481602
  38.7838507  37.0939255  82.9750919  37.9255795  38.8929749  82.0880699
  37.3665524  38.6083531  81.2089348  36.5431714  43.6271954  82.3205948
  35.4418302  43.9795828  81.7907429  37.5909281  44.4406748  82.3228073
  38.4144378  43.9923143  82.6981831  37.7139544  45.8233070  81.8444729
  36.8657994  46.1722231  81.2554073  37.8254461  46.8795395  82.9746437
  38.5842705  46.5580225  83.6880207  38.0935264  47.8613615  82.5844383
  36.4079332  47.0827770  83.6278343  35.6864214  47.6158714  83.0086899
  36.0792184  46.0491896  83.7361717  36.5060973  47.6054192  85.0802708
  35.7213569  47.1754742  85.9455585  37.3896742  48.4978485  85.3755474
  37.4443507  48.7845373  86.3424587  37.9780650  48.9876938  84.7168064
  38.9363456  46.0605145  80.9194756  39.9855471  45.4743099  81.1500454
  38.7300253  46.9117403  79.9164486  37.9387856  47.5375748  79.9651623
  39.7769046  47.1890068  78.9398003  40.4069233  46.3066435  78.8274956
  39.1382980  47.5273371  77.6094484  38.7565041  48.5482788  77.6128483
  39.9775171  47.5518370  76.9143152  37.9732275  46.7229271  77.0051289
  36.6362834  47.0430660  77.2716618  36.4679241  47.8683376  77.9476738
  35.5913591  46.2538195  76.7677927  34.5883250  46.5625095  77.0228243
  35.9029508  45.2009487  75.8824205  34.8305726  44.4466543  75.5206156
  35.0220203  43.9086914  74.7489023  37.2187829  44.9938202  75.5183268
  37.4779320  44.1464758  74.9008751  38.2424879  45.7375288  76.0521793
  39.2094851  45.5128670  75.6269264  40.7111645  48.2696915  79.5135164
  40.2554655  49.4255257  79.5919895  41.9192839  47.9366398  79.9795914
  42.2186995  46.9730759  79.9349070  42.7371502  48.7291193  80.8651733
  42.6413298  49.7945642  80.6560040  42.2796345  48.3880520  82.3396301
  42.8325367  49.1309834  82.9144764  41.2222338  48.6063004  82.4892139
  42.7161694  47.0379782  82.9260540  43.3279228  46.2304544  82.2346401
  42.4357605  46.7993307  84.0837765  44.2239952  48.3411407  80.7290268
  45.0254774  48.8516665  81.5273571  44.6638250  47.5303698  79.7638512
  43.9683008  47.0931816  79.1763067  46.0882330  47.4266863  79.2155313
  46.1284590  46.6608906  78.4409142  46.6890621  48.7808943  78.9002991
  46.9175959  49.2422581  79.8610353  47.6221561  48.5938787  78.3688259
  45.8260202  49.5828915  77.9614735  45.6493616  49.1815519  76.6537237
  46.1928606  48.3470201  76.2359190  44.7554731  49.8113537  75.8405399
  44.7105312  49.3863869  74.8486805  43.9362621  50.8747864  76.3068295
  43.0312252  51.4780951  75.5074072  42.2091770  51.6760492  75.9619999
  44.0768433  51.1988020  77.6715279  43.5507727  52.0602655  78.0556250
  45.0020647  50.5677748  78.5109568  45.1107597  50.9213924  79.5256233
  47.0517015  46.7325020  80.2007389  48.2952499  46.6663361  80.0337505
  46.4742661  46.2049818  81.2721348  45.5183649  46.5059710  81.3976955
  47.1050167  45.3951645  82.3040676  48.1011963  45.7400036  82.5812244
  46.3825035  45.3579521  83.6683178  46.8309927  44.6259689  84.3400002
  46.2111235  46.7564678  84.3151093  45.6541061  46.6608620  85.2471447
  47.1716166  47.2535181  84.4511223  45.5760145  47.4178410  83.7257576
  45.0851297  44.9451160  83.6389732  44.6165657  45.6524277  83.1898022
  47.3703146  43.9623404  81.6849613  46.7959213  42.9411602  82.0893383
  48.2484770  43.8980055  80.6693268  48.6310434  44.7760439  80.3487110
  48.5810804  42.6725197  79.9232721  47.6723003  42.1222782  79.6794224
  49.2459822  43.0330658  78.5702229  50.2598715  43.4058285  78.7157249
  49.3082237  42.1215630  77.9757547  48.4747124  44.0002537  77.7184010
  47.2097301  43.5656452  77.2429180  46.7874908  42.6199007  77.5489855
  46.4800072  44.4260693  76.3380909  45.5695200  44.1487598  75.8276844
  47.0294619  45.6410217  75.9475470  46.4028931  46.2428522  75.3059721
  48.2554913  46.0664177  76.4780092  48.6826086  47.0044994  76.1555624
  49.0393734  45.1640749  77.1798944  50.0004816  45.5507088  77.4851513
  49.5430851  41.7935467  80.6832218  50.3764915  42.3078012  81.3404465
  49.4227791  40.4243660  80.5567455  48.7334871  40.1511860  79.8709297
  50.2216625  39.3996859  81.1888790  49.8892832  39.3745708  82.2266579
  49.8518896  37.9863644  80.6243229  49.9267006  37.9432917  79.5377398
  50.5454493  37.3146868  81.1302090  48.4648609  37.4132013  80.9359741
  48.3018255  36.1730647  80.7564640  47.5579119  38.0561757  81.5090466
  51.7470264  39.5691156  81.1346722  52.3901367  39.2969489  82.1656704
  52.3115492  39.9378848  79.9676657  51.6595650  39.9818969  79.1975498
  53.7214136  40.1841688  79.7602272  54.1830158  39.3230128  80.2433777
  54.1281033  40.1958847  78.3274269  55.2173662  40.1732731  78.2943773
  53.8202906  39.2444944  77.8935909  53.6484098  41.4257574  77.5935793
  54.2407465  42.6483822  77.4398756  55.2487612  42.8896523  77.7433491
  53.4574699  43.4550381  76.6713476  53.7160063  44.3939400  76.4035368
  52.3028231  42.7661896  76.2617588  51.2565088  43.0978298  75.3743315
  51.2227058  44.0048599  74.7890472  50.3108644  42.1246433  75.0406742
  49.6133995  42.3093987  74.2370558  50.3834200  40.8604860  75.6277704
  49.7174692  40.0697517  75.3152704  51.3834286  40.5581856  76.5625143
  51.4102554  39.5267773  76.8816996  52.4381924  41.4812708  76.8880272
  54.2077923  41.3792801  80.6516457  55.1788616  41.2718868  81.4103127
  53.4095144  42.4842930  80.7591057  52.7269888  42.6891470  80.0433445
  53.6573172  43.7125635  81.5672779  54.6641779  44.0553379  81.3288593
  52.7173042  44.8822880  81.2582779  53.1592369  45.7824469  81.6854858
  52.7582264  45.2138424  79.7654009  53.7704420  45.2919722  79.3686438
  52.3755217  44.3278313  79.2588234  52.1349239  46.0653067  79.4922781
  51.3944721  44.8024130  81.6692829  50.9996653  43.9568615  81.4439487
  53.6592722  43.3746195  83.0796242  54.3458223  44.0820122  83.7726879
  53.0620766  42.2541475  83.5569668  52.6482344  41.6863680  82.8313828
  53.0376720  41.7692995  84.9195290  53.3206749  42.4950171  85.6819820
  51.6352558  41.2149954  85.2240372  51.4044952  40.4121876  84.5237923
  51.6378403  40.8486938  86.2506390  50.5033875  42.3024273  85.0415230
  50.8876228  43.1752443  85.5693913  50.1964855  42.4981833  84.0141010
  48.9553452  41.8144417  85.8290195  48.2890749  40.5692005  84.6779060
  49.1064644  40.0108910  84.2215347  47.6788807  39.9244595  85.3104115
  47.5905609  40.9825039  83.9503288  54.0933418  40.6693220  85.1916122
  54.1223335  40.1743460  86.3080597  54.9775171  40.2861786  84.1995525
  54.7864437  40.7017565  83.2990551  56.1204910  39.3905854  84.3711376
  56.1771250  38.8810706  85.3330612  56.0723686  38.3010888  83.3140659
  55.0914240  37.8279757  83.2692432  56.0399961  38.8874555  82.3957920
  57.2048473  37.2342253  83.3287239  58.1708002  37.6882434  83.1075954
  57.2726202  36.4673996  84.5917511  57.6248217  37.2315216  85.2846909
  56.2683725  36.1250615  84.8415375  58.0704594  35.7340860  84.4742393
  57.0355654  36.2623549  82.1247005  56.9597673  36.8335629  81.1994553
  57.9457712  35.6655359  82.0661449  56.1689663  35.6073999  82.2149563
  57.3632669  40.3093290  84.2232800  58.2153177  40.2120924  85.0531101
  57.3176813  41.3008356  83.3502388  56.4934683  41.2191820  82.7722263
  58.2115746  42.5005436  83.1814671  58.2011175  43.0052996  84.1474915
  59.7013474  42.0828247  82.9147625  60.0187826  41.2956333  83.5986233
  59.6457148  41.5436935  81.9690704  60.6647396  43.2640314  82.9109001
  60.4177332  43.9763308  82.1236801  60.5572367  43.7831020  83.8633251
  62.1496248  42.7918434  82.8248024  62.8978682  43.5629702  83.0081081
  62.3125839  41.9608402  83.5110855  62.4082661  42.1061230  81.4381790
  63.3222437  41.5317011  81.5891266  61.5640497  41.4625454  81.1907864
  62.4267960  43.1101799  80.2935123  63.1553555  43.7803698  80.4938793
  62.4448442  42.7311993  79.3574810  61.5726519  43.6210680  80.1216602
  57.7478886  43.4900856  82.0738602  57.6974106  43.1761885  80.8658314
  57.5530481  44.7564268  82.4659443  57.8122902  45.0612020  83.3933067
  57.2659874  45.9361935  81.6053104  56.7707586  45.6511641  80.6770897
  56.1357355  46.7532015  82.3440361  55.4543400  45.9799528  82.6988316
  56.6126394  47.2607660  83.1825066  55.3902864  47.8650093  81.5738106
  56.1997843  48.5740995  81.4006042  54.9624348  47.5263691  80.6302166
  54.3392992  48.5813761  82.4249554  54.4163561  48.5933971  83.6223698
  53.3382416  49.1613436  81.8842030  52.6513767  49.5389509  82.5211811
  53.2345057  49.2581558  80.8842182  58.5428810  46.5811348  81.2602329
  59.0282726  47.3867559  82.0467567  59.1575909  46.2415457  80.2305222
  72.4443245  64.3731880  69.1284943  71.2015247  64.2294264  70.0425911
  70.9957647  65.4621410  70.8192539  72.2322512  65.7715845  71.6805983
  73.4243965  65.3998518  71.1229944  73.6402845  64.9255085  69.9405336
  72.9572344  61.2398863  67.1800423  73.3312464  60.8650732  68.4243679
  73.2812309  61.9532776  69.4785118  72.7583933  63.0687952  68.5876703
  72.4811411  62.6055813  67.2520781  73.2554531  59.0284395  66.3245487
  73.6671209  58.5858202  67.6208258  73.7558603  59.5386505  68.6669636
  72.9109001  60.3668928  66.1032867  72.1431112  63.2795763  66.3765764
  74.1693783  59.1520405  69.9168682  74.7813988  64.7498941  69.6200180
  72.1787930  66.0233355  72.8888464  72.2440434  65.1100397  68.3389235
  74.2105198  65.5263424  71.7495680  73.2218885  58.3819485  65.4525852
  73.7326336  57.5205517  67.8215742  72.4462509  60.6568861  65.1655197
  74.2600775  62.2892809  69.8429489  72.7500439  61.6951323  70.4031992
  74.2628574  58.1622314  70.1025677  74.0407324  59.8239565  70.6617880
  71.3372231  63.4238625  70.7761097  70.2684402  64.1571856  69.4685507
  70.1586723  65.4526806  71.5295839  70.8509398  66.2623072  70.0815868
  52.7705240  22.9948664  62.9281616  52.2781897  58.0014944  77.6880312
  45.7887268  49.8933268  42.1127415  52.7344131  65.8016586  76.2615252
  62.0073080  13.7850595  65.8264494  46.2723160  38.1215167  43.3863974
  24.1437793  35.1063776  34.0504885  23.9714336  34.7884464  33.1642318
  24.4959521  34.3461704  34.5133996  82.4932098  30.0392795  89.3329620
  82.3123074  30.8363748  89.8311043  82.6653767  30.3468895  88.4430313
  -0.2565786 110.7000732  40.9917593  -0.2899476 111.2773991  40.2289915
   0.6751803 110.5179024  41.1136770  91.8332005 101.6502285   9.7227585
  91.0533237 101.9051361  10.2157521  92.5052166 102.2736168   9.9984688
  26.9539595   8.2847732  38.1636000  26.1688590   7.8388977  38.4814739
  26.9015026   9.1619277  38.5431790  98.8249588  97.1384144  30.2037334
  98.6795616  96.2053108  30.0475097  98.8007927  97.5337696  29.3323326
  93.2406330 104.6792507  36.5492678  93.4813309 104.5083618  37.4598169
  93.1372833 105.6297398  36.5031862   1.0803170 105.1612377  40.0889874
   1.0502523 105.7750225  40.8228731   0.5829641 104.4014645  40.3916645
 103.2929802 108.7997150  19.8750710 103.8399124 108.0275249  20.0193524
 102.5402927 108.6713505  20.4523182  28.9636183  13.8978481  28.9394569
  29.7588587  13.6978710  28.4456611  28.7285948  14.7845781  28.6661363
  32.5694180   6.5232402  32.5576997  31.6167712   6.5706331  32.6380277
  32.8978705   7.0344812  33.2972836  33.8868093   2.8021252  11.7758811
  34.7409630   2.7266851  12.2012770  34.0514135   2.5624028  10.8639216
  22.9123259   7.8610045  32.0694923  22.2813010   8.0637145  32.7601051
  22.9431272   8.6532205  31.5331364  95.8384323  87.4663448  54.4792700
  95.8377266  87.5931168  55.4280376  95.1028442  86.8760300  54.3159580
 110.3592975  87.9535905  -0.0054530 110.6251675  88.6797849   0.5586263
 111.1254460  87.3805634  -0.0352839 115.9612751  97.7207184  19.9222493
 116.8376827  98.0726814  20.0780129 115.3792858  98.3017731  20.4120421
   3.9530995  91.7963028  30.6294560   4.9055597  91.8563175  30.5556321
   3.6281621  92.5730515  30.1741505  19.1959596  73.7641716   8.9336807
  19.8787069  74.3302298   9.2937654  18.3856618  74.2589235   9.0556180
 105.4926777  96.0917854  27.3974800 105.1107025  95.3640270  27.8880835
 106.1068153  95.6763649  26.7920947 113.0392551  98.3628845   3.7317684
 113.7137794  98.6575985   4.3436465 112.6346493  99.1701698   3.4142739
  72.3173475  43.0857658  95.8594131  71.3897514  43.1138611  95.6248760
  72.4433279  43.8442659  96.4295292 119.3185351  93.0863857  18.5295451
 119.1172259  92.1964741  18.8189673 118.8989797  93.6502552  19.1793609
 115.0922871  87.8810883   0.7764030 114.6990204  88.7448788   0.6521238
 116.0164547  88.0612183   0.9487203  15.7435846 107.3419762  14.5373714
  16.1088979 106.7581081  15.2021098  16.3509989 108.0811691  14.5079386
  41.0070801  87.1996975  23.7240887  41.8775749  87.0046711  24.0711188
  40.5331659  86.3703728  23.7861443  92.4785328  42.7803183  94.9571800
  92.5493240  42.4456120  95.8511639  91.6705704  43.2935762  94.9568748
  94.0251350  76.9984865  28.7763596  94.6063614  77.7526093  28.8748693
  93.3359337  77.3027945  28.1859040 116.2135124 100.3505707  49.6055126
 116.8618107 100.5265236  48.9236164 115.7905483 101.1956692  49.7576523
 116.4356804  88.8225746  29.2180490 116.7780113  87.9848766  29.5299864
 117.1615887  89.4357872  29.3332386 113.5398579 109.5330334  17.8081465
 113.4210968 109.5890045  16.8599927 113.2206821 110.3724194  18.1394768
  18.0836701  80.2592087  30.7874250  18.6569870  81.0231209  30.8504963
  18.6734593  79.5332479  30.5840445  90.5641174  86.2276649  24.1749334
  89.9303913  85.5440712  24.3924761  91.0783768  86.3406754  24.9743056
   0.5161926 102.2319412  35.3927279   1.4356542 101.9956684  35.5151820
   0.3719260 102.9563618  36.0015273  12.4853396 104.6532917  31.0896635
  11.9456613 103.9063263  31.3485360  13.1031299 104.7643185  31.8123269
  94.1653824  44.9705696  88.6988354  93.7376499  45.7948065  88.4666348
  93.5084438  44.4946432  89.2069244  17.7740395   9.3976420  19.4912863
  17.7473712   9.3148476  18.5380471  18.5909319   9.8640543  19.6684289
 114.6829891 111.9068241  10.5669343 115.6185627 111.8520641  10.3721857
 114.3805408 112.6710606  10.0763214   7.1869570 101.1221600  35.1629829
   6.5264213 101.3051987  35.8311296   6.8133938 100.4083633  34.6460891
  44.4137097  97.3581497   0.2600977  44.3954597  97.9988090  -0.4508570
  43.5576898  97.4420301   0.6801244  51.7439175  55.9672213  88.0145645
  51.7290497  55.7811737  87.0757389  51.7163849  55.1053143  88.4300041
  90.7732964  93.4870911  17.5984395  91.5085220  93.2614136  17.0285749
  90.0399113  92.9752541  17.2572565   3.1631413  91.9046307  33.2461238
   3.1848589  91.8786907  32.2895217   3.9372340  91.4108944  33.5167456
 102.5760269  18.0345249  91.0797691 102.2368813  17.4542224  90.3982544
 101.9284630  18.7368190  91.1404228  72.6753759  45.5151844  93.5281181
  73.1303453  45.8030653  92.7366924  73.3016586  44.9410391  93.9689827
 108.5503387  80.5997467   1.3033307 109.1536331  81.1907005   0.8527299
 107.8338242  80.4695988   0.6821157  95.3276062  93.0163765  12.2688031
  96.2607956  93.0851173  12.4704683  95.2478600  93.3666992  11.3815892
  89.3487740  89.9328709  27.1298957  88.6533928  89.4952488  27.6209736
  89.0810299  90.8514595  27.1025014  40.9632444   1.3933207   8.3177751
  40.1349211   1.5899423   7.8802234  40.7193232   0.8242925   9.0478027
 108.9931774 101.3395882  10.7909870 108.4415054 100.6632996  11.1840820
 109.8757076 101.1403275  11.1034966 108.1080723  92.3922157  19.9224412
 107.5845242  91.8475914  20.5102420 108.7215614  91.7818832  19.5133436
 105.7374668 100.3566360  11.7315626 105.8299446 101.2594414  11.4272249
 106.1466122  99.8294544  11.0453331   0.7930516  77.8258181   3.1050786
   0.8758284  77.9194975   2.1560767   1.6215059  77.4331045   3.3801568
 111.1274815  90.1996517  16.1244190 110.9249210  89.3555069  15.7211494
 110.4137993  90.7745361  15.8480227  91.0426903  48.3052683  94.0133667
  90.2570152  48.4862280  94.5293140  90.7120132  48.0869055  93.1420517
 116.7747116  84.1945171   8.4625554 116.6655922  84.7308159   7.6772499
 116.2293148  84.6224976   9.1225576 100.1087093 109.0964794  10.2232707
 100.2292728 110.0334740  10.3773904  99.5349884 109.0514374   9.4583833
   3.6557156  95.5938244  10.8065486   3.3590883  94.7564030  11.1628723
   3.2418624  95.6476498   9.9451184  16.9446433 110.4964066  15.4852605
  15.9957170 110.5859852  15.3972483  17.1498930 110.9267998  16.3152385
 118.7556553  99.6077442   7.4898571 118.5430813  99.2713833   6.6192782
 118.5817909  98.8738155   8.0792171  11.2384546   0.5006233   0.1404779
  10.3576005   0.5706394   0.5084806  11.8137479   0.8269012   0.8324402
   1.6208088  75.6830072   8.6065167   1.4957376  76.5899992   8.8857293
   2.3739788  75.3783035   9.1126007  76.8410349  88.4661579   0.5502069
  77.3571634  89.2663765   0.6476592  76.8345928  88.0772972   1.4248379
  21.8975210 109.2951298  22.4314737  22.1478915 109.7498989  21.6272783
  22.4897003 109.6435261  23.0979371   3.6397937  93.9862061  28.7878251
   4.3707800  94.5989513  28.8680387   3.5214007  93.8768101  27.8442955
  62.3167133   4.0176997   4.3446419  62.2830677   3.0610982   4.3482745
  63.2426786   4.2243090   4.2176172  13.1569982  84.3025589   8.9735574
  14.0889883  84.5204353   8.9611775  12.7344871  85.0785446   9.3417406
  11.2321091  83.1340504  16.3242257  11.0565615  82.4526501  15.6752908
  12.0571733  83.5279274  16.0407436   7.2513705  92.7264118  22.4770093
   7.3459005  93.6753082  22.3940182   6.3207072  92.5932503  22.6569128
 114.9802017  79.8005819  26.3729453 115.8662605  79.6140718  26.0625434
 114.4290924  79.1600609  25.9232330 106.8587971  90.9396648   4.4755727
 106.9637871  90.7244396   3.5488099 106.1727428  90.3470898   4.7828451
  24.7873950  95.5028343  51.8313646  24.2829347  95.6993866  52.6207447
  24.4533110  94.6549702  51.5385437  59.0414190  13.8611221  26.5015769
  59.4415760  14.1830361  27.3093367  59.7226143  13.3268571  26.0932136
 102.2706318 108.1151390  13.1417966 102.5746918 107.8877926  12.2631073
 102.8776455 107.6649380  13.7292373  14.6141124  13.5213912  21.7462158
  13.9253354  13.0563104  22.2211027  14.1772127  13.8662088  20.9674668
  25.4530525   6.7622215  20.6942439  25.8516812   6.8543047  21.5596032
  26.0188437   6.1417896  20.2347016  95.4893589  23.9755750  96.5978813
  95.4009438  23.0538273  96.3554001  96.4328575  24.1104889  96.6864872
 108.4651566  98.5206604  44.1727066 107.5429249  98.4824753  43.9192247
 108.9036369  98.9204693  43.4216309  44.0292788   1.3772160   3.9299417
  43.9215088   1.7302436   3.0467719  44.7116280   0.7119302   3.8403326
   9.7472948  62.4690723  24.6850491   9.9441803  63.2916451  24.2368913
  10.5237377  62.2942495  25.2168465  73.6565542  40.4794359  96.7001915
  72.8477097  39.9733901  96.6233063  73.3794451  41.3903522  96.6018009
  22.7429986  92.4891281  25.9192228  21.7961025  92.5093651  26.0578227
  23.0015159  93.4104824  25.8967328  13.7147152  90.5268002   7.6187104
  12.8059328  90.5229378   7.9192615  13.8034499  89.7184372   7.1138257
  78.2556391  39.3865323  89.1208267  78.5135555  39.3476892  90.0417995
  78.8411903  38.7695265  88.6818886 116.8105412 104.8477840   0.5762780
 116.5079498 103.9663506   0.3577464 117.0585728 105.2312946  -0.2649298
  95.1718426 103.3889389  14.9836171  94.7723007 104.1509819  15.4030120
  95.1967716 102.7229977  15.6707358 117.8441143  11.5018070   6.9495040
 118.1642342  11.3463128   6.0609227 116.9868755  11.9097853   6.8272918
 100.9194374  89.7011757  19.6155703 101.8506336  89.9139690  19.5538354
 100.8340073  88.8648224  19.1579163  48.2227659  50.3764296  92.0036411
  47.6564980  49.8199272  91.4689636  47.7008677  50.5716848  92.7819252
  28.3344126   1.4768036  23.8274240  28.0988598   2.3988509  23.7245846
  28.3340526   1.3336270  24.7738552   5.7674515  80.8702946   2.5287119
   5.1731271  81.2370110   3.1833303   6.5632570  80.6615353   3.0179432
  94.6081924  76.6359425  21.3603759  95.5107212  76.6074848  21.6779590
  94.4805431  77.5429916  21.0825253   6.3010824 107.7632332  22.9907703
   6.2920398 106.9734669  23.5315228   6.7374313 108.4200478  23.5333800
 118.5245514  81.0167217  11.3659942 119.1745281  80.5464745  10.8438551
 117.8505802  81.2720966  10.7360935  77.2628355 101.6907120  38.5448575
  77.3652649 100.7428741  38.6305737  76.3712835 101.8065262  38.2162976
   1.2796378  96.7544651   3.6102790   0.7066095  96.0330677   3.8700068
   1.2742126  96.7320538   2.6533571   9.6053404  84.3753242  18.6729527
  10.3863096  84.4609737  18.1261599   9.9439895  84.3120384  19.5660055
   9.7823131 100.9398270  12.5752389   9.5456660 100.4957581  11.7609751
   8.9478678 101.0803986  13.0226469   2.6883993  93.5309315  25.1164722
   2.4797201  93.0244637  24.3315029   2.5622493  92.9158211  25.8389425
  73.3579493   7.8005296  32.6588464  73.2834196   7.6380002  31.7184949
  73.3391953   6.9292343  33.0547285 114.2310715  97.2427940   8.7587756
 114.3360233  96.5441895   9.4046545 114.7964954  96.9833469   8.0313045
  22.7627039   2.4401277  30.0104380  22.7074075   3.3792013  30.1873994
  23.6154461   2.1804808  30.3592205  46.7480516   2.3065588   9.5008653
  47.3396349   2.6420784  10.1744306  47.1533775   2.5682545   8.6741489
  76.9777346  43.3508492  87.0660400  77.6854229  43.3475494  87.7105522
  76.2923145  43.8863134  87.4656677 106.2588310  62.5509787  96.6331196
 105.4300880  62.7820301  96.2135696 106.0069180  61.9977522  97.3725224
  14.4451809 109.9772072  11.7041314  13.8022900 110.5335903  12.1438694
  13.9494395 109.5390224  11.0124218 111.1086464  97.5618267  15.4803824
 111.5539837  98.0352020  16.1831057 110.6208897  96.8709087  15.9286666
  60.6689930  34.8836899  96.5568161  60.7987261  35.5885363  97.1913147
  60.4639864  34.1158724  97.0903492   5.1067048  89.0742874  30.7956171
   4.3671960  88.8809681  30.2194357   5.3943068  89.9481297  30.5311918
   2.6258031  75.9804440  36.2515831   2.9478884  75.0806952  36.3058472
   3.0043405  76.3218927  35.4414272  11.8806756  95.7563686  -0.2927488
  12.2519791  94.9316025   0.0204950  12.1014833  96.3922215   0.3878161
 111.3682175  74.1580439   3.2026330 111.6776466  73.4319305   2.6611102
 110.8435631  74.6938467   2.6077586   6.8057513  73.5825253  21.6178441
   7.5350314  74.2024374  21.6273808   7.0812547  72.8979683  21.0081625
 118.5305214  78.5423422   7.7459115 117.7435684  79.0722179   7.6187974
 118.2003593  77.6788759   7.9942006  70.4529715  44.4403744  90.1399899
  70.5253601  45.1907253  89.5501041  69.7489977  43.9096594  89.7671700
  31.8029213   2.9308435   8.8678306  32.0907950   2.2304675   8.2823104
  31.1234522   2.5273466   9.4079655  12.7944887  86.7480087   9.7128201
  13.1431389  87.4112320  10.3084791  13.0771434  87.0339203   8.8441479
   3.3105782  83.8354015  33.5489798   3.4743866  83.3130646  34.3341947
   3.8600814  83.4343624  32.8755951  18.2799613   1.3730255  15.5158365
  18.4924459   1.9927078  16.2137449  19.1004848   1.2628001  15.0353956
 116.2270832  82.2843456   5.5017656 116.9354820  82.2098255   6.1411834
 116.2011623  81.4293003   5.0722843  17.3015857 106.1502552   1.0747570
  17.1782696 107.0554066   0.7888794  16.8866265 106.1126137   1.9365126
 105.7829475  72.7112389  12.2931147 105.6490421  73.4163857  11.6598189
 106.6965485  72.4520063  12.1733117 118.1272602  95.1609802  15.2250290
 117.5262833  95.3703976  14.5100415 118.0247593  94.2183018  15.3557289
  81.9527054  34.5229673  94.2322350  81.4114666  33.7378836  94.1489124
  82.7045918  34.2413282  94.7533703  -0.0046692  97.0819759  12.4159193
   0.4732609  96.4748478  12.9809093  -0.1423660  97.8574371  12.9599130
   1.2028295  64.1926003  19.6184909   1.3029565  64.5137596  20.5146289
   0.3232963  63.8155746  19.5960510 104.5380878  87.9436588  14.2916071
 104.6426010  87.0075321  14.1213512 104.9075794  88.0708885  15.1654029
 115.3846741  91.8285656  16.8316841 116.2447548  91.9406319  16.4268112
 115.4780102  92.2139549  17.7028883  48.9644718   5.7834244  24.2923379
  48.9979172   5.1314199  23.5923338  48.7988901   6.6111308  23.8409877
   3.9116660 108.0643368  18.4871280   4.7436944 108.3298779  18.8788569
   3.9473033 108.4068394  17.5940132  26.1952186  17.1716297  36.3166237
  25.9386230  16.6643107  37.0867014  25.5982280  16.8797314  35.6276917
 117.0517826  99.9363899  36.0950160 117.0534801 100.7593822  35.6062269
 117.6026154 100.1100349  36.8583393 112.2984982 111.8876362  18.4025586
 111.9077110 112.2374058  17.6018214 111.6020203 111.9503689  19.0561759
  39.6006346   9.4164854  36.0328484  40.1817083   9.9552745  35.4959226
  38.7510800   9.8542833  35.9797454  36.7383385   2.0763275  30.1211214
  36.5758157   2.9730827  30.4137778  37.3534155   1.7224877  30.7635450
  58.6847019  30.1166320  45.8916950  58.8897324  29.5604396  45.1401329
  59.5378160  30.3419375  46.2627363   8.6578596 100.5232716  39.8728991
   8.2336730 100.0866413  40.6115866   9.3872952 101.0032082  40.2650976
 115.8154774  98.9275837  42.0591974 115.4160690  98.6371994  41.2392092
 115.1627541  98.7236023  42.7289581   4.1868302  83.8022423   5.9815556
   4.1061258  83.9226532   5.0353944   4.7612593  83.0426884   6.0782039
  45.4435539   7.8359348  11.7826366  45.3770971   6.9814682  11.3563704
  46.0419130   7.6919723  12.5157619  34.0767002   3.8045189   6.2812698
  33.4877348   4.5580614   6.3203132  33.4936404   3.0474484   6.2254542
  98.3289337  95.4428005  23.0750251  97.6788902  94.7612190  22.9043579
  97.8415489  96.2630844  22.9987121 114.9507618 100.3500748  32.5901532
 115.7714176 100.1012325  32.1649027 114.3061256 100.3546047  31.8825865
  50.7293367   1.5114060  25.0442529  50.8572721   1.2021755  24.1474581
  51.5528202   1.9451529  25.2678084  36.1833572   4.6020299  20.7197571
  35.5432725   3.9199483  20.9229493  36.7676115   4.1986227  20.0777769
  37.5644898   2.5214320  40.4408073  37.9678702   2.4004050  41.3003778
  36.9183087   1.8180302  40.3782940   6.3701034  94.7252750  19.8651183
   7.1018672  94.1779423  19.5801973   6.5269190  94.8678875  20.7985544
 104.0054798 100.4837227  46.8949604 104.8459148 100.5963326  46.4508629
 104.1833305  99.8457050  47.5859976  50.8756924   5.9190553  37.0137072
  51.7461920   6.1322892  36.6775680  50.2801704   6.1525100  36.3016105
 111.6435814  88.0109215  19.3860257 111.4194679  88.8926411  19.6836281
 111.0699272  87.4346352  19.8910403  58.5579395  17.6219654  41.6513109
  58.9892197  17.8064358  42.4856949  58.5655069  16.6671848  41.5837193
 104.9842739 106.1914539  31.2162066 104.4695187 105.5213070  31.6658378
 105.7936668 105.7450294  30.9675670  78.7291479  46.0073853  94.8887253
  78.4104490  45.1424837  94.6306324  79.6825886  45.9335613  94.8470592
 101.9487858 112.4637127  38.9027810 101.0402584 112.2242546  39.0857601
 102.4542713 112.0272827  39.5885253  71.0386324  59.0216351  83.1616116
  71.4139557  58.2614994  82.7171421  70.4724216  59.4275045  82.5051785
  22.8713512 111.1958313  13.8552344  23.7316871 111.1793232  13.4359717
  22.2544241 111.0288048  13.1426787 102.2830582  85.1801968   0.9267962
 102.0254612  84.4973373   0.3074604 102.0239067  85.9982777   0.5027602
  24.6982169 107.9212284  35.4262233  23.8865232 108.0166149  35.9245062
  25.3346920 108.4561825  35.9005213 104.5054626  96.8355179  22.3329616
 104.2186165  95.9426403  22.1413517 104.2661858  96.9724464  23.2495999
 119.1877251 110.9218502  31.2681675 119.2358669 110.6477261  32.1840096
 118.9335884 111.8438721  31.3071775   1.6701077 106.4291191  13.5743284
   1.8317673 105.4964733  13.7166572   2.4964809 106.8534184  13.8052309
  11.6236472 111.4171410  25.9222674  12.0048535 111.6161346  26.7774391
  11.3649106 112.2692394  25.5712461 104.0010548 103.9857197  32.4874568
 103.8299465 103.7159157  33.3897638 104.4243908 103.2265377  32.0866442
  20.4530430  98.3062267  23.8915873  20.0538325  97.8316402  23.1624579
  20.4461646  97.6812553  24.6165705  35.6968808  10.1757956   7.1453649
  36.5798283  10.4753661   6.9288170  35.2818370  10.0204802   6.2969261
  16.5928245 106.2166214  16.9793355  16.0721350 105.4441833  17.1994603
  17.4815881 105.8809853  16.8623674  13.0944121  93.8737297  17.6724422
  13.2399523  94.4010353  16.8869507  12.8513145  93.0099010  17.3393738
  18.8466728  88.2738304  35.9317756  18.4611297  88.0713177  35.0793791
  18.1464791  88.7151718  36.4125872  50.9803438  21.6960812  35.6823611
  50.1329708  22.0953774  35.4854965  51.3358498  21.4546704  34.8270416
  23.6259079  84.4532681  24.9099636  24.3997693  85.0152969  24.9485850
  23.7230110  83.9679432  24.0906549  18.7674677  99.9517632  25.7531977
  18.9637661  99.7142792  24.8469400  19.0388548 100.8668518  25.8251595
  73.6683369  35.8359790  95.7569313  74.4940662  36.2820721  95.9450817
  73.7075806  35.6446266  94.8198795  62.9587173  10.2288151  30.3327036
  63.5820627   9.5064282  30.4090452  62.4879932  10.0538766  29.5178103
  27.6269507   1.1746564  45.3880739  28.1284928   1.5483405  44.6634722
  27.8551865   0.2450786  45.3830528  94.9759102 105.1917458  45.3214169
  95.1914597 105.0545025  44.3989563  95.0445557 104.3220806  45.7153797
  19.7820222  12.7050877  55.4931545  20.2961540  11.9719934  55.1548100
  20.4090905  13.4247839  55.5642414  50.5065870   9.7868973  16.5521967
  50.1980591   9.3064284  15.7839584  50.6741762  10.6723547  16.2295365
  35.3086042   4.7991151  36.2197924  35.6760883   4.7317776  37.1010733
  34.8361301   5.6315804  36.2202716 103.9741768 112.4956727  27.6604509
 104.3339767 111.7643403  27.1585250 104.6793165 112.7465280  28.2571745
  11.0937726  82.7536201  24.5841432  11.4276314  82.4059296  23.7571692
  10.2250779  83.0926418  24.3681288  23.8065529  10.9360802   1.5589990
  23.5410595  10.9521401   2.4785033  24.0630317  11.8382752   1.3679649
  30.5513024   3.3636132  30.4380441  30.7043099   3.1452718  29.5187259
  29.6093225   3.5247129  30.4923868 111.3433647  96.7724419   8.5835403
 112.1842384  96.9072628   9.0205479 110.8911514  97.6116180   8.6701685
  87.3243237  97.3911953  29.7672009  86.3954258  97.2607327  29.5765162
  87.3870754  98.3074570  30.0369382  38.4142399  12.0793843  21.2869906
  38.7569022  12.3451436  22.1403289  38.1451488  11.1690462  21.4098930
  28.1502938   4.1595146  31.0063791  27.2633696   4.4787788  31.1727047
  28.6955428   4.9459976  31.0258532  55.7209444  13.3147728  26.3075757
  56.1728477  12.4837816  26.1610460  55.1027918  13.3828115  25.5799150
  38.3691525   1.7767982  36.3744092  38.9088058   2.3003635  36.9667649
  38.8585067   0.9618779  36.2618446  88.4325600  32.6155543  92.2349930
  89.2436886  33.0169868  91.9232941  87.9924488  33.3120656  92.7222347
   8.2140142 103.1001663   2.3197532   7.2850090 102.9458237   2.1484055
   8.3399469 104.0311527   2.1363677  65.6035471   4.5997050  33.0788684
  66.2400770   4.3620667  32.4046373  64.7585535   4.5750007  32.6298642
  14.0692604 109.7081852  34.6596313  13.6960232 109.1649437  33.9655066
  14.4919240 109.0848827  35.2504659  48.1278849   3.7670210  13.4066117
  48.7147760   4.4678274  13.6906219  47.3997164   3.7982178  14.0271187
  42.5425005 111.7722607   4.1313723  42.6335382 112.6062965   4.5921636
  42.7445555 111.9794178   3.2189620  22.3566651 109.7583961  17.4951506
  21.6345406 110.0002384  16.9152582  23.1420565 109.8722649  16.9599628
   6.3273525 110.1592064  14.7617030   6.0697979 109.9805546  15.6661260
   7.0466912 110.7862091  14.8369133  94.7025490  74.0336084  37.3795986
  95.0552750  73.9733410  38.2673931  95.4435062  74.3218184  36.8465400
  44.0707254  10.2705503  22.5336552  44.1951418  11.2127209  22.6479626
  43.4505367  10.1971233  21.8082547  33.4647870   8.0198187   5.6237710
  32.9381418   8.6936724   5.1938897  32.8356647   7.3376656   5.8585167
  90.5074120  98.8076973  21.8664026  90.9644890  99.3421841  22.5157452
  89.5936394  99.0861416  21.9273615   8.4485847  94.3783855  12.3531127
   7.6243651  93.8939857  12.4005675   8.6053491  94.4931126  11.4158320
  61.5023708   2.0061241   9.0151381  62.0282316   2.0401858   9.8142266
  61.7031479   2.8245863   8.5612214  17.7608788   7.8894252  48.9488506
  18.1929541   8.2859045  48.1923151  17.5832736   6.9885826  48.6783504
 104.6602440 108.6002350  28.4138536 104.0509892 109.1642952  28.8901687
 104.2500305 107.7355766  28.4317756  41.5719128   0.9553802   4.9352214
  41.7302847   0.4569977   5.7369483  42.3827553   0.8671319   4.4342375
  20.8920431 102.8768444  16.0157943  20.1633477 103.2681179  16.4976037
  21.5386057 103.5793495  15.9473407  23.2358170 100.5293655  13.4128904
  23.8052988 100.3855991  12.6570761  22.6581073 101.2440109  13.1450069
  49.4674397  22.5210357  46.4188957  50.0555182  21.7811656  46.2672901
  49.3867159  22.5715780  47.3713446   5.2788401 111.3776779  29.8888564
   5.9741819 110.7363415  29.7425246   5.4659373 111.7404556  30.7546639
  18.0406809  18.9207673  22.8131962  18.8378096  18.7564981  22.3093748
  17.8970146  19.8637605  22.7334785   1.2437664 111.8704891  46.0002804
   1.1139604 111.3909340  45.1821089   1.7679588 111.2812233  46.5427065
  98.5128593 111.1128902  32.0036578  98.8885689 111.2329102  32.8758240
  99.1168976 111.5691280  31.4178085  34.2110562  12.4738133  22.7403259
  35.0556564  12.9029369  22.8772044  33.7442160  13.0511081  22.1361542
  43.6329651   1.0012949  41.3008833  42.8797865   0.9694659  41.8907547
  44.0202045   1.8633148  41.4531851  64.2785263  20.6952763  16.5342689
  64.7856569  19.9784994  16.9154263  64.9062920  21.4124918  16.4462793
  57.4671078  24.8770428  29.1624856  56.8390036  24.5419192  28.5226321
  57.2955704  24.3688869  29.9553180  37.7415586   1.4703445  17.4189162
  38.0804944   1.5166819  18.3129001  36.7900801   1.4671488  17.5233674
  96.3878727  85.9249020  23.7022018  96.4277935  86.2376404  24.6059895
  95.5279064  86.2056637  23.3893704  66.4997721   6.9112891   2.7776864
  66.9381523   6.2442511   2.2493723  65.6133080   6.9562125   2.4193566
  21.4806271  20.5898643  27.2164035  21.0040617  21.4096785  27.0859313
  20.8196855  19.9773920  27.5393033   1.9783577  95.7825851  19.6689761
   1.9432043  96.1042213  20.5698371   2.9052988  95.5991268  19.5161581
   5.8329076  93.6396885  11.5430427   5.7554442  92.6989841  11.7021358
   5.0288856  93.8709545  11.0779667  10.2156556  93.5966587  26.3290381
   9.5136160  93.0019855  26.0649514   9.8235881  94.4683075  26.2766552
 116.5670204  86.5825272   5.7338339 116.8280792  86.1952686   4.8983052
 115.9024620  85.9853935   6.0773557  49.0255880  36.7120719  15.0175691
  48.1300402  37.0319891  14.9085832  49.4316292  36.8400168  14.1602516
  26.2653637  21.0006547  12.9987907  25.8080268  21.5958643  12.4048221
  25.6048012  20.7538605  13.6460769  20.4338264  11.1136496  33.8510537
  21.2268281  11.6497207  33.8489652  19.7177672  11.7449617  33.7807870
  27.9093671  29.8131609   0.9525926  28.0628681  30.7269073   1.1928824
  28.7601161  29.5001817   0.6451830  33.0224705 109.1282272   8.8131768
  32.8687263 109.8397636   9.4347203  33.9690971 109.1343784   8.6714303
   5.4808110  81.9231510  33.2048035   4.7089541  81.5388680  33.6204886
   6.0157281  82.2349548  33.9347816  15.5243874  10.8938920  20.0213242
  16.1979949  10.2197540  19.9317539  16.0133517  11.7017543  20.1778579
   6.5529889 100.8213425  18.0838764   6.6557270  99.9232292  18.3986270
   7.1729529 101.3305187  18.6060059  62.2484541  46.3035917  91.5075588
  61.4435816  45.8869267  91.8154526  62.0998621  47.2396851  91.6413021
  11.4822447  79.8605204  15.2518654  12.3792338  80.1923370  15.2911341
  11.0335612  80.4538059  14.6494317  37.4212790  90.1273251  40.5044317
  36.9119024  89.3297482  40.6480980  38.2929039  89.8144913  40.2622795
  79.0572214  20.7192659   3.6319304  79.2334986  19.7845852   3.5245568
  79.1856003  21.0891032   2.7584481  40.0341654  15.6376624  30.6818795
  40.8030605  16.0091972  31.1143041  39.2983127  16.1453688  31.0239124
  58.5809469  23.9285660  22.7637100  58.9675808  24.6155238  22.2207236
  58.6273003  24.2735386  23.6553812  14.4585788 106.8564701   9.4442296
  15.2009642 107.2846317   9.0178740  14.4528830 105.9703922   9.0822101
  64.2672300  15.3918564  18.1590724  65.1685476  15.7088387  18.1009698
  64.2221498  14.9524260  19.0082490   4.8261222 106.3051414   2.9980153
   5.5148542 105.9465981   2.4382594   4.3048656 106.8556023   2.4136305
  26.1859775  90.9797478  55.9034634  26.4359570  91.8972874  56.0124063
  26.1526680  90.6330967  56.7950678 109.7995853  31.8810773  19.3447006
 109.3501282  31.6467762  18.5327125 110.6197357  31.3884187  19.3152320
  94.8834515  73.5426664  14.3177152  95.5058765  72.8182173  14.3809128
  94.6434021  73.7320137  15.2247739  66.4504903  24.3361624  97.2311834
  65.6008237  24.7432669  97.0621660  66.2494748  23.4104022  97.3682832
 104.2936325  66.6562796   4.7990739 104.6996880  67.4792385   5.0712651
 103.3840847  66.8884182   4.6118000   7.6732188 108.5426331  84.3990707
   7.4035472 108.1899452  85.2470779   7.3802215 107.8892899  83.7638187
 103.6292076  68.5672712  14.8445904 103.9376831  68.4415722  13.9472187
 104.3892956  68.9123344  15.3130209 117.2741508  64.4755077  30.8512568
 117.8872395  64.8743153  31.4687562 116.7636967  65.2107239  30.5119634
 115.1827621 108.5079956  27.9653168 116.0836124 108.2293224  27.8009009
 115.2683353 109.3801308  28.3503842 117.7705193  71.0532904  12.9618120
 118.4159851  70.5365801  13.4441197 117.5984001  70.5432034  12.1703482
  15.2502763  92.8268337   0.3764234  15.3508759  92.0060253   0.8584917
  14.3074691  92.9921818   0.3791256  75.9296751  19.1676891  74.1376591
  75.4330111  18.7910640  74.8640966  76.7715645  18.7128544  74.1618490
 113.3732891  81.3621616  32.3581743 114.2666912  81.2728119  32.0263863
 113.4001160  80.9645653  33.2284784  26.0483623  85.7253075  91.6630173
  25.9047103  85.4258156  90.7652950  26.9634509  85.5103493  91.8436813
 115.1082802  69.7581100   3.4367824 115.2530670  68.8534069   3.7138698
 114.7413158  69.6830034   2.5559136  87.6706028  51.7398691  96.1590385
  88.3949566  51.6753817  96.7814350  87.5437260  52.6805878  96.0358143
  82.2731304  42.2748566  15.8307815  83.0789471  42.0961142  15.3460658
  81.5742207  41.9576168  15.2588439   8.5440260  97.5544167  16.5252054
   8.3242065  98.1699944  17.2244751   8.3867931  96.6912079  16.9078100
  61.5286350  15.7302475  95.3666115  60.8454275  15.8828115  96.0194397
  61.8876934  16.5994060  95.1880741  24.8503685 102.5594997  22.8211784
  25.4936099 103.1710052  23.1796861  25.3169084 101.7254257  22.7672887
 109.4775772  80.7023048  22.4423337 110.0952625  80.2121830  21.8996644
 108.6723042  80.1855755  22.4149036   3.4147242  99.9706364  38.3109307
   4.3029356 100.1774216  38.6017108   2.9532304 100.8088589  38.3360744
  57.9058552  21.6531801  90.1252460  57.8571606  22.6018143  90.0071144
  58.7905073  21.4981413  90.4562855 110.0094700  91.2164497  27.2898340
 109.6105766  91.9409370  26.8079233 109.4584370  90.4608536  27.0857215
  87.0915127  43.0013609  70.2805138  87.4528980  42.1414900  70.0654554
  86.1518955  42.9130602  70.1206541   0.4573845  91.9795227   5.4128414
   0.8414965  91.2084866   5.8302122  -0.4864654  91.8685055   5.5271041
   3.6890858  73.8725901   2.0067142   3.6608434  74.8008585   2.2385414
   2.8244805  73.5393476   2.2467993  20.2845645  68.7423897  24.4017363
  19.5215845  69.3199682  24.4240761  20.9923553  69.2933702  24.0675449
 102.2727776  60.7521486  28.0117536 102.7760887  61.2820101  28.6299348
 102.5846195  61.0285950  27.1500349 107.4307632  86.7544842  29.4875836
 106.5862656  86.6918278  29.0413499 107.7896786  85.8680725  29.4465661
 109.5831585  83.5823631  18.4096968 110.5106449  83.8190079  18.4110796
 109.2111206  84.0673828  19.1462874 111.3825893 111.1453724  24.6740484
 112.0656395 111.3287354  24.0290236 111.8364811 110.6831837  25.3787446
 100.4242516  52.2356415  22.2893357 100.8487129  53.0701923  22.0903707
 100.1282978  52.3273754  23.1950021  78.1645727  91.3432693   6.4048773
  77.7230883  91.4549828   5.5629486  77.9129028  90.4657459   6.6927141
 118.3235168  47.5574493   9.8341584 118.5885715  47.7484322  10.7338834
 117.6430035  48.2028341   9.6428245  84.9754620   1.0310359  93.4204865
  84.8992538   1.7295460  94.0704918  84.7869110   0.2289325  93.9076328
 100.3564548  68.1904697  20.5414486  99.5018673  68.6048651  20.6606126
 100.6728363  68.0338335  21.4311647   9.8214614  72.4984694  27.5683784
   9.2063683  72.2973013  28.2736611   9.8809487  71.6872311  27.0638061
  17.1737516  79.4344330  21.1333179  17.0301771  79.3791723  22.0780730
  17.1342528  78.5269022  20.8315635  11.4068317  60.7067490  19.8029554
  11.8993092  61.5262461  19.8489761  10.8700562  60.7050562  20.5954838
  98.3084774  71.6643524  17.1399069  98.7351608  72.5195312  17.0865655
  98.0083370  71.6025829  18.0467319  79.9963284   3.9877698  85.3185558
  79.1092300   3.6490753  85.4393005  79.9872637   4.8422018  85.7499409
  61.8540382  36.9286466  83.3562374  61.1037874  37.4331713  83.6705685
  62.4387312  37.5824738  82.9729939 118.3724880  70.5547714  20.0320601
 119.3027973  70.5470467  19.8069191 118.2255745  71.4202642  20.4136062
  23.0489182  93.3918858   4.4303849  22.3635101  93.5488224   5.0798595
  22.5735116  93.1966400   3.6228573  80.1883888  26.3953757  93.0912685
  80.5683613  25.5255914  92.9674625  80.9418583  26.9672704  93.2377338
  11.1169183  67.6038885  22.4578333  11.7729938  67.5862026  21.7610669
  11.1747885  68.4884834  22.8189063  33.7811399  73.5405350  16.0942054
  34.4218540  74.2469931  16.0127473  33.7318182  73.1596518  15.2174366
 102.2845364  85.8317852  23.5594869 102.6933193  86.1177063  22.7425504
 101.4574528  86.3123417  23.5944533  87.7027130  77.7953053  17.7767396
  87.3268700  76.9183826  17.8540957  88.1423569  77.9421902  18.6142159
   7.3644418  91.2964535   6.6557848   8.0767316  91.2923527   7.2952050
   7.7944183  91.1287975   5.8171886  58.6574316  42.2371578  96.1000252
  57.8686094  41.7212391  96.2668324  59.3691778  41.5972328  96.1122036
 103.3704472  94.3118763  21.9989061 103.6265659  93.8750648  21.1866093
 102.9780293  93.6189556  22.5300336 110.4102230  75.8990669  10.7431161
 109.4550323  75.9372234  10.7920051 110.6240177  76.3136721   9.9072778
  10.6743884  61.4510298  29.3741846   9.9049312  60.9112501  29.5553088
  10.3777885  62.0768404  28.7134123  85.0957966  29.8087883  96.9459248
  85.3732014  29.7256255  96.0335827  84.2464256  30.2476382  96.8989563
 111.4168262  94.0437031  18.3054519 111.8944359  93.5286427  17.6551902
 112.0179749  94.1095161  19.0474224  21.4752388  62.3866320   2.0752889
  20.7008886  62.9119444   1.8736449  21.2804961  61.5232325   1.7108016
  24.2792535  85.1238155  31.3916111  24.9522948  84.7366905  31.9514132
  24.5062804  84.8333549  30.5082512  71.7519283  29.7141981  86.9437790
  71.9940519  30.6146932  87.1599197  70.8901834  29.5954418  87.3431873
  15.9062767  81.2800026   9.7260445  16.2790132  81.5379143   8.8829660
  15.3244400  80.5492020   9.5171762  28.5344529 101.1177540  92.3631001
  27.6539946 101.0467529  91.9943428  28.4089208 101.0080051  93.3056641
 100.8642006  86.9695663  18.6846006 101.4876842  87.3108196  18.0434692
 100.6793022  86.0784435  18.3880615  21.8480277  72.9723358  23.2674384
  22.6835322  73.3960438  23.0708766  22.0276546  72.0362616  23.1795073
 107.3649693  71.5993786  24.5757413 107.6138496  70.6784391  24.4972610
 107.9200077  71.9384766  25.2780056   0.6202985  77.1273899  25.0003266
   0.2549176  76.6888618  24.2319393   1.2244636  77.7769232  24.6407056
  13.0907762  88.0641079  25.8764625  13.0016911  88.9517975  25.5296183
  13.1577075  87.5090027  25.0995421 105.4577351  93.4060001  26.3152075
 104.9274635  93.1676483  27.0756245 106.3619614  93.3115864  26.6146755
 103.7341595  57.0924282  26.0677624 102.8023243  56.8817282  26.1271524
 104.1786194  56.2992191  26.3669395  84.4045639  24.4166923  89.2823410
  83.8790035  24.9809074  89.8495102  85.2049637  24.2541265  89.7815037
  65.4060125  52.7364683  86.5498352  65.8487415  52.8523302  85.7091236
  64.8149920  51.9967461  86.4093494   2.5366977  88.3570671  13.8421130
   2.7501553  88.0432034  14.7208393   2.6228097  89.3086147  13.9001632
 118.6878586  56.2083578  12.9235518 118.5755539  56.8206978  12.1964610
 117.8218555  55.8190346  13.0447531  57.4509621  10.1368213  87.9905033
  57.5083637   9.5130450  87.2667313  56.9224215  10.8563173  87.6452541
  24.7197866  96.1056805  34.5278382  24.8142886  96.7877769  35.1927090
  25.5923867  96.0237885  34.1430068   7.5355905  70.3815460   5.2365696
   7.0924753  69.9853325   5.9868330   6.9569415  71.0942793   4.9656332
  58.2199526  14.5410240  84.3378544  57.8336048  13.8044822  83.8640690
  58.7100458  14.1352212  85.0529480 114.9183655  92.4118328  11.9119596
 114.1433239  92.2287178  11.3809097 114.5685863  92.6815796  12.7611482
  98.0585098  96.8225193  17.0252049  99.0111160  96.8060875  17.1174300
  97.8766251  96.2134838  16.3095069  11.7273831  88.0470467  13.4674573
  12.4118257  87.4365807  13.7414861  11.1816204  87.5406551  12.8658450
 110.2109432  52.3371601   5.4132473 110.3502464  51.7659950   6.1686265
 109.3542671  52.7349472   5.5684996   2.3345821  58.4872341  11.6638064
   2.0278728  58.6796904  10.7777357   1.9452466  57.6381540  11.8728888
 117.0149136  71.2809944   6.0214913 116.7462158  71.6248035   5.1695359
 117.0390320  70.3318501   5.8999532 105.2956772  52.3056841  39.3196893
 104.4646931  52.3791742  38.8503289 105.5922985  53.2097101  39.4245148
  46.4693356 101.7087364  96.5230370  46.5663338 102.2143745  97.3299789
  46.3960218 100.8006668  96.8167496 111.1447716  67.2366524  26.7005968
 111.7985821  67.4698019  27.3596883 111.4937973  67.5889635  25.8818889
   4.8817325  75.1164293  19.7135162   4.1541716  74.5959568  19.3729389
   5.4180664  74.4895601  20.1989150 112.2596169  86.2490463   5.5283880
 111.9492817  86.0208797   4.6521115 112.5659370  87.1521950   5.4463649
  45.4351187  10.0890279  80.0911427  45.9981108  10.7974482  79.7790337
  45.5598116  10.0844240  81.0401726  97.1046829  82.5380230  13.7587035
  97.9346466  82.1344948  14.0127957  96.9001102  82.1497631  12.9080355
   9.1957742  78.3912754  23.1773543   8.5449696  77.9536963  22.6285267
  10.0382066  78.1080723  22.8219151  63.6109161   7.5345701  76.4833498
  63.2624769   8.4059930  76.6716099  63.0785704   6.9435787  77.0158625
   2.2585063  91.3743114   9.0453893   3.1860170  91.5928650   8.9548725
   2.1332361  90.6189919   8.4709036 113.8247299  79.6715021  17.3355556
 114.4783306  79.2357016  16.7886364 113.4236717  80.3209496  16.7579651
   9.3491644  78.2886171  19.6505713   9.7749901  78.7164879  20.3934240
   9.4818169  78.8912392  18.9188063  95.4449749  15.2703416  88.9141655
  94.7364998  15.2238572  88.2721806  95.5818176  14.3628049  89.1859722
  10.3359914 108.5645390  80.2831650  10.8961821 109.2299557  80.6827164
   9.5536864 108.5475636  80.8344746   8.6550158  54.9650955   1.5972473
   9.0056956  55.8327818   1.3962975   8.5106045  54.5610762   0.7415929
  99.8017025  79.2892647   7.6330209 100.5113125  79.9050236   7.4499196
  99.1071892  79.5356607   7.0221490  90.5322361  73.4647036   8.7299877
  90.6225967  73.7897396   9.6257669  89.7962952  72.8539515   8.7698972
  77.5356388  13.5914791  74.9317741  77.1668386  13.0081522  74.2684889
  76.7959309  13.8058233  75.5002069 106.7512417  69.8932838  10.8927214
 105.8328247  70.1530361  10.8201182 107.2253323  70.7175732  11.0023212
  89.7512531  44.3805027  10.7804155  89.4284344  45.2816010  10.7868659
  90.0242805  44.2174244  11.6832411  81.2731171  29.3169498  77.6159286
  81.2242031  28.7571764  76.8410158  82.1204567  29.1080904  78.0091619
 113.4188461  69.4739771   0.7456034 112.6810646  68.8718176   0.8421018
 114.1516209  68.9153433   0.4863730  71.2952185   1.4587651  95.4702187
  71.6384840   1.6049054  96.3517189  70.6055164   0.8053920  95.5870342
 116.5109062  83.9970589  29.7908068 115.6296158  84.3578911  29.6940613
 116.5584660  83.3018875  29.1345286  64.7591400  18.0211663  95.0058842
  65.1593018  18.7407684  94.5177555  65.4404449  17.3499298  95.0445461
  48.4933090 108.8981533  96.7019844  49.3915749 109.2288208  96.7049503
  48.4135628 108.4141064  97.5239182  13.9407718 106.2699413  21.6212463
  13.8265467 106.5197563  22.5381875  14.6168089 105.5925560  21.6399789
   8.6457896  49.6491098   4.6032649   8.9521623  50.0668526   5.4081607
   9.3479669  49.0436316   4.3654028  16.5011072  83.4551334  32.1103477
  15.7904899  83.1734657  31.5342188  16.2214291  84.3111515  32.4347520
  71.0296249  16.8043101  96.0808563  71.0668612  16.3126278  96.9012737
  71.8280554  17.3322690  96.0815811  39.4511652  77.3789597  10.5765188
  40.1351118  76.7779255  10.2812088  38.9795113  76.8917513  11.2520933
 108.4769249 111.1721134  16.4669597 108.7766933 111.0779667  15.5628002
 107.5888920 110.8148766  16.4632988  91.3752937  26.9764781  80.0556946
  91.7807484  26.1123872  79.9836636  90.8151150  26.9144511  80.8293724
 110.8099556  83.3699703  22.3927569 110.0711441  82.7655029  22.4635887
 111.5677547  82.8052330  22.2409344   5.6791615  65.0413275   4.8557281
   4.8959339  65.5090523   5.1455861   5.9816802  64.5748711   5.6349158
   8.0432975  97.7427101  24.1956997   7.7171433  98.6233425  24.3810153
   8.5011888  97.8279400  23.3594561  14.4418657 104.4218922   8.1386936
  14.0002525 103.6150646   8.4037226  15.1032186 104.1369152   7.5081104
  25.4114747  83.4178543  19.4309199  26.1109614  83.7978745  19.9624598
  24.8283267  84.1528893  19.2414904  78.2045794   6.3429534  96.4044094
  78.6192083   6.2352854  97.2603989  78.9268255   6.5562618  95.8135700
 116.7325211 101.2332916  20.3360081 117.1754074 100.5714703  20.8671069
 117.3598671 101.4447117  19.6446490  76.2510872  30.8776498  86.7264271
  75.6816196  31.5145612  87.1580315  76.3463497  31.2081838  85.8331680
   6.5229470  77.2124577  21.7283130   6.3188016  78.0405092  21.2937021
   5.7366836  77.0072651  22.2341967  89.1813564  48.8422632  89.1514492
  88.4564590  49.4630098  89.2251492  89.9631119  49.3645048  89.3313122
 114.4793701  67.2038794  13.1044126 115.0615501  67.9036856  13.4003139
 113.6043072  67.4966145  13.3589923  15.7270706  80.1505947  19.1410267
  16.3643634  80.2668095  19.8457134  15.0931597  79.5251942  19.4921148
   9.8989934  86.6470528  10.2028131  10.7713962  86.7157745   9.8149711
  10.0600541  86.3899422  11.1106598  21.3672185  67.8328133  26.8970203
  21.8852019  67.0657730  26.6529346  20.9258294  68.0911112  26.0878921
  87.4765491  75.2269602  13.7507093  88.2699013  74.6989393  13.6611772
  87.7662849  76.1243343  13.5863781   1.7485939  83.1824398  27.7139258
   1.7418422  82.2259521  27.6778150   0.9356908  83.4441948  27.2815967
   4.0407628  79.9803686  10.3074384   4.5917010  79.2736578   9.9708998
   3.1523943  79.7355890  10.0483704   0.7677873  80.8620453  30.6847095
   0.6007620  81.7764759  30.9130669  -0.0934040  80.4455853  30.7185245
  89.8174572   4.7334766  89.4144440  90.3554535   4.5348865  88.6480522
  89.1119289   4.0872291  89.3857765   5.9163702  97.4998093  26.9124174
   5.6896120  98.0954933  26.1982918   5.6412619  96.6373634  26.6014051
   3.1074142  80.1817703  13.2404256   3.8435569  80.0457954  13.8369453
   3.3988205  80.8816051  12.6560080  12.7457702  61.8577051   3.7771294
  13.0099082  62.3607922   4.5474327  13.1557131  61.0012579   3.8982812
  96.2911510  36.8034101  91.1409473  96.2858772  36.7904925  92.0980453
  96.8444443  37.5509596  90.9145451   6.3602585  67.4579954   3.3822459
   6.9901574  67.1299076   2.7405155   6.0354203  66.6724396   3.8222677
  11.6775012  77.1621752  18.1693280  11.0219741  77.8458309  18.3076608
  12.1709526  77.4550056  17.4031758  17.7883649  72.1077013  14.4117987
  17.2915673  72.4064445  13.6501038  17.1544623  72.1147060  15.1289809
 116.8579483  76.8936586  27.4564290 117.4674606  76.3990498  28.0042410
 116.2399578  76.2379122  27.1334553   9.5152634  73.7066650  24.3854809
  10.2873707  73.9660740  24.8882651   9.5426250  74.2576265  23.6032224
  22.4162412  87.0657063   3.6502016  23.0447459  86.3446236   3.6147001
  21.6574502  86.7463112   3.1618813  14.1334176  59.4146538   4.2006367
  14.2940569  58.5380077   3.8514701  14.0788472  59.2888546   5.1479638
  24.1531754  99.7223282   7.8660500  24.6747327 100.4639149   7.5590354
  23.2908773 100.0953960   8.0490643  83.2683468  10.0439692  80.2474022
  82.9681110  10.8541536  79.8354626  83.8444996   9.6434742  79.5963430
  29.6064758  77.9916048   5.2591866  28.7520409  77.8723955   4.8445031
  29.5612311  78.8619232   5.6550795  13.0572462  91.5823650  16.3179064
  13.1643164  91.6849613  15.3722644  13.9509869  91.5727425  16.6604960
  17.2576523  83.4453869  18.1216407  17.7964675  82.6726055  17.9521763
  17.7905810  83.9857197  18.7049580  30.2852273  95.6662941  20.0363612
  30.4451966  96.5560532  19.7217643  30.0651383  95.7753086  20.9615135
  76.5026283  13.9038205  94.5179462  75.5926371  14.0765834  94.2764950
  76.7394733  13.1235969  94.0165615  10.8661497  75.8387423  34.8556304
   9.9178910  75.8323574  34.7252584  11.2272298  75.9820700  33.9808106
  69.0066719  27.8109527  83.4699917  68.1964302  28.1904221  83.8102055
  69.2345476  27.1279144  84.1006756   0.8522200  74.2656279  25.9023786
   1.0267192  75.2067184  25.8907843   1.6235104  73.8841677  26.3217020
  37.7418566  92.2167969  18.2963455  37.1397567  92.4578667  19.0003288
  37.7607703  92.9839230  17.7241659  13.1053030  99.1332150  25.8147120
  13.9155722  99.3741512  26.2637639  12.4125683  99.5370483  26.3374639
  71.4905787  39.0366507  95.9861565  70.8163786  39.5137429  95.5023479
  71.5363407  38.1833720  95.5548191  56.9866323  81.2380791   8.8744777
  57.6366997  80.6972122   8.4260273  57.2048044  82.1348000   8.6204547
  77.6372433  25.7573414  83.1456184  76.8874502  25.3538322  82.7083302
  77.3197174  25.9625435  84.0249920  28.6177731  94.5628834   7.6840740
  27.8874135  95.1375771   7.9132676  28.8431168  94.1233444   8.5039914
  77.9323387  29.0898967  93.0735874  78.2712650  29.0148759  92.1815491
  77.8305531  28.1848168  93.3680439   8.9119053  88.3042145   2.3209608
   8.1013119  88.3969021   1.8203814   9.4850475  87.7869892   1.7550868
  99.1764545  74.2089272  17.1142888  99.4966602  74.6833229  16.3470542
  99.9201775  74.1980553  17.7167726  79.2936373  44.8532009  83.9683056
  79.7843790  45.1220131  84.7449303  78.8869572  45.6595230  83.6509895
 107.9722500  95.1549435  19.5598853 107.0983315  94.8554039  19.3093538
 108.4096146  94.3694592  19.8884690  21.8106031  50.4345131  30.5985117
  22.5272703  49.8253393  30.4209399  21.3063383  50.4547024  29.7851586
   9.0622795 100.6057262  27.0229411   8.1838131 100.4317951  27.3609900
   8.9783555 100.5048752  26.0747766  15.8571017  79.7190332  16.5483582
  16.7629504  79.9465418  16.3388085  15.7654893  79.9315786  17.4771559
  96.5750408  24.5684886  93.1966209  96.8763256  24.7845721  92.3141384
  96.5141201  23.6132431  93.2017136  11.2493682  89.6102238   7.9256034
  10.7399237  89.4301033   8.7157011  11.0045409  88.9119530   7.3183882
  91.5408707  37.8347826  80.3074646  91.0425758  37.8950357  79.4924164
  90.8917713  37.5916719  80.9676170  54.3677950  23.9944148  95.3169823
  53.5109234  24.3579459  95.5402660  54.9771547  24.7213960  95.4450703
   1.7188904  61.3489532  13.1201398   2.0907119  60.5229473  12.8107834
   2.4685097  61.9410324  13.1813169  19.0340877  90.2695465  23.5313320
  18.3846962  90.8588982  23.1476808  19.8462582  90.4736328  23.0676961
  84.7359085  22.1303487  95.7679844  85.3082943  22.5504923  95.1260471
  85.1038933  21.2537789  95.8795261  13.7908494  81.0131359  15.6016505
  13.9574206  81.6874981  16.2602282  14.3908966  80.3028774  15.8290458
  18.9973712  68.1744862  28.2698321  19.7238958  68.1165218  27.6493216
  18.3991003  67.4761581  28.0040526   3.0318037  87.9784870  23.3732128
   3.0509716  88.0123901  22.4168062   2.1302280  88.2035732  23.6028361
  38.5610199  97.9042244  22.2832155  38.2420301  98.6328697  21.7507148
  39.2568612  98.2855034  22.8186274  21.2578702 107.6488113  15.6615007
  21.0729027 108.1199360  14.8490596  21.5718460 106.7911911  15.3748834
   5.1668125  83.2541847  14.4065523   5.4329944  84.1718292  14.3490946
   5.0276345  82.9878139  13.4977567   2.6406926  66.5518904  32.4096942
   3.3236375  66.8398333  31.8039656   2.8932604  65.6601810  32.6490593
   3.3518177  80.9300041  34.5230794   2.4645512  80.7762718  34.1984940
   3.3190429  80.6679153  35.4431176 115.5498219  88.9148617   7.4503350
 116.0195923  88.7348652   8.2646722 115.7530785  88.1684780   6.8865716
  24.8176241  92.7139568  18.5748160  24.9217391  93.4148312  19.2183769
  24.3004394  93.1084728  17.8725994 109.1497612 100.1890469  14.2093778
 109.2468071  99.9005222  15.1168847 108.2047939 100.2794075  14.0865254
  25.3860164  60.3326702  28.6198115  25.4099798  59.7346640  27.8727889
  26.3052559  60.4595995  28.8545895 101.8874741  46.7550373  92.6945972
 101.9223881  46.5684700  91.7564106 102.1005726  47.6857901  92.7618027
  19.3694711  99.3086147  32.3620558  19.1267753  98.4022808  32.5515127
  19.8660362  99.5892811  33.1307411 117.3023319  93.9591026  12.8218067
 117.6018524  94.5003796  12.0913672 116.4527225  93.6220741  12.5375342
  26.7479467  98.8943481  18.6235225  27.1659660  98.6088181  19.4359040
  26.5559888  99.8212433  18.7658656 113.9427280  66.4865065  17.2535634
 113.5309410  66.7700386  18.0698180 113.9826202  67.2786331  16.7176735
 117.6756096  82.6887321  22.0930004 117.9964161  83.4505558  22.5756407
 117.8032589  81.9539261  22.6929951 115.3294754  74.3809509  18.2772946
 115.6232548  75.0958633  18.8419437 116.0132694  74.3048906  17.6118076
   5.3960156  87.7956581  16.0558486   6.3393074  87.6397800  16.0096300
   5.2204245  87.9275990  16.9875085  23.6380577   1.7235291   2.8225544
  23.4545636   0.7854181   2.7724630  24.4975400   1.8216781   2.4128109
  28.0776310  91.2776470  32.2567105  28.2380199  90.4198360  31.8634295
  28.9155626  91.5212154  32.6501250   9.7241962  83.3631420  36.7472339
  10.6318581  83.3799171  37.0507169   9.7339690  83.8689041  35.9346223
  31.3508582  44.7512054  14.6824288  30.6918621  44.3421268  15.2433324
  31.9830990  45.1303101  15.2929890  83.9123154  18.3992004  84.0394878
  84.0558910  18.1979120  84.9642086  84.3147182  19.2589164  83.9162254
  39.8910403  94.5069599  16.2337911  39.5939374  95.2077389  16.8141866
  40.8444262  94.5135212  16.3188922   5.1020455  91.4673710   9.0320426
   5.7865393  91.2754631   8.3910501   5.4154402  91.0685158   9.8437864
  33.4959936  98.4323215   8.6743891  34.2422152  98.6832142   9.2188507
  32.8146863  98.1867123   9.3002701 114.4031048 101.3411713   1.0605092
 115.1904678 101.5578461   0.5611677 113.6873722 101.4353275   0.4319359
  14.0504789 105.0847244  18.2494295  13.4062362 105.3169727  18.9181936
  13.6301041 105.3162861  17.4212408 116.3820076  87.9624081   9.7742957
 115.4671764  88.1228542  10.0057554 116.6088295  87.1567726  10.2387822
  13.9091229  90.6384850  36.7856669  14.1079378  91.1117840  35.9777713
  14.6176529  90.8769035  37.3834777  12.2510922  80.7913113  26.1920595
  11.9012988  81.5850639  25.7872796  13.0954063  80.6552982  25.7621026
  40.1521730  88.7390518  32.3122740  39.5273185  89.0440845  31.6544414
  39.7994614  87.8992176  32.6063824   6.1128318 104.6323776  31.4096999
   5.5152506 105.3688049  31.2800980   6.9859874 105.0225353  31.3696146
 114.9540806  96.8104553  33.2450509 115.6360626  97.0879650  32.6333952
 114.6109676  95.9996414  32.8694415 106.7214775  97.9983997  28.8744450
 106.3916969  97.4203777  28.1864214 106.3080883  97.6770782  29.6757507
   8.7825030  84.2122936  24.0158296   8.2342011  83.6713314  24.5841289
   8.7072760  85.0944805  24.3795776  69.5264912  43.0473900  95.1922989
  68.7692261  43.5353565  95.5158329  69.6913099  43.4103394  94.3220520
 111.6096210  55.9576702  24.6186256 111.8154430  55.5713844  25.4698896
 111.6680813  55.2266598  24.0034533  28.0811381  89.4948483  12.9028869
  28.9634967  89.4878864  13.2738674  28.1554270  88.9812565  12.0985639
 110.6958103 110.6309795  28.4677482 111.3818836 110.2352428  27.9302192
 111.1405182 110.8813095  29.2775607  21.1638856  81.6649914  23.3661151
  21.8159580  82.0710754  22.7950335  20.4906654  82.3364544  23.4763241
  67.4913216  24.3385291  90.9599686  67.2936964  24.6416259  91.8461418
  67.9723310  23.5209560  91.0881615   7.4351126  86.0997105   8.9800394
   7.0826250  86.9689846   8.7893647   8.2654309  86.2702084   9.4247139
   2.5515684  88.1133842  20.5755115   2.8685850  87.4466896  19.9662137
   1.6064841  88.1437969  20.4267788  76.6665411   0.7647523  96.6273785
  76.6833353  -0.0924289  97.0530415  76.5343285   0.5689905  95.6997776
  10.1805520  84.9361038   7.2765154  10.3756535  84.0310574   7.5195360
   9.3232822  85.1091003   7.6656097   2.7794492  91.6421127  18.7963963
   2.4632123  90.8321095  18.3962548   2.1516600  92.3083878  18.5167623
  87.5612450  34.7975826  93.4820271  87.7135468  35.5521345  92.9130936
  86.8673515  35.0822425  94.0767670   8.7496823  68.6464500  15.2103496
   8.6970031  69.5864868  15.0377417   7.8664708  68.3210993  15.0362360
 117.5664425 103.6163902   9.5991695 116.8374062 103.0381298   9.3747699
 117.1513557 104.3821049   9.9961907  17.6909447  99.6091080  10.1237917
  17.0987606  99.2007923   9.4922632  17.8131819 100.5001259   9.7961044
  19.5309520  86.9118977   8.5439748  18.7144411  87.2773361   8.2033885
  19.2765307  86.0717392   8.9255983 116.4346790 101.2846184   9.0558815
 116.8682766 100.6380653   9.6128309 115.5010319 101.1594677   9.2258060
  26.7759442  70.5619192  19.9583721  27.6769996  70.2508450  19.8714173
  26.2387300  69.7824907  19.8165011  37.9014850  92.9317951   6.9677204
  38.8203335  92.6650429   6.9958287  37.5270700  92.5869656   7.7783608
  14.4930077 104.2280102   3.8432968  15.3630638 104.1621017   3.4497368
  14.2902827 103.3365631   4.1269425  96.1484241  21.8158293  93.0466080
  95.5160809  21.3156414  93.5625362  96.9421291  21.2808776  93.0564022
  38.8050270  96.1256886  18.0119467  38.0283546  96.1187172  18.5713768
  39.1255426  97.0264339  18.0583334  81.7732048  20.8277583  70.9213543
  80.9339809  21.0516715  70.5191135  81.5725613  20.7225251  71.8513536
  11.3285422  92.8027725   3.3337304  10.6650782  93.3620167   3.7378234
  11.2750614  91.9791222   3.8184685  90.6419849  27.1025801  92.8271580
  90.7211494  27.5423050  93.6736870  90.9548092  26.2126040  92.9893780
  78.5973454  20.1105285  65.8539581  78.5421515  19.1619825  65.7380104
  79.3066931  20.2338505  66.4847136 110.1536751  52.3146629  87.0118046
 109.2781544  51.9735813  86.8291855 110.0717926  52.7400064  87.8653908
  95.5078030  34.0878677  91.1386108  96.3385963  33.6328411  91.2763500
  95.7504368  35.0102854  91.0579395  14.6481991 103.5395813  24.3705225
  15.0583899 104.0316486  23.6592937  14.9588442 103.9677715  25.1682639
 111.5168571  17.4658704  80.8917141 110.7917213  17.9302609  80.4736710
 111.0956287  16.7759359  81.4043522   8.9809060  73.9118433   5.6738287
   8.3844477  73.7383652   4.9455607   8.5718185  74.6332216   6.1518401
 108.1028271  88.9528847  27.6963830 107.9506874  88.1589603  28.2089877
 107.7742863  89.6616936  28.2494473  16.6011798 108.7491894   8.4147727
  16.5589380 108.7112808   7.4592566  15.8650351 109.3074608   8.6651015
  14.4731224  66.8267441  12.6667011  14.9118996  67.1383810  11.8751264
  14.9076629  67.2930908  13.3807933  25.8288980  62.9193544  27.6699328
  26.5838814  62.6909876  27.1276426  25.6702328  62.1386528  28.2005620
   9.1963726  78.2298613  12.8675508   9.7546613  78.2674217  12.0909333
   9.3361056  79.0703058  13.3038509 119.3469524  68.2483625   7.1464938
 118.3994675  68.1517363   7.2422349 119.6891022  68.1459379   8.0345672
  17.2704160  78.4581423   3.1237504  17.0664072  77.6560354   2.6428804
  17.9840815  78.8596296   2.6280481 110.4962158 102.9537678  18.9860964
 110.0741291 102.9950523  18.1279731 110.8888721 103.8190365  19.1017473
  22.0757890  99.1581440   1.7308454  22.2772574  98.3748436   1.2189096
  22.2599339  99.8861313   1.1372563 115.4520130  98.8774014  15.7639217
 116.3392353  99.1926384  15.9362268 115.3357983  98.1458473  16.3701892
  11.2373364  72.2942114  17.7116275  11.6289008  73.1116486  17.4038815
  10.3515089  72.5388718  17.9793656  38.9788938   4.2279258  15.5501616
  38.6093616   3.6293748  14.9009967  39.3620443   4.9359709  15.0323772
  91.7038918  24.0485001  92.2372818  91.3570786  24.0488529  93.1294441
  90.9647179  23.7770653  91.6930771  98.3534908  38.0641484  92.9206371
  98.5539532  38.8988996  93.3440018  98.3729267  38.2599354  91.9838810
   7.2115248  71.8276501  19.6968412   7.6002860  72.2347689  18.9226639
   6.6800725  71.1113501  19.3494189   5.6553203  69.6349669   2.1004304
   4.7215465  69.4758892   1.9626161   5.9667063  68.8531637   2.5565630
   8.2467759 107.1180248  25.2369213   8.1547576 108.0580902  25.0818491
   9.0938753 106.8935490  24.8518705  14.5714843  73.3236694  18.7930369
  13.7587500  73.8247728  18.7252522  14.7037482  73.2079554  19.7339654
 114.8224449  67.2092628   2.4963559 114.5116997  66.4500141   2.9895127
 114.2678070  67.2317219   1.7165494 103.4683990  16.5050197  84.3516731
 103.4338570  16.8186820  83.4479809 102.5533485  16.4793408  84.6314240
  24.7464919  87.6800060  31.9239306  23.8884759  88.0249214  31.6768074
  24.6983671  86.7468357  31.7162824  89.0269947  30.2829432  93.6832905
  89.0539837  30.8936930  94.4198227  88.9998817  30.8437085  92.9080200
  14.6252680  68.9252949   2.4879546  13.9530766  68.8466358   3.1648621
  14.6343279  69.8564720   2.2664702 106.3489246  40.3352451  96.0453987
 107.2966480  40.4687643  96.0307121 106.0277557  40.9684563  96.6873741
  55.3767014   8.9600760  32.5043106  54.9045086   9.0198660  33.3347869
  56.1524677   8.4372509  32.7069783   0.4555680 102.1392441   8.0852145
  -0.1883760 102.4004650   8.7434906   0.1368785 101.2975883   7.7591884
  14.0584195  86.9141579  14.3784297  14.5663929  87.6306152  14.7590721
  14.5600688  86.6478443  13.6079407 105.0517654  55.5896759  81.2113857
 104.5638561  54.8828554  80.7888031 105.7783222  55.7692719  80.6146526
  33.3983850  87.1860313  21.2600493  33.0920720  87.8866100  21.8358898
  32.6224208  86.9287968  20.7621121  78.7376165   4.9120238  62.9519224
  78.2115221   5.3564948  62.2871637  78.2231522   4.9890238  63.7554359
   2.8320115 111.9357928  34.5183372   2.5090068 111.7220418  33.6430025
   2.4368947 112.7842656  34.7188592   8.9090711  78.8979912  32.4883461
   8.9283133  79.5286083  31.7684960   8.8167763  78.0473757  32.0591927
  18.7366664 108.5010529  14.3803060  18.0378270 109.0456486  14.0179861
  18.7651765 108.7340450  15.3082788  27.5960326   5.7124209  39.6690416
  27.6764464   5.5373102  38.7314367  26.6635704   5.8831459  39.8017001
  31.2284422 105.3359222   2.1951145  31.6187239 104.9723625   1.4002998
  31.8030548 105.0399208   2.9011136  21.7270613 107.5933933   7.2852063
  22.1644473 108.3389473   6.8740201  20.9275746 107.4723911   6.7729449
  30.7868314 104.1751766  12.5782108  31.2230515 104.4023991  11.7570460
  31.5025401 103.9951706  13.1877923   2.2624770 109.0541649  28.4889579
   1.6650027 109.4603539  27.8610516   2.0644045 109.4843102  29.3208098
  36.6159725  95.3139019   7.5290453  37.0704675  94.5305443   7.2191674
  35.8932757  94.9776268   8.0590045  47.4725866   7.5561595   7.9887986
  48.1317902   7.2039574   7.3907709  47.3429680   8.4587646   7.6977050
  11.6427636 112.1783638  17.7719927  10.8178997 112.4378967  18.1824493
  11.3792634 111.7137909  16.9776583  14.8899603  97.9660988  30.2648354
  14.1565096  97.8157139  29.6684575  15.0495827  97.1128082  30.6681204
  92.8277397   1.2152342  11.0127902  92.0918274   1.8245855  10.9549129
  93.0621815   1.2102711  11.9408238  96.2446117  28.0654454  91.4906406
  96.7977142  28.6874628  91.9632912  95.7358646  28.6074662  90.8876324
 106.8895054  16.0787916  97.0226288 107.0550537  15.7894611  96.1253548
 107.7555656  16.2950099  97.3682022  35.7802844  98.2611465  36.2478733
  36.1009884  99.1601276  36.1756015  36.4018273  97.8316402  36.8356109
   4.4822788  10.0378370  84.8227310   4.7694543  10.9488893  84.8839283
   3.5275355  10.0837207  84.8736382  23.1890845 104.3440533  34.9552965
  23.5097122 103.8685131  35.7216430  23.3875704 105.2615643  35.1424313
  85.5074215  10.3560984  26.8917966  85.8218288   9.9529696  27.7010345
  86.2881565  10.4327321  26.3433313  22.2210979  99.3766117   4.4102344
  22.2401500  99.6553707   3.4947222  21.8781734  98.4834099   4.3815511
   6.9055754  82.1076202  25.4987192   7.5642347  81.7960835  24.8779559
   7.2301626  81.8256855  26.3539314  69.7802401   0.6131211  11.5610254
  69.2483521   0.1727961  12.2239268  69.5293379   1.5345697  11.6259265
  10.3825629 105.5149460  16.7687201  10.1340735 104.5909309  16.7947757
  11.2278473 105.5230808  16.3196552  96.8173122  15.7230830   5.0498688
  96.2280369  15.0371957   4.7359547  96.4296722  16.5372884   4.7288805
  13.4254336  99.9964523   2.6550686  14.0330863 100.3218174   3.3192432
  12.5872767  99.9248505   3.1117922 118.9264965  67.0881224  78.7310696
 118.6701775  66.1710739  78.8288307 118.0981636  67.5673008  78.7091160
 111.9696140  97.1027088  12.4932015 111.7818832  97.8073502  13.1132591
 111.2129879  97.0915890  11.9070101  26.7967343   1.8463983  14.8894894
  27.0440674   1.1712880  14.2576003  26.6952205   1.3749130  15.7163072
   3.6241519  97.5426102  72.1497965   3.6759120  97.4928761  71.1952925
   2.8722477  98.1100845  72.3196459  34.3352985 105.1792717  54.0354824
  34.1322207 105.7333946  53.2818604  33.5146451 105.1317596  54.5258951
  78.0442095   4.8912951  18.4579778  78.0947447   3.9357263  18.4817719
  78.4403086   5.1726991  19.2826903 115.5335522  95.3123856  21.7600703
 115.2083015  96.0664177  22.2519016 116.2520027  94.9709511  22.2924948
   9.4006670 106.8378830  29.0123582   9.9988490 106.9715118  28.2771349
   9.5536286 107.5893307  29.5852065 118.2934856  99.1809368  21.0885119
 118.9042759  98.7765312  20.4723835 118.8539886  99.5876980  21.7492795
  14.2824531 110.5766296   8.4912103  13.7965047 110.0442028   7.8614426
  13.6260414 111.1649227   8.8643962  25.3859782  59.3972492  23.3895874
  25.4350543  59.2900658  22.4396753  24.6488023  58.8473272  23.6549020
 110.9419155  35.4489756  80.4818726 111.1055946  36.1939120  79.9035072
 110.0722694  35.6148481  80.8457947  92.7664757 112.1630287  90.2371693
  93.6160564 111.7255592  90.2924347  92.7247429 112.4926376  89.3394852
  54.4434261   2.9072642   9.3584269  54.7727156   3.5591483   9.9771720
  55.2300167   2.5466931   8.9491653  32.3822212 107.7683830  11.5156853
  31.5051293 107.4861908  11.7751217  32.2331643 108.5339737  10.9608126
  19.7378612 103.8011265  31.2800527  19.0613306 103.2026482  31.5968513
  20.2950311 103.9579201  32.0424223  57.5435209   5.6424379  15.4413521
  57.8822947   4.9508387  16.0098195  56.6169405   5.4292119  15.3308308
  58.6349678  37.8571439  95.7475853  58.3490419  38.7001109  96.0995579
  58.0000257  37.2273397  96.0888004  23.1238961  97.5513649  13.1436038
  22.8560209  98.3998966  13.4963942  22.3374724  97.0087719  13.2016504
  92.6201820  37.4212050  87.9777431  92.7654743  38.3547664  87.8241730
  93.4956074  37.0638919  88.1267071  90.6422138  71.9768715  92.3909855
  91.4859200  72.0526123  92.8366947  89.9934101  72.0851326  93.0863667
  48.3769417 103.9678192  18.3479750  49.0623808 103.3095169  18.2337964
  48.8443327 104.8031425  18.3456063  90.7194710  31.6746020  70.3113699
  91.1266708  32.3354912  70.8714104  90.7213211  30.8774877  70.8413124
   6.0035217  85.6732368  14.4253182   6.1564541  86.0482502  13.5580206
   5.6951475  86.4094639  14.9536240  71.7670870   3.0511546  37.0058680
  71.3028765   3.4208196  37.7569270  71.1477709   2.4292007  36.6239572
  68.3680725   1.4295337  42.2884607  68.5942698   0.4999820  42.2568417
  68.3174181   1.6950765  41.3702250  47.4226236  86.8540668  17.5814199
  48.1208372  87.4213123  17.9084742  47.8766060  86.0718918  17.2678506
  25.2791595 109.5915031   4.4935748  24.5558453 109.1575718   4.9460685
  26.0583735 109.3356323   4.9871200  30.7019281  91.3012505  33.4896851
  31.1220312  90.9460449  32.7063751  31.0162330  92.2038746  33.5416222
   3.9167243  98.9396477   2.0043594   4.6922135  99.1337109   2.5308439
   4.2656088  98.6621094   1.1573146  17.6401234  96.3134384  30.2778006
  18.1131351  96.9325447  29.7217441  17.9769611  96.4769840  31.1587238
   5.8687085 102.8469276   6.8982297   5.5803770 102.1617699   7.5012666
   5.1829827 103.5129929   6.9469523  47.4535656  93.4441853  26.4636087
  48.0899763  93.6740208  27.1406531  46.8458700  92.8464699  26.8991232
  12.5051928  90.3718376  24.7715950  12.8867722  91.1092567  25.2478790
  11.5598440  90.4916573  24.8621058  27.9221869  18.4429812  50.3473330
  28.7158775  18.9625287  50.4752350  28.2033157  17.7056074  49.8055983
   8.4296739  91.9316769  17.6130891   8.4396809  92.0926285  18.5566068
   9.3062532  91.6007900  17.4172544  88.0662537  96.0216808  42.8503704
  88.0764103  95.0865173  43.0543232  87.2082615  96.3227463  43.1494331
  92.8610992  46.8237972  95.5657768  92.3791027  46.6163206  96.3663101
  92.2144794  47.2445011  94.9990940 116.8798733  34.6123648  91.9455338
 115.9877586  34.5165777  92.2789764 116.7717075  35.0169468  91.0848141
  39.1206026  98.9363384   7.0773965  38.3374763  98.5388756   6.6966486
  39.1151214  99.8362827   6.7513603 105.4456139  48.1343508  90.9638309
 104.7749138  48.8095951  91.0660076 106.2713623  48.5904455  91.1261368
  17.7487230  93.7332249   8.8905489  16.9645011  93.9928341   8.4069866
  17.9424918  92.8500938   8.5762912  74.6484327   8.4259742   9.8612225
  74.3298054   8.7819231  10.6906855  75.4848671   8.0162364  10.0819623
  29.2214513 108.3641815  22.1082044  28.6033797 109.0941238  22.0707655
  28.8933086 107.7390957  21.4618111  45.2761984  86.4849281  26.2535357
  44.3660259  86.4630127  25.9580112  45.2799606  87.1188450  26.9707227
  60.4600716   8.7489432  31.6247129  61.1060286   9.1801995  32.1841693
  59.6166801   8.9635479  32.0232868 115.7120419  97.6705265   0.8250479
 114.8579597  97.4343586   0.4631056 116.0790062  98.2863140   0.1907179
  47.3059607  11.8000817  29.2398357  46.4067554  11.7062092  28.9254332
  47.7410889  12.3248196  28.5678673  34.9937272 102.4782944  23.4135342
  35.6897473 102.0993137  22.8767276  35.4486561 103.0703354  24.0124989
   7.1305621 101.8479633   9.3763775   7.0187265 102.7982426   9.3499827
   6.2569714 101.4989853   9.1995054  15.3165817  92.5965405  18.9309227
  15.2037609  92.8674221  19.8420358  14.8394370  93.2540607  18.4247279
  26.2533784 109.1233158   8.8658273  27.0952511 108.6683083   8.8446468
  25.6124282 108.4332943   9.0369874  44.6985626   6.5039307   0.3906911
  44.6972847   7.0591992   1.1703748  45.6196117   6.2797999   0.2577797
   2.7195498  40.7254791  91.9586086   3.0103523  40.4802227  91.0802555
   1.7814755  40.5351257  91.9622040  61.4061737  16.9543219   8.6864388
  61.9873524  16.3776803   8.1905103  61.6628790  16.8253577   9.5995116
  24.3427300  95.0748730  28.1347847  25.0023961  94.4013214  27.9692435
  24.3386960  95.1773930  29.0864706  98.7488651  21.5833259  94.7616005
  99.6199512  21.2457538  94.9701691  98.2130051  21.3476253  95.5189228
  78.6993694   2.7024457  34.0329623  79.0146065   1.9738162  33.4982133
  79.4315672   2.9070315  34.6145630  58.3726501  17.6744699  16.0634494
  58.6545897  16.8336451  15.7032299  59.0834093  18.2780647  15.8472776
  19.2505980 103.7469006  11.6454387  19.5415914 104.6496010  11.7746198
  18.4363055 103.8265228  11.1486280   6.4034224 101.3150787  21.6205883
   6.0677880 102.1631622  21.9109988   7.0697904 101.5317726  20.9684896
  49.7835445  11.1077154   2.8727451  49.3281221  11.9389141   2.7388448
  49.8073435  10.9980702   3.8233468 106.0669708  93.8519001   7.5063998
 105.4217243  94.5342350   7.6916051 106.0022640  93.7111092   6.5618247
  39.0432429 106.0806656  10.2013528  38.4672952 106.1625481   9.4412136
  38.8674045 105.2034569  10.5416870 103.2008457  88.1480217   7.8988057
 102.3832798  87.7919769   7.5508678 102.9307747  88.9072418   8.4154075
 107.9387760  98.6835098  10.5664659 108.4705734  98.8027096   9.7795630
 108.5370445  98.2918358  11.2027872  29.5240021 101.1679077  15.6666410
  29.7852349 100.7807350  14.8311245  30.2017713 101.8179893  15.8517039
   0.0759310  93.7217236   0.7284490   0.2191525  93.1513882   1.4837205
  -0.2228592  94.5489216   1.1062108 106.4611721  48.5890436  93.7475777
 106.0863400  48.3261299  92.9069901 105.7806587  49.1237211  94.1565418
  14.9285257  91.6556931  34.4383502  14.9191380  90.7885361  34.0331554
  14.9761188  92.2641277  33.7009406  19.2599642 109.1844654  17.2685552
  19.7540426 109.9959183  17.1516502  19.8050964 108.5113239  16.8611979
  20.8653688  91.9207573   9.6391106  21.1686230  91.1052227   9.2401481
  20.0212407  92.0922184   9.2216438  55.9894657   4.6470308  23.3812380
  56.0265398   4.2490530  22.5114846  55.6096315   3.9683270  23.9391971
  46.0994434  83.6681461  26.5103078  46.1965513  83.3355141  25.6180286
  45.6871605  84.5252895  26.4028406  59.2255306   1.1203843  15.5865884
  59.7289038   1.8776490  15.2875936  58.3560419   1.2454756  15.2063537
  94.4427299  28.4179330  95.8104515  94.5857620  27.7071786  95.1854706
  95.3228092  28.6801052  96.0805511  39.2233014 102.1885586  21.1820531
  38.5938644 101.7282581  21.7371774  39.9253726 101.5538788  21.0388494
  26.0858965 100.2677536   3.7658337  26.3133669 100.3039074   2.8367582
  26.7655611  99.7193336   4.1576612  43.6210442  97.2264576  10.6799591
  43.5464239  97.7452850   9.8790318  42.8140688  96.7124462  10.7084239
   6.6833526  89.1084862  22.6886916   6.8401980  88.9396381  23.6177349
   5.9681255  89.7445488  22.6782727  14.8090994  99.9118137  17.6318991
  15.1160443  99.8804665  16.7257905  15.4517233 100.4587650  18.0836844
 103.9218807  92.1629143  20.2027798 103.3954906  92.0225811  19.4157302
 103.8743973  91.3311672  20.6741309  88.7021828  60.8385229  94.7111130
  88.4549618  61.6959953  95.0573063  87.8688431  60.3966665  94.5481873
  85.7584763  34.3075728  86.8355274  85.7062149  33.3521271  86.8605328
  86.2290001  34.5427179  87.6352406 107.2238541  24.5129704  87.3959064
 107.3869038  25.4511023  87.4936485 106.3280487  24.4589758  87.0629597
  90.9121323  59.8343325  93.5180473  90.8913803  58.8812304  93.6040115
  90.0998020  60.1296568  93.9293003  54.2759800  13.8823628   6.5770227
  53.8432026  14.1858137   5.7789910  55.1364994  13.5828257   6.2837434
 112.7335358  30.7558560  96.7675495 113.1285572  29.9343324  97.0595837
 111.9316196  30.4894757  96.3178730  58.5408163  30.3777909  33.1012034
  58.3005905  31.2844634  32.9102349  59.4951105  30.3931284  33.1741166
  30.7142973  90.0613976  13.7863708  30.6261611  89.7770786  14.6961105
  30.8294272  91.0100174  13.8419867 104.5534801  55.9427786  97.2410393
 105.1348972  55.3572655  97.7261829 105.0455761  56.1690521  96.4518166
  54.2327261  91.7635727  11.1526740  54.2362356  91.1757565  10.3972256
  53.3440685  91.6987896  11.5024245  62.3335361  17.1814442  32.5064635
  62.9638720  16.6625834  32.0067692  61.6347980  17.3759902  31.8818450
  12.2832465  94.4710159  29.9423957  13.0734909  94.5235062  30.4799747
  12.3761439  95.1833630  29.3098140  16.0508919 104.8301125  22.4538779
  16.3322663 105.7412910  22.5363851  16.7763197 104.3950558  22.0058632
 111.8361568  52.1285582  96.6757584 111.4384365  51.2782383  96.8628502
 111.5565968  52.3325825  95.7833195 100.8285427  46.2170839  89.9219131
 100.4497051  46.8990755  89.3672943 101.5671825  45.8793163  89.4154072
  81.4717579   2.8419971  11.3628328  82.1700287   3.4967086  11.3635409
  80.9029102   3.0993044  10.6372714  17.8016376 101.5115547  14.2403507
  18.6335123 101.6527653  13.7883806  17.1356475 101.7618752  13.6000121
 110.1290798 100.3299236   1.3481335 110.1748848  99.3741608   1.3226935
 110.8099174 100.5858707   1.9703762  69.5971823   3.4888151  11.6744101
  68.7719488   3.4544009  11.1906397  70.2046013   3.9302340  11.0807562
  18.7823951  94.4832993  39.6304870  19.4728696  94.0245438  39.1519237
  18.7814319  95.3665161  39.2614985   8.2606447 103.6312103   5.4233718
   8.2463187 103.4762287   4.4789115   7.4740994 103.1941319   5.7497710
  40.5659628  76.5166092  33.5318351  40.1209784  76.8520021  32.7535462
  41.0492420  77.2686005  33.8741517  39.3764043 101.7065048  33.2819557
  40.1060820 102.2529221  32.9900312  39.5998240 101.4694405  34.1820240
  86.6623688  24.4441891  90.4581547  86.9843388  23.6231685  90.8302879
  87.1613407  25.1242304  90.9106922  18.5963738  93.8121605   2.2276200
  19.1311479  94.5104504   2.6053065  17.7083206  93.9994240   2.5318030
  94.9331379  31.8205166  94.1734886  94.9863625  32.0027852  95.1116657
  94.0058041  31.6428614  94.0162373   4.7139427  60.3268337  11.4528275
   4.5381826  60.2605867  12.3914182   4.6206456  59.4313192  11.1278927
  43.2172251   7.5408334  27.4629116  43.0175829   6.6747129  27.1076488
  43.9206648   7.3849148  28.0930662  16.2052226  88.8591766  20.4975605
  15.4403114  88.8696671  19.9222064  16.7694306  88.1770039  20.1334977
  16.1037527  88.7311665  -0.1590804  16.4694105  88.3622137   0.6449052
  16.7735849  89.3405668  -0.4692248  11.8663728 103.8584614  25.1782417
  12.7994311 103.8144779  24.9691963  11.7664874 103.2972336  25.9471893
  12.6401842 107.9870415  10.8972096  13.3112705 107.5814724  10.3482234
  11.9090617 107.3695469  10.8772659  55.6922674   4.2692953  18.1412458
  55.2550364   4.9644488  18.6329997  55.4860067   3.4686053  18.6235142
 108.1422520  16.6785884  92.3425198 108.0124283  17.4813616  91.8376160
 109.0317249  16.3998985  92.1247768  21.3711619 102.3407078  13.1575227
  21.4347887 102.6373577  14.0653694  21.1009097 103.1186867  12.6697230
   2.4634112  48.7049007  61.6311312   2.6632366  48.7191391  60.6951284
   2.4483645  47.7752733  61.8587160  33.1552434  95.9874916   1.2900135
  33.2843781  96.8267059   1.7319112  32.2060919  95.8637905   1.2834841
  15.8884680 103.1007767  18.9471889  16.5353608 103.5361958  19.5023191
  15.4648995 103.8134766  18.4687746   6.7286080 106.1419201   0.2969084
   7.1537417 106.8137455  -0.2361430   7.2226506 106.1385345   1.1167511
  62.0667458   8.2474488  37.6901484  61.6255522   7.4723518  38.0377221
  61.4000988   8.9338827  37.7151060  98.2777882  54.9990416  94.7931576
  97.6056099  55.1086712  95.4657555  98.4869289  55.8910275  94.5159149
  22.1960521  63.3806658  23.9915204  22.8484774  63.7488365  23.3956814
  22.7066445  62.8700924  24.6198845  51.9702721  17.4905372   3.3036548
  51.3128996  17.6269317   2.6213878  52.8039122  17.4756777   2.8334886
  79.3344831  21.8217540  21.4396620  78.9232826  21.3158703  20.7387877
  79.0260935  22.7172899  21.3013148  70.5069828   9.5845491   3.4654590
  69.7339344   9.1269046   3.7958926  70.9856892   8.9195770   2.9705986
  75.1404095  20.5621600   3.2388961  75.1406193  20.3124857   2.3148322
  75.4946613  19.7979486   3.6935604 100.1400185  65.6619978  95.9609890
  99.2967796  65.8825254  96.3566589  99.9267006  65.0176048  95.2861023
  77.0524740  59.2512226  93.9630985  77.5419283  58.4789419  94.2463875
  77.4070692  59.9665213  94.4911480 114.0985394  59.8463964  94.0911579
 114.8893738  59.6208763  94.5809937 114.3160152  59.6475172  93.1804466
  54.6588850  17.7458596   7.8652275  55.1376390  17.4006009   7.1116865
  53.8344717  18.0659735   7.4990225  94.5128727  83.5711384  83.4467888
  95.3253174  83.1054401  83.2485771  94.4247246  83.5049534  84.3976212
   9.6779585 111.4206123   8.7601715   8.8466090 111.5243530   8.2972157
   9.4702411 111.6199398   9.6730542 110.1425362  60.3030443  96.7029572
 109.6750259  60.5768490  95.9138489 109.7870922  59.4372416  96.9036579
  10.7963765 106.3206100  24.1310859  11.0737634 105.4422665  24.3914747
  11.6074228 106.8278885  24.0977669  83.3588600   5.2655727  27.4670267
  83.5182953   4.3224108  27.4315524  82.4086952   5.3509736  27.3888206
  81.3599300   7.3341346  14.0458798  81.5025997   6.8472415  14.8575532
  80.4852772   7.0711732  13.7594187 115.9571838  75.7981157  92.4353981
 116.1686325  74.9936295  91.9617748 115.0057697  75.8751392  92.3638535
  36.7080855 104.6220112   7.0510739  37.1998882 103.8290691   7.2646427
  37.2978568 105.1258850   6.4902592  29.3074131 110.2237797  15.3281689
  29.9386191 110.6247234  15.9257114  28.5322356 110.0682068  15.8677316
  69.7441196  22.1137428  37.1163368  70.6565714  22.2900176  37.3456764
  69.7603226  21.2413526  36.7227602 115.2193642  48.1077814  85.2322292
 115.5942631  47.7454615  86.0349846 115.3034210  47.4034739  84.5894909
  45.7603168  12.8215313   0.6513881  45.6473494  13.7406886   0.4092697
  44.9822903  12.3850775   0.3043735  26.4690351  74.5511436  18.3502150
  25.8167005  74.7294474  19.0276349  26.2492156  75.1553202  17.6410747
  96.4900208  61.3687515  93.2345676  96.3436985  61.8439102  92.4166203
  95.6234550  61.0467815  93.4828377  63.5007906   3.7918031  17.8997469
  62.5644302   3.6742276  18.0598450  63.5643530   4.6414056  17.4634349
  44.3197966  22.7464175   3.1368059  43.8630486  23.2361937   3.8207141
  44.6986818  23.4201074   2.5721636  46.7397833  26.1604309   9.7709554
  46.9076014  25.3524184  10.2559114  47.4450064  26.2030292   9.1251421
  47.4692106  19.1630995  28.0076623  47.5728273  19.6207774  28.8419437
  47.5166225  18.2347989  28.2362294  68.9205933  20.8913159  12.4868596
  69.4492388  20.3348756  13.0588222  69.5212698  21.5791798  12.2000432
  98.7132263   5.7782131   1.2637348  99.3287754   6.4765280   1.0408416
  98.5822678   5.8666748   2.2077991  41.3528919 108.6618328  38.7368703
  40.4700613 108.2931614  38.7671852  41.6283607 108.6993599  39.6528077
  32.7260876  86.4924240  11.9258392  32.7811408  87.2771072  12.4712598
  31.7875242  86.3559628  11.7965639  92.4458790  66.9885397  95.9502411
  92.2565079  67.4515486  95.1341629  93.3797073  66.7846870  95.8988190
 108.0509377  61.5455914  60.3663254 107.7295399  60.7490206  59.9439335
 107.2707367  61.9432402  60.7528400  12.6531184  97.0580673  24.1980338
  12.0962203  97.6576710  23.7014699  13.1093979  97.6189613  24.8252821
  76.8068933  13.9241505   1.0667457  76.2335253  13.1656313   1.1768889
  77.5778437  13.5783279   0.6169998  95.9340572  60.5305052  88.2527351
  96.3576317  59.6945095  88.4475040  96.2679291  60.7726622  87.3889542
  15.4233634  98.0524731   3.6358723  14.5524728  97.6836586   3.4883639
  15.8928049  97.3723793   4.1189203  63.7867689   3.6314353  21.5107250
  64.1832685   3.0664417  22.1739030  62.9437590   3.2205769  21.3190126
 107.8267193  49.1351366  91.3885498 108.6298084  49.2223883  90.8750629
 108.1232166  49.1347742  92.2986794  53.7001419  10.5792701  26.4960480
  52.8585720  10.5941403  26.9518614  54.3343592  10.8621764  27.1548104
   7.4173355  71.4886713  87.6563454   8.0683154  70.9229136  87.2411728
   7.5038177  72.3267651  87.2020817  84.8249435  66.8373442  94.0061951
  85.4773045  67.1524858  94.6317768  85.1795673  67.0759344  93.1497192
  96.9977283  78.1413889  80.6842804  97.7036858  77.6874781  81.1445141
  97.0293236  77.7924442  79.7935104  75.4930067  16.8395317  15.4257214
  75.4589748  16.6002953  14.4995248  76.4222050  16.7937279  15.6509387
  73.6790085   6.1237496  13.7373328  73.5650444   5.1904219  13.5580456
  73.0173779   6.5541911  13.1958556  20.6211066 111.8153191   7.1529526
  19.8800182 111.7014122   7.7479708  20.3908443 112.5815964   6.6275573
  90.3375149  44.1235685  96.2260723  89.5188808  44.0157366  96.7102718
  90.9225559  44.5668650  96.8404484  17.2928441 101.6124249  28.4501696
  16.7334545 102.2330093  28.9172792  17.3056901 100.8346844  29.0080166
  51.7542553  16.1542141   7.9701233  52.5920200  15.8220720   8.2927060
  51.9874525  16.9125223   7.4345684  13.2611692 102.0810604   4.8299569
  12.5171208 102.1224976   4.2292005  12.9365623 101.5814972   5.5791515
  53.3088779   1.3703707   6.8519086  54.2641687   1.3249514   6.8120283
  53.0910683   1.0639685   7.7321970  62.1909523  26.4846230   7.2211307
  62.0909643  25.6558251   7.6894516  62.3215961  27.1352625   7.9109377
  17.2401154  88.7919235   4.7482303  17.6963842  89.5694733   4.4265628
  16.3300264  89.0717697   4.8464939  94.5587063  90.6274319  84.9035549
  94.7828007  90.1166058  84.1257000  93.7759113  90.2012730  85.2526379
 107.7843952  72.2697830  69.8108244 108.1228733  71.7751741  69.0644836
 107.0823574  72.8069496  69.4436359 117.7631378  49.3565178  95.0740147
 118.7013149  49.5170212  94.9725437 117.4437237  50.1095152  95.5712032
  66.9284344   1.9014925   1.4262526  67.4158621   1.1416171   1.1080834
  66.0909462   1.5429720   1.7200395   7.6667619 103.5742283  40.5415630
   8.5543990 103.9317608  40.5191708   7.1413672 104.2066860  40.0514746
 110.3491630  46.7930564  96.9361764 109.5359768  47.2635134  96.7527748
 110.4094781  46.7823847  97.8914147  56.5470076   1.6228519  14.9181521
  56.1218262   1.2335362  15.6822753  56.0915232   2.4546885  14.7884893
  55.8246803 107.3585701   8.8614446  55.4210520 107.1225262   8.0262196
  56.1791992 108.2358360   8.7166852  95.2528191  65.1033449  89.3940163
  95.2878761  64.6604586  88.5461617  95.6148338  64.4677305  90.0114059
 106.4496231  35.7537675  74.2460680 105.6554985  35.2775645  74.0035152
 106.3378525  35.9475374  75.1767635 114.9310875  52.8329277  87.7311993
 114.8227119  53.4495497  87.0071411 114.3553448  53.1674051  88.4188557
  66.0182810  10.5259252  15.5208361  66.2558079  10.3011954  14.6212208
  65.9631538   9.6833152  15.9716141  95.1950264  50.1591444  92.8360748
  95.4596901  49.2630386  93.0438805  94.4668388  50.3378963  93.4310722
  24.9160600  20.5122566  15.3755355  25.5398941  20.7573509  16.0589027
  25.0860977  19.5835626  15.2179050  87.1729279  83.8423157  87.6877975
  86.3690853  83.3574486  87.5008106  87.2565079  84.4575405  86.9592762
  45.6885815 105.9749794  45.1414824  46.0402870 105.1807022  45.5435371
  46.3918447 106.2866688  44.5718288  78.6857319  43.3160257  94.4589901
  79.6262169  43.4036827  94.6140099  78.6170912  43.0671406  93.5372639
 107.0418739  45.1168680  95.8356476 107.0932865  44.2009830  95.5622578
 107.4359512  45.6050873  95.1127529  88.4122562  48.5566187  95.1978111
  88.3804321  48.4732294  96.1508369  87.7143288  49.1772747  94.9882507
  76.4889002  22.9230356   0.8889610  75.9412193  22.1746731   0.6518251
  76.9279766  23.1663084   0.0739404  16.7710710  92.3304558  24.4199848
  17.4874389  92.7918911  23.9839506  16.5924788  92.8509712  25.2031898
  65.1524115  12.0218515  12.7528143  65.4220200  11.1426139  12.4873233
  64.2415905  11.9199300  13.0289495  59.1082859  40.3045845  15.9562242
  59.2018223  39.3857455  15.7047892  59.6370173  40.7827234  15.3174281
  72.4078369  22.4128509  38.0270195  72.9420567  21.6187716  38.0102563
  72.5376606  22.7703595  38.9054060 111.5530396  48.6401033  87.6251030
 112.0943642  48.0954933  88.1965923 111.2375736  49.3432426  88.1928253
  90.5389690   6.8640202  12.9689169  90.6414700   7.7009428  12.5158310
  90.7964897   7.0476449  13.8723540  61.6365385  26.9002414  18.1412256
  61.3861370  27.7307558  17.7365315  60.9346008  26.2954569  17.9009032
  38.5547256 101.2238979  18.4556460  37.6668596 101.5744781  18.3848047
  38.9066243 101.6220379  19.2518115  49.2570734   1.4325486  12.6243651
  48.7018824   2.1742821  12.8648341  50.0787401   1.8313497  12.3379123
  42.0062923   4.1823307   4.1629016  42.3154640   3.4747261   4.7285342
  41.2800455   4.5757207   4.6466777  81.3294220  15.7270670  15.1880729
  81.6206837  16.5711427  14.8432040  81.7581272  15.0790954  14.6289837
  56.0373116  13.9419091  13.9328563  55.3685951  13.2707083  13.7966967
  55.7158661  14.7020793  13.4480393  97.6838970  50.2106380  89.5102310
  97.9350376  51.0710669  89.1743374  97.2675037  50.3944445  90.3522873
  52.4040556  16.9637036  25.5470490  52.7917242  17.2410095  26.3771391
  52.1843719  17.7812707  25.1003361  95.7266235  70.5400181  68.9271021
  94.8662853  70.7273960  69.3025208  95.8261967  69.5923233  69.0176105
  53.4664249   1.0548961  11.3303471  53.7561703   1.6865645  10.6721103
  54.2543316   0.8588029  11.8372834   7.6965773  82.1811199  58.0606985
   7.3039848  83.0076122  57.7796221   7.9347712  81.7396355  57.2454739
 115.6536484  48.2515717  89.1860771 116.5636063  48.3520842  88.9065933
 115.3935528  49.1265392  89.4742012 105.0886536  70.3694105  91.5168476
 105.7365894  70.5706215  92.1920586 105.2679443  70.9982872  90.8178520
  69.3592548  58.6053133  85.2488518  69.6695900  58.9684200  84.4193459
  70.0642824  58.7893772  85.8695698  43.3043146  98.0956173   4.3008354
  42.5552034  98.5956860   3.9767981  43.0397177  97.8067207   5.1741940
 103.0459213  41.3107824  92.7947712 102.2858810  41.7187405  92.3798752
 103.2169533  40.5307436  92.2670174  11.0223281  54.4113731  94.1027546
  11.6834533  53.8839340  93.6544800  11.3328803  55.3122568  94.0122128
   7.8486657 103.3790779  23.8422132   7.9113305 104.0420055  23.1545806
   6.9559354 103.4646797  24.1767836  74.7609138   2.9295343  36.9701362
  73.8224316   3.0115500  37.1397161  75.1730061   3.4897456  37.6278400
  55.9242201   1.9899572  25.5145669  55.9096479   1.4035290  26.2709522
  56.7544270   1.7978969  25.0785589  63.8064957  29.2027211  21.5101457
  63.4349155  29.9678588  21.0711479  63.2380724  28.4778166  21.2500668
  77.4513388  28.2048368  17.8986096  76.7193794  28.0905032  18.5047400
  77.7531815  27.3148155  17.7169943  48.1715727  13.0722260  23.3337140
  48.0835724  13.5109770  24.1798735  47.3839712  13.3228469  22.8509092
  41.5783024  37.2320247  24.4171119  42.2792196  37.2863960  23.7675047
  40.8989716  37.8196168  24.0862322  95.4543591  56.7948103  92.1475029
  95.2961445  56.0187340  92.6849937  94.5989418  57.2193432  92.0821571
 108.3210468  91.1750698  94.5730972 108.5494041  90.4850960  93.9501858
 108.3745861  90.7515717  95.4298496  59.0932178   4.5569199  22.3121691
  58.3196211   4.0671030  22.0331264  58.9639997   4.6944460  23.2505846
  18.2851541  99.1449547   6.1676389  17.8853452  99.2343426   5.3025407
  18.4475887 100.0448513   6.4505595  74.5765877   0.3243274  11.1288738
  74.0063715   1.0779587  11.2809527  74.9595213   0.1369140  11.9858861
  20.5589771  95.3333473  89.0645218  20.3796101  96.2719917  89.0096474
  19.7207606  94.9434376  89.3126965  13.2569253  75.4814672  94.7018433
  13.2640636  75.6008816  95.6515408  14.0779114  75.0276852  94.5113277
  40.9855747  27.4866772   5.2340209  41.9106531  27.7322388   5.2214718
  40.6138802  27.9903054   5.9581995   3.2994065  80.9375381  68.0324173
   4.1480911  81.3039494  68.2808304   3.0604562  80.3690052  68.7644720
  65.1676798   2.0606859  19.1240847  64.4883013   2.7149117  18.9607835
  65.7995081   2.1898103  18.4167278  54.2007828  29.8770976  36.3346481
  54.9086857  29.3461871  35.9696293  53.5838604  29.2394090  36.6938019
 101.4970589  58.8707066   3.6689153 101.3642406  59.8176956   3.6264944
 102.3852348  58.7383318   3.3374685 112.4249363  57.3416519  14.5771813
 112.3678207  57.4655962  13.6297596 112.9921532  56.5782022  14.6850944
  63.1007385  23.3557725  82.2751522  63.7991762  22.7020788  82.2418976
  62.3636007  22.8983188  82.6796150 111.7731094  73.2373524   8.6677194
 112.5179672  73.8208771   8.8123584 111.0231781  73.8248396   8.5745388
  16.2536681  46.6481495   9.1568869  16.8438244  47.4015570   9.1388083
  16.7663240  45.9332228   8.7796640 115.0232792  41.7414665   5.4548228
 115.6729889  41.6448689   4.7585630 115.1666546  42.6244736   5.7953709
  63.3831644   0.5750583  96.7655563  63.5281849  -0.3702552  96.8053532
  64.0641165   0.9456810  97.3269558 102.0010948  53.6921167   8.7389517
 102.7231884  53.9943838   8.1880927 101.2300205  54.1388321   8.3894992
  81.5647793   7.6132965  74.4954729  80.8099174   7.0922136  74.7691298
  81.7463112   8.1828946  75.2430248  14.4135010  79.4628191   3.4299597
  13.9499652  78.8010359   3.9431971  15.3401470  79.2620468   3.5612977
  14.7957027  73.8708305   0.5645807  14.0477526  74.4592333   0.6674674
  15.1963747  74.1353130  -0.2635152 117.6881790 103.0675793  30.5156302
 118.5811329 103.0168438  30.1745915 117.7985573 103.1985760  31.4573789
  91.5247822  34.3874359  96.6034985  90.5722237  34.4578910  96.5410423
  91.8012524  34.0999579  95.7333469  78.5212564   9.3638700  88.1701946
  79.3445444   9.4130325  88.6560059  78.7670040   9.5466411  87.2633171
  11.3499951  53.0341530   5.6398517  10.5867362  53.2449198   5.1020366
  11.0126925  52.4435186   6.3133603  74.4867229  12.4901259  92.7663326
  73.6809874  12.9241443  92.4858761  75.0877523  12.6017165  92.0297623
  80.3753471  21.3119173  51.8844128  79.8037052  22.0182872  52.1852398
  80.6292343  20.8520389  52.6845932 106.7739582  37.1375751   7.1956295
 107.5001240  36.5838504   7.4825275 106.0306454  36.5389347   7.1225101
  90.7003880  26.1779523  96.4127922  91.3484859  25.7612109  95.8448696
  90.5932236  27.0568991  96.0492039   5.9028083  45.0263929  18.8326466
   5.5121642  45.8988571  18.7833202   6.6870248  45.1450443  19.3685174
  30.4728913 104.2803478  96.6587162  31.3797927 104.3860149  96.9461060
  30.0055933 103.9904404  97.4421787  74.8231268   5.4195267  90.5480385
  74.4164896   4.8540431  89.8914528  75.2095079   4.8132911  91.1800385
  84.0044975  27.5246882  90.2262402  84.7056961  27.9845858  89.7646809
  83.2182217  28.0376744  90.0395775 115.2048683  74.0210867   6.2115294
 115.7069778  73.6087418   5.5086094 114.4728470  73.4237957   6.3651723
 117.3401260  69.6361828  10.5897355 117.5126934  68.7529182  10.2637017
 117.7190399  70.2142191   9.9275178  95.3502083  62.8717852  16.1081398
  95.3815746  61.9473696  15.8617651  95.3207970  62.8638124  17.0648539
  97.5280190  59.3782616  12.2049439  97.5100231  58.6202908  12.7892268
  98.1429195  59.9845076  12.6179683   0.8484709  70.0865602  22.5379467
   1.4422189  69.4849396  22.9871130   0.5873803  69.6180439  21.7451310
  13.2722688  53.2784796  10.0521970  13.0466402  53.0913401  10.9634066
  13.7517560  52.5032330   9.7601068  99.4550705  59.6822500  17.8561878
 100.1982975  59.1098356  17.6659763  98.7227535  59.0833998  18.0022156
 107.8757668  66.1528301  14.2378092 107.7978706  67.0897198  14.0577912
 108.0119324  66.1012268  15.1838684  39.2117214  86.5731525  88.8123608
  39.0705967  86.7763901  89.7370338  40.0603676  86.1309147  88.7911510
   2.7262625  53.9599466  27.5047469   1.8811813  53.5118818  27.5409079
   3.2195771  53.4870958  26.8344617  89.3937588  47.1056128  15.0011623
  88.6104965  47.5986958  15.2453053  89.8411274  47.6654768  14.3666208
  45.4575634 109.1729832  93.5327721  45.4839182 109.9754143  94.0539646
  44.5792389 108.8214874  93.6784649  83.5391617  30.6218386  92.4901772
  82.8557587  31.1337543  92.0575905  84.1919422  31.2696815  92.7555275
  30.5893779 111.7489719  96.7749596  30.5464721 111.1992264  97.5573730
  29.7138309 111.6901684  96.3926125  13.9929092  61.0471869  22.3116112
  13.4978640  61.8623590  22.3931599  14.3479645  61.0704613  21.4230037
  76.2659979  25.7219720  73.6203194  75.7841253  24.9002743  73.7143707
  75.9305429  26.2781763  74.3234110  17.3710072  63.4856892   1.4987461
  16.8578959  64.2019463   1.8728110  16.7234004  62.8151464   1.2814765
 115.9183121  78.0143118  16.1125016 116.8489170  77.9910231  15.8896506
 115.6103039  77.1230364  15.9482002  10.4098642  53.7562609  10.3256702
  10.2593994  52.9529333  10.8239281  11.3235891  53.6974192  10.0466084
  27.9776955  56.5764236  13.7847555  27.5378394  57.3236322  13.3792377
  28.7316442  56.4068794  13.2199156  38.1510592 107.9928017  95.6969357
  37.7800012 108.2166767  96.5504169  38.0977654 108.8043976  95.1922607
  22.6190257  51.8037319  11.5218508  22.4267268  52.7311754  11.6600680
  23.5739684  51.7621088  11.4710212  85.4063892  28.5768890  68.8386297
  84.4958687  28.3749819  69.0540457  85.6460857  29.2779875  69.4446325
 112.4581528  59.7840881  15.6125140 112.1014309  60.4192877  14.9916232
 112.4746990  58.9587831  15.1279259   3.6719275  43.3519983   1.5106799
   3.5317966  42.8455448   2.3107424   4.4447875  42.9555273   1.1085214
  15.8423769  52.7594137   1.2682158  16.1956906  51.9338131   0.9368754
  15.7427728  53.3070135   0.4894705  33.3486104  97.5268364   6.2255985
  33.5000062  97.8375149   7.1182299  33.2287931  98.3251476   5.7112324
 100.7925701   4.8766938  88.1355762 100.9179306   4.1967756  87.4735928
 101.0128880   4.4488829  88.9630222  95.5740070  18.7370408  95.7099438
  96.1141777  19.4186068  96.1098289  95.9358788  18.6299884  94.8302746
   9.6200567  82.0706463   7.7959299  10.0089443  81.1974907   7.7449781
   9.2897832  82.2376251   6.9131672 114.6971321  73.3422899  34.2021823
 115.1972103  72.5540590  33.9904261 114.0243149  73.0421162  34.8132873
 118.0567646  71.0120201  24.1358805 117.9751301  71.8988562  23.7850428
 118.7744236  70.6220961  23.6367226  77.5005865  16.6090417  95.5470371
  77.0211411  15.8632696  95.1862144  77.4467802  16.4921379  96.4955425
   3.4568670  53.3161545  32.4232674   3.7555620  52.5403643  32.8977847
   3.6198312  53.1112623  31.5025640 102.8464127  34.2680264  89.2041779
 103.4314251  34.2186546  89.9601841 102.2199726  34.9554491  89.4305706
  14.4951999  90.6774235   1.8683565  14.0152538  90.1257324   2.4860294
  15.1634657  90.0994110   1.5001789  84.1425514  34.4306326  95.7847691
  84.4820023  35.2678680  96.1010647  84.0352440  33.9016676  96.5752888
  62.8145981  13.3812177  95.1775360  62.6521587  14.3062878  95.3621769
  61.9605494  13.0350971  94.9186230  88.2020855  32.4881887  71.4821339
  87.3533726  32.1177745  71.2398338  88.8119316  32.1327400  70.8356142
   9.0907842  55.9988070  18.2544851   9.3155283  56.8639326  17.9120171
   8.9052165  55.4738045  17.4759161   8.5722470  92.4332619  20.0628734
   7.8836989  92.4566841  20.7273936   9.1777623  91.7581177  20.3690767
  71.6975594  11.0427451  93.3870316  72.0452976  10.5756843  92.6273155
  72.4656630  11.2249315  93.9283752  77.6092434  33.6311841  96.2897682
  77.9586554  33.0830288  96.9923878  77.2749805  33.0086660  95.6440353
   5.3664958  79.2460966   5.7506460   6.2078512  78.8112402   5.6118882
   4.8377383  78.6006069   6.2196797   5.6140786  70.6814146   8.1855267
   4.7572714  71.0809851   8.3353728   6.1825067  71.0792303   8.8449669
 113.4348297  75.5201769  30.8656359 112.6141834  75.8341980  31.2453270
 113.6832809  76.1985922  30.2377391   9.7128040  88.4964561  30.5642223
   9.7718698  87.7808857  31.1972284  10.6126571  88.6262512  30.2648091
  96.0257816  10.2318859  64.0185595  96.4949512  10.8001721  64.6294308
  95.1122475  10.5094600  64.0866613   1.3438609  78.8136768  35.4734182
   1.3089412  78.5741043  34.5473409   1.6805778  78.0315590  35.9106159
  15.2769399  85.6141186  12.3382998  15.7656670  86.0084820  11.6159034
  15.4699016  84.6786785  12.2755384 107.1843624  67.1451855   6.3886243
 107.0685387  67.5133324   5.5126762 106.9542789  67.8606176   6.9814593
  80.1311684  19.9439812  87.6159954  79.2267132  20.1849794  87.4157143
  80.5493927  19.8509502  86.7600346  75.2039617   8.1047686  97.2774175
  76.0024160   7.8019770  96.8449731  74.6508973   7.3254307  97.3320790
  30.4855490  82.7541065   6.7896938  30.7464743  82.8624249   7.7042526
  29.5288444  82.7779102   6.8091452  27.4555945  79.7798014  95.4468536
  26.9930720  80.4027081  96.0074711  27.7303529  79.0812302  96.0407734
  94.6787834  67.8735256   1.0196673  94.9514389  66.9961023   1.2880310
  93.7320518  67.8836775   1.1604689 114.4915771  62.4931479  11.3004386
 114.2886925  62.0370197  12.1171498 113.6416245  62.6178360  10.8782232
   0.0300309  61.9457722  18.2339156   0.1300201  62.4922037  17.4544013
   0.5961562  61.1911774  18.0716753   8.8827318  42.2763109  17.0561016
   8.1427294  41.6691637  17.0554423   8.4831196  43.1408644  17.1514332
  10.2500653  46.5115690   0.3630017  10.8555555  47.2320414   0.5377554
   9.6630955  46.5032673   1.1190630  39.2403579  98.2990360  92.7778625
  38.7996912  99.0853882  93.0998802  39.8765779  98.6247540  92.1411800
 110.5313396  90.9938145  36.7919230 110.2151108  90.3455257  37.4211740
 110.8993435  91.6927242  37.3325849  16.4783072  84.3870640   1.9044556
  17.0758283  83.6898136   1.6341980  15.6717670  84.2127228   1.4193466
  89.5683575  42.3415184  19.7992861  89.6516037  41.3895941  19.7431958
  88.7217045  42.4833679  20.2227139   3.6452642  73.4907389  30.3851843
   3.4549782  72.5602865  30.2656841   3.3639914  73.8997698  29.5667648
   9.4230705  27.7847958  89.1643143   9.4775814  28.1406879  88.2774162
   8.4965485  27.8552723  89.3941498  39.8611259 104.9739647  91.0131550
  39.2753005 105.0990963  91.7597389  39.2954040 104.6363449  90.3187466
  66.3856077  15.9012663  92.5383663  66.5238333  14.9658036  92.3899269
  65.6234026  16.1188650  92.0017815   0.6913541  90.2824306  37.3080730
   1.0019407  89.5337105  36.7989779   1.4327531  90.5165291  37.8664279
 100.1623154  57.2196531  10.9781396 100.1167679  58.1451941  11.2179971
  99.5756435  57.1379423  10.2262247 116.8600845  60.8322668   5.3861582
 116.5530586  61.0932589   4.5179135 117.2364998  61.6303873   5.7570165
  91.1854362  15.5015028  77.1070194  90.2897263  15.8339894  77.0487833
  91.0949898  14.6394479  77.5131178  89.6835995  21.4322829  77.0875311
  88.9767551  21.7862463  77.6272631  90.2814674  21.0238504  77.7136087
  55.1594305   8.3727294  92.2368717  55.0861549   7.6694369  91.5917015
  55.5255461   9.1094482  91.7475510 118.4363556  10.3288043  93.0918503
 118.3115864  10.1837265  92.1539688 118.9232826   9.5606631  93.3903408
 117.3563480  43.5890007   4.1571328 116.8515968  42.9347658   3.6739913
 117.8192139  43.0869627   4.8279101  11.5623927  77.5883389  22.1884656
  12.2978699  77.9816580  22.6581526  11.9217443  76.7862463  21.8093252
 107.1905422  78.0045557   8.5957223 107.3411942  77.1517754   9.0035278
 108.0676270  78.3616161   8.4561944  29.9923515  65.3283548   9.8081893
  29.7964430  65.1333857  10.7246161  29.4244003  64.7394705   9.3113232
  16.8338370  81.4102840   7.0217621  17.2351372  80.5999184   6.7079240
  17.0502543  82.0595455   6.3525379  16.7372215  63.8661909  15.3553283
  16.8212712  64.5368099  16.0331452  17.3469031  64.1403627  14.6702361
  12.6309133  57.2993851  26.6338205  12.7780032  57.9262400  27.3420930
  12.7418137  57.8122044  25.8332276 118.2349873  38.3652115   4.3602484
 118.9815521  38.7706900   3.9192778 117.8475285  37.7929425   3.6979675
  25.1447558 110.1324940  90.4555035  25.5679464 110.9557724  90.6991482
  25.8638120 109.5689392  90.1698685 118.5854244  64.8527765   1.0252345
 118.3743668  64.6049500   1.9253848 118.9012432  64.0441561   0.6219652
  21.8955278  64.8664093   8.0577493  21.9087768  65.2863264   7.1976763
  22.4331331  64.0818691   7.9495513 112.3793221  81.0615730  27.3087311
 111.9941044  81.1080551  26.4336991 113.2605076  80.7167149  27.1644902
 108.3244324  83.1927204   3.3126757 107.4813080  82.7476692   3.2271954
 108.6956501  83.1740093   2.4305899   1.4614317  69.8776674  15.7610118
   0.6694239  69.4556665  16.0939884   1.7781915  69.2871332  15.0775158
  16.9319367  77.8385878  10.0882304  17.1143925  78.4973097  10.7583261
  17.6741457  77.8969812   9.4866079  90.4687405  18.0453181  85.6655312
  91.3975906  17.9215479  85.8608627  90.2945805  17.4456739  84.9400425
 105.5708981  75.5389738  14.9233067 105.5181789  75.7503796  15.8553803
 105.3996563  74.5981646  14.8810375   0.1208592  29.4200683  91.3691616
  -0.6560825  29.3113303  91.9175911   0.5641773  28.5727572  91.4111710
  98.8200283  23.6229610  76.4641047  98.7620831  23.5398936  77.4159336
  97.9596519  23.9482880  76.1992598  84.7900581  14.3410528  85.3061962
  85.4707050  15.0024545  85.1817131  84.3117619  14.3305993  84.4771290
  10.1151347  62.5300074   9.3793517   9.1649145  62.4747849   9.2780411
  10.4402721  62.7065134   8.4965372  14.1740060  68.4153318  17.7217567
  15.0992239  68.4003067  17.9666579  14.1791046  68.3911753  16.7648745
 101.4196110  28.0590034  77.0562840 101.5405369  28.4193087  77.9347992
 101.4130688  28.8248539  76.4821196  52.5576353 112.1730518  93.3069229
  51.6731930 112.0415592  92.9652882  52.8560781 111.2948322  93.5433578
 112.7588558  29.1395783  67.8474188 112.5120354  28.2149529  67.8669596
 112.6000309  29.4108176  66.9432974  98.7532043  10.1225328  75.9261703
  99.2893696  10.5267119  76.6083717  98.1192970  10.7989001  75.6875944
  27.9147124  77.1433067  22.8052974  28.4846687  76.3744402  22.7902246
  27.5611806  77.1968222  21.9173884  80.9671879  20.8648491  93.3340549
  80.9567547  20.4093266  94.1758537  81.8922615  21.0518599  93.1743717
 101.5186787   5.1413590  95.1923752 102.2896385   5.0565451  95.7533264
 101.4156818   4.2768723  94.7945213   9.5367682  71.7035675  15.1624072
  10.2412617  71.6987228  15.8104026   9.8354715  72.3141098  14.4884264
  83.7005043  20.9703588  92.2453690  83.7388897  21.9266009  92.2644329
  84.5477676  20.6897020  92.5912285  80.9593296  14.3517518  66.4634418
  81.4213753  13.9470911  65.7292795  80.3233719  13.6916780  66.7393017
  97.8823853  33.7102461  63.0507088  98.4198856  34.0705252  62.3453569
  97.7271748  32.8014708  62.7932835 116.6934490   2.2310828  78.3386946
 117.2856903   1.9826680  79.0484619 116.7433453   1.5030554  77.7192450
  32.2204304  92.7225685   1.5248664  32.7254748  93.4930038   1.2648813
  31.6161394  93.0465221   2.1927908   7.4935728  46.1764717  25.2549005
   7.4272180  46.9313145  25.8397412   7.4386168  45.4177666  25.8359122
  12.2301078  74.9523640  16.8096066  12.6941383  75.4613924  16.1449289
  12.1195853  75.5588675  17.5418448  26.6222954  51.8942451  21.2165713
  27.1915674  52.0786619  21.9636679  25.7365823  52.0418549  21.5481639
  92.4381351  33.8967586  86.7256260  93.1171131  33.9198184  87.3999405
  92.6770115  33.1544733  86.1704922  89.2984676  12.5243282  96.0043144
  89.6545982  12.2000134  96.8314934  89.7539997  12.0173323  95.3322506
  20.4227757  62.7802992  11.8368185  20.3387904  63.6119318  11.3703775
  20.0536203  62.1313620  11.2377870  10.8118343  67.6936102   1.1079472
  10.5517817  67.8088856   2.0219040  11.2349057  66.8352699   1.0857389
 103.4484863  14.9779308  80.7335567 103.3664608  15.8180130  81.1849594
 104.3696594  14.9326181  80.4773808  10.9921396  59.7504711   0.2779975
  11.9197619  59.6232319   0.4768907  10.5361497  59.1504383   0.8681349
  89.9325657  37.2540307  75.5605459  89.4662857  38.0732894  75.3943157
  89.2919922  36.5700340  75.3654909  47.4821615  57.7324533   6.2316537
  47.6767731  57.6506567   5.2980220  47.9942703  58.4888649   6.5176880
  83.2528114  26.3916683  67.3315763  82.8618050  25.6176138  67.7367783
  82.5240707  27.0044374  67.2331524  98.3667278  23.5520649  97.1230602
  99.1678333  23.7006021  96.6206741  98.6503315  23.5704756  98.0370903
   2.5888169  86.5660191  11.7853665   2.5183958  87.0833397  12.5876474
   1.9874679  85.8334255  11.9192064  82.5902271  34.2361283  86.4337063
  83.4237480  34.2196894  86.9040298  81.9295597  34.3274188  87.1203041
  47.2762156  55.0573921  15.2753758  48.0344534  55.6308413  15.3870106
  46.5223408  55.6454182  15.3215420  91.3664818  15.4939294  84.4067001
  91.9886017  15.5930865  83.6860275  91.4432621  14.5753622  84.6647167
  10.7189476  62.5646734   6.8199456  10.4518485  61.7051792   6.4941281
  11.6418576  62.6368809   6.5765232  76.6304445  12.6192009  64.7961092
  76.1645079  12.2749674  65.5581093  77.3481655  12.0017529  64.6551752
  96.4915943  38.3492732  86.9870377  96.0108376  38.2525039  86.1649990
  96.4742661  39.2895555  87.1653652 110.3215694   5.6011903  94.3090153
 111.1421299   5.8123475  93.8636875 109.9680519   6.4500409  94.5749378
  98.5338020  31.3658261  86.5138245  99.4747734  31.5271544  86.5828419
  98.4131241  31.0282779  85.6262875  11.2871850  37.9422808  77.2653103
  10.9086394  37.1207976  77.5785160  11.3435650  37.8334355  76.3159895
 104.3154430  12.2586703  81.6142654 103.7812901  12.8868413  81.1281300
 104.7072983  11.7045426  80.9392643 106.3677025  15.6603825  90.1036167
 107.0489883  15.9540403  89.4987679 106.1314964  16.4454198  90.5977440
  18.8503933  68.3090496   0.0821306  19.5728922  68.1854582  -0.5334605
  19.1010988  67.7976799   0.8514667  78.6557484  12.4985528  80.6185246
  78.2479191  11.6492260  80.7874870  78.3021927  13.0733120  81.2974072
  17.4928749  75.9978485   2.1121004  18.2515073  75.6168318   2.5542912
  16.7586231  75.4429913   2.3752350  71.2397194  29.1421437  73.7679720
  70.7462549  28.9768410  72.9646015  70.7467794  28.6859798  74.4499922
 105.6400681   0.2443078  88.7551975 105.5978489   0.1190732  87.8071690
 106.4496899   0.7351075  88.8961411  97.6078987  17.8548157  78.7624741
  97.3274994  18.7037289  79.1044521  97.7986813  18.0197465  77.8390932
  87.8586483  37.2847462  87.7425957  88.1231117  36.4001369  87.9950905
  87.7421474  37.7461362  88.5731316  36.1245275  83.0489063   9.3471909
  35.8039689  82.6582432   8.5342616  37.0186019  83.3241177   9.1443968
 100.9208298  29.2750263  79.5280886 100.2828026  29.9461269  79.2856598
 101.3757801  29.6400905  80.2870274  21.5330863  68.0631161  33.7627411
  21.5434527  68.7816286  33.1303954  20.8130360  68.2766819  34.3561625
  90.0382710  29.3002844  79.8046780  90.1102448  29.5581865  80.7236671
  90.6740475  28.5918140  79.7042322 107.1306133   7.6412547  66.4442396
 107.1074963   8.5248995  66.8114853 106.3005924   7.2480500  66.7138243
 100.1486778  15.2223766  90.3896141  99.3193817  15.6888747  90.2852917
 100.6641006  15.4759490  89.6239281  75.5023766  54.2634487  93.2326889
  76.3244390  54.7216845  93.4072208  75.7587481  53.5006142  92.7144337
 109.9667072  10.8103669  96.2211895 109.1879559  11.1554253  95.7844830
 109.7175217  10.7508314  97.1434689  79.2976332  22.6317787  86.1479950
  79.7281122  22.4014854  85.3246593  78.3831882  22.7798080  85.9069347
  47.6474714 107.8340530  94.3403912  47.5356007 107.9484463  95.2841282
  46.8701077 108.2394123  93.9561749 105.9594822  12.2007740  79.2344999
 106.9163132  12.2134566  79.2111683 105.7009506  11.9818401  78.3392572
  19.9682486  76.2293196  20.1816702  19.9899578  77.0405054  19.6739948
  19.2374349  76.3461590  20.7887030  79.8021841 112.0159245  97.0767021
  78.8809538 112.2653294  97.0034981  79.8178053 111.3585949  97.7723408
  30.0889039  74.8363829   3.4313196  29.5306087  75.1669455   4.1350719
  30.9811926  75.0025606   3.7353575  42.9280329  67.4953142  -0.0440958
  43.6568758  67.2381834   0.5206224  42.6018817  68.3085922   0.3411790
  96.8555164  29.5067549  96.9177437  97.3925400  30.2758908  97.1081924
  96.4567661  29.2791200  97.7576351  36.7967200  60.4999495  16.3135791
  37.5044751  60.1011038  16.8197775  36.3839817  61.1136150  16.9212759
  85.6819534   5.0369078  91.5757942  85.5670166   5.0407130  90.6255245
  86.1017799   4.1972899  91.7629051  12.9906952  99.8556614  14.3962359
  13.0201936  99.6501637  13.4618199  13.9030910 100.0204754  14.6341443
  66.9564104  34.9236465  81.8767929  66.0460186  34.7312832  82.1013260
  67.0237017  35.8760715  81.9445324 110.9495735  48.5324383  93.2802677
 110.3539467  49.1049719  93.7636566 111.8229103  48.7951279  93.5709763
  84.4476032  50.3932238  41.5545797  83.5605049  50.3777790  41.1953306
  84.9412537  49.7893429  40.9997272  12.1151257  82.1311760  10.9428930
  12.6150966  81.5049267  11.4664114  12.6804447  82.3231220  10.1946962
  94.8208904  23.0789423  86.2868118  94.3406105  23.4560513  87.0239353
  94.2309475  23.1798172  85.5397987  10.2807915  56.3753653  26.7891598
   9.9504739  56.2996531  25.8939552  11.2210250  56.5221119  26.6859150
 116.2655258  54.7638321  13.4778392 116.4277458  54.3988895  12.6079345
 115.3395557  55.0060892  13.4670830  92.5710392   6.9792026  92.7760315
  93.4202099   7.0556962  93.2111168  92.7679825   6.5597385  91.9384766
  35.1997876 108.3598328  10.8217859  34.2593956 108.4622955  10.9680557
  35.3064966 107.4382782  10.5860019 118.6301708  57.8642321   0.9875309
 118.1357765  57.9581499   1.8017715 117.9695892  57.6461792   0.3300245
  32.4372888  65.2892780   0.7210689  32.5454617  65.7740021  -0.0972061
  32.8665018  64.4489622   0.5602062 112.3330021  38.3588815  88.9950943
 111.6772461  37.7034569  88.7571049 112.7039146  38.0389667  89.8174763
   4.4544315  57.5990391   8.6923236   4.5420814  56.9171429   8.0263156
   5.1456523  57.4055910   9.3255877  29.0158486  37.3426342  20.1707959
  28.1971741  36.8704820  20.0188875  29.6434951  36.9310284  19.5767641
  20.2166939  91.8979073   5.8773011  20.4894233  92.7772427   6.1392421
  20.4962492  91.8222523   4.9649659  95.6827545  28.6528325  79.4411993
  95.6964397  28.6358976  80.3981495  96.1865520  27.8817272  79.1807795
 106.0748386   0.4217891  77.4699068 106.2452984  -0.0650832  78.2762146
 106.7901802   1.0556071  77.4170637  28.7477732  63.7551689  18.2808506
  29.6744370  63.9860582  18.3457601  28.7157631  63.0816984  17.6014078
 104.1132164 100.3483105   3.6957139 103.3208942 100.7968426   3.4002799
 104.7958183 101.0182953   3.6582243  35.0793290  74.1499710   4.6804282
  35.8122659  74.7225618   4.9066445  35.3896213  73.2692528   4.8908809
  95.7512951  57.1864796  96.5583801  95.7398605  57.7715635  97.3158646
  95.7523060  56.3066339  96.9353390  97.5061989  18.5561359  76.1553097
  98.1886387  18.9763927  75.6319523  96.6917133  18.9597273  75.8553934
  11.7646360  73.0555773  31.3492060  12.3184133  73.7913704  31.6102958
  12.2407973  72.2801924  31.6463280  91.2564087  13.1000793  85.4129314
  90.5673504  13.0828679  86.0771179  91.8928051  12.4502349  85.7111454
  74.3975878  56.6890383  91.3967228  74.9176979  55.9159756  91.6160202
  74.4768429  56.7692709  90.4461861  16.2375617 101.7438126   8.8048208
  16.4090776 102.2808647   9.5783776  15.2838552 101.7389774   8.7232596
  52.4629450 104.8568439  85.5318928  53.0345297 104.0929604  85.6094646
  51.5944958 104.4902515  85.3656387  93.5513878  25.3666782  90.2877426
  93.0945110  25.0862288  91.0807323  93.5386086  26.3228846  90.3294373
  18.8040471  92.1960640  19.0961087  18.1533003  91.9853210  19.7656941
  18.9409971  93.1393623  19.1837108 117.8935623  72.2213650  35.8048558
 118.5276318  71.9908524  36.4838696 117.8763008  71.4600611  35.2248979
  20.2812576  71.3478518  13.5658193  19.8465252  70.7266521  12.9815638
  19.5684004  71.8709707  13.9324379  26.3140798  74.1704035  13.0044460
  26.3434458  75.0030899  13.4756196  26.6247058  73.5248852  13.6393094
  12.0659435  74.1500950   7.7423310  11.9151354  74.3948364   6.8293202
  11.6906488  74.8705912   8.2485634  99.2027187  44.4234562  74.2409611
  98.7667084  44.2384386  75.0727606  98.4978390  44.7076845  73.6590767
  69.9129152  24.4133759   6.1746901  69.9331379  23.4669924   6.3167453
  70.7339716  24.6051502   5.7215625  85.4553413   4.7711968  79.1394711
  85.2120876   5.6543040  79.4172907  86.3936424   4.8269412  78.9585972
  33.2959247 110.8933353  77.6441574  34.1500974 111.1044025  77.2672319
  33.4744477 110.1809502  78.2580519   7.2609478  60.3502893  31.0031247
   6.9707596  60.0844336  31.8756747   6.7215449  59.8344421  30.4038119
  18.5331345  79.4101858  15.0866807  19.2784238  79.4420433  14.4868803
  18.0063891  78.6741066  14.7752976  28.8877034  66.5390730   4.6556556
  28.0769587  66.4727259   4.1511509  29.5731950  66.6399288   3.9952299
 111.1768436  15.8976364  84.4555759 111.7509842  16.0470545  85.2067566
 110.2918625  15.9902883  84.8083496  87.1064758  15.9653413  79.4908047
  86.8140221  16.4272833  80.2764988  87.7052212  15.2934825  79.8168945
  85.8939743  14.6410263  77.5281620  86.1801529  15.1101363  78.3119154
  86.4578915  13.8684106  77.4921846   3.1595281  65.5530024   1.5424353
   3.3948654  66.4784718   1.4764650   3.9986384  65.0925112   1.5509608
  90.5802059  23.9744782  89.3681622  91.2281513  24.1782713  88.6937237
  89.8638916  23.5536432  88.8927460 102.8010464  22.2932959  84.7803497
 103.2677460  21.7398405  84.1541576 102.9301357  21.8611479  85.6246281
  20.2266312  79.2349195  22.5030375  20.4662800  80.1616287  22.5002265
  19.6074343  79.1498518  23.2280135   1.4333515  99.3751240   2.9642466
   1.3059379  98.5467052   3.4265435   2.3763549  99.4184208   2.8058112
  38.2524371  89.3434525  18.0358994  38.2675767  90.2650928  17.7778745
  38.5240793  89.3472004  18.9537382  37.0699549  89.2557526   2.4149916
  36.4485645  88.5848618   2.1321438  37.1360707  89.8510361   1.6683280
 105.3471851   3.0770472  90.6275749 106.1134624   2.5268918  90.4651642
 104.9633694   3.2148147  89.7615814   7.0732516  97.7990341  31.9589138
   7.8529227  98.3363247  31.8186808   6.8458474  97.9421139  32.8776360
 107.5683022  12.3281157  95.5121326 106.6429996  12.1780312  95.7058430
 107.6414299  13.2773995  95.4134178   3.7283036  66.5421534   6.2151855
   3.0386424  67.0067501   5.7411087   4.3741852  67.2178459   6.4213651
  98.6654186  44.3335867  87.3404312  98.6721516  45.1382399  86.8220520
  97.7369976  44.1371918  87.4657726  70.4480600   5.6912136  91.5239906
  70.6862116   4.8754930  91.0834026  71.1537266   5.8381039  92.1538258
  98.6297798  11.9526541  82.7148438  98.0785275  11.5703821  82.0320320
  99.5251751  11.7703569  82.4297905 108.1988144  41.9356346  89.4021702
 109.0102768  41.6317463  88.9954472 107.7080917  41.1344814  89.5853806
  93.3239460  44.1008759  92.2154808  93.0649662  43.7989902  91.3448334
  92.4969387  44.2839670  92.6613140  26.8318415  72.0690632  17.6743126
  26.6217804  72.9670763  17.9305851  27.3136497  71.7133713  18.4210229
  94.1701698  13.7266159  69.3108749  93.2159138  13.6751556  69.2562866
  94.3473053  14.6340060  69.5588684  90.3480339  16.8308258  96.6488171
  90.7481766  16.0027027  96.9140053  90.7692432  17.0445955  95.8162785
  10.7199943  65.0234795   3.9774728  10.4291642  65.9276485   4.0963241
  10.7105064  64.8914814   3.0294654  95.7645798  28.4691358  82.0981121
  95.4957485  29.2728639  82.5430584  96.7170143  28.5386324  82.0327759
  19.8989940 100.8855247   3.9167714  19.6609235 101.0945892   4.8200125
  20.7705402 100.4953289   3.9829853 101.6548634  22.7541375  72.3177576
 100.8172321  22.4039745  72.0144510 101.4200878  23.3666635  73.0148411
  85.8442307  14.4167113  91.6052818  85.7127380  14.6273959  92.5296974
  85.4836559  15.1682305  91.1347103 115.5464935   5.5263138  92.6572227
 115.8154678   6.0605174  93.4045506 116.1222267   4.7622955  92.6893616
  81.2743568  21.8437958  80.6036758  80.4717922  22.3294854  80.4133511
  81.6833210  22.3285031  81.3206387  83.0087662  40.8420134  96.5724659
  82.3456383  40.6974602  95.8974934  83.3271980  39.9652076  96.7870522
   3.1047574  76.4172840   3.4827647   3.7404823  77.1322346   3.5132599
   2.9325351  76.2105703   4.4013733 112.0245838  39.7025204  57.0050478
 111.8991089  38.7826133  56.7721033 111.7220211  39.7635722  57.9111147
  38.0721736 103.3438969  93.0018616  37.2945666 103.7588978  92.6285839
  38.4506822 104.0133190  93.5717964 100.8812714  45.0588131  69.9410343
 100.1206875  45.6339025  69.8572779 101.4738750  45.5292892  70.5272961
  90.5119514  16.6592157  66.3368368  90.9048462  16.8943536  65.4962587
  90.6331921  15.7119131  66.4012575 106.6702461  29.6830773  83.7265778
 106.3478756  30.4111934  84.2577648 105.8838081  29.3116212  83.3268642
 104.2069626  35.5548096  95.4382133 103.2856560  35.3074813  95.3590870
 104.5390511  35.0151753  96.1556721 102.5353336  17.4073327  81.9569206
 102.5775909  17.9498398  81.1694336 101.6006851  17.2476482  82.0878887
  77.7849483   9.9248636  80.7324314  78.0469513   9.0135801  80.6014824
  76.8723106   9.9552971  80.4453659  35.4566860 108.5323811  89.0345097
  35.7549357 108.0348396  89.7959042  35.2505732 107.8661919  88.3788109
  91.7344284  21.9530773  68.9206553  91.4178371  21.1725068  68.4660006
  92.6600933  21.7746711  69.0866423   9.0495747 104.7600174  13.7969005
   8.7139022 104.5112610  14.6581078   8.2662529 104.8797798  13.2599699
   9.7715390  94.7734070   5.1022732   9.9187952  93.9891434   5.6309342
   9.3364769  95.3847027   5.6966400  -0.0027053  31.5876794  73.5509539
   0.8518039  32.0188570  73.5394287   0.1043115  30.8602643  74.1638517
  10.6965983  99.7559357   3.4954047  10.1846755  99.0646935   3.9153358
  10.0490224 100.2824783   3.0267483 114.1074276  53.7437868  79.3330240
 115.0355530  53.5350418  79.2270422 114.0644073  54.6958876  79.2442322
   9.1738701  37.4131417  84.7110462   9.5952481  37.9321218  84.0259647
   9.4984150  37.7884316  85.5296135   0.2131375  27.2996068  93.8148308
   1.1467017  27.3133826  94.0257835  -0.1786746  27.9283714  94.4209480
  37.7481127 102.0488167   8.0405688  38.3504152 101.8088627   7.3363781
  37.2067595 101.2698555   8.1685448  42.2314882 101.5947914  29.6024203
  41.6461182 101.4992523  28.8511229  41.9292784 100.9352970  30.2269006
 104.7804451  28.3481216  87.8785515 105.6071949  27.9525137  88.1546021
 104.5382309  28.9262509  88.6019707   1.9286023  24.0685415  94.1857624
   2.0664099  23.3546114  94.8082924   1.0672992  23.8930058  93.8068485
 117.7726936  40.5920267  83.5679150 116.8538475  40.6623173  83.8268089
 117.8208065  39.7725344  83.0756283 104.5719624  28.4917784  76.1685991
 103.7597847  28.6128736  76.6604662 104.6933746  29.3173862  75.6997061
  31.5181804  95.5136776  10.1790774  31.3009000  95.7752228  11.0738480
  31.6009951  94.5610142  10.2214348 112.7034187  41.9102287  77.2701216
 113.3546257  41.2090111  77.2488832 113.1951904  42.7006340  77.0473003
  42.9353762  80.6848240  18.2647896  43.4529781  80.2038479  18.9105272
  43.2802773  81.5771103  18.2979095 117.6428986  61.1773300  83.8085175
 118.5722733  61.2848091  84.0108871 117.4964333  60.2323198  83.8501930
  66.6156673 108.5067940  71.4051533  67.0540667 108.2649231  72.2209597
  66.0493374 109.2399883  71.6458464   7.6230222  32.2963047  93.0418587
   7.6720262  31.8139029  93.8671589   7.7571470  33.2108235  93.2906532
 107.3683834  30.1465821  91.0990620 107.9779148  30.6906080  90.6003284
 106.8181801  30.7728624  91.5694618  20.7975221  65.3350592  93.1540680
  20.6832600  65.6854582  92.2706604  20.5077505  66.0415173  93.7312794
  36.8697381  66.1347246   1.8467759  36.0438728  66.2773466   2.3092028
  37.2925115  66.9934845   1.8411936  37.9471231  74.8100185  27.8896356
  37.1491265  75.2732372  27.6349592  38.4521818  74.7397900  27.0795631
  28.3734465 104.3521309  13.8649547  28.4834456 103.9460850  14.7247541
  29.2240167 104.2453861  13.4390807  36.9366527  98.3874226  27.6569247
  37.4372745  98.0867863  28.4153581  36.0310030  98.4195042  27.9651523
 116.5606022  46.8197250  95.2827930 116.6096973  46.8242931  94.3268585
 116.9537544  47.6515675  95.5467892  89.0160847  31.8375325  95.8555126
  88.2290554  32.1608067  96.2940407  89.5992184  32.5957870  95.8202934
  16.0689855  91.2991142   6.1161411  15.6486607  91.7386150   5.3769583
  15.3955734  91.2769318   6.7960352  26.6896272 101.8691540  12.2262156
  27.4492455 102.2788143  11.8122196  26.5868330 101.0357666  11.7667246
   0.2467326  15.1349914  92.6188660   0.7127837  15.4778469  93.3814144
   0.1263312  14.2048323  92.8100109 106.1878967  32.0903945  88.9170837
 105.7143784  32.4581981  88.1709385 105.6009865  31.4196420  89.2661667
 107.5609589  45.5226374  93.0442619 108.2959080  46.0074854  92.6687431
 107.2658062  44.9493122  92.3368645  64.2032051  96.2197685   1.0404730
  64.7260618  96.7973042   1.5966171  64.2305279  95.3716183   1.4833342
  19.9165964  79.4061422   2.3639509  20.6293344  79.9809980   2.0850722
  20.2650189  78.9456940   3.1273785  52.5508547  81.4467144   8.8774931
  52.5015736  82.3873425   9.0478218  51.6392756  81.1547375   8.8801885
 113.0604935  36.5790391  76.3807297 113.8188553  37.1249247  76.1730528
 112.7683926  36.2425566  75.5335617  40.2339602  73.1617498  24.0524936
  40.0412798  72.8020382  24.9183536  39.4796085  72.9150963  23.5173798
  33.0572057  89.9322510  23.0977821  32.2569084  89.5113564  23.4118032
  33.7600064  89.5076942  23.5897732   4.0620196 104.5864964  35.8371592
   3.3801430 104.7760105  36.4816451   3.5842121 104.2841911  35.0647974
  49.4465017 100.6887531   6.0554814  49.5193243 100.2649307   5.2003211
  48.6358261 100.3408432   6.4269650  24.6032667  96.5353680  15.7616889
  24.5802450  97.4371719  16.0817611  23.6927199  96.3347530  15.5451405
 114.0218449  30.8175492  85.1831913 113.5538483  30.1497579  85.6844616
 114.8719692  30.4214478  84.9918365  23.8488936 103.5457134   9.6165979
  23.5402346 103.9713573   8.8167286  24.0766025 102.6572895   9.3425852
  48.8344908  88.5660362  12.7851737  49.4814253  88.2217979  12.1693707
  48.0319405  88.0850315  12.5832295  27.5338602  79.8105860  22.5924206
  27.7046204  78.9412069  22.9547048  26.6704559  79.7353840  22.1860886
  78.7228537  48.9606714  88.0705643  77.9360533  49.3188477  88.4815311
  78.8288927  49.4731331  87.2690868  46.7122412  82.5953484  32.1239614
  46.7694139  83.5329723  31.9400620  45.9022522  82.3164654  31.6969085
  78.9638090  35.0855875  75.7208920  78.5413551  34.8513579  76.5472698
  78.8035488  36.0246658  75.6277132  82.6955795   9.4886309   0.5952504
  81.8006706   9.8140049   0.6927148  83.2479477  10.2494931   0.7747281
 108.7687874  52.2277880  10.6175900 109.5914268  51.9879055  11.0441566
 108.6855984  51.6086245   9.8923707  19.5655060  97.4372482   1.0367458
  20.4562140  97.5178623   0.6956142  19.6670926  96.9630337   1.8619946
   5.1098305   2.1548353  93.0864048   5.0923711   1.4801875  93.7652111
   6.0386252   2.2667988  92.8838348  34.0986991  95.0229836   4.5697507
  33.5220194  95.7656193   4.7490942  33.7550950  94.3156528   5.1155084
   4.0422589  46.7113543  81.8356323   4.7964144  47.2306108  81.5566158
   3.9888650  46.0027742  81.1943150 106.5585518  32.8823853  72.5209141
 107.3335648  33.4238696  72.6705027 106.8922901  31.9853759  72.5061846
  53.5838079  97.9562187   5.8071393  54.1006374  97.6744938   5.0523233
  53.0547619  98.6826324   5.4774988 112.2337437 111.7046452  61.9236946
 112.1845627 110.7513332  61.8529510 111.5995026 112.0254326  61.2825489
 109.0125465  43.4397888  71.2581921 108.9945793  44.1147232  70.5796862
 109.7051334  43.7200594  71.8565321  26.8091798  54.3534565  85.6500149
  27.2319698  54.8668909  86.3383961  27.4846411  53.7408113  85.3590679
  31.2272024  69.8041105   4.8042750  31.0870409  70.7416821   4.9367383
  30.6776714  69.3839598   5.4658788  32.6061535  94.8761749  18.1142867
  31.7947412  95.0184822  18.6017168  33.2247472  95.5020142  18.4909701
 101.8365955  44.8828268  97.1734142 102.2347069  44.6652937  96.3305473
 101.2969685  45.6523037  96.9919300 105.1103973  32.6262951  92.3761177
 104.3121910  32.1737766  92.1034908 105.1172447  33.4320855  91.8595123
  47.7931881  98.3412743   6.9923466  47.1051407  98.9969826   7.1058005
  48.0183029  98.0736923   7.8833854 112.5555134  32.4546647  92.9076576
 113.2844257  32.9493380  92.5332069 112.3236847  32.9346347  93.7027168
  26.0422015  81.7287254   5.9396511  25.6545353  81.3941574   5.1309425
  25.3213525  81.7269707   6.5694171  59.6904659  75.0382757   1.9755717
  58.8621140  75.1848221   2.4322918  59.5564699  75.4200315   1.1080822
  33.9489651 100.8593941  10.5631316  34.4130421 101.4170742   9.9387509
  33.8157821 101.4171791  11.3295293  47.3535919  75.2162266  23.6826825
  47.5887680  76.0979414  23.9716530  46.9608641  74.8080683  24.4543076
  22.1273494  75.2263165  19.0510893  21.7696691  74.4752216  18.5776353
  21.3765955  75.5963135  19.5155251  36.9916330  83.4831015   0.0610467
  36.4440523  84.2212049  -0.2065161  36.3802801  82.7523509   0.1531812
  93.1283760   9.0859908  59.8670769  93.9054108   9.5124018  59.5056581
  93.3763027   8.8554198  60.7624006  13.4188378 101.8731403   8.4712011
  13.1056321 101.1460304   9.0091920  12.6757646 102.0926762   7.9091704
  80.3674412  54.2197800  96.3497639  79.4790030  54.2140532  95.9935665
  80.7634163  55.0148487  95.9929657  33.5977674  79.9075222  16.9854057
  33.4469771  79.5224333  16.1221564  32.7549100  79.8306274  17.4325168
 108.8551998  34.7814822  73.2041216 109.3641186  35.2601790  72.5498343
 108.3430958  35.4562330  73.6498642   8.5556889  94.6681213  16.5373445
   8.5299629  94.5497513  15.5878401   7.9541934  94.0058327  16.8776584
 114.7239876   8.6770147  86.9997406 114.5493698   9.5505399  87.3500156
 115.0188541   8.1701356  87.7562904  25.9910035 101.9262314   8.3961129
  26.4140534 101.4578438   7.6764745  26.6687036 102.5135136   8.7308520
  47.6003170  89.9551678   6.8244487  47.7940130  89.3878365   7.5706726
  48.4395695  90.0546646   6.3750190  19.2869461  88.4969425  28.4820580
  19.1590118  89.1709518  27.8145432  20.1497889  88.6858654  28.8508987
   4.0880719  71.9585657  11.2426329   3.1661707  71.8032074  11.4480436
   4.5275050  71.1424208  11.4814579  42.6867580 105.0811386   8.0925179
  42.2444487 105.8958244   8.3309966  42.9204369 104.6813679   8.9302605
  87.7969265  37.7386427  93.3378124  86.9749260  37.4061918  93.6984062
  87.9082966  38.5967541  93.7470436  83.5399342  44.0828419  93.6394978
  84.2438793  44.6921158  93.8619232  83.2396221  44.3685198  92.7766895
   9.6436578  89.2863464  10.4212546   9.2518514  89.5271969  11.2607265
   9.4966745  88.3431816  10.3501511 115.7304382  48.8123894  76.0947180
 116.5624619  49.2710209  76.2114191 115.9414577  48.0756283  75.5212307
  39.1565967  73.9116240   8.5230362  38.4005833  73.8220644   9.1032583
  38.9456344  73.3621073   7.7682137 111.9321346  52.2695351  77.6080036
 112.3478699  52.9448032  78.1441116 112.6522350  51.6975975  77.3423481
 112.7780724  46.6702080  89.4177246 112.4008656  45.8001280  89.2876911
 113.6722755  46.5958500  89.0844059  64.1313362 104.5242596  81.5220070
  65.0038242 104.8367310  81.2825108  63.8515520 103.9978123  80.7731342
   0.7487834  66.5807772  17.7538300   1.2722108  67.3547268  17.9618192
   1.1045991  65.8927774  18.3162212  40.9946299 110.6688976  23.0224109
  41.7855358 110.5302238  22.5013852  41.1404753 110.1593018  23.8194537
  63.4762287  72.6478195   0.4618134  63.2540131  73.1763458   1.2283059
  64.4030476  72.8294945   0.3061341   2.3818429  67.5376940  78.0545568
   2.7945712  66.7272329  77.7561617   1.4800206  67.2874022  78.2553148
  29.9729705  90.7014370  21.0497808  30.8996797  90.9352589  21.1024022
  29.6313047  91.2363148  20.3332591  22.3508024  96.5317535   4.2684278
  22.6005840  96.0438156   5.0531292  23.1752110  96.8836880   3.9326850
  49.6881580   2.6266193   8.8060397  50.5926895   2.8876716   8.6331040
  49.2447615   2.7267149   7.9636568 105.0300503  31.4305305  95.0344658
 105.8884335  31.7959666  95.2486038 104.8060036  31.8237066  94.1909885
 118.4841919  48.8061285  88.6213017 118.0593014  49.6368837  88.4078884
 119.3313599  49.0578890  88.9889336  56.2602282   2.5065383   6.2860572
  56.6817427   2.0112789   6.9883907  56.2022686   1.8877468   5.5580670
  92.9638863  34.2767859  79.1052914  92.4627590  33.4631610  79.0494204
  92.6183510  34.7181010  79.8812246  28.9823627  68.5748005   9.3324381
  28.9721918  69.1198921   8.5456681  28.5118270  67.7805042   9.0796113
  81.6020203  41.2109470  58.6676550  81.9168186  40.6413507  59.3695784
  80.7798386  41.5700912  59.0012026  37.0287704 108.1682587  27.0135665
  36.1642766 107.7576065  26.9977379  37.0424247 108.7277317  26.2370157
  38.3822584  75.9887457   3.4463298  38.3358479  75.5402565   4.2906865
  38.0206466  76.8584442   3.6168802 113.4933949  38.6965179  79.6672106
 113.5688782  38.0248475  80.3449917 114.2080688  39.3055916  79.8529434
  54.4773865 103.3628750   9.7921926  55.3079748 103.0808163   9.4090545
  54.1937208 104.0911007   9.2395192 118.0304241  16.8474388  95.3603268
 118.1521130  16.9087911  96.3077736 118.8802719  17.0910800  94.9934101
  10.1851404  43.1777906  84.2019081  10.9879947  42.8933001  83.7651920
   9.6400112  43.5273409  83.4970093  20.8416986  86.3181973   6.1488169
  21.2665939  87.0402050   5.6857783  20.4554510  86.7252827   6.9242692
 107.6038647  94.9381065   0.4792912 106.7735958  94.6368217   0.8482261
 107.3943138  95.1680088  -0.4259524  95.0371933  17.7978671  89.6433544
  94.1069889  17.9550135  89.4813156  95.1608658  16.8691087  89.4475365
 107.3543930   8.3533782  92.3763561 106.4127350   8.4105432  92.5383282
 107.6373863   9.2632192  92.2850513 116.2376976  58.0215979  86.4431381
 117.0182037  58.5604191  86.3138962 115.9089375  57.8602028  85.5587769
  46.9335175  83.9661312  11.5989447  47.8902435  83.9867115  11.6209650
  46.7232704  83.3640766  10.8851111  94.2793560  41.1134720  68.6239719
  94.2582893  41.3714123  69.5455217  95.2001953  41.1912107  68.3744955
 118.8825321   4.3155760  91.2671375 118.8369846   4.4765025  92.2096157
 118.4059143   3.4951240  91.1409473   6.5087712  26.1499667  92.5743198
   6.4279288  25.2308321  92.3195934   5.8315980  26.2746811  93.2392406
  52.2378159  85.3172684   5.9394360  53.0901718  84.9038887   5.8021706
  51.6966915  84.9955368   5.2183908  76.5855932  29.2463255  88.7109661
  76.4087057  29.7709250  87.9301167  75.7945585  29.3341208  89.2427540
   0.5811771  55.4772425  86.9652462   0.8285815  55.6330299  87.8767014
   1.1411165  56.0674000  86.4608574  15.8175766  99.6801758  14.9060571
  16.3982522  98.9351749  14.7510624  16.2578321 100.4186153  14.4852042
 110.1065063  54.9806929  96.5584564 109.3792152  54.3993616  96.3363457
 110.0602627  55.6814241  95.9080219  22.7332258  82.6710320   4.0579170
  23.1130028  83.0308914   3.2563558  23.0414224  81.7651558   4.0832669
  85.2208138   0.6847924   5.8204055  85.6659794   1.3603653   5.3088748
  85.9297466   0.1810883   6.2203103  78.2491875  52.9343796  87.4105263
  78.6698771  52.6079845  88.2059574  77.7133989  53.6698961  87.7074814
 107.6116085  26.3562536  94.1672516 108.0197144  25.5393314  93.8803387
 106.6721725  26.2031364  94.0660477  21.7702365  85.0220680  10.7996726
  22.4808240  84.8658180  11.4216697  21.3350964  85.8096981  11.1260653
 111.2451839  38.5596085  73.3104944 111.0070324  37.9752636  74.0302563
 111.1551285  38.0206275  72.5246048  35.5076575  85.4974556   6.7463458
  35.7511830  84.8604012   7.4179816  34.8807096  85.0330448   6.1918271
 106.0868454  68.6127615  84.6306896 106.7116165  68.5707426  85.3546619
 105.2511501  68.3557320  85.0202847   4.4534931  55.2573347  87.5898075
   5.3323239  55.6280184  87.6703167   4.2349809  55.3581238  86.6633511
 110.8465767  28.2514691  79.6832132 110.8919239  28.8327551  78.9240789
 109.9174500  28.2286119  79.9122095  45.9091949  87.4548435   3.5670844
  46.6766262  86.9260025   3.7852708  45.8754253  88.1221390   4.2525047
  99.1423130  24.0207195  79.4503355  98.7224197  23.7762070  80.2750397
  99.5932865  24.8421621  79.6455050  55.3404140  86.9857407  35.8404994
  55.0545502  86.6438484  34.9933743  55.7987547  86.2531376  36.2521434
  15.5962980  14.1494155  87.0208263  14.9836612  13.4168327  87.0858669
  16.4321327  13.7897575  87.3179150 102.6829243  25.7356572  88.3046341
 103.3235836  26.4457369  88.2650566 102.1371746  25.9473968  89.0619659
  98.3487415  28.9146256  94.9334908  97.6978970  29.0598702  95.6201744
  98.6901855  28.0377340  95.1087284 118.4048843  58.8343906  92.6999569
 117.5676823  59.0960169  92.3167229 118.9830875  58.7067127  91.9478893
   9.1919547  81.8502998  10.7781577   9.2330897  81.8793869   9.8222840
  10.0921321  82.0102024  11.0616052  41.7593861 107.4282932  10.3982151
  41.7249393 108.3427906  10.6788230  40.8422756 107.1758080  10.2914500
  41.2247324 110.4685879  19.1071713  40.6385994 110.1761627  18.4091973
  41.6665697 109.6710873  19.3987274 100.3242302  51.7244434  91.4957237
  99.9538898  52.1772099  90.7380486  99.6793270  51.8541908  92.1910667
 109.1189384   5.1188415  73.8243818 109.8812294   4.6057171  74.0924454
 109.3079281   6.0060394  74.1299915  73.9008236   7.2990549   4.8332736
  73.4552002   6.4522672   4.8088080  73.2239199   7.9181194   5.1067549
 108.2803917  40.0415373  79.0978765 108.1796455  40.7031012  79.7822857
 108.4239864  40.5455256  78.2968712  76.3636684  74.2064428  15.9274328
  75.4431057  74.4622469  15.8694100  76.6614199  74.1755056  15.0182474
  16.4746785   1.4426728  78.3513594  16.7205119   0.6185022  77.9311943
  16.1497653   1.9888449  77.6355696  99.9911880  36.0092449  93.0907249
  99.5128059  35.2523708  93.4291363  99.3197346  36.6793132  92.9627228
  23.7102556  30.9643483  96.0730839  24.3394589  30.3817225  95.6477833
  23.6681509  31.7302990  95.5005646 117.4535179  36.7310667  88.5481262
 117.9842854  37.5172186  88.6764717 117.0107269  36.8749332  87.7117825
   5.9130293  88.9599133  13.5154748   5.5398625  88.7989712  14.3821192
   5.6331491  88.2096386  12.9910862 113.6817837  29.2061734  80.5361938
 114.0511322  29.7739363  81.2125492 112.7969551  29.0106583  80.8445358
  33.2192659 109.0218353   2.7881372  32.4930739 108.9896584   2.1653683
  33.1616235 108.1945992   3.2662335  13.7853503  53.7593555  85.5619144
  14.5442569  53.6890793  86.1410141  14.0510893  53.3047104  84.7625923
  98.0943203 111.1196327  88.8334942  97.7730083 111.6992569  89.5241642
  97.7680969 110.2532673  89.0768528 114.3963528  31.4405012  82.3431969
 113.5728836  31.4325857  82.8311157 114.1965294  31.9278717  81.5439701
  89.2143250  67.4351072  78.4132814  89.8379326  67.0181656  79.0078449
  89.2199707  68.3575916  78.6686659 117.9789829  20.5047011  75.5585909
 117.5873089  19.8376822  74.9947548 117.3029709  20.6957531  76.2087774
 105.2581968  49.3901881  97.0562573 104.9050750  49.5872840  96.1886806
 104.5450463  48.9393576  97.5083581  72.7428818  12.5145197  21.1354780
  72.8400135  11.9928944  21.9321632  73.1289864  13.3622587  21.3556886
 103.8374329  28.9536667  85.2595043 103.9416981  29.9030733  85.1963234
 104.2762661  28.7184000  86.0770035  27.5468922  88.8609028  16.1844611
  28.4946918  88.8074684  16.0617685  27.4149656  88.6761856  17.1143579
  43.0762339 109.2833424   1.8514636  44.0235043 109.1799927   1.9421639
  42.9534388 109.5867729   0.9519719  95.0935650   3.3006215  19.0292180
  95.8458996   3.3540639  18.4398353  94.5482540   2.6064092  18.6591744
 110.6429958  32.9605675  71.5063524 110.0606918  32.2539759  71.2272644
 110.1998615  33.7611651  71.2254381 106.5356350  32.8163552  81.5109253
 105.8339310  33.4515095  81.6538429 106.1051559  32.0760369  81.0833168
   5.8166057  24.5362210  78.4898949   5.0952673  23.9653683  78.7545252
   5.8031243  24.5113301  77.5331116  15.1107454  73.1561279   9.3569386
  15.3361678  73.2069635   8.4280503  15.1718640  72.2243977   9.5675951
  36.4175701  99.5756340   8.1947607  35.9082961  99.0242100   7.6007873
  36.3674402  99.1279507   9.0393317  70.0840473   4.4209179  19.5093977
  69.6179533   4.9587378  20.1495051  71.0099697   4.5909342  19.6825981
  21.7488146 111.5970421  19.5969164  21.3344240 112.3381138  19.1549659
  21.8145490 110.9217644  18.9217055  41.9702148 104.6095467   4.6746126
  41.4520836 103.8060093   4.7204241  42.1342707 104.8411942   5.5887556
  33.2834435 106.2957573  21.7859077  33.0913806 105.3583336  21.8099427
  32.5255084 106.7062855  22.2021222   5.4586279  41.0560036  89.9384308
   5.8467156  40.1932192  90.0841141   4.6167395  40.8726358  89.5214939
  21.6689539 100.3539848  16.0040343  21.3845015 100.1135540  15.1222670
  21.3922095 101.2647247  16.1049819  44.0448523  86.3228607   1.9427249
  44.7795010  86.6419888   2.4668193  43.2701635  86.6933346   2.3656189
  43.0633879  70.1640272  17.1835828  44.0104246  70.0268602  17.1603179
  42.8918505  70.7729530  16.4652395  35.0590849  96.5515614  21.9839287
  34.4353724  96.7866611  22.6709080  34.9732089  95.6021786  21.8971467
  25.1015735  38.7838054  88.5751915  25.7139015  39.3848681  88.1509113
  24.3080068  39.3029046  88.7056446  83.5487175  45.5514956  87.8116798
  83.5206413  46.2283945  87.1354771  84.4063091  45.1403236  87.7035141
 117.3436928  67.5315523  86.2167263 116.4631844  67.1665907  86.1287880
 117.5618744  67.4106789  87.1408558  43.6772394  98.2147312   7.9631084
  44.4365406  97.6335621   7.9189837  43.0512762  97.8383541   7.3444480
  94.7779274  58.3627224  86.0055923  94.4378567  58.2161760  85.1229191
  95.3666019  59.1119480  85.9141350   7.7123398  94.1588593  82.3000145
   7.1472996  94.3322277  83.0529499   7.2217840  93.5285091  81.7725277
 114.1551018  58.7914515  72.6255274 114.7749805  58.2695723  72.1160030
 114.1572666  59.6488380  72.1999502 116.1298084   9.1176987  90.9666824
 115.2638912   8.8199431  90.6878376 116.6921902   8.3502340  90.8619785
   0.9448206  52.3158884  93.4048653   1.6077101  52.7470684  92.8655243
   0.1528962  52.3293400  92.8673649  49.0136194  89.8320293  10.1099432
  49.1786718  90.2829170  10.9380078  49.6105576  90.2476978   9.4877595
  25.7791972  98.0433464   6.2532550  25.2974868  97.7327347   5.4866314
  25.1144195  98.4611416   6.8007427  49.1819859  95.4799461  13.1827760
  49.5034981  94.9358082  12.4639034  48.7130833  94.8707676  13.7530887
  42.9757452  94.2334461   9.1684234  43.4620047  93.5590076   8.6941695
  43.5403347  95.0055790   9.1326666 110.6628132  66.5883923  80.2327538
 110.4584599  65.9275150  79.5711565 111.2559986  67.1952152  79.7898912
  63.4955692   6.4596671  28.1525826  64.0353870   5.6779414  28.2697701
  63.8830471   7.1085680  28.7399673   5.9800935 106.5895271  16.0028112
   6.4972711 107.0843983  16.6383123   6.4856416 105.7907104  15.8526862
 118.7540722  48.8184357  82.0408344 119.5167255  48.8159513  82.6192665
 118.0493355  49.1844749  82.5752354 110.2158260  54.5494652  80.1877975
 110.7218456  53.8292599  80.5639362 110.8736992  55.1308155  79.8063898
  21.3155031  65.2584314  57.9720259  21.2648129  65.5597496  57.0649052
  20.7425261  64.4922638  58.0022812   2.9461047  54.6099997  89.6690464
   2.5973761  53.7497473  89.4354153   3.4024939  54.9054432  88.8812256
  65.9919882   9.4722480  13.1691301  66.8796539   9.3076909  12.8510106
  65.5926847   8.6040878  13.2246888  30.8161163  47.2561169  96.1350155
  29.9747872  47.1487856  96.5787220  30.7072186  46.7987967  95.3012085
  80.5011463   4.0016341   5.5745393  80.6631374   4.0248302   6.5176475
  80.3799248   4.9190187   5.3297073 102.3172855  61.4604378  89.6503353
 102.5520039  62.1361256  90.2863979 103.0110455  60.8056974  89.7294140
  37.7444410 108.4122753  12.4201763  37.8703284 107.4729919  12.2854853
  36.9305038 108.6134815  11.9583833  76.4435530   4.8650181   2.6641190
  75.9729576   5.6878096   2.5307554  77.3434210   5.0584650   2.4013418
  65.4244804   9.7538805   1.4063028  65.8088684   9.9370688   2.2635755
  64.8598051   8.9952564   1.5541735  93.1948280  58.1249666  91.5239048
  93.0395794  57.3634386  90.9651470  93.5668278  58.7819290  90.9354782
  18.0237758 109.0573120   3.4642977  17.4955833 108.3614922   3.8555384
  17.9311597 108.9264965   2.5206134  39.0110087  93.9615536  11.8641365
  38.5814953  94.3582249  12.6220298  39.9249101  94.2371368  11.9353306
  65.7153034   0.9024961  22.7879167  64.9808741   0.6435879  22.2313118
  66.4741993   0.8890398  22.2047138 106.0308266  57.8513908  85.4077530
 106.4093781  58.6727285  85.7213402 105.8652210  58.0037928  84.4773865
  98.7855053  31.5908504  97.2174358  99.2226219  31.4396262  96.3794041
  98.6904144  32.5418758  97.2697926 106.9637489  65.6590271  95.6923103
 106.5515423  65.6958151  94.8292065 106.3644218  65.1329613  96.2217426
  43.6526299  67.5507879  11.4665651  43.9277554  68.3051109  10.9454751
  42.8564072  67.8435326  11.9099140   0.8395255  36.7183447  95.8646965
   0.5603852  37.0373940  96.7229080   0.2594550  35.9787202  95.6838512
  36.8016505  98.6002827   0.5703096  37.4165058  97.9718685   0.9488257
  37.3140264  99.0700722  -0.0877198  20.0774837  50.3044319  95.0806332
  20.5529332  50.1266479  94.2691135  19.7001827  49.4599581  95.3270912
  39.9803162 106.9679356   3.4005910  40.3468132 107.5980091   4.0210038
  39.9396896 106.1461163   3.8896775 106.0122871  76.0239363  95.3562832
 105.1308060  76.3353586  95.1507664 106.1968136  75.3670311  94.6849632
  78.6429310   1.2080117   6.8905056  78.8511992   1.3965090   5.9754515
  79.4065428   1.5164053   7.3783773  80.3306198   6.7623442   5.5861622
  79.8694754   7.2163063   4.8808312  79.8380280   6.9844949   6.3762438
 109.0588474  60.4252195  92.0423412 109.8332405  59.8771811  92.1696377
 108.8616657  60.7674408  92.9142570   4.6373677 111.0892296  19.4654143
   3.9251918 111.4954567  18.9714372   5.2645320 110.8121586  18.7974834
  26.7894769 110.0149155   2.3162875  26.6620922 109.4227886   1.5750757
  26.1240816 109.7501850   2.9514265   2.7350429  95.6636810   8.2244021
   2.7359143  96.3020325   7.5111431   2.0853281  95.0117493   7.9615664
 116.4750099  43.1820059  88.6666584 115.8240318  42.5816059  88.3033562
 117.2693443  42.6539803  88.7470150  13.8074076  52.9239702  82.9731560
  14.0695012  52.2977448  82.2983360  14.0389800  53.7786579  82.6096916
  25.8064961  49.7969198  84.7530174  26.2610555  49.8911428  85.5901051
  25.2726436  49.0093422  84.8576832  49.6315718 103.3499527   2.7918684
  49.2656898 103.8257980   2.0462623  49.0371084 102.6106071   2.9192135
   4.7850603  36.6373205  91.2262344   4.0262398  36.8158460  91.7817116
   4.4181252  36.5198517  90.3499985 101.3839149  62.8306913  94.0237427
 101.5025520  63.6528015  93.5480404 100.5724430  62.4650955  93.6714935
  38.4872007  84.6587753  12.7331901  39.1783810  84.5231342  12.0850384
  38.5189939  85.5960941  12.9246461 118.3048725  23.6321044  86.7117786
 119.0499783  23.5162497  87.3013878 117.8645897  24.4186330  87.0338821
  39.5515060 110.3786469  16.3924086  39.8681402 109.5356655  16.0678315
  40.2480841 110.9970856  16.1720777  57.8875113  97.5118160   8.5144401
  56.9544506  97.7166080   8.5752296  57.9721737  96.6543293   8.9313078
  10.1586294  68.7013531  91.5230465   9.3756938  69.2512274  91.4933395
  10.8361757  69.2261076  91.0966682  28.1765580 111.7488480   0.7781794
  27.6271844 111.1500263   1.2839834  28.3672190 111.2736607  -0.0305694
 110.1769924  57.1981239  94.7583103 109.7379971  57.2531414  93.9094925
 111.0862637  57.4331856  94.5733738  87.1870518   2.2835790   3.9519367
  87.5983524   2.8268036   3.2796445  87.6412010   2.5189728   4.7609913
  72.0883083  15.5950177  26.8610358  72.5198841  14.8288500  26.4829373
  72.7687979  16.0198832  27.3831964  30.3861904  85.5643177  13.2484734
  29.4412994  85.7160568  13.2683110  30.4745221  84.6229553  13.0992591
  40.5497026 102.2929764   3.8713044  40.8005095 102.6184368   3.0067804
  41.1028147 101.5236950   4.0073493 114.0405941  39.4962955  76.7062616
 113.8408279  38.9789844  77.4864626 114.7073841  38.9870691  76.2454939
  23.2889414  81.0146809  82.5356674  23.4768128  81.8141174  82.0438957
  23.9028072  80.3686905  82.1862411   7.1230787  39.4287515  96.7224026
   6.3588482  39.7146463  97.2228527   7.4385548  40.2234364  96.2920761
  63.4997892   1.3954996   5.3463459  63.1708956   0.8065818   6.0254884
  64.3325663   1.0084032   5.0764018  48.6705446  76.6105175   3.0329791
  49.3189526  76.1717272   3.5836688  49.1859341  77.1885252   2.4703826
  16.2805569  54.7624636  84.3149662  16.7432916  55.2602911  84.9889660
  16.9429696  54.1719103  83.9562321   7.9433918  29.6675539  92.0146656
   7.6778406  29.7075510  92.9334259   7.2846597  29.1112375  91.5989590
  33.0216837 101.8215275   2.8640154  33.3912635 101.0940552   2.3636012
  33.7519836 102.4298954   2.9771113  79.1090393  16.8193293   7.7598000
  78.9839029  17.7665436   7.7018410  78.5643673  16.5506077   8.4996331
 113.3732033  66.8179750  95.8499241 113.8007355  65.9969807  96.0936832
 113.7330627  67.0288134  94.9883652  59.7345591 112.0582581   1.7864142
  58.9668989 111.5028286   1.6506626  60.0728321 111.7943573   2.6420766
  24.3141103  94.9521446  12.1213841  23.7766623  94.1713905  12.2548187
  24.3296957  95.3812599  12.9768646 108.3594990  53.5526943  84.0975952
 108.3564091  54.5085049  84.0461349 108.3685493  53.2637310  83.1851006
  81.1775112  25.9246349   9.1637671  81.4800358  25.3151083   9.8369598
  81.7426682  26.6907883   9.2629230  40.3274584  88.9780235  15.5448639
  40.1112318  89.3991947  16.3767827  41.2704086  88.8209534  15.5938864
  16.0656428  28.1349421  80.5196857  15.6988311  27.9176855  81.3767052
  16.9738781  27.8361607  80.5651665  77.0432758   2.8012860  13.1162620
  76.5343046   2.8571299  12.3075199  76.8441105   3.6139393  13.5811937
  31.0191178 111.5419388  16.9005120  31.2887192 112.1793556  16.2392616
  31.0213423 112.0334244  17.7218938  85.3095436  66.4929056  83.7869358
  85.5451775  67.2782040  84.2809105  85.4450226  66.7363596  82.8711796
 107.2292805  72.2804356  88.1354809 108.0212784  71.7671728  87.9756927
 107.1833229  72.8864336  87.3959637  72.4030542  25.0851750  12.7713907
  73.0766249  25.1436400  13.4489679  72.8914881  25.0765443  11.9482327
  74.1983318  32.2640061   8.0340618  74.6664000  31.5757799   8.5068071
  73.6949253  32.7186608   8.7094182  84.1121769   7.3594648  19.9203098
  84.0571785   7.9825914  20.6448245  83.7313938   6.5531981  20.2684069
  72.1155548  13.6630678  17.5254381  71.6945934  12.8909957  17.1473742
  73.0293846  13.4038818  17.6436365  93.8148880  22.3216438  14.9841392
  94.2685890  21.6136360  15.4414320  93.3745480  22.8117537  15.6784916
  94.9250317  13.2295394  62.3651648  95.4184055  12.6198196  61.8164778
  94.3841743  13.7228775  61.7484617  72.6520348   0.6809645  85.9865189
  72.2148991   1.5305126  85.9281349  72.0931530   0.1633595  86.5661430
   4.1550446  19.9680412  89.9156094   3.5489881  19.2311966  89.9929810
   3.6757761  20.6196356  89.4037914  99.6539497  23.1263804  92.5785446
  99.1779041  22.9413700  91.7689800  99.1854668  22.6310635  93.2504177
  72.6291752 110.0275517  77.7005529  72.8587151 109.4078064  78.3929873
  72.3873997 110.8281612  78.1661749 118.3333492  51.0997343   9.7977477
 117.6119423  50.5112886   9.5751888 118.8373566  51.1777973   8.9877397
  94.9890804   1.2698896  82.2564411  94.0920258   1.5237437  82.0394802
  95.4657364   2.0981473  82.3114300  62.9434204 103.8699913  84.0402699
  63.3723211 104.2561054  83.2766056  62.0860052 103.5917950  83.7182808
  26.7011452  93.6061382   5.9502423  27.5327992  93.8826466   6.3351113
  26.7723656  92.6538277   5.8848494  71.8662024 111.8727684  91.4808655
  72.0441341 112.7759933  91.2186527  72.0981979 111.3503456  90.7130909
 107.0133591   1.1060357  94.7491932 106.3062477   0.9572160  94.1214371
 106.5680695   1.2215978  95.5885887  99.6369171  27.4086666  66.0334921
 100.0140762  26.8479061  65.3556061  99.4766617  28.2429290  65.5924082
 101.1981773   3.1165379  82.7883148 101.9528294   3.2425502  83.3635139
 100.8464718   2.2621302  83.0383587  30.1583481  74.1083145   7.9735720
  31.1002922  74.1034746   7.8034270  30.0678563  74.5705128   8.8068885
  16.9689393  56.1271238   1.9751537  16.0760534  56.1519480   1.6311032
  16.9776011  55.3730059   2.5646165 100.0761604  14.5417929  82.1197891
  99.9822140  15.0820565  81.3352299  99.1917515  14.2216384  82.2974300
  34.2258549  84.2437267   0.5584757  34.1764021  83.3100796   0.3533436
  33.3767557  84.4481850   0.9502131  62.1097422 103.0847073  79.9485779
  61.2221098 103.2275677  80.2770996  62.1469879 102.1472073  79.7590399
   8.3192497   7.8842479  76.9989967   8.4486848   8.0839467  77.9261446
   8.0277956   6.9725561  76.9887781  21.8622732  94.4331169   9.2619097
  21.5580392  93.5750771   9.5576316  22.6941419  94.5623493   9.7174573
  84.8081779 102.4231720  70.2956676  84.2549229 102.7019596  69.5659971
  84.5187473 101.5314198  70.4886103 108.3733177   2.1756636  92.1024895
 107.6738453   2.5173852  92.6594543 108.0641842   1.3106608  91.8333435
  96.2829685  24.5039344  75.4948330  95.9960556  25.4113436  75.5973959
  95.4848671  23.9866900  75.6031084  31.9871602  74.5312659   0.0080129
  32.3610483  75.2535204   0.5127832  32.7449022  74.0893368  -0.3750971
 112.9786968   4.9121284  80.9807014 113.5163116   4.1274267  80.8737278
 113.1297684   5.4167491  80.1814747  20.9816599   8.5160333  82.1897697
  20.5037212   7.8549778  82.6905823  20.5505133   8.5271680  81.3352394
  20.7438016  77.8497219   4.7654822  21.2380505  78.4888220   5.2788031
  20.3483582  77.2723055   5.4185122  42.3236322 110.9217358  90.4354763
  43.2361889 110.6377506  90.4886532  41.9192743 110.3137684  89.8165226
 114.6732998  27.7616382  92.8873444 115.2759552  27.3030019  93.4727478
 114.1508770  27.0658326  92.4884033   7.2650939  10.4472685  93.5372925
   7.2640884  10.1958907  92.6136875   6.5942973  11.1271048  93.6012173
  14.8031628   2.4126892  95.9562683  15.7588470   2.4443084  95.9126854
  14.5955670   1.4787740  95.9868908  40.5531979  81.3889599   1.0736220
  40.6829500  81.3451481   2.0209746  40.0850582  82.2120857   0.9338024
  80.6822681   8.6028165  52.8883362  80.4671383   8.0002010  53.6002398
  80.8539772   9.4373375  53.3245945 101.6448307  10.2149880  95.1527500
 101.8833542   9.4344103  95.6527901 101.6592884   9.9281782  94.2396450
  90.3280163  18.9591837  91.5436554  90.4514408  18.0212510  91.6895485
  89.9142933  19.0151966  90.6823063  81.4306736  22.0889068  77.7315855
  81.5233803  21.1800599  77.4458694  81.6707039  22.0743752  78.6580896
  90.7285213  12.4390042  61.5442991  90.8037281  11.4936161  61.4146280
  89.8014069  12.6276696  61.3990593  36.9740152  94.9300289  89.5363522
  37.0209837  95.1696682  88.6108208  37.3953700  95.6576252  89.9938393
 102.8596020  24.0693140  68.8104486 103.0853844  24.1801310  67.8868818
 102.6166344  24.9471879  69.1046190  11.6912150  72.1975946   4.5197558
  11.6841674  73.1038380   4.2116863  10.8628392  71.8324614   4.2087847
 105.1876926  37.0944428  89.5118141 105.7078838  37.7039385  90.0354004
 104.7575474  37.6464391  88.8587379  90.2255535   8.1697172  56.5806341
  90.9225941   8.4224415  55.9752369  90.5223274   7.3401219  56.9547081
  87.7554131  11.1658275  79.6290159  87.1663857  10.4360914  79.4372988
  87.8024769  11.6574359  78.8090563 108.2589054   8.4838045  79.6492481
 109.1533375   8.2295954  79.4220781 108.1609154   8.2226378  80.5648994
 116.6721821   8.6712384  81.8666458 116.6627407   7.7767372  81.5260506
 116.9217587   9.2106158  81.1163044  86.6549397  35.9561849  82.9332829
  86.5602493  36.0926318  83.8759613  85.7632256  35.7978272  82.6234341
 112.1678925  15.1997161  74.2118645 112.3551178  15.8691025  73.5537624
 113.0085945  15.0458455  74.6428919 102.7711201  12.2847283  75.8058214
 103.4408760  12.9526758  75.9524822 103.1766415  11.6688955  75.1954651
 112.7081203  16.7088449  95.7386971 111.9710827  16.1009979  95.6792641
 113.4837437  16.1526990  95.6655693  10.0781310  36.2873006  72.7270174
   9.1491532  36.4769101  72.5955725  10.0908077  35.6070757  73.4003401
   4.3446147  61.2833452  14.1251278   5.0671852  61.1255455  14.7327662
   4.2170939  62.2317886  14.1457713  89.0395451  48.7797880  81.1643410
  88.8301849  49.6919823  80.9636021  89.1392136  48.7607956  82.1161556
  94.3805599  30.8354855  74.9664164  93.6271763  31.4256454  74.9854565
  94.7034168  30.8300996  75.8675051  88.0620289  16.9182563  68.0333805
  88.8001347  17.0487809  67.4380636  87.3566055  17.4464154  67.6596689
  14.5067608  63.0945253   1.2902682  14.7605884  62.2251844   0.9803532
  13.8973224  62.9242659   2.0084794  81.9395542  12.5114465  83.5865498
  82.6433182  11.8763852  83.7194157  81.1472702  11.9792545  83.5138893
  37.2777939  78.5904598   0.4517397  37.4461985  77.6493597   0.4047557
  36.3848138  78.6907387   0.1219438 110.6723309  40.9244680  88.5896206
 110.9763050  41.4623451  89.3207264 111.1651993  40.1080370  88.6717701
 108.2891846  37.6841092  70.8197498 107.9579449  38.1889224  70.0770044
 107.5253201  37.5563836  71.3822699 107.8710556  19.7553039  87.8529930
 108.2219410  20.3333807  87.1755409 107.7268124  20.3285527  88.6058617
  37.2655106  75.9509468   0.1872244  36.3932133  75.7541466  -0.1542379
  37.3067594  75.4845333   1.0220811 112.6704693  13.5235262  90.8368301
 113.4846973  13.0460548  90.9958363 112.2032928  12.9922879  90.1920319
  95.8973598  27.7137494  86.7162132  96.2460518  28.3115458  86.0549355
  94.9484539  27.8294897  86.6671753 118.1242943  38.0452347  74.4578266
 117.3768425  37.9222798  73.8726473 118.8533688  38.2552552  73.8742399
  73.9012909   4.2865485  84.9740887  74.3535280   5.1228487  85.0850677
  73.3474541   4.4141072  84.2038822  99.5852947  36.9526076  86.6561985
  99.2694473  37.8155994  86.3883877  99.2215538  36.3519573  86.0056973
 101.1165524  14.4988000  58.8231659 101.0887527  15.4255521  58.5852814
 102.0442200  14.2674017  58.7770033 114.8009300  32.6924396  96.5776634
 114.1825962  32.0573759  96.2162876 114.4917297  33.5385895  96.2541580
   7.1306819  80.9706879  15.2410984   7.4279612  81.8780422  15.3087080
   7.1339250  80.7869530  14.3017042 103.1504250  43.6459303  95.1520824
 103.8055706  44.0235901  94.5652294 102.8809357  42.8353071  94.7202301
 102.3783970   7.6489025  78.9305353 101.4767551   7.3514974  78.8087797
 102.7771664   7.5654107  78.0643702  39.9880219  79.2411947   5.1189864
  39.7512460  78.8639116   4.2717397  40.9231281  79.4312763   5.0436097
 107.9761028   9.6205419  89.4760036 107.8389263  10.5660510  89.5345497
 107.6556015   9.2798543  90.3111267  98.0373859  34.0826726  96.7588711
  98.3027077  33.7232256  95.9123230  97.9222107  35.0188684  96.5960789
  94.8407459  51.8129349  70.3809023  94.4087791  51.2983513  69.6991110
  94.2712784  51.7239666  71.1451149  82.7090549   2.1239182  92.4717426
  83.4314442   1.5205936  92.6460648  82.4064827   1.8882339  91.5947342
  20.9278917  69.0125084   8.2758671  20.8909726  68.7698317   7.3506773
  21.7634916  68.6605263   8.5826457 105.5466938  10.7931876  52.7228880
 105.7927227  10.3540063  53.5370255 106.3135719  10.6977665  52.1580696
   4.1707343  30.5116963  76.5466976   4.7639152  31.0683060  77.0512342
   4.7480199  29.9061608  76.0816145 118.3887196  49.0825653  75.3935194
 118.8800335  48.7227964  76.1320400 119.0470505  49.2210913  74.7126007
  13.1119800  31.4377356  60.9433985  13.7767065  32.0004821  61.3404942
  12.2892356  31.7204595  61.3426352  17.4331737  15.1449978  81.4236450
  16.7668045  15.8179951  81.2848759  17.4187076  14.9845791  82.3672009
  91.1249828  32.3397875  78.8344574  90.7035732  33.0652308  78.3736086
  91.2663651  31.6766667  78.1587982  99.0973949  39.6713424  87.8074837
  98.2586384  39.9632883  87.4504375  99.7127914  40.3654861  87.5715065
  91.2975311  16.7383921  90.4283905  91.9078064  16.0034609  90.3677654
  90.4546165  16.3725114  90.1603413  74.4092417 107.2586727  71.5538931
  74.3722820 106.3549042  71.8670607  74.9519730 107.2173119  70.7665157
  27.4401951  72.1120167  14.5522976  27.3035669  71.2617779  14.1343820
  28.1561875  71.9630527  15.1698709  78.0203581 103.8696098  43.6635685
  78.7752628 104.3067265  43.2695150  77.5032759 103.5656643  42.9175949
 105.3843117   3.7972754  93.3038044 105.4991531   3.7824488  92.3536301
 104.8373985   3.0343094  93.4908867   2.8708479  36.6945767  86.1107349
   3.0990374  37.6170969  85.9962082   1.9202764  36.6951489  86.2231827
  96.2593460  10.4759181  87.5918388  95.7221508   9.7187901  87.3585892
  96.9027901  10.5396235  86.8860340 106.9051838  28.4997702  77.7402210
 107.3277473  29.0217781  77.0581818 105.9969807  28.4161639  77.4496841
  57.4744558 107.1184635  93.0927086  57.7031136 107.1543598  94.0215015
  58.2601643 106.7771530  92.6656342 107.7241516  10.9996533  92.6576328
 107.8419018  11.2028193  93.5855770 107.3135662  11.7828405  92.2912025
  98.5117149  25.1725793  63.5732841  98.0026054  25.3672624  64.3601322
  99.3110943  25.6899261  63.6711407 118.4318447  41.9351387  67.1900368
 117.6854420  42.2635937  67.6912689 118.7857533  41.2247705  67.7251625
   6.7280728  13.3663535  77.3064327   6.5578717  12.4269080  77.2378349
   6.1057729  13.6750484  77.9649782   6.9418734  22.3169565  91.5412235
   5.9912091  22.4207449  91.5824127   7.2162408  22.2579741  92.4563599
 104.5365620  19.7055829  84.4180012 105.0957298  20.2482843  84.9739075
 104.4130325  18.8985670  84.9176979 104.6446705   2.5262514  65.4845333
 104.6975422   3.2441431  66.1154604 105.1626492   2.8254849  64.7372770
  84.8203850  18.5429919  86.8107033  84.4456196  17.7436352  87.1805859
  84.6391201  19.2176008  87.4651432  99.3612671  31.6532254  79.4670439
  99.8455048  32.3208547  78.9812326  98.5506248  32.0890903  79.7299290
 117.5278187  42.9247618  59.6015310 117.4706078  42.4033165  60.4021883
 116.7772961  43.5170889  59.6473265  48.1255007  70.1801348   4.6951845
  48.8588858  70.7771873   4.8431939  48.5328484  69.3190241   4.6014267
 113.3738899  14.8861325  86.9118500 113.3410931  14.1447949  86.3072205
 114.0779400  14.6665716  87.5220490  92.8842354  41.7451429  61.3556051
  92.9400444  40.7999134  61.2153912  93.2099056  42.1277714  60.5408907
  76.5154552  20.9659743  88.4881878  76.5651131  21.8688273  88.1741428
  77.2367191  20.8896422  89.1128349 112.9743290  26.2479568  91.2822437
 112.9237366  25.4188681  91.7579365 112.3021984  26.1766124  90.6044674
   1.8452087  13.0604875  81.0882950   1.6810909  13.5302711  80.2706146
   2.2627981  12.2435248  80.8154869  32.1023965  59.1138220   1.5419063
  31.1752939  59.2942905   1.3865209  32.4869967  59.9721670   1.7195481
 100.1789856  29.5382118  89.5122910 100.2656937  28.7755585  90.0841999
  99.3310928  29.9167371  89.7447491  12.5994563  45.3915071  86.7692852
  12.4573231  46.3004541  87.0335579  11.7502630  44.9690199  86.8981552
  29.1965961  13.1098342  76.7063284  29.6782279  13.9263022  76.8391609
  28.6716557  13.2664061  75.9213734 105.7689762  37.5621629  72.3835850
 105.9355640  37.3013234  73.2893658 105.5606365  36.7436957  71.9330978
  45.5857944  92.5366116   5.1942891  45.4434872  92.4620247   4.2506701
  45.6076479  93.4792042   5.3594410 114.6505260  34.5538926  77.4991560
 114.1189575  35.1379275  76.9582605 114.6543121  33.7236404  77.0228195
  42.3355389  95.7338047  14.2213869  42.4560833  95.0469017  14.8770285
  42.3481894  95.2704239  13.3839178 100.4831409   7.0064759  81.9508362
 101.1402512   7.5256932  81.4873219 100.6652069   6.1031812  81.6917229
   8.3468974  28.6002707  64.2552805   7.6009864  28.5605288  63.6567259
   8.5719973  27.6843619  64.4186020  88.8582516 107.2291279  83.2186890
  89.7422600 107.5939560  83.1779575  88.3828449 107.6743507  82.5172615
 118.1466198  45.1836681  78.7224436 118.6473656  45.7779455  78.1635904
 117.7425575  45.7536411  79.3767357 110.1416588  19.9209952  62.6153088
 110.1247883  20.8730340  62.5174856 109.3428516  19.7159553  63.1012058
 110.0706291  18.3484626  86.5256596 110.8347321  17.9853415  86.9734573
 110.4332161  18.9918590  85.9167290 106.4851284  39.5670485  90.2316570
 107.3853779  39.3494344  90.4733562 106.1151028  39.9650049  91.0196590
  10.9100485  39.1200566  83.6109161  11.5443516  39.4378138  84.2535019
  11.0031402  39.7159171  82.8676033  18.1043875  49.8730803  83.2580757
  18.2364941  49.9674511  84.2014027  18.6022997  49.0899038  83.0236626
 116.9020462  38.1077266  86.0155678 116.6673660  38.9739585  86.3484287
 116.3258076  37.9762602  85.2626419  34.1965270  88.7766743   6.4353079
  34.5874071  87.9395580   6.6856748  34.1111875  89.2570019   7.2588551
   4.8681277  26.8853951  94.7858334   4.1918826  26.3488412  95.1993942
   5.2366674  27.4010587  95.5031204 101.2840652  31.2047601  95.8205700
 101.7175961  32.0491743  95.9440613 101.0214520  31.2026954  94.9001026
  11.9382524  18.5914576  66.2897301  11.4470589  18.8784432  67.0595360
  12.8075314  18.3753002  66.6271639  97.9658604   2.9581434  85.5732536
  98.5738754   2.2601055  85.3297615  98.1070900   3.6390445  84.9154854
 101.6210365  55.8334589  73.6622953 102.0426273  54.9951935  73.4730673
 101.9377327  56.4210939  72.9762793 110.3823948  50.7892561  79.8748159
 110.9162998  51.4281559  79.4025993 109.7994041  50.4252148  79.2086172
  82.7662277  30.9307027  86.5837002  82.1834755  31.6783023  86.4505577
  82.7475834  30.4610085  85.7498646  99.5374966   4.3929607  64.1211367
 100.4752254   4.2341727  64.2292261  99.3546677   5.1426256  64.6875381
  12.9266262  25.2697015  69.9093962  13.5192335  24.7376633  69.3783760
  12.1453440  25.3726912  69.3660498   2.0185012  46.0759830  86.3679981
   2.5467077  46.8416071  86.1420536   2.2160338  45.4379225  85.6823730
  38.0521870  67.1844244  15.5168653  37.4557352  67.8960657  15.2844000
  38.5761619  67.0438242  14.7282505 117.9328918   1.8504468  86.2305450
 117.7442360   2.1387887  85.3375149 118.8719177   1.6648340  86.2289524
   5.4113019  12.0290351  80.5840492   6.2454778  12.4771607  80.7239246
   5.4164940  11.3104081  81.2163258  25.4221153  88.1436062   8.7063867
  25.2613711  88.8786793   9.2980456  25.5013704  87.3842907   9.2837936
 105.6220055  31.6898227  85.1736641 106.3151264  32.3358464  85.0378132
 105.1207733  32.0286942  85.9154034  87.7168369  45.5494356  77.1046019
  88.4082699  44.9716473  76.7816114  87.8839684  46.3873959  76.6731787
  38.9593649  92.3289490   9.7071391  39.5177317  92.9810429   9.2837852
  39.0663099  92.4939823  10.6439209  65.4693842  17.7906954  12.5306726
  65.5785370  16.8901062  12.8360534  66.1423016  18.2853949  12.9983068
 114.6726322  34.4822168  83.6015892 114.4490051  34.7122884  82.6997662
 114.0204048  33.8273215  83.8504696  25.5996060  74.3496466   4.9151900
  25.4185033  74.3005276   5.8538175  25.8535647  73.4590054   4.6733320
  95.5074596  36.8666005  62.7976847  96.0642338  36.6113162  63.5332489
  95.0428104  37.6439977  63.1075144  15.8133900  23.4180045  48.4391642
  15.8188176  23.6360979  47.5071573  15.8204687  24.2657590  48.8835716
 109.2253685  46.5216589  79.5179319 109.6709728  46.1087370  80.2576351
 108.4163284  46.0204363  79.4155741  93.1733704   1.7360620  84.8652267
  92.6414680   2.5100243  85.0504017  93.3377361   1.7781922  83.9231873
  42.0904827  90.4206276   4.2062342  42.8453493  89.8371506   4.1289929
  41.7583418  90.5021954   3.3122200 115.5435753   3.6137843  69.8811245
 114.9246216   3.9891320  69.2548323 115.5549240   2.6789531  69.6757126
   2.8277308  30.9292936  88.4142208   2.9635599  31.6866803  88.9835644
   3.3450395  31.1217022  87.6321697 103.6076164  53.7067652  80.0442219
 104.2787361  53.1051445  79.7219229 102.8103065  53.4451437  79.5836926
 118.6203480  40.6941271  94.8327827 118.1270599  41.4761353  94.5850754
 119.5367908  40.9684181  94.7992516   3.5624617  41.7384386  80.8741283
   3.0225685  41.6657066  81.6611862   3.1587023  41.1352444  80.2501297
  84.8093796  19.8470235  89.6177864  85.0577831  19.1050959  90.1692104
  84.0248775  20.2032804  90.0347614 113.5889435  21.5427208  90.4434681
 113.0693245  21.5315223  89.6396637 113.0773735  22.0758820  91.0519600
   6.1134946  23.5034990  81.8455315   5.3463119  23.5557914  82.4155521
   6.6895825  24.2026901  82.1545410 111.4764500  23.8017821  59.7801113
 112.1988964  24.4086885  59.6189547 110.6896496  24.3048596  59.5701456
  97.8418350  23.1506038  89.9731922  97.1646881  22.5582671  90.3000546
  97.4178791  24.0084243  89.9480247  18.1700397  62.4655962   8.8454425
  18.7781203  61.7587900   9.0620077  17.5055897  62.4291325   9.5334893
   6.0106421  39.4065523  84.1728115   6.8933737  39.5856071  83.8488388
   5.4912597  39.2572355  83.3827591 104.1948032  30.4297400  89.5367908
 103.9199543  30.7848692  90.3821182 103.4432697  30.5722594  88.9613533
 108.3638763  53.8381672  92.3379707 108.8576508  54.0950060  91.5592194
 108.4770393  54.5693398  92.9452610 108.7432480   3.8561931  86.4698982
 108.9721298   4.3831316  87.2355270 108.3811378   4.4851792  85.8458138
   1.3375507  34.5262861  90.5899239   1.1050601  35.3939891  90.9204960
   0.9559955  33.9185119  91.2233734  28.5750294  84.8509598   4.5866317
  28.2933998  84.5123768   5.4364985  28.6535239  85.7956791   4.7192568
   7.2280830  39.8914576  93.6814117   6.2964827  39.6805406  93.7435913
   7.6740092  39.0865064  93.9449215 101.1845875  52.7402735  76.1086512
 100.3546715  53.2123661  76.0408545 101.4499092  52.5907516  75.2011967
  35.7431841  91.6893482   0.5472635  35.6280494  92.1031189   1.4027022
  35.5928302  92.3946762  -0.0821331  59.7853756  81.7094707  12.4163437
  60.2280426  82.5415897  12.5832438  59.6894121  81.6759109  11.4645588
 113.9045238  44.0944290  76.3254452 113.9351940  44.8283720  75.7117462
 114.4211388  44.3879795  77.0758915   4.1226593  47.9058743  69.6834326
   3.7643448  48.7725687  69.4918966   4.2379394  47.4992180  68.8246107
  32.9283285  54.7722912   9.6205336  33.3115149  54.6959877   8.7467045
  33.3923674  54.1185093  10.1434755  55.9087515 109.6960068   5.2388966
  55.1271105 110.0347328   4.8023999  55.7382488 109.8275852   6.1715531
  16.8089044  41.4983940  91.0118294  17.5079274  41.7072535  91.6314888
  16.8214369  40.5432987  90.9496403 106.3722706  19.0557539  75.4874849
 105.4158497  19.0942907  75.4894209 106.5985966  18.6808765  76.3386488
  81.5380192  19.1971457  65.0374365  81.0545254  19.9204826  64.6383715
  80.8668709  18.5482478  65.2488995  16.1228049  53.5298491  63.6360502
  15.3376043  53.5675573  63.0899096  16.0978055  54.3385029  64.1476059
 104.6829510  52.7838755  74.9876833 105.0751686  53.6563396  74.9530125
 104.4227695  52.6021767  74.0846205  72.7008820 104.5117283  89.3155956
  72.3499680 104.5791149  90.2035999  73.5270596 104.0396881  89.4197273
  29.0658784  61.9674063   5.9539795  29.9130630  62.3266649   5.6904638
  28.7637901  62.5516987   6.6493779  13.4008825  36.0007071  73.8919544
  13.2446754  35.3476429  73.2098007  12.6599360  35.9040928  74.4901991
 110.8255291  14.8747742  95.7452488 110.5497360  14.5373762  96.5974998
 111.1476994  14.1052818  95.2758598  29.7771978 100.8310699   8.5405064
  30.7253790 100.8053017   8.4119713  29.6608615 101.2855911   9.3748355
 110.2600193  27.9784822  92.2149372 110.0025749  27.9366255  93.1359196
 109.5093060  27.6220155  91.7399693 110.8195400  14.9864709  71.1348391
 111.2277985  15.7955718  71.4429188 110.0694466  14.8603368  71.7159414
  42.1702957  86.9516182  46.4214039  42.1163321  87.1692848  45.4908466
  41.3408232  86.5142632  46.6135693  21.1824131  37.3605657  78.0955935
  21.4414382  38.2603931  77.8969812  20.3416300  37.2498322  77.6516867
   9.9314922  39.5717859  70.2216721   9.5926899  40.4583549  70.3459072
  10.1516640  39.5277214  69.2911816   3.6869982  54.1957283  65.1933575
   4.0507203  54.9301577  65.6878805   3.1156212  54.6043587  64.5431376
 106.9150925  12.0657754  89.0242004 106.0035992  12.2905469  89.2109966
 107.2797012  12.8558362  88.6253357   4.0163857  22.5846386  67.2297430
   3.3752203  22.1492362  67.7914953   3.8874847  23.5180783  67.3979902
  24.3054104 102.8048038   1.1065007  25.0775456 102.2654343   1.2771259
  23.6331820 102.1808720   0.8325493  15.2458012  46.7372036  72.9192162
  15.3910017  46.0932398  72.2260618  14.6277833  47.3620749  72.5399780
  14.6692395  86.3358307   2.9929489  14.9663305  86.0405636   3.8536373
  13.9036405  85.7930374   2.8046340  36.2496924  96.1509514   3.6360884
  35.5287600  95.5999088   3.9407933  36.1273432  96.2029076   2.6881629
 100.8770370  36.4090776  97.1135902 100.0880527  36.7675328  96.7070866
 101.5449333  37.0801902  96.9730473  90.9014320  29.8982835  91.4026260
  90.2888489  29.8753214  90.6674767  90.8695030  29.0144277  91.7687035
  90.3551674  24.0186310  84.2908096  89.5961761  24.4992781  84.6211910
  90.3057003  23.1661868  84.7233868 118.8989449  34.2563105  88.4258556
 119.2950439  34.3720436  89.2895317 118.5500622  35.1197934  88.2046986
  18.5652959  39.6626997  52.0454359  18.2426035  38.7618685  52.0208359
  18.1796694  40.0764275  51.2731981 111.0680103  21.4739943  78.8368368
 110.1476860  21.2169337  78.7805843 111.3208866  21.2637758  79.7357750
  44.7684240  76.6251040   9.7739601  44.6882677  75.6871605   9.6005476
  45.6385660  76.7237139  10.1604366  37.2197556  79.9320650   8.1130290
  38.0722952  80.3651905   8.0705136  36.6173840  80.5473804   7.6949811
  37.2975922 112.1743107  15.8674061  36.9044805 111.3939571  15.4765868
  38.2087469 111.9287586  16.0278201  72.9714012  75.8357620  28.5481429
  73.5227299  76.4179087  28.0252934  72.7930260  76.3296604  29.3484426
  13.9726782  38.6760259  92.4653244  14.8900902  38.4033847  92.4493599
  14.0047932  39.6139479  92.6537323  66.1647415  93.0910587   5.5115563
  65.7292891  92.4522591   4.9471503  66.5363407  93.7320709   4.9055514
  98.2981968  44.1040993  76.8388462  97.6750660  44.7603321  76.5269089
  98.8584518  44.5786476  77.4529648  17.9687345  36.5548849  64.1093493
  17.2528279  37.1892953  64.0742636  17.5490355  35.7341576  64.3672085
  79.9585819   5.7268721  11.1085582  80.0029659   6.6661084  10.9294009
  80.8672333   5.4696554  11.2648571  14.3206596  51.0092831  70.2088165
  13.6590695  51.5966082  70.5743027  15.0496256  51.5845537  69.9766445
  34.6662593 102.9905415   8.7259406  34.1411710 103.7870026   8.6474019
  35.5338860 103.2436085   8.4106433 112.9739952  41.5789032  92.8948307
 112.8359890  42.0703030  93.7045956 113.3373928  42.2203922  92.2843647
  50.0853062  84.0191269   0.5339633  50.1957941  83.1257439   0.8593804
  49.4638681  83.9354515  -0.1892564 112.3438168  46.4945364  82.6970196
 112.0705605  47.1774578  82.0845032 111.7110729  46.5480471  83.4132576
  21.1500025  91.9365025   2.9709855  21.8969178  91.3436699   2.8879622
  20.9471989  92.1936703   2.0715588 116.0193539  42.6079750  68.5828924
 115.1474953  42.2239065  68.6754799 115.8842278  43.3787918  68.0317068
   9.2443097  47.1706009  88.6670017   8.9218557  46.3711357  89.0830708
   9.0186602  47.8684759  89.2820549 118.7310512  16.1627924  81.3455105
 118.7792478  16.9265723  81.9204426 119.5651771  16.1634350  80.8759689
   2.9086262  13.5287750  88.7669563   3.4356019  13.9959657  89.4152355
   3.0816045  13.9853656  87.9436493   1.8249035  16.8548441  79.4259548
   1.6068412  17.7675021  79.2369127   2.7616385  16.7890251  79.2404079
 111.0006523  89.8635387   1.9181505 110.5255032  89.3191624   2.5459468
 110.5367374  90.7007408   1.9277959 112.2054195  56.7342806  68.8517237
 112.1591759  55.7852983  68.7354469 113.0960846  56.9648361  68.5875559
  70.4229069 107.9693317  89.4631290  71.0186386 107.6677227  88.7772942
  70.9714365 108.0354977  90.2447796 109.0948296  15.6626272  86.1879349
 108.1716442  15.4307926  86.2890339 109.2296314  16.3831687  86.8034649
  17.1864724  28.3530045  85.3136444  16.4500093  28.2193184  84.7169971
  17.3255980  29.3000388  85.3139687 114.8428631  24.6187377  93.5622311
 115.6064320  25.1783347  93.7037945 115.1484203  23.7375903  93.7777424
   4.2176318  21.2607884  94.1857719   4.1378844  21.6511059  93.3154106
   5.0542015  21.5859962  94.5183754  16.5388584   2.2531295  90.5848312
  16.6618538   2.6833242  91.4310265  17.2159386   1.5770099  90.5592155
 117.9127407  50.2440834  50.3665066 118.8084316  49.9596739  50.1846409
 117.5466442  50.4475975  49.5058107   1.6121836  26.1243844  61.2144136
   0.7640593  26.1131191  61.6580248   1.4253809  26.4900327  60.3497505
  21.7080283  28.1656122  71.2522221  21.8154144  29.1167474  71.2455368
  21.6216493  27.9278398  70.3290558 106.5587997  30.5007243  59.3743515
 106.5707207  30.4701114  58.4177160 106.0002804  29.7667909  59.6305275
 118.6431885  12.3252892  40.9880495 119.0100193  11.4414215  41.0089874
 117.7053356  12.1988356  41.1318254  12.7010703   0.2731545  52.6801205
  11.9580233   0.8699945  52.5912714  12.8152800  -0.0989639  51.8056393
  12.4948180  36.8893242  55.9665680  12.2740912  36.2241888  55.3145695
  12.0939028  37.6925778  55.6344843 100.6849384   1.7360243  17.8074110
  99.9545288   1.9775379  18.3769679 101.0297585   2.5716773  17.4927378
   5.7660878  11.2484586  14.9665856   6.4567578  11.8232000  14.6366167
   6.0454136  10.3685963  14.7134995  14.9791205  24.6542048  45.4179382
  15.9221733  24.5225668  45.3201962  14.8822653  25.5956817  45.5610180
  17.0969260  20.9553790  37.0775700  17.9159665  20.9828305  36.5829468
  17.0014441  21.8393874  37.4320316 103.5254874 112.2698590  35.5809712
 103.6988773 111.7442828  34.7999859 104.1082968 113.0244226  35.4961205
  21.9425893  10.7150590  54.4091368  22.6537085  11.1743712  54.8558712
  21.9645596   9.8293984  54.7715616   6.3479984  28.2321501  17.8518558
   5.4966605  27.7951813  17.8744984   6.6040975  28.2100797  16.9298160
  27.2571754  27.9435372  22.7040076  26.7826390  28.5190797  23.3038402
  26.6471791  27.2276473  22.5261259 102.0462418  46.0097933  36.8672609
 102.9538345  46.2053013  37.1002650 102.0880127  45.7348204  35.9513593
   5.0217223   0.6664665  11.3706684   4.5053798   0.0574632  10.8427119
   5.1375401   0.2183618  12.2085345   0.7990184   5.0344282  13.6320221
   0.4547272   5.2369642  12.7621508   0.1299862   4.4780299  14.0308309
  97.8352642  86.4136219  26.5774608  97.6188469  87.1374321  27.1652532
  98.7895203  86.4394569  26.5069556  68.0731106  99.2265987  29.5305991
  68.5027838  98.7730312  30.2557874  68.1377506  98.6173820  28.7951326
  77.7310133  82.5486279  16.3034856  78.4410715  82.2961521  15.7133126
  77.7263784  83.5054493  16.2770438  14.4606400   4.0509310  27.2623491
  13.6079454   3.6973560  27.5155902  14.2721701   4.6186435  26.5150785
 100.3364086  99.7359180  13.0887389 100.1953506  98.8808918  12.6822174
 101.2862492  99.8000050  13.1883276  92.9190445  85.6507301  16.6324401
  92.8527355  84.7439289  16.9316697  93.2982445  86.1208630  17.3750162
  68.7719584 103.2771969  27.1718073  69.3273401 102.9118443  27.8605008
  68.2692385 102.5298405  26.8478417   3.2848918   8.1347650  39.2179561
   2.8983948   8.9890254  39.4105458   4.0570453   8.3350170  38.6888909
  69.9195004 108.9375496  13.4685981  69.4266367 108.6101341  12.7161896
  70.7920074 108.5571480  13.3673012  97.1587563 107.1695518  27.2523022
  96.5910625 107.0101070  28.0063128  96.8382359 107.9913902  26.8807125
   9.8156482   9.7049350  29.4760370   9.4659561   9.9819106  28.6291432
   9.1856599  10.0371826  30.1155353  62.7531481  57.4008751  87.0523930
  62.6678753  56.5409279  86.6407490  63.6768532  57.6275110  86.9445324
   9.1136664  13.8114989  10.8087838   9.4692343  13.0447292  10.3594863
   9.6147966  13.8660777  11.6224921 104.6677399  95.6575012   5.3267789
 105.2808952  95.0263691   4.9500293 105.1709938  96.4688492   5.3951794
  89.1379070  77.7926207  13.5725474  89.9655056  77.6391554  14.0283501
  89.3832397  78.2872868  12.7906597  50.9970856   7.1334845  11.4327633
  50.3462410   6.4349365  11.5010762  51.2261295   7.1574199  10.5036795
  79.3403292  26.9371057  95.9390926  79.4446373  26.0327888  96.2350082
  79.3115759  26.8748975  94.9843502  48.2012510  60.4832792  92.2932529
  47.6378632  59.8429585  92.7277851  49.0290976  60.0218725  92.1590614
 111.3285542  96.4384079  25.6526184 111.2006664  96.0894966  24.7704959
 110.8892632  97.2887516  25.6398702  63.6073351  24.7372055  96.7571640
  63.2528877  24.7638345  97.6459122  63.5015059  25.6305957  96.4302254
  13.7372935  12.2462380  36.2826228  13.7094688  12.8665221  35.5541277
  12.8408396  12.2300649  36.6177964  82.8303051  45.1206589  90.6313324
  83.2071114  45.1868248  89.7539139  82.7343750  46.0282803  90.9198666
  89.9464893  82.2146225   9.4929457  90.8467388  82.1179771   9.8035038
  89.5230865  82.7636147  10.1529241  26.7188501  27.3718071  10.4398525
  26.0052562  26.7356801  10.3912580  26.2900281  28.2212114  10.3356481
  71.2451220 104.0565681  22.7698660  70.6235647 103.6434937  22.1704769
  70.7148075 104.3164921  23.5231495  10.9140646  15.9196222  32.6788330
  11.8503785  15.7527328  32.5706816  10.7241690  15.6463468  33.5763240
 108.8324928 103.5395336  32.0277452 108.2400417 103.0819321  32.6242661
 109.6655273 103.5749054  32.4978948  80.6402683 100.4860115   0.9965477
  80.8712673  99.6047211   0.7029591  80.5665302 100.4099083   1.9478643
  11.6856766   8.0208951  30.2715015  10.8201933   8.3084637  29.9808526
  11.5940845   7.0766252  30.3987670 103.2863903 107.7035141  49.5287180
 104.1757298 107.5271511  49.2217970 102.7674484 107.7799988  48.7280464
   1.9471954  89.4855309  16.9571733   1.3058946  89.7497845  16.2975240
   1.9226217  88.5287189  16.9453192  11.7617893  14.1967034  16.9651604
  12.1228015  13.7343454  16.2087703  11.7190981  15.1120186  16.6883802
  31.3265538   2.0353344  32.7988410  30.9262729   2.5549763  33.4959650
  31.0382462   2.4576220  31.9896555  17.7462995  14.3295717  13.5151517
  17.5825644  14.9184644  12.7785182  17.1658719  13.5844684  13.3597314
  10.3785646  23.0392361  26.8911195  10.7584262  23.1362605  26.0178924
  10.4453552  23.9114881  27.2796345  46.2844324 107.4683571  52.5363159
  46.7036343 107.6215553  51.6895342  45.4414749 107.0709610  52.3178530
  70.1065397 106.0105991   7.1009761  70.9282494 105.5292892   7.0041692
  69.8028278 106.1488533   6.2038291  12.9170668  92.6019859  26.0260463
  12.1270299  93.0171013  26.3721013  13.6242807  92.9352665  26.5783215
  87.5166798  97.2826290   1.2455143  86.9971657  97.9641247   1.6720021
  88.0739403  96.9352055   1.9419304 107.2098064  90.1810932  21.4195967
 106.6573524  89.4249153  21.6176510 106.9123363  90.8601761  22.0250607
  92.4529076  91.5684509  37.2168922  91.6697979  91.6191673  36.6688085
  92.1714306  91.9031715  38.0683398   8.3981997  98.9694786  19.1757500
   9.0977579  98.3195114  19.1094387   8.7234873  99.6075153  19.8108232
  98.3984089 105.0701904   3.7880602  97.8146744 104.5880413   4.3737394
  98.6975098 104.4161987   3.1563395 101.9336414 105.7194042  32.2986364
 102.3573303 106.4360714  32.7709723 102.6564598 105.2353764  31.8992925
  39.7814178   6.9421470  35.0140095  39.8540020   7.0201057  34.0627551
  39.6510506   7.8401566  35.3186655   3.4603634  12.3400509  20.4048204
   3.9480099  11.8615496  21.0752463   4.1091162  12.5313401  19.7275031
  81.9155216 106.4433193   9.9310732  82.4588394 106.7983437   9.2275167
  81.0654545 106.8676281   9.8145872  18.9630508   4.8846307   2.7219015
  18.2203650   4.3026096   2.8828409  19.2624307   4.6533772   1.8426260
  94.8255539  86.6032028   7.0170528  95.7100677  86.7083836   7.3674935
  94.2560101  86.9818783   7.6867193  20.0170827 102.8843880   1.6048200
  20.1339579 102.6801682   2.5326476  19.5150256 102.1466351   1.2585780
  20.5578661   6.3345122  25.3563952  19.6992803   6.5138948  24.9731398
  21.1820459   6.6765362  24.7163534  13.9265823   1.3685569  23.2749748
  13.4470677   1.3150650  22.4482727  13.3114219   1.7792659  23.8825345
 102.8763580 108.0880260  10.5077183 101.9247437 108.0821609  10.4046881
 103.2080746 108.3641720   9.6533543   2.6202545  86.9056225  16.1695695
   2.6561496  85.9495354  16.1405933   3.5030347  87.1707344  16.4277327
   8.5648590  24.4448090  23.3685327   9.2610896  24.8575592  23.8795447
   8.1423533  23.8431549  23.9815044 109.2075729 107.1468163   3.7314677
 109.5161247 107.9932785   4.0547782 109.9855232 106.7367649   3.3534768
  94.4027996 103.8349247  28.8191319  93.9919376 103.1342411  29.3255591
  95.0199318 104.2404366  29.4281745 108.4577942   2.2900441  35.2443767
 108.5682964   1.6896309  35.9816194 109.2796326   2.2257642  34.7578764
  34.7892284  60.3955936  97.2868538  34.5138049  60.1144361  96.4143181
  34.0465093  60.8976936  97.6222610   5.0743276  97.3140144  29.6233082
   5.4521716  97.5603962  28.7790585   5.8009702  97.3887444  30.2418852
 111.2415314  80.8455944   4.9828473 110.6617451  81.6003990   4.8810917
 112.0713520  81.2192535   5.2795124 104.6219349  96.2557888  54.7629833
 104.1800976  95.8571434  54.0132523 105.5421638  96.2995243  54.5032024
 117.9867744  15.1781833  20.6928515 117.8033638  14.3065071  20.3424621
 117.6068592  15.1679945  21.5713692  18.0652618   8.2243133  30.2623224
  17.6102901   7.8539491  31.0186720  17.7494800   9.1264665  30.2110124
  85.4714012 103.0948257  29.4456339  85.8986473 102.8574944  30.2686572
  85.7704830 103.9867878  29.2690253  11.8299592   5.3254104  30.8650541
  11.1636293   4.7711706  31.2713242  11.8710327   5.0243253  29.9573708
 103.1648350  90.7293987  17.7653146 102.7299786  90.9551430  16.9430184
 104.0992069  90.7769012  17.5630307  32.5798321  60.5201864  89.3821144
  32.4579453  60.9595537  90.2237415  31.8895960  60.8773136  88.8233089
  97.5884724 109.8415756  26.2464356  97.5635242 109.7918034  27.2020149
  97.9725170 110.6985664  26.0611868  74.3287420  96.1453915   8.3736461
  74.3970156  95.5222130   9.0969861  75.2287912  96.2563419   8.0673343
 108.5835266 106.5555763  15.9578383 108.9308834 107.4450874  16.0237968
 108.7376308 106.3052082  15.0469041  22.8613591   5.9668374  28.0736923
  22.0920014   5.4503083  27.8338623  22.5323105   6.8617618  28.1577635
  48.7758493   3.4310836  22.7026391  49.5540047   3.6583936  22.1936822
  48.4719563   2.6076683  22.3207116  10.9230852  87.0167542   3.8923439
  10.1682019  87.4929047   3.5464185  11.0025418  86.2494850   3.3255848
  23.4330964  11.1398113  13.7066901  24.0218687  10.3924763  13.8119042
  22.7116847  10.8033884  13.1750715  16.8504775  18.9186764  27.6308274
  16.1069620  18.4282374  27.2802758  16.4841223  19.4216585  28.3581686
   4.0654367  12.4701416   4.9708357   4.8097494  13.0710626   4.9373066
   3.4235898  12.9145336   5.5247122  79.6404696  89.8071861  38.9151812
  79.2826128  90.1783276  39.7216702  78.9447832  89.9244308  38.2682657
   3.8298768   7.7985179  29.6088457   3.3569819   8.5986376  29.8377776
   4.1205058   7.4434012  30.4488802  75.4612303 105.1762676  35.3320146
  76.1380100 104.5007801  35.2882242  74.6384382 104.6979141  35.2299356
   3.3889189 108.9247608  24.5296526   3.1499621 109.6464443  25.1112986
   3.9404598 109.3293571  23.8600755 103.3942699 101.1849594  13.1352198
 103.0607986 100.3192520  12.8994596 104.1702271 101.3002491  12.5867486
 112.7342224   0.4717012  20.8710766 113.2863617   1.0858330  21.3550305
 112.3819351  -0.1133898  21.5417480  16.2505639  -0.0146872   7.7770442
  16.4209950   0.2055378   6.8612462  16.9981921   0.3464324   8.2533592
  68.6317968  98.9820766  12.6334608  68.2866001  99.8698997  12.5393999
  69.5617294  99.0629673  12.4215305 103.1748962 111.3761234   2.2234274
 102.3239613 110.9637165   2.0748897 103.8088417 110.7498741   1.8739167
   6.8665147   1.5657938  20.8913279   6.1098766   0.9819403  20.9446812
   7.2505379   1.3824385  20.0339246   9.1682369   7.6724207   9.0834510
   9.2653793   7.7762991  10.0300264   9.4811857   8.5000479   8.7183094
  14.6776104   7.3806834  17.0022225  14.5902681   7.5458699  17.9410064
  14.9836719   6.4754927  16.9457626  69.2092323  14.6612263  79.6772480
  69.9818945  14.1788709  79.3830442  69.5414543  15.5293822  79.9056482
  98.2707691  89.6714783  18.4132099  98.7509155  90.1143265  19.1129124
  98.8992500  89.6087551  17.6939750  85.5235100 106.6805172  31.9758344
  86.4266872 106.8831635  31.7320514  85.1216030 106.3661957  31.1659575
  99.4621372  94.1219425  32.9644036  99.3115902  93.1766605  32.9629016
 100.2858353  94.2325401  33.4392905  49.9823618  74.6355057  91.4137554
  50.9164333  74.6152306  91.2056160  49.6659470  73.7628126  91.1802578
  65.4463148  62.1961975  89.3428898  65.1726913  63.0901384  89.1373920
  65.3522348  61.7211390  88.5172367  83.8498688  96.7820740  18.1037605
  84.1890049  96.6426754  18.9879489  84.5454025  96.4648628  17.5276923
 114.8913956   9.9798894   4.5556393 114.9333096   9.0455890   4.7594935
 115.6114292  10.1235831   3.9415315  91.5586567 103.0863667  22.5747275
  90.6918812 103.0385303  22.9780197  92.0787716 102.4362469  23.0470133
  19.7730672   4.9853683  31.8339396  20.3869271   4.2524543  31.7865539
  19.9535203   5.5001682  31.0473967  25.9274769  16.3271165  12.7827585
  26.8433619  16.0574603  12.7144158  25.5538750  16.1258268  11.9247735
  72.6319695  92.0431232  35.5887866  73.0085707  91.1826801  35.4043055
  72.9843903  92.2798824  36.4466786  87.9358959  11.8848515  29.9163270
  88.6594582  11.2640560  29.8309422  87.9784489  12.1785903  30.8263493
  77.8873205 106.6195965   2.6241735  77.7351618 106.0589123   3.3849046
  78.7484312 106.3553715   2.3002940  95.9052563  95.7463074  25.9383440
  95.0206947  96.0899544  26.0635877  96.1816978  96.0990143  25.0925231
   2.0508765  28.8704896  28.4947371   1.2726282  28.4500837  28.8605523
   2.6698658  28.1528711  28.3601761  47.5864172   1.5341993  28.0667782
  48.0934668   0.8001254  27.7199793  48.2005978   2.2683603  28.0718231
  61.8180656  52.9300642  95.8505249  61.4042521  53.7835455  95.7218552
  62.5486565  52.9224491  95.2321243   9.4069767   7.9672003   2.4968222
   9.1441584   7.1651888   2.9484147  10.3611279   7.9824942   2.5716105
  14.9694788  83.9135838  39.2595673  15.3124142  83.0202579  39.2351627
  14.1063404  83.8278198  39.6643734  17.6471090  18.8214076   6.1980850
  17.7334666  19.7443664   5.9595054  17.5037420  18.3712327   5.3656060
  87.8900242 109.8400021  22.4561858  87.5274277 109.9542809  23.3346486
  88.8356400 109.7824097  22.5930142  15.0927091   5.9005713  22.2781134
  14.9012804   5.4927385  23.1226587  15.9572971   6.2949175  22.3930526
 105.8114529 101.8684101  24.5375729 106.1946678 102.7312756  24.6951914
 104.8759460 101.9883633  24.7008872  90.5585861 110.6446552  37.0804524
  90.3846645 111.2905407  36.3957524  90.9748459 109.9151325  36.6213775
  46.6631413   3.2470515  46.5753746  47.4783230   3.0116284  46.1323357
  46.9181156   3.3878496  47.4871826  28.3574152   9.4782454  15.7180107
  27.8298998   8.6817253  15.6587338  27.8453183  10.0637066  16.2758839
  13.1309164  10.4305422   7.5360543  13.1823444  11.3394117   7.8319305
  13.8499784  10.3412211   6.9105911 102.1892834 111.8564892  23.2538772
 103.1258011 111.8314362  23.4501886 102.1435356 112.1382046  22.3402143
  99.6183395 110.8781815  23.1453848 100.4354477 111.3758087  23.1148672
  99.0086365 111.4474010  23.6149478  31.7596793   6.8605828  20.6951380
  31.7665076   6.9264472  21.6500449  32.6537323   6.6066581  20.4661703
 113.4739208  84.0925884  21.2825656 113.1757355  83.3496475  21.8073106
 114.0300083  84.5972252  21.8761396   9.6950310  15.4747903  35.3899145
   8.8245642  15.8724511  35.4095531  10.2723587  16.1438549  35.7577133
  18.0370581   5.3809243  23.8060594  18.4870183   5.7040870  23.0254602
  17.8433955   4.4645226  23.6087418  27.0475221  11.2579083  13.2452023
  26.5614533  11.7776442  12.6050127  26.8406916  11.6616130  14.0881002
  12.0347786   6.3057870  13.0415058  11.1982346   6.6038263  13.3987153
  12.6213598   7.0545685  13.1486547 117.2475529  31.7977905  53.2969141
 117.7245808  32.4019408  52.7279902 117.6467609  31.9148970  54.1589737
  57.2348166  55.8455038  94.8782253  56.9082737  56.4954472  95.5004597
  58.1747198  56.0179949  94.8228550  90.4505157  86.8698406   5.5484653
  89.7300720  87.4526215   5.3085703  90.7682228  86.5255928   4.7137254
  18.3081448   7.8473496   8.7823409  17.5021243   8.0445915   9.2594761
  18.0332458   7.2553802   8.0821735 111.7068005   2.1687856  18.8182485
 111.8477154   1.5739170  19.5547986 112.4183750   2.8055122  18.8850927
  18.9265621  18.0969739  14.9862325  19.0762293  17.7546144  14.1049719
  18.3022487  18.8119423  14.8625982  30.7072496  24.5089126   2.9958165
  31.3720083  23.8883924   2.6970175  30.6164145  24.3303561   3.9318180
  21.9523191   2.0965882   5.2373248  21.3332915   1.3678157   5.1934183
  22.5296259   1.9661260   4.4850421  90.2964020 104.7330093  49.1776705
  90.4980659 103.9304256  49.6587324  89.4025707 104.9519348  49.4410563
  34.8412299  17.7573442   5.9946448  35.6163955  17.8076601   5.4353428
  35.1310182  18.1062448   6.8375701  11.3435209   2.4429107  42.0590973
  10.9377265   2.2071263  41.2248516  12.0187128   1.7778561  42.1934462
  86.9667721  93.0386639  32.8089905  86.3845348  92.4661732  33.3084774
  87.0175171  93.8409138  33.3286548  88.2366657 108.6104584  31.1469102
  88.7132740 109.3360615  30.7436943  87.6596451 109.0286350  31.7859745
   3.4991184  93.8792133   5.1135677   4.2314628  94.4842720   5.2310431
   3.8795874  93.0123425   5.2550232  32.4743772  19.1723537  22.4738789
  32.0795989  19.9294472  22.0412230  31.9339228  18.4312773  22.2001171
   0.7875980  14.5223522  24.5506740  -0.1650591  14.4531822  24.6130562
   1.0621299  13.6964417  24.1522574  83.2777023 110.8837223  20.9295964
  83.0463600 111.7788029  20.6815100  82.8896236 110.3377628  20.2458215
  88.7140179 111.9408703  44.0441513  88.5189724 111.8378830  43.1127071
  88.7034607 111.0488319  44.3911266  29.0705609   9.6361697  22.5920916
  28.9711618   9.4194651  23.5191250  29.7435808  10.3166223  22.5760102
  20.6634855   2.5834188  22.2577834  21.3031197   2.7266121  22.9553485
  20.9759498   1.8011513  21.8031907  75.0252867 101.2847328  46.9948816
  75.3472090 102.1583939  46.7728043  75.7635069 100.8617973  47.4334955
  37.7271032   2.4312975  43.4805775  37.9818463   2.2604793  44.3873119
  37.2071743   3.2337528  43.5249805  32.4692297   4.6827027  15.0559890
  32.1920848   5.2916014  15.7405794  32.2228932   3.8197404  15.3889239
  11.0580289   0.9960387  16.8417716  11.8447864   1.4393237  16.5243733
  11.2615633   0.0637575  16.7665589   4.2055896   1.1551886  37.9459786
   3.7551105   1.2514016  38.7850523   3.9828619   0.2710542  37.6545501
  46.1456680  82.2104931  93.2989597  47.0379019  82.0150471  93.0127048
  46.1996698  82.2305965  94.2544270  94.1008091   0.3148673  48.4575319
  94.2961597   1.2333676  48.6430740  93.6438942   0.0045254  49.2392969
   4.1467208  27.0573330   1.5326299   4.7002748  27.0405316   0.7519076
   4.1827923  27.9656959   1.8323094  40.1071978  36.2197042   9.4621623
  40.8857918  36.7149806   9.7165686  40.1602173  35.4114604   9.9722224
  17.8386402  10.7683814  29.1755867  18.0948853  11.5647137  29.6408010
  17.9963636  10.9687221  28.2529712 108.3438587 103.9431953  16.9296432
 108.6925030 104.6659088  16.4077520 107.8025150 104.3677330  17.5951850
   6.5183210  35.3718829  27.8425455   5.7485783  35.3204560  28.4091878
   6.8141443  36.2787390  27.9221106  46.3450098  16.1374629  46.4103079
  46.5968418  16.9723117  46.0155439  45.4496670  15.9890616  46.1060572
  44.4017792   4.9475816  21.3792562  43.9846992   5.7969606  21.5235806
  43.8559484   4.5219871  20.7180667   7.3820609 108.6298656  31.8935847
   6.4521337 108.4677601  32.0522952   7.4401617 108.7883759  30.9513903
  15.4101682   3.3759868  10.7695413  15.0726020   2.8099823  10.0753367
  15.8644676   2.7798599  11.3649201  28.7986398  15.0723112  51.0240602
  29.7538233  15.0705802  51.0861254  28.6103940  15.5907357  50.2417374
  39.4280696   7.1611083  32.1527672  39.1589236   7.9803455  31.7372656
  38.6077881   6.6979933  32.3227620  23.6412120  34.1319513  21.9904470
  23.9473557  33.2840562  22.3122883  22.7260494  33.9819217  21.7533803
  16.2677979  29.7783875  35.5766559  15.3451705  30.0029421  35.6973433
  16.5800083  29.5673108  36.4565444   0.4956015  18.4863305  24.6023273
  -0.0676597  18.9064205  25.2523208   0.5291730  19.1091084  23.8762069
 114.7142887   1.1687937  63.7826633 113.7896252   1.1693390  64.0300989
 114.7688580   1.7925727  63.0586767  24.0441966  10.5310297  38.6596942
  24.9955034  10.4724300  38.7480879  23.9088178  11.0701823  37.8804517
  31.9264174  14.9599063  15.5697584  31.2592411  15.3402960  14.9984336
  31.4288211  14.5065284  16.2502551  55.3426933  79.6077013  93.6259937
  54.6750689  80.2877331  93.5361481  55.4785633  79.2862034  92.7346992
  33.1234241   0.4162771  15.3025603  33.9853597   0.7531559  15.0579965
  32.7346396   1.1137062  15.8304536  48.2378435  14.4538212  38.3003664
  49.1207838  14.7608709  38.5062075  48.2755756  14.2204857  37.3728085
  21.6775131  24.3634248  17.0846534  20.8556318  23.9364719  17.3264313
  21.4110899  25.1073265  16.5444112 118.3858204 109.0732193  20.7896328
 119.0636349 109.3805122  20.1876640 117.7139664 108.6962318  20.2215362
   9.6818155  98.1158352  22.0904350  10.1670945  98.9115143  22.3086858
  10.1882780  97.7121449  21.3856268   3.9692092   9.9749070  10.7926071
   3.8639283  10.7171428  10.1974332   3.2861286   9.3581444  10.5294788
  96.6010761 108.2485008   4.3818763  96.7947578 107.8205776   3.5478479
  97.2911167 107.9459381   4.9722403   8.1320429   9.7274977   0.7547050
   8.6836517   9.1053933   1.2289891   7.3003519   9.2685956   0.6366788
  93.4100533 104.7015667  21.4447570  94.1674328 104.1409111  21.6129136
  92.6914406 104.2814636  21.9173408  19.1978145 107.8312206  32.1294403
  19.1655827 106.8801117  32.0264959  19.4187808 107.9650211  33.0511260
  18.3912492  20.4141068   2.2274551  17.9533553  21.0680914   1.6826749
  18.4067476  19.6240008   1.6873412  38.7415552  41.4685011  29.5638895
  39.2675924  41.9953537  28.9622712  38.2192111  40.9040785  28.9939594
 104.2650700  96.9883537  14.2530370 105.1119995  96.5519905  14.1606903
 103.9769077  97.1447754  13.3537436  14.2674935   7.1025354  19.8482764
  14.8907256   6.5630841  20.3349018  14.0707457   7.8312349  20.4369354
  91.2491131  87.9736519  32.1690559  91.7795849  87.6893616  31.4247370
  90.5113602  88.4381580  31.7738605  14.4140685  26.5959454  11.6779137
  14.3252981  27.3839092  12.2140729  14.3621433  26.9127369  10.7761490
  24.5774460   1.9884394  38.3936858  23.8024211   1.4489952  38.2369471
  24.4966555   2.2642143  39.3067312  35.6301475   1.4540547  25.6405902
  36.1966801   0.7083254  25.8384800  35.6360579   1.5124504  24.6851921
   7.5233394  25.9332180  46.8054056   8.1752354  25.2811289  46.5484190
   7.1910805  25.6209564  47.6470280   3.4676120   9.9115282  13.7162113
   4.2519873  10.4017270  13.9625704   3.4397230   9.9684674  12.7611136
  92.8693295 109.0686607  45.1286173  92.9261017 108.1604385  45.4254913
  92.6093006 109.5596218  45.9080839  48.0906677  22.7005506  13.5501492
  48.7438488  22.4033070  12.9167211  48.5906029  22.8679085  14.3490779
   3.5584530  25.8952165  31.6434860   2.8333187  25.9184361  32.2678828
   3.3757016  25.1342201  31.0923791 107.8419971 107.1156502  12.7303684
 107.4280739 107.0758343  11.8682098 108.1721020 106.2295055  12.8787303
   1.1171001 107.9260349  10.5569720   0.8302992 107.1494484  11.0374796
   0.3499410 108.4983921  10.5469978  44.6134186  33.0896473  12.1859956
  45.2890253  33.6536574  12.5624061  44.3427467  32.5244880  12.9095721
 100.8537006 104.9281788  19.2903459 100.2877235 104.1607571  19.3738329
 100.4099560 105.6091785  19.7958755   6.4645404   3.5866681  10.1059115
   6.5954351   3.7437698  11.0410142   6.0315454   4.3790227   9.7882307
   8.5930043   0.6899197   1.0447267   7.7139908   0.8084232   0.6848322
   8.4980983  -0.0199310   1.6798145  22.9909086   8.1037766  13.8477635
  23.2137942   8.3515877  14.7450614  23.0570507   7.1489000  13.8395464
  42.8585529  20.9310603   6.1655033  43.2201719  21.0869312   7.0379531
  42.9236126  21.7780852   5.7244295  17.2870684  26.9848323  12.6829886
  17.9587889  26.7119145  12.0580566  16.4592981  26.8274641  12.2288251
 103.7324905  97.9389191  28.3538580 104.5510960  97.6522160  27.9489970
 103.6644650  97.4161339  29.1527939  29.4474936  24.1954041  17.3015821
  29.7749090  23.5933352  17.9698205  28.6094737  24.5034432  17.6466393
  93.6190510  93.4561253  29.6825957  93.3069801  93.7224102  28.8177657
  92.8442669  93.5056114  30.2425027  19.8015356  26.5226507  34.0075374
  20.0351810  25.9677863  34.7516918  19.9878442  27.4131870  34.3049693
  22.4499178   6.2869745  11.4872777  22.4323583   7.1458614  11.0650969
  22.3659086   5.6636530  10.7657206   3.9891756  27.5210023  25.7379150
   4.2480040  27.0947862  24.9208593   4.0237686  28.4571195  25.5411434
  84.9543667 106.0630035  36.8623781  84.3198395 106.1784077  36.1550713
  84.7053719 105.2359486  37.2749424  36.2808895  11.5113056  24.7342229
  36.9598269  11.5472734  25.4080009  36.4815116  12.2446299  24.1526556
   7.6598811   7.8675562  44.6581554   6.9397140   8.4294224  44.3719769
   8.2100344   7.7688903  43.8810921   9.9536693  10.7401156  41.6989660
  10.6969798  11.1256731  41.2352133   9.1961586  10.9479344  41.1519575
  89.9264240  95.6196594  36.1636829  89.0906525  95.1933670  35.9739971
  89.6839905  96.4548492  36.5635729 104.9266338 105.1872158  10.8673179
 104.4269943 105.2890587  11.6773880 105.3244495 106.0455799  10.7217610
 118.7117958  97.7302074  16.3028789 118.5820293  96.8008041  16.1141717
 118.8200665  98.1363773  15.4429162  16.8518782   1.1087594  31.4270282
  17.7369368   1.1124402  31.0624886  16.8027866   1.9122982  31.9448590
 109.6345520   7.9756522  20.4169989 109.0425110   8.1449527  19.6841538
 109.5156097   8.7260151  20.9992719 111.9874287  20.9420395   8.1009305
 112.6969624  21.1501265   8.7087959 111.2552261  20.6914186   8.6642259
   6.2812239   8.6840993  28.5231376   5.5007750   8.1314969  28.5651159
   6.0887885   9.4153392  29.1100693  39.8519325  21.0272408   9.0625829
  40.1206923  21.3161802   9.9346578  39.3375683  21.7565799   8.7165654
  28.6878705   4.0527409  24.6202135  29.3806863   4.4681126  25.1337361
  28.0039191   4.7194323  24.5572519   5.1344073   2.2734046  33.9185762
   5.1218635   3.2156950  33.7507582   5.9778756   1.9799741  33.5740590
 110.0733376 108.8741016  16.5224719 109.5223236 109.6087551  16.7924941
 110.5732250 109.2103672  15.7786500  15.1458013  18.8639975  11.1653030
  14.7736955  19.1106486  10.3185844  14.6019459  19.3196690  11.8078113
  65.0055552  38.9499807  12.6900542  65.2032948  39.8729396  12.8490365
  64.1360378  38.8225269  13.0694246   8.1509835  25.1574230   6.1338204
   8.0410659  24.2097950   6.0553795   9.0864676  25.2773118   6.2973070
  17.0748818   3.1891161   3.3197618  17.0478070   2.3991071   3.8595623
  16.2394130   3.6241850   3.4898758  25.1062727  20.3746247  57.3727989
  24.9338770  19.8771250  58.1721783  24.2404866  20.5268407  56.9940138
  18.0786598  10.9663749  40.8763027  17.8766239  10.2793109  40.2411985
  18.0411446  10.5261648  41.7254448  16.5907311  16.8693137  31.8213820
  16.9627130  17.6786959  32.1717548  16.4513147  16.3171005  32.5907040
  23.3675838  17.6744974  47.1739626  24.1545868  17.9074073  46.6814089
  22.7097583  18.3083451  46.8880701  12.0041680  26.9789624  14.6444798
  11.8178606  27.3534322  13.7834966  11.7194271  26.0676646  14.5760202
   4.1865063   3.2813999  30.4441404   4.9880663   2.8064561  30.2246809
   3.5949183   2.6093057  30.7825851  12.2170103   0.8744446   2.7068022
  12.5229728   1.4785704   3.3833009  12.9193032   0.2290034   2.6266709
   1.9135337   5.3822613  16.0905325   2.3159960   6.2277824  15.8921647
   1.4408618   5.1486713  15.2916276 110.0209999 106.1108017  38.7797832
 110.7532787 106.3340092  38.2051730 110.3994083 106.1056042  39.6589923
 111.0601044  96.9159222  47.3409557 110.2935982  96.3630867  47.1890974
 111.7079449  96.6062450  46.7079973  16.1019993  24.2707682  27.6419640
  15.1625466  24.1522169  27.7819848  16.2924588  23.7634230  26.8529415
   4.6242797  19.6152461  22.0445180   4.5807642  19.5906293  21.0886240
   4.8357466  18.7167323  22.2978687  35.4903650   4.2933378  28.8280916
  34.7252369   4.4408894  29.3840051  35.4644537   3.3575577  28.6284018
  18.9139307  15.0763595  20.8365035  18.9126694  15.0806296  19.8793137
  19.5143032  15.7815433  21.0783720   6.2956089   8.5505873  11.0263062
   5.5155563   9.1044885  11.0570216   7.0270026   9.1677737  11.0069203
  24.6573091  12.8561223  24.5907211  25.4519606  13.3890080  24.6189451
  24.9554753  11.9703233  24.7973371  34.4874477  10.3726733  21.1002040
  33.8922739  10.5802572  20.3798509  34.3322563  11.0624468  21.7454624
 107.3260021 109.9402809   5.7173353 106.7778206 110.7217884   5.7878733
 106.8141747 109.3364811   5.1791018  73.5388947  59.7331524  95.3112411
  73.3884430  59.1168356  94.5944691  74.2039394  59.3106508  95.8547878
  16.5673864  17.9063845  44.9023676  17.4305975  17.5548339  44.6843958
  16.5711474  17.9758394  45.8570385  96.5589046  92.8877735  20.8609629
  96.0919476  92.4343014  20.1591516  97.2203732  93.4116459  20.4090142
  64.1958618  70.9168625  95.2401352  64.9612951  70.3737783  95.0519753
  64.5342350  71.8121910  95.2509022  36.6275191  41.0622597   0.2896796
  36.3481927  41.0397339   1.2049398  36.3931704  41.9403696  -0.0107152
   7.9169905  21.3285661   9.2596811   8.0036449  20.6596327   9.9388355
   7.8570294  22.1531987   9.7419852  32.6830435  29.8072052  15.2973616
  32.3707891  30.6102538  14.8804188  32.9242420  29.2366314  14.5676363
  38.3931732   3.0763340  22.1515536  39.0641141   2.8655794  22.8009033
  38.6078024   3.9640021  21.8648291  28.4347725  21.7918563   5.4986894
  28.5973263  22.1788740   6.3589376  27.7734256  22.3588896   5.1020503
  31.5487647   8.1389743   1.6223688  31.2860632   7.4673760   2.2517936
  31.6032195   7.6756865   0.7865274  42.1547031  22.1903753  86.7715836
  42.2206926  23.1290960  86.9467354  42.6837349  21.7811894  87.4563694
  28.1607747  28.2421756  94.6769333  27.2935581  27.8906894  94.4753838
  28.6523867  27.4910259  95.0090885  84.0752506  91.4269257  17.0299518
  84.3145466  90.5165005  17.2033918  83.1277275  91.4550018  17.1627951
  46.9463682   3.7063250  83.6560917  47.0251751   4.5511103  83.2129669
  46.1003208   3.3630872  83.3686447  51.8771696  40.8488750  89.8499012
  52.8216934  40.8303833  89.6957397  51.5331125  40.1336479  89.3148232
  91.5280437 107.6736355  11.5055513  91.0575771 108.4436417  11.8248928
  92.3841000 108.0092525  11.2395656  68.0618620  25.9706926  88.7169361
  68.0274010  25.5573940  89.5796204  67.3256969  26.5824819  88.7148762
  99.9451256  90.3974819  26.3445711  99.5781708  90.8656883  25.5946589
 100.5062389  89.7260761  25.9565282 100.1139164  81.8502712   5.9319681
 100.3302002  81.9518852   5.0050753  99.1855240  82.0766163   5.9874988
  97.1557331  76.4389610  21.9295335  97.8750610  76.6413212  21.3313317
  97.4250412  76.8197107  22.7654338  87.3656464  78.2915211   7.6919246
  87.4321365  77.4588203   7.2245681  88.1213760  78.7960625   7.3910367
  94.6104527 106.8910694  24.7024441  95.3610992 106.5032005  24.2526460
  94.6639919 106.5503025  25.5953288  69.2663860  93.1897736  18.0429101
  69.0647459  92.3638630  17.6030946  69.6788502  92.9282665  18.8661468
 111.3052654 105.6644917  11.3045263 111.2058258 105.0039959  10.6188929
 112.2007751 105.5475140  11.6217136 108.6947823 103.0537319   0.3499425
 108.4998608 102.1225262   0.2446296 108.6917305 103.1934738   1.2968814
  15.2815068  11.3029325   5.9086746  14.6777523  11.7111993   5.2881670
  15.8317435  10.7351220   5.3691721 102.1632099  83.5525894  48.1956148
 101.3305664  83.4142017  48.6470556 102.2154808  82.8350449  47.5642300
  85.9348011  44.7418356  87.0274353  86.5133858  45.3768587  87.4495983
  86.0339069  44.9131250  86.0909081  90.1417446  81.5686703  13.4674907
  90.8694649  81.1614418  13.9374089  90.3295231  82.5066471  13.5016620
  65.7855606  86.4087391   5.9758300  66.3033772  87.1056843   6.3787746
  65.8989954  86.5397644   5.0344515  83.7278938 111.4053631   3.3365750
  84.3175411 110.7190514   3.6488611  83.4089088 111.8281555   4.1339016
 100.9632969  99.7904587   8.3233714 101.3415051 100.4549599   8.8992423
 100.0262642  99.8102379   8.5178429  52.2397852  37.9962134  92.1741295
  53.0846643  37.8904009  91.7368412  51.7476845  38.5875082  91.6045284
  82.6558208  89.1952038   0.9909883  82.3408985  88.6415768   0.2764613
  83.4098053  88.7235641   1.3449651 114.4007874  85.5304241   7.0024025
 114.2505360  85.9339523   7.8572851 113.7629032  85.9491539   6.4244652
 115.6750584  89.1866970   3.2166058 115.8985615  89.8432636   2.5569022
 116.5147972  88.7983894   3.4621564  36.2451577  99.9332428   4.5585954
  36.7465758  99.2419815   4.9909905  35.5808711  99.4661140   4.0519038
  66.5833473  44.1541624  91.0023880  67.2294617  44.4483519  90.3603458
  66.4836597  44.8959827  91.5990448 102.5354862  77.9906940   5.4191899
 102.1423435  78.7177181   5.9020019 103.2867146  77.7282858   5.9511852
 110.4436588  83.6853504   4.9555117 111.1449337  83.6634350   4.3043876
 109.6374512  83.6583328   4.4402155  99.2660141  88.8260460  12.5517213
  99.5134640  88.3845997  11.7392409  99.3342972  88.1474781  13.2233763
   9.9742484   0.3174801   9.7678506   9.0661526   0.5697028   9.6005875
   9.9306709  -0.6184361   9.9637938  87.2046375  83.7669659   7.9138994
  87.6459789  83.5500336   8.7351149  86.3279438  83.3942699   8.0074275
  57.1187639  45.8615160  89.3101120  56.2739277  45.7500172  89.7460651
  57.4468422  44.9700880  89.1920185  27.2682238   4.5111424   4.0414885
  26.3307118   4.4652510   4.2290998  27.4410272   3.7442189   3.4954125
  81.9497776  95.5658531  16.5868700  82.5568867  95.6652069  17.3202026
  81.3772678  94.8438358  16.8460286 109.1791821  74.0503740   4.9468157
 109.4959164  74.6419716   4.2642269 109.1013050  74.6023560   5.7249457
  87.8029919  79.9747705   9.7035915  88.5482311  80.4157734   9.2957044
  87.5605106  79.2890930   9.0812725  78.3142710  36.5600491  92.5720119
  78.3304644  35.6129169  92.7095222  77.3880291  36.7686081  92.4503326
 102.0606232  75.4354143  22.1554184 102.7383232  76.0442591  22.4491215
 102.5390625  74.6414900  21.9166517  56.0042524  34.9275589  92.8922367
  55.3279734  34.8325729  92.2215271  56.7784739  35.2209044  92.4118614
  98.1070709  97.5719547  51.9799566  97.5592136  97.6806927  52.7572966
  98.3446026  98.4642220  51.7276144 113.8946152  90.9187698  29.3061662
 114.6633434  91.3300133  29.7013474 114.2371178  90.1364040  28.8739395
  99.1516876  89.4032669   7.8173000  99.5978069  89.0724182   7.0377147
  99.6181870  90.2099800   8.0359799  42.8314161   7.5652713  93.4455872
  42.6313639   8.0505091  94.2460632  42.2458076   7.9383117  92.7867031
  81.8115234  90.2591801  11.2602246  81.5669250  89.8360920  12.0832682
  82.7668381  90.2038670  11.2371469  93.2785320 104.0345955   4.6888357
  92.9503250 103.1441498   4.8137999  93.5173702 104.0740585   3.7627530
 103.2009506  82.8518105   8.1222260 103.9519691  83.1467438   8.6372125
 102.4741268  82.8379726   8.7449336  82.9054642  89.2049122  24.8225260
  82.8511524  88.2746792  24.6035552  82.0632458  89.5657349  24.5455813
   2.7448583  88.3721733  28.8960481   2.5727051  87.5004768  29.2520547
   3.3758980  88.2229900  28.1919408 119.1371918 106.5948391  17.2676432
 118.2823658 107.0249367  17.2905552 119.7423458 107.2797012  16.9830620
  89.6368790  92.2759628  33.1899619  89.8467064  92.2531986  34.1236019
  88.7193966  92.5468731  33.1572032  62.6504755  30.9545064  95.9068489
  63.3360720  30.5609822  95.3670979  63.0307102  31.7772222  96.2147427
  80.1518345  81.8766975  15.2057397  80.8005428  82.5014782  14.8816252
  80.6379890  81.0586739  15.3092730   2.5833818 103.4125519  12.3829007
   2.5651398 102.9472542  13.2191968   1.6670401 103.4480190  12.1085083
  41.8245363  37.7879167  92.1822357  41.0180902  37.3194337  92.3976517
  42.0513582  37.4828815  91.3037491 114.1125488  95.8275890  12.7794969
 113.3731461  96.4284134  12.6871443 114.0042591  95.4466915  13.6509430
 105.3536224  86.3739395   7.8918970 106.0697556  86.9754887   7.6881152
 104.6269226  86.9434738   8.1443954  13.4260249  79.9758959  12.1336186
  13.7835193  80.6263638  12.7380323  13.8059664  79.1461897  12.4225152
 103.7212045  62.7617577  -0.1299361 104.1733176  61.9470940   0.0895044
 103.5793359  63.1916187   0.7134649 112.0420647  80.6585884   8.6103565
 112.9664803  80.4538345   8.7509394 111.8313789  81.2957287   9.2929190
 103.5583591  86.7007828   2.6254821 103.4283733  86.1714172   1.8386453
 103.6070728  86.0631943   3.3377582  11.1567819   6.1199141   4.2438781
  11.3256562   5.9045464   5.1611185  11.2952769   7.0655340   4.1904643
  95.8271122  94.7716331  22.5603318  95.9175682  94.1473103  21.8404174
  95.1119900  95.3474236  22.2895980 101.4276695  97.7091312   6.7850357
 101.5550709  97.0496655   7.4670196 101.4293385  98.5430431   7.2549409
  92.4804974  12.2637725  27.9034591  93.3279419  12.0322132  27.5233889
  92.0301056  12.7449119  27.2092843  49.9135637   6.6896564  85.3063107
  50.7055950   6.7178369  84.7695351  50.1672506   6.1886203  86.0814381
 105.6489849  74.8195648   9.1811603 105.0149250  75.4744101   9.4733572
 105.1589775  74.2665434   8.5726422  91.3714218  71.2285614  11.7904997
  91.1951542  72.1393156  11.5545046  90.5226135  70.7927656  11.7141521
  71.6628170  85.2388096  30.0064135  72.5541925  85.4641914  29.7401619
  71.5082693  85.7620049  30.7929373 102.7953720 103.7133789  29.4396472
 102.7007103 102.8255272  29.0946817 103.3778000 103.6167526  30.1930928
 114.5576572  85.9436321   2.7134442 114.6578598  86.4521027   1.9086790
 113.8128281  86.3462353   3.1599590  95.1191330  97.4975109  11.0312402
  95.4007053  98.0213737  11.7812514  94.5269012  98.0723381  10.5463982
 108.5625267  76.1694860   6.8186796 107.7013493  76.3764668   6.4556724
 109.0700245  76.9729900   6.7044169  38.5086823   5.5570805  28.9408755
  39.0271640   5.8690804  28.1992102  37.8055120   5.0440794  28.5426140
  58.2932425  17.3646021  90.9346676  57.4583530  17.3787582  91.4026260
  58.9545488  17.4431896  91.6222191 103.3126068  99.0707493   0.9843189
 102.9655266  98.7219620   1.8053655 102.9102993  99.9354267   0.9023463
  15.9402514  14.6649873   4.0287131  16.3694072  15.3702092   3.5442349
  16.6603684  14.1706729   4.4202700  16.7097270   6.4349169  14.0513277
  16.4488184   6.0454512  14.8858786  16.0076427   6.1966205  13.4459150
  50.1979733  28.9983344  90.1393414  50.3414869  28.7982965  89.2143440
  51.0285044  28.7815070  90.5629349  71.3140059  78.7127733  26.4759612
  71.8971872  79.1148233  27.1197677  70.5980206  79.3402481  26.3765764
 117.7483082  94.2694187   8.1427562 118.7054825  94.2632103   8.1397146
 117.5043774  93.4143543   8.4971476  80.3389359  98.1004333   5.2965671
  80.8003044  98.3191776   6.1062104  79.7697783  97.3688221   5.5353916
  68.9992046  49.3144894  78.1777143  69.2839861  49.6849203  77.3423004
  69.7282982  48.7595272  78.4546089  93.0833817  79.4970083   1.3195732
  93.2317734  78.7035608   0.8051245  93.8525391  79.5628548   1.8855152
   7.8248161 105.2693462  21.6780043   6.9095969 105.3985119  21.4291644
   8.2271492 104.8646736  20.9095001  34.3021321  30.9880948  90.9491444
  33.9801311  31.1170816  91.8412876  34.2923760  30.0389147  90.8258820
 108.0778599  81.0781384   6.5289086 108.5464573  81.4958763   5.8063155
 107.1557140  81.1283112   6.2771773  84.6005726  80.1088047   2.4242051
  85.2238846  80.1914501   1.7024848  84.8063755  80.8423996   3.0036166
  84.7537518  91.0582733  11.9592988  85.7045937  90.9834099  11.8785572
  84.6201229  91.5486526  12.7704144 106.6873169 102.2988033   3.8216692
 107.5655270 102.6578522   3.9484191 106.1363125 102.7940464   4.4277605
  36.2479234  39.5780444  95.2058792  37.1465707  39.5857954  94.8763371
  35.7642817  39.0504313  94.5703125  97.1286964  98.8852787   6.8379134
  97.4728680  98.5361195   6.0158014  96.9935226  98.1136227   7.3879230
  88.7878418  97.0578289   9.4703907  89.5289421  96.8931007  10.0533748
  88.0930710  96.4873505   9.7991472  94.0493488  99.2010021   4.8013908
  93.1307507  98.9559841   4.6901134  94.3547916  99.3941021   3.9150226
 118.2408047   0.8047511  13.4130812 118.1815434  -0.1499249  13.3768308
 117.4031258   1.1101165  13.0648136  87.8142738  86.8564987  31.4010620
  88.2675648  87.3852444  32.0577049  88.1152534  85.9625721  31.5639687
  19.4798410  29.3190551  96.0675335  20.1694822  29.1601133  96.7120266
  19.9467301  29.4278312  95.2390385 101.4515781  64.2216969  46.9581652
 101.6965866  64.8228455  46.2547302 101.2890911  64.7887039  47.7120447
 102.2881222  90.2688789   9.6845829 102.6570225  89.6465015  10.3113151
 102.3273849  91.1130905  10.1340199  53.0499268  10.5633974  67.4210453
  53.4706545   9.7109985  67.5334501  52.1209192  10.3945196  67.5780582
  99.0600872  70.6647730  21.3835835  99.1534805  70.9054947  22.3053002
  99.7776413  71.1202002  20.9432006  41.2523556  33.7142634  85.0834274
  40.9397840  32.9334116  85.5403709  40.4825258  34.2797256  85.0213909
  46.3539076  30.0636363  89.7994232  45.7983637  30.8079100  89.5677853
  47.1446419  30.4597735  90.1655388 117.9252529  86.8200302  38.6155486
 117.4773598  86.8501472  39.4609594 117.3888874  87.3660755  38.0407548
 116.9695091  92.8226566   4.9694827 116.5960598  92.5991631   5.8220166
 117.0747375  93.7736797   4.9959695  89.3772030   4.1355014  59.6482658
  90.1329041   3.6069000  59.3918753  89.5454597   4.3666834  60.5617619
 104.9022579 105.3150749  27.3535800 104.3753719 105.8053398  26.7224956
 104.2625332 104.9348927  27.9556108   5.3397745  52.5925207   1.6015477
   5.4344678  52.4185228   0.6650706   6.2077129  52.4195910   1.9662529
   7.7321023  76.7020845   3.0782604   8.4953630  76.9405746   3.6043650
   7.8172737  75.7577562   2.9470032  75.4090071  16.6712034  91.7695045
  75.7414865  17.5395501  91.5422058  75.7845592  16.0902226  91.1079502
  97.6794910  76.2744427   7.9890627  98.3280277  76.4029026   7.2968650
  97.6801491  75.3301334   8.1456321 115.4006004  81.9730854  21.0067272
 114.7510242  82.5280380  21.4383507 116.2402630  82.2698879  21.3576078
  19.1213238   0.6008595  29.4736719  20.0439763   0.5884922  29.7282147
  19.0960264   1.1520038  28.6914730 102.5384426 102.3990726  17.4215090
 103.1061459 102.0487595  18.1079650 101.7212200 101.9092464  17.5134039
  -0.0762388  77.7630758  18.4987509  -0.5294439  78.5110521  18.8878047
   0.7178191  78.1365824  18.1163836  96.1242390   0.6121450  21.9366145
  95.2821922   0.7688913  21.5092611  96.7350674   1.1924870  21.4823890
  84.7122478 111.2841988  16.7038798  84.9722672 110.6817245  17.4007678
  85.4219913 111.9252300  16.6642642 105.9078693  90.4571247  17.6935256
 106.3644028  91.2921333  17.7963555 106.0086823  90.0231171  18.5407031
 107.3428917  92.9067516  10.6661224 106.4173603  93.0881500  10.5026579
 107.8093529  93.5934067  10.1895297  10.6320059  14.2636132  12.9261231
  11.4050531  14.2515147  13.4904671  10.5332875  15.1819372  12.6747942
 108.6869144  97.7801800  19.1356361 108.1367302  97.0176697  19.3148267
 108.6326504  98.3073235  19.9327600  48.8916588  13.9183581  85.1477814
  47.9691505  13.8054860  85.3768444  49.0636253  13.2331967  84.5018578
 108.7914276  94.4719315  23.0585027 109.3068981  95.1324940  22.5957060
 108.4103584  93.9352989  22.3634934  75.8155107  77.6720572  22.3072147
  75.6046486  77.2300529  23.1296492  76.7715788  77.6545334  22.2641587
  62.2944832 101.3173294  26.3112569  61.6313457 101.0937881  26.9643307
  61.8498230 101.9196892  25.7148719 102.9857635 102.1986103  24.8365951
 102.7943039 103.0108166  25.3055239 102.1458530 101.7411995  24.7970176
  78.2750225  91.9918442  18.1037629  78.8647604  91.6611481  18.7813175
  77.5612879  91.3546467  18.0756235 106.1973381 109.3721867  16.7664862
 106.2634182 108.9949322  15.8892488 105.6437397 108.7589073  17.2498643
  89.6100044 109.8924828   9.7402304  89.1332054 109.8438644  10.5688024
  89.2274666 109.1989613   9.2027122  84.8879147 101.5334892  25.7001948
  85.0110435 101.3075542  24.7782278  85.1753235 102.4442959  25.7640409
  14.2076743   2.8680441  31.8128920  13.3568180   2.4551423  31.9604969
  14.2893732   2.9143995  30.8603120  48.5119867   9.3382150   1.2944904
  48.7142086   8.4932011   1.6960992  49.0364313   9.9692869   1.7873803
  87.3020744 110.0797558   0.1435258  87.1738529 110.8055210  -0.4672487
  87.6017570 110.4966545   0.9513703  11.2985396 106.4580345  26.9222498
  11.6340899 105.7539558  27.4771500  11.6984320 106.3002014  26.0670257
  61.1003304  22.0509100  77.7035475  60.3479385  22.5979400  77.4779510
  61.5344048  22.5221229  78.4147263  65.0751305  45.5962420  85.2732086
  64.9036789  45.0106382  84.5357037  64.6895552  46.4319229  85.0101376
  75.5622387  29.0771151  96.7926884  75.5078650  30.0273776  96.6913128
  76.4997768  28.8863564  96.7632008  93.2757187  99.4917011  17.3191917
  93.7625885 100.2659321  17.0367622  92.8181458  99.7724247  18.1116927
 101.7051601  94.3727398  18.9796388 101.3282013  94.1861343  19.8394704
 101.0887241  94.9832344  18.5752428  63.3604097  33.4722161  96.4959335
  63.7093496  34.1442823  95.9104443  63.4591055  33.8435912  97.3726177
  70.4906797  45.5246210  87.2791767  70.8265352  46.4159489  87.1844769
  71.2742949  44.9802780  87.3557949   0.3039685  97.8805828  19.0472341
   0.7382032  97.0847607  19.3543732   0.1052739  97.7052689  18.1274426
 102.8385830  97.2824287   3.6890128 102.2202587  97.4404812   4.4023967
 103.4043789  96.5817451   4.0132904  98.3192348 111.6341305  19.3784893
  97.7133656 111.4124966  18.6713564  99.1100788 111.9348240  18.9308608
  22.7922225   4.3420640  22.3118114  23.6073947   3.9854005  22.6646852
  22.7226996   5.2129334  22.7029443  97.8087425  31.2044406  90.6923199
  97.6255798  30.9270811  91.5899563  98.0315781  32.1321750  90.7690430
  83.5802078  99.7024632   2.2180551  83.1375694  99.0438271   2.7533132
  83.2554436  99.5479107   1.3309951 111.4339352  76.0920715  19.6323693
 111.0464668  76.7392683  20.2216387 112.2296619  75.8058882  20.0808549
  36.3456345  74.3295145  86.2576675  37.2205353  74.4643116  86.6218281
  35.7619476  74.7915030  86.8594265 104.5522881 104.2795467  16.4815056
 103.6982536 104.7108746  16.4530611 104.3914413 103.4604359  16.9499218
 102.0180511  94.0832424  34.4409990 101.3317490  94.2390537  35.0897956
 102.4969769  93.3253098  34.7762704  66.4561892  40.1690197  83.2130814
  66.5721178  40.6148577  84.0521431  67.0485306  40.6253862  82.6155090
 101.3405800 102.2117424  27.3076296 101.1837101 103.1533527  27.2370052
 101.1343002 101.8686771  26.4381504  69.5526028  64.7901344  92.5195026
  69.0316010  64.4960642  93.2667065  70.4232121  64.4242668  92.6757336
 112.9689980  77.3522091  26.5168118 113.4685040  76.7028713  26.0217500
 112.0704174  77.2541094  26.2019253 101.0368252  19.0791869  85.5428886
 101.7078876  19.6899140  85.8477116 100.9785843  19.2380226  84.6007538
 118.4924316 101.1513615  15.9657228 119.1134453 100.6195641  16.4634907
 118.4766579 101.9921017  16.4230442  77.5012684 106.9875813  45.3656769
  78.3646059 106.5758133  45.3293610  76.9621801 106.4665604  44.7705698
  93.5128498 110.4110622  17.0482266  92.7930546 110.7635975  16.5249193
  94.0110779 109.8694324  16.4361513  37.2726369 104.4749260   2.8092504
  37.0453548 104.4490051   1.8797868  36.5151620 104.0920448   3.2518151
 102.2808838  95.5953217  15.4518092 102.7391434  94.7992706  15.7211244
 102.9553032  96.1296844  15.0324607  32.6629114   1.4445341   6.5899879
  31.8445635   1.3683273   6.0993415  32.8383541   0.5569562   6.9024897
  61.7950439  34.5899653  90.7936573  61.7309332  34.0692782  89.9930286
  61.3349724  34.0716743  91.4539242  91.2738705  94.1353512   0.8317037
  91.8180084  93.5081100   0.3555661  91.2942314  94.9268436   0.2937859
 102.1229649 105.6556129  16.7099607 101.7559052 105.2268505  17.4830508
 101.3595676 105.9669590  16.2236285  30.3258753   4.2630097  38.3832932
  30.0124645   4.9638280  38.9550090  31.2541342   4.1746077  38.5995173
  89.8554516  90.4751778  16.6895509  89.1687679  90.5225945  16.0243809
  89.4362640  90.7921982  17.4895573  91.5829659  89.3515015   3.4122261
  91.1924458  89.2239189   2.5476757  90.8386707  89.5284557   3.9874962
  31.2838078  13.7266445  17.6738071  30.6473160  13.8438451  18.3790529
  31.6693401  12.8663564  17.8396416 109.1482162 103.7876129   3.8537571
 110.0897789 103.7868881   3.6814597 109.0602875 104.2222595   4.7020432
  93.9917660  92.1269798   7.0906013  94.0555954  93.0735683   6.9636154
  94.1155338  91.7590618   6.2156451  11.2711930  17.1910596  10.5713332
  10.5137885  17.3024774   9.9967408  12.0193052  17.4538958  10.0351644
  82.0981693 106.9030380  30.8318591  82.3108578 107.8241348  30.6816411
  82.8720093 106.4264488  30.5314159   8.8699752   2.2914635  27.3050141
   9.5507145   1.6186327  27.2938371   9.0738559   2.8509319  26.5555739
  96.7894268 102.4827671  32.8953648  96.0791302 102.2376251  33.4883428
  96.6209793 101.9793510  32.0988536  80.3759575  37.8219271  91.0816765
  79.8234034  37.3222589  91.6827202  81.0032845  38.2697606  91.6492558
  85.8603477 109.9876690  10.2359426  85.2826118 109.2823505  10.5274677
  86.2278938 110.3456497  11.0440195  88.5970688 112.0210934  34.7663569
  88.3968449 112.0345783  35.7022834  88.2691765 111.1743546  34.4634557
  58.2239151  42.0522785  78.1483746  57.7787876  42.3205471  78.9521980
  58.6578703  41.2305021  78.3777285 117.3888016 104.8466492  13.3670056
 117.8865433 105.6540394  13.4958780 116.4784050 105.0994682  13.5202813
  81.2205791  90.7182789  17.3051500  80.9771252  91.3140106  16.5965819
  80.9005165  89.8626614  17.0193124  32.9636121  46.5217972  85.8878136
  33.7757587  47.0252275  85.8311844  33.2466173  45.6076050  85.8678627
   9.5163071 109.4135666  19.6960950  10.1882625 109.7730827  20.2752805
   9.8694456 108.5696697  19.4143891 113.0322742  57.6587152  17.9575717
 112.5748920  56.9344997  18.3848190 112.6807117  57.6721430  17.0673716
  89.4869614  84.5899677  20.4970241  88.8334560  84.7627449  19.8192966
  90.3218746  84.8186302  20.0885224  53.7892008  58.3068657  84.3149185
  53.9620304  58.5857344  83.4156990  52.8709650  58.0365944  84.3095684
  64.1104650  39.5121646  84.6888256  63.6111546  39.0507698  84.0150070
  64.8898697  39.8306108  84.2334652 103.9524841  94.1063595  28.7957430
 103.1789303  94.6532536  28.9327121 104.0039825  93.5630512  29.5821238
 113.0698395 109.0790272   5.5306339 112.1537590 109.3190956   5.6698990
 113.4446716 109.8255157   5.0632244 103.8970947 104.1096401   8.4627306
 104.3945122 104.3484497   9.2448908 103.4768105 104.9246025   8.1880820
 118.0908394  92.5809383  16.2415886 118.4615898  92.9447651  17.0455825
 118.8019657  92.0646667  15.8621311  72.3376942 106.6349220  28.5337353
  73.1883097 106.3355541  28.2126975  72.5473070 107.3422718  29.1436172
  74.3592882  32.0704246  93.2314396  73.9096832  32.8988767  93.0648422
  73.6773157  31.4050794  93.1394386  46.5247631  26.2598538  93.4666061
  46.3715410  26.8231606  92.7080345  45.8326578  26.4962196  94.0841484
   9.5463306   9.5985603  32.9916382  10.0321841  10.3635943  33.2997012
   9.9089950   8.8672644  33.4915519  12.3287964  12.0914304  22.5882459
  12.9125810  11.3329625  22.5758481  12.2627187  12.3277164  23.5134673
  86.5469646  53.4298563  89.0886688  87.1827793  54.0080070  89.5102406
  85.9152126  53.2253790  89.7780895  65.7910204  44.1342306  82.8927231
  66.6613531  44.3910408  82.5880814  65.4637194  43.5447645  82.2132874
  58.9006138  32.4559426  86.3024616  58.0867481  32.0499158  86.6007805
  59.2422104  32.9042864  87.0761108  -0.2614514  80.4200459   5.1036477
   0.3653476  79.7449589   4.8436219   0.0264247  80.6911755   5.9753388
 107.6594543 107.8554249  25.4392982 107.3366261 108.2326031  24.6209168
 108.1292915 108.5727310  25.8646917   6.2634659  91.0817146  16.2754214
   7.0660496  91.5065002  16.5781522   6.0838687  90.4114532  16.9347584
   3.5079083  90.5613804  21.5076852   3.2551593  91.1294937  20.7799459
   3.0088297  89.7566509  21.3678384  86.5598202  98.1122017  14.5831275
  85.7535362  97.8412914  15.0221539  86.3013268  98.2513428  13.6720538
 100.6188107  91.8316746   8.3663207 100.0932312  92.2876930   9.0236217
 101.2442589  91.3160324   8.8753867  79.4469833 103.4476376  23.9884305
  79.6925735 102.6627827  23.4986067  78.6437321 103.7519932  23.5660696
  88.2316113 108.4590816  17.7300966  87.9201794 109.2397594  18.1881130
  89.1257191 108.3352184  18.0486333 106.5634441  88.2531166  25.6105852
 107.0701599  88.7040520  26.2859535 106.4359093  87.3697948  25.9565926
  88.4937286  92.7112770  26.8385649  88.2436371  93.2948112  27.5549245
  89.1178322  93.2205963  26.3215303 101.2425613  80.2966404  16.2297797
 100.9751129  80.2540588  15.3116894 101.9219780  79.6274900  16.3126159
  88.8201618  88.3496094  23.1947589  89.1679096  89.2114639  23.4238887
  89.5817566  87.7702236  23.2176733 102.1656036  90.7166767  42.5356865
 101.8432140  89.9261951  42.9686308 102.4945736  90.4097939  41.6908026
 118.6135292 103.9881611   5.8487839 119.4508648 103.6334324   5.5500096
 118.7598324 104.2041206   6.7697525 115.8471680  83.5815048  14.0265167
 115.2383327  84.2815304  14.2621315 115.3598404  83.0387592  13.4067082
 117.1034718  99.6003532  27.6532197 116.7558193  98.7961578  27.2676802
 118.0016994  99.3792152  27.8991914  65.0601196  46.0777378  95.5568981
  64.3005466  46.0277748  96.1372280  64.6863651  46.1729097  94.6808434
 107.1899891  95.7410908  11.7503095 107.6926136  96.4789391  12.0955265
 107.7740192  95.3310204  11.1123586 103.0831623  65.0800848  10.5972910
 103.2612038  64.1749382  10.3418756 103.3183670  65.1180315  11.5243673
 101.0725021  29.1801167  93.1455803 100.4468250  28.5041261  93.4059620
 101.9116783  28.7225938  93.0937862 112.7011871  92.4362946   3.1035507
 113.2464027  91.8274307   3.6017972 113.2676697  92.7394867   2.3940387
  42.4714375  17.5562286  20.8614612  43.1389236  17.6453221  21.5417218
  42.9026079  17.0588696  20.1665092  99.9846935 100.0674725   4.7348258
  99.8361111 100.9984875   4.9002743  99.6586037  99.6294785   5.5209935
  99.8466206 106.7107391  25.9081531  99.0284824 106.9956303  26.3152575
  99.9035358 107.2225189  25.1012611  19.5113564  17.9013109  83.2239532
  18.5588276  17.8074193  83.2341957  19.8365831  17.0851123  83.6037922
 106.7646122 107.8821373   1.7954171 107.7175331 107.8845119   1.8857759
 106.4415359 107.6690483   2.6708907  88.3037949  24.3652534  85.9265518
  88.3803844  24.0960479  86.8419170  87.6340866  25.0491261  85.9332561
 113.8985348 102.3999119  13.9319742 114.5641613 102.7421665  14.5286632
 113.7322330 101.5102577  14.2435622 114.6905327  95.1224804  10.3347659
 115.6379223  95.1532841  10.4678941 114.3232441  95.4773521  11.1443329
 106.0078716 108.7338066  14.1066372 106.6312599 108.4355545  13.4443188
 105.4120827 109.3128395  13.6312628 105.1574993  85.6083775   5.2052641
 105.3121948  85.9997082   6.0650092 106.0077572  85.6483459   4.7674224
 112.8962421 100.8535957  19.0260220 112.1506500 101.4480686  19.1092539
 113.5772705 101.3806152  18.6080635 102.7452374  96.7880630  30.5736375
 102.0907784  96.3627529  30.0195312 102.9914570  96.1177635  31.2110615
  54.4112682  49.1859627  93.9629269  55.3679085  49.1533327  93.9665794
  54.1835213  49.4346046  93.0670834  20.9994054   1.7425738  14.9433887
  21.5184808   0.9501509  15.0807166  21.1909771   2.2894168  15.7052910
  22.3458481   8.2549465   1.6848083  21.6373610   8.0394328   1.0783166
  22.4319196   9.2063397   1.6241995 117.7403259  98.4757137   4.9814627
 117.4953651  99.2584133   4.4878939 117.7150249  97.7684593   4.3369579
  37.6894212  98.7315178  15.6614256  37.3663783  98.0031967  15.1309347
  38.3252382  98.3319569  16.2549877 106.1297703 106.4065170  16.9289684
 105.7722378 105.5420208  16.7263758 107.0336246 106.3712883  16.6158497
  56.2385559  43.4236622  85.6171131  55.5666304  43.8750458  85.1062298
  56.7938614  44.1258526  85.9559250   6.3318866  75.8707190   6.3294268
   6.6953647  75.1980782   6.9053322   5.4358196  75.9951258   6.6421872
  99.4543362 108.8154507  47.0430851  99.3545246 109.6672440  47.4681807
 100.4010010 108.6882019  46.9810057  26.1755681   2.2586869   2.0837384
  26.6828275   1.4953333   1.8076737  26.1230755   2.8071976   1.3010430
 104.3783474 104.7034550  13.7335849 104.7951698 104.6142483  14.5906341
 103.4398746 104.6703815  13.9190662 103.0535412  80.1590729   7.3208994
 103.1456375  79.9006796   8.2379508 102.9406452  81.1091518   7.3499376
 111.1480904 103.8083553  23.3717823 110.9167004 104.7159576  23.5691428
 110.4072666 103.2963371  23.6961889  45.4054308  55.3855038  94.5513058
  44.4847298  55.1397181  94.4610977  45.8517456  54.9013472  93.8565826
  42.5634003   7.8675872   6.3510066  42.3514462   7.3403651   7.1212947
  43.4995794   7.7238852   6.2126231  12.4642086  81.7853737  22.4776411
  12.9285622  82.4759865  22.0047164  11.7937505  81.4842701  21.8644071
  34.1988087   6.2535471  19.7919583  34.8610091   5.6880111  20.1893139
  34.6724200   7.0536542  19.5644653  94.3487644 105.6068993   6.8504393
  93.7826633 105.1519680   6.2268996  95.0914383 105.0159931   6.9749779
  61.5864849  55.5859232  90.7948017  60.6549025  55.3813982  90.7138538
  62.0144987  54.7321224  90.8585358   6.0405904   8.0437422  -0.0183180
   6.0825443   7.0945925  -0.1348830   5.1226193   8.2193226   0.1883993
  80.3725624  90.0259876  24.0593839  79.5887756  90.2199268  23.5452819
  80.4896355  90.7951355  24.6169996  83.0594921 102.9827595  35.1666594
  82.7985382 102.3073196  34.5406270  83.1432056 103.7777901  34.6402049
  76.7073488  57.4094248  87.9756927  76.6573191  58.0387211  88.6952114
  75.7962179  57.2640419  87.7208614 108.6323071 102.0314217   8.2786536
 108.6080837 101.6142464   9.1398221 109.2389870 102.7642059   8.3844823
  21.8854070   5.2842063  16.7250299  21.7916226   5.1728529  15.7789660
  22.7708530   4.9747777  16.9160068  87.0999622  86.3516140  11.4146435
  86.4853859  85.6215668  11.4891183  86.5455437  87.1167755  11.2616980
  97.9915524 110.4972363   0.5927035  98.2861233 110.1832962   1.4476317
  97.4847412 111.2852764   0.7885442  84.5730305  39.8734021  88.0976486
  85.1733112  39.7148323  88.8261700  84.7583961  40.7722902  87.8258705
 103.8962364  79.9504375  30.0782108 103.1187630  79.6384764  29.6151233
 103.5941792  80.7185745  30.5629444  85.0893021  56.1329746  87.9187489
  84.4680214  56.1272049  87.1905994  84.7749901  55.4465723  88.5072136
 113.7486458 107.1727657  22.3211074 113.2407761 107.0667934  23.1255150
 114.6125126 106.8203545  22.5350904  55.2272987   0.3061634  17.3834336
  55.8462715  -0.0415255  18.0254745  54.4882679   0.6162893  17.9067755
 117.7223110  81.6985226  14.5395958 117.2953987  80.9005451  14.2278147
 117.0402145  82.3685265  14.4940805 102.7999020  86.4777470  20.9515810
 103.6646843  86.6632366  20.5855632 102.1897030  86.9155788  20.3581262
   1.2533768   0.8989985  23.4939861   2.1151078   1.1172121  23.1389737
   1.4409849   0.4342401  24.3094826  36.4691424   3.2691801  12.4904287
  37.4200153   3.1651041  12.4551702  36.3373542   4.1446778  12.8542519
 103.1668568 106.4659309   4.4103095 102.9461765 106.8595123   3.5661367
 102.7829075 105.5898666   4.3738157  14.2052889  -0.0133603  37.9459882
  14.9002635   0.3022603  37.3683834  13.4006596   0.3432219  37.5696206
  65.5667782  41.9439983  96.1705875  66.1712265  42.5272322  95.7115555
  65.3614140  42.4042273  96.9843769  63.6690474  58.8381290  91.1709976
  64.3599701  58.1785870  91.2331295  62.9972982  58.4305334  90.6243324
  15.2490187  16.2767208  29.6833730  15.0400066  17.1474624  29.3452096
  15.6549931  16.4413965  30.5344296  63.4738827  47.9441166  75.7394314
  62.6652527  47.9177952  75.2279091  63.2042360  47.7050018  76.6261959
 101.4407635 104.2620564   4.8472598 101.4611912 103.5534668   5.4904723
 100.5155563 104.4981575   4.7802991   1.6455816 102.1923351   5.0717866
   2.4584568 101.8340588   5.4283071   0.9530232 101.7057514   5.5188125
  37.4958825   8.9753520  13.9839089  38.0775166   8.9532548  13.2240117
  36.6155624   9.0185648  13.6105430  43.9977217   1.0165131  25.6925344
  44.5435715   1.2496734  26.4434743  43.1776285   1.4886102  25.8367729
  39.8815298   8.3124548  26.1281371  39.6734738   7.4263978  26.4245296
  39.8295784   8.2640880  25.1735711  41.5866804   2.3564075  35.0456214
  41.7143726   3.2269201  35.4226279  41.1572599   2.5197142  34.2058802
  24.6750903  17.8475511   0.5718494  25.0823569  17.5592852  -0.2450153
  25.2621126  18.5258639   0.9058091  81.9882584 102.8805542   8.2835150
  82.3884964 103.5359478   7.7121139  82.4435234 102.9815197   9.1194397
 104.9494457  86.3680267  28.4167886 104.4584751  86.8828106  27.7763391
 104.3142605  85.7362556  28.7538886  99.2909145 103.5652447   8.0454552
  98.9260960 103.3492947   8.9036536  98.5263538 103.6629581   7.4778879
  70.6849957 112.2387123  38.3427358  70.4141951 111.3245201  38.4272265
  69.9724436 112.6558018  37.8584456  74.9402952  59.3480158  92.0030594
  75.6578922  59.3221951  92.6360035  74.7100401  58.4293270  91.8644142
 118.9464664  91.9321823  12.1946013 118.3023548  92.6057339  12.4129629
 118.4267902  91.1410904  12.0519710  14.6902621   2.1929221   1.0765911
  14.4272459   2.6580900   1.8707404  15.4012740   2.7212730   0.7139073
 116.2625122 102.9884529  15.4884136 116.7762661 102.2122669  15.7116437
 116.8576431 103.5280609  14.9679685  94.8829651  98.6190796  15.0004756
  94.3497181  98.7462139  15.7851505  94.5010948  97.8524780  14.5730042
  58.3498907   8.3211285  14.7953725  58.3556175   8.5235047  15.7309175
  58.1473684   7.3865247  14.7537303  83.0462742  47.1049786  67.0939541
  83.5029125  47.5896311  67.7815771  82.1192265  47.1888733  67.3170614
   1.2032507 100.2694988  17.7933156   0.7050981 100.8663654  18.3517277
   1.1440011  99.4224834  18.2352400  97.4469280 103.1851387  13.1820095
  96.7183685 103.0000973  13.7746346  98.2267857 102.9267120  13.6731982
 108.7963295 110.2777195  26.2059331 109.4795990 110.6981945  25.6838465
 109.1319180 110.2998829  27.1021032  29.4873261  14.9031115  14.0080845
  29.1686893  14.2960072  14.6760130  29.0542912  14.6214449  13.2022452
  93.6903572  94.8126507   7.5909430  93.0174255  94.5138264   6.9793099
  94.0901756  95.5666542   7.1575087   9.7058350  17.7771473   8.0420393
   9.8217303  18.4900081   7.4138445   8.7927037  17.5104141   7.9358459
   7.8153235  75.7428026  18.2831204   8.4597892  76.4502478  18.3036411
   6.9946706  76.1732864  18.0434394  68.3209896  60.7515192  95.9723949
  69.1435719  61.2338495  96.0557365  68.3138895  60.4450083  95.0656223
  44.7427988  48.5982180  92.2941494  45.0280333  47.7493429  92.6322079
  43.8590479  48.7107563  92.6442242  81.3762951  62.7862406  91.6109276
  81.0749626  63.3057261  90.8655643  80.6620884  62.1714544  91.7787647
   6.1664033 100.0958920   3.2578599   6.4361423  99.7089863   4.0907925
   6.6677231  99.6170521   2.5978410  89.5876980 110.4838753  29.7769284
  89.3318081 111.3731480  29.5320916  90.4337502 110.5893135  30.2120256
   7.2475344  94.4595432   6.3185096   7.1259844  93.5340786   6.1064309
   6.5484649  94.6561813   6.9421011   2.6062012  91.1689091   1.7133744
   2.2168332  91.9846344   2.0283538   1.8640959  90.6591415   1.3883430
   0.8007837  82.9130936  13.4052014   1.1444268  82.4627495  14.1767800
  -0.0503646  82.5041676  13.2484782  92.2343445  50.2136230  77.3057604
  91.3887882  49.8366213  77.5489330  92.4631310  50.7826519  78.0406761
  81.4896297  35.1073980  88.8082027  81.1933136  34.7874379  89.6602821
  82.1891499  35.7271528  89.0151215 118.4140491  88.9767933   3.5817820
 118.3806038  89.2456913   4.4998255 118.8780975  88.1396961   3.5941547
 110.1866055  71.8528271   5.7805914 109.8580074  72.5437498   5.2053761
 109.4269466  71.5940666   6.3023132  84.5041466 103.5636616  37.7689099
  84.8090649 102.7608109  38.1916285  84.3959236 103.3235836  36.8486476
  82.2505379  23.1678057  95.1760006  82.3843575  23.3223367  94.2408848
  83.0500603  22.7264166  95.4626560  93.9807034  93.7290859  14.5582700
  94.2744732  93.5067368  13.6748171  93.5073948  92.9521561  14.8559296
  63.5177088  36.7205954  63.5570765  64.1382504  36.2956572  62.9649734
  64.0610790  37.2793818  64.1127205  99.5974255  92.3797798  17.9971635
  99.5249462  92.8737354  18.8138509 100.5179787  92.1208954  17.9547262
 107.8859806  76.4002323  19.0894282 108.2446289  77.1782446  18.6624718
 108.3823299  76.3239431  19.9043226 100.9002876  88.6420059   5.7876062
 101.3010502  88.9948559   4.9931747 100.2250576  88.0427933   5.4694217
 104.7237301 110.0699997  11.5639257 103.8780499 109.6279144  11.4889622
 104.5629025 110.9527588  11.2305927  73.0438089  95.7066917  11.8534636
  72.2696781  95.7766342  11.2948406  73.7053204  95.2971458  11.2958729
  74.4640923 105.6352806  16.3195634  75.3419209 105.8793259  16.0261595
  74.4619370 105.8302593  17.2566926 106.0860443  84.3581486  22.1647978
 106.3399696  83.4364414  22.1177578 105.6117725  84.4339657  22.9927778
   3.1496203  98.5338020   9.6507841   2.3112123  98.1310940   9.4246680
   3.6430395  97.8348446  10.0799978  96.6949654 104.4288445  19.0154636
  97.1617794 103.6758614  18.6530674  96.3682175 104.8997211  18.2488179
  75.0508881  15.8166003  97.0008659  74.6882725  15.5860424  96.1455441
  74.9249792  15.0315762  97.5338936  98.2050991  92.0227623  28.7834597
  97.6442051  92.2251225  28.0346775  99.0845203  91.9529057  28.4120059
  97.0273304 104.8712921  11.0732591  97.2783089 104.4767570  11.9084764
  96.4308929 105.5805206  11.3130105  68.1613874  91.7753506  10.2111566
  68.6106205  92.5958443  10.0081503  68.0786419  91.7771721  11.1647713
 116.1826611  72.6484108   3.7046528 116.0649014  73.4408712   3.1808463
 115.4414272  72.0915556   3.4665146  89.8491764  54.1324472  93.7845325
  90.0669384  54.3398094  92.8757954  90.2542210  53.2790661  93.9391518
 107.7790642 109.7113895  19.1195846 107.0044613 110.2382851  19.3160129
 107.6290417 109.3867111  18.2317162  10.2315986  85.3228188   1.7585216
   9.4976985  84.8268604   2.1213475  10.0778449  85.3214359   0.8137519
 107.2665310 112.3112679   1.4648780 107.5797558 111.8976307   0.6604986
 106.5524673 111.7472363   1.7618784  98.1580925  97.7822781  27.5661063
  97.6485729  97.1684170  27.0371509  98.7578392  98.1940174  26.9439983
  29.4979763   1.0475576  40.6686354  30.4240704   1.2209817  40.4997873
  29.0382266   1.4801185  39.9490833 100.6343937  76.1858511   4.9366993
  99.9435711  76.7038012   4.5235184 101.3503742  76.8064737   5.0724763
  74.1936636  62.4707031  94.9593258  74.1743040  62.0992279  94.0773582
  74.2557907  61.7107534  95.5379868  26.8239141   8.4579736  13.0906379
  27.6090717   8.6371934  13.6079764  26.3814688   9.3042994  13.0257881
  22.3839617 101.0659409  28.6245275  21.6943455 101.7223358  28.7235260
  22.6966429 101.1805248  27.7271223  17.6747477  15.8963370  15.9949350
  17.5569463  15.4713476  15.1453829  18.3371437  16.5689135  15.8364892
  22.0898557   1.4738491  44.5914507  21.2208104   1.8252134  44.3977118
  22.4800444   2.1143734  45.1861906 107.8753948  25.5766988  27.1584845
 108.5705471  26.0543084  26.7058492 108.0775166  25.6834054  28.0879974
  44.3127632  39.3950415  26.2794709  44.1249847  39.0413094  27.1488643
  43.7016535  40.1251459  26.1808372  21.0629129  10.9450233  27.9369354
  20.8893514  11.2379766  28.8315225  20.7702851  11.6711068  27.3861146
  20.5401540   8.2676172  10.0596237  19.6973264   8.2178622   9.6086276
  20.3120065   8.3379984  10.9865689  46.8972540  18.7880015  11.9737351
  46.5390396  18.8071275  12.8611743  46.1372757  18.9153409  11.4058864
  33.8214040   1.1411747  33.5273123  32.9598665   1.5145510  33.3413744
  34.3827820   1.9004881  33.6839366  94.4165244 112.3272346  29.7947860
  95.0791957 112.2146508  29.1132975  94.9169924 112.3810978  30.6089497
  77.9483509  61.6954231  90.6314754  78.2229471  61.6347599  91.5464306
  77.7296114  62.6190472  90.5077839  42.7969360  25.0337291  29.7885466
  42.0815849  25.5380058  30.1761150  43.5337067  25.1656938  30.3851914
  97.3101044 102.6960087   4.9036416  97.5409794 102.0038509   4.2840904
  96.6796684 102.2865391   5.4962009  30.8174753  94.0471745  26.0904980
  31.4911366  94.6129513  26.4677310  30.0869513  94.1009426  26.7066765
 110.4707909 101.2026310  30.7858348 110.1852036 100.9336376  29.9127293
 109.8351574 101.8671513  31.0515881  37.1971607   0.9584418   3.8326943
  37.2242832   1.5475684   3.0787539  36.3005567   1.0296847   4.1601926
  15.2666879  95.1322079  37.3265982  15.3416944  95.6083679  38.1535697
  14.3320751  94.9431610  37.2429943  24.6886158   0.1113429  10.1888108
  24.5330215   1.0500386  10.2930820  25.4429507   0.0573234   9.6020460
  31.1243558  10.6026566  27.1658492  31.6109943   9.8213184  27.4283838
  31.6259289  10.9626973  26.4343953  41.2975836  20.6316590  47.6773977
  42.0324516  21.2448859  47.6651001  41.7033100  19.7741532  47.8050756
 102.1015930 101.5401649  10.0692010 102.1512890 101.2976551  10.9938371
 101.8837261 102.4722099  10.0774169  43.6085463  23.4911370   5.5030775
  42.8736162  23.9223790   5.9391296  44.3859434  23.9031434   5.8800894
  73.3235931 107.6256847  34.1338372  73.9212465 107.2903442  34.8021078
  72.9629755 106.8416023  33.7198234 104.4710732 110.2217007  22.6346159
 104.2389011 109.7419739  21.8395162 104.8899364 109.5683289  23.1948686
 106.8748188  99.6653271  35.8835769 107.2103500  99.6522045  34.9872065
 106.1175919  99.0801144  35.8644700  88.8906097  68.0134869  84.4284534
  88.5539913  68.4752941  85.1963425  88.4206390  68.4016466  83.6904240
  34.2815065   9.0893298   1.7051849  33.3394122   8.9373326   1.7799400
  34.6715379   8.4958166   2.3469386  37.9178691   6.6029817  38.3971286
  38.5462976   6.5659773  37.6760578  37.9522753   7.5108600  38.6984682
   6.8441999 105.6249714  12.5430906   6.6924036 105.4670620  11.6112888
   6.4714235 106.4919853  12.7029300 118.6552715  81.6208839  17.5204587
 118.3869076  81.6186905  16.6016507 117.8370857  81.7124462  18.0087376
  39.3025541   8.8114840  18.4056842  39.9887228   8.3046865  18.8399196
  39.3777657   8.5738343  17.4815106 116.6761303 111.7927933  22.0221138
 117.5105381 111.6711807  21.5691137 116.0336304 111.3578701  21.4615107
  40.3352261   6.3490152  13.7598598  41.2313366   6.3357961  13.4236407
  39.8295426   6.7891908  13.0766594  14.2738819 110.1584625  15.3075433
  13.7966406 109.3935490  14.9860048  13.8727248 110.3523540  16.1547220
  10.8306563  97.5225544  19.5535564  11.6542232  97.7740479  19.1355586
  10.6476092  96.6464233  19.2142558  48.4464216  11.3303900  17.9163790
  49.2286921  10.8487093  17.6475620  48.5257626  12.1786833  17.4801064
  28.8257194  16.8862116  28.5222340  28.3640742  17.6228762  28.1216812
  29.7433853  17.0216620  28.2860732 102.4370480  93.4830570   2.1227975
 102.0176983  93.0239391   2.8505257 101.7120743  93.8820553   1.6417184
  25.0230217   1.6908994  20.4073524  25.2671790   2.1898869  21.1868596
  24.8219967   2.3568965  19.7498810 116.5563011 107.9909134   6.8440026
 116.6346645 107.0953274   6.5153271 116.3614273 108.5149765   6.0670805
  38.0765414  17.7215767  19.1124797  37.9490757  16.8981457  18.6413693
  38.6647129  18.2289600  18.5531521  58.8709974   3.8873726  28.5491562
  59.5048428   4.5748883  28.3447218  59.4040203   3.1532979  28.8545251
 118.9036751  98.5280609  10.2077305 119.2536640  97.9869556  10.9155095
 118.2814026  99.1136074  10.6391740  99.5540619 107.2179127  12.9603088
 100.1422405 107.9730225  12.9693389  99.5683384 106.9140339  12.0527375
 108.9023495 104.9033642  13.8794494 108.1484222 104.3312645  13.7361908
 109.6394920 104.3037701  13.9949739 108.9252186 105.7469654   8.2634592
 108.5831928 105.2146339   8.9817011 109.0749645 106.6080475   8.6537701
  98.0406952 103.8203716  21.5060973  97.6702118 104.1758442  20.6982541
  98.5951138 103.0957031  21.2167549  81.5219593  46.2078428  85.1552963
  82.1597481  46.7042542  85.6681633  81.8762589  46.2094879  84.2660809
  87.4088764 103.4412193  44.5166349  87.9794121 102.9312420  45.0916481
  87.5773144 104.3519115  44.7584963  24.4247127 107.1051121   9.4436210
  23.9360046 106.7769909   8.6888117  23.7503314 107.3946095  10.0581408
  33.8041353  23.9562511   3.7484017  34.6315575  24.3799305   3.9766535
  33.2690525  24.0346265   4.5381963  48.8802099  19.4519377  46.1092472
  48.2552671  20.0897408  46.4540482  48.7688589  18.6819327  46.6668510
  87.9181385  56.5183783  87.0649433  87.0920372  56.2872219  87.4896336
  88.5037994  56.7446041  87.7874756  15.3434229 112.3163700  21.6329169
  14.9110389 112.4376965  22.4782300  15.2320647 111.3858032  21.4383078
  17.6073062   1.4557363  48.7634611  18.1687272   1.9278705  48.1485367
  17.1539986   0.8073690  48.2246065  15.0899780 110.6214619  25.2154827
  15.0318134 109.7229958  25.5404711  15.5948281 111.0855103  25.8833218
  29.2377162   3.1667152  20.6788182  30.0548768   2.9086459  20.2523446
  28.9352870   2.3717725  21.1179471 116.8548965 105.8453846   5.4183030
 116.6966820 105.9840488   4.4845074 117.6533794 105.3184795   5.4502922
  22.8708625   6.7965335  23.6709952  23.3746910   7.2571254  22.9999948
  23.4101152   6.8575937  24.4594812  25.7720947   8.3692652  18.4195745
  25.6327128   7.6349396  19.0175474  26.2828541   7.9985040  17.6999259
   7.5567853 100.6231785  24.2866135   7.1577197 100.5122852  23.4236646
   7.6314694 101.5711784  24.3959284  29.9825907  24.1280532   6.8125415
  29.4157100  24.4359875   7.5196844  30.2107859  24.9203229   6.3262618
  25.6839967   1.1139101   7.6398504  24.9162269   1.6669762   7.7843475
  26.4134955   1.6178261   8.0005914  68.8496208  73.8148403  90.8372211
  68.3864784  73.3489943  91.5334320  69.7399664  73.4645557  90.8658314
  46.8283892  10.4144847  11.7980540  46.6143417   9.7614324  11.1317658
  47.6853704  10.1463723  12.1296179  41.3486767   0.7291266  18.3133698
  41.0336494   1.5612963  18.6661887  40.6634665   0.4521230  17.7051020
  66.2683010   0.5694574   7.3809093  65.5494308  -0.0585790   7.3100346
  66.9822693   0.1736731   6.8810743  64.9813318  37.6480627  70.0230598
  64.7236204  37.4147916  69.1312075  64.4248438  37.1063519  70.5826139
   9.7660708 109.5097446  33.6129260  10.5928838 109.0386868  33.5093856
   9.1481799 109.0338802  33.0579519  89.3969059 100.2205753  24.7101045
  89.4364262 101.1755562  24.7618198  90.3108215  99.9400806  24.7582984
  57.8415251  57.4881077  91.4639664  58.5833549  57.9637051  91.0901546
  58.1381655  56.5791750  91.5095234  57.7497578  16.4377797  20.6370926
  58.3544016  16.5988016  19.9127221  57.2541809  17.2523904  20.7210064
  38.8324809  -0.0109755  13.4014487  38.2621956  -0.1374550  12.6431549
  39.1334772   0.8945612  13.3263791  44.1364431  12.1725464   3.8927233
  43.4126234  11.7701495   4.3727213  43.7144470  12.6467347   3.1762743
  37.2370720   3.8962397   5.1413018  36.5766501   4.3309662   5.6808263
  38.0170345   4.4440302   5.2297205  16.1498713  15.8560872  20.2105427
  17.0056033  15.5753911  20.5348325  16.2420452  16.7994142  20.0768685
   4.4967201 104.3435669  14.8239815   4.5875204 103.8517666  14.0078175
   5.3260899 104.8128223  14.9143898   1.4304583  99.9946499  12.4121249
   1.0202704 100.2111244  11.5747976   2.3704401 100.0411510  12.2374713
 112.5770283 101.0393524   3.1305388 112.8414154 101.5424061   3.9007789
 113.2009220 101.2956524   2.4513480   1.4224365 106.3761044  29.2853522
   1.6867201 107.2270298  28.9356256   1.4818439 105.7810497  28.5379481
  83.7978458  58.1570578  95.7344723  84.2717934  58.8964462  95.3537941
  83.7304401  57.5227547  95.0207901  24.5998907   5.4960167  14.5595586
  25.3952408   5.1439196  14.1599643  24.7000718   5.3131998  15.4937816
 114.3930340   2.4421123  37.3260093 113.5453320   2.0837247  37.0629597
 114.8903275   1.6826841  37.6296473  50.6989050  14.5408881  18.3944976
  50.7648945  13.9465201  19.1418958  50.9882879  14.0182734  17.6465917
  60.4640007   6.5876883   7.1997947  59.6638441   6.0855329   7.3541194
  61.1711073   5.9528750   7.3148865   9.1771388 112.1411610  18.7690723
   8.2908165 112.4520302  18.5846102   9.0500492 111.2900829  19.1882968
  67.4803686   6.5745604  29.0924835  67.9598093   7.4021304  29.0537763
  68.1579590   5.9018308  29.0251398 109.1557598  97.6034641  12.7990389
 109.3714905  98.2747078  13.4464312 109.0997219  96.7924976  13.3044338
  57.1195173  24.0633845  38.7963820  57.1467543  23.1426644  39.0566945
  57.7457047  24.1270185  38.0752230  11.3954663   9.4052714   0.2719986
  11.0095692   9.8010212   1.0534695  11.5963888  10.1475120  -0.2980382
  74.9871778 111.0880375   6.0778135  74.8958874 110.1360607   6.0373640
  74.3546057 111.4166641   5.4389971  83.8084412 100.6967926  55.5996847
  83.4900475 100.1501846  54.8812962  83.1022930 101.3242054  55.7544041
  18.7414598 103.6738491  17.6631820  18.7735975 104.5804405  17.9686427
  18.9495325 103.1523800  18.4384286  51.7161751  14.2079806  25.6850600
  52.0304966  15.1101053  25.6250072  52.0595121  13.7819374  24.8996687
  54.3981647   7.4517900  11.6027570  54.6537781   8.0673814  12.2897351
  53.6806536   6.9482249  11.9872475  19.9737799  25.4036593  28.0485225
  20.0241899  26.2215567  27.5538135  20.3071570  25.6282496  28.9172292
  38.0912733  11.2366903  18.6766136  38.2314229  11.6298401  19.5380211
  38.4177279  10.3413296  18.7660003  76.8959570  78.1955719  96.8367958
  77.6920891  77.9299259  96.3765335  76.5479946  77.3822641  97.2024250
  32.0396662  11.9909084  11.6148949  31.2629199  11.5957129  12.0107698
  32.5076652  12.3873353  12.3497796  19.9941123  22.5859904  31.9777656
  19.7751665  22.7738643  31.0650778  19.1823888  22.7506590  32.4575806
  80.5960655  61.4634609  76.3833380  80.3429222  62.2304487  75.8696461
  81.4579391  61.2218571  76.0441637  43.6143255  16.0828149  18.8321757
  43.8649416  16.2617123  17.9258537  43.2329750  15.2052367  18.8064575
  67.2235584  44.2455006  96.0347271  67.0855713  44.3592262  96.9750786
  66.6078949  44.8545074  95.6269264 104.1326714  69.1907263  24.5128274
 104.6970558  69.6910191  25.1022482 103.3465767  69.7288942  24.4197845
  42.6016855  47.1820974  15.7765365  42.8460503  47.2447538  14.8531783
  42.4691582  48.0893803  16.0513234 109.2810249 111.6126823  13.7811923
 109.6899700 110.7480621  13.7435246 109.9598312 112.2123814  13.4716558
  38.4674441  68.4147676  96.6795878  37.5775324  68.6203226  96.3931646
  38.3529459  67.9843065  97.5268333  22.3193765 106.6362286  23.4001112
  22.3727393 107.3954296  22.8195953  22.6995540 106.9382858  24.2250109
 117.2054577  96.8765926  27.4070668 116.5066147  96.2726116  27.6581597
 117.9789257  96.5533066  27.8691030  57.6786613  24.0641046   8.2657695
  58.1956482  24.6656942   7.7300054  56.8353033  24.5038176   8.3736175
 102.7893162  95.7723618  52.7069569 102.0314217  96.2553215  52.3774529
 102.4264717  94.9462128  53.0264330   6.6244721  99.1007328   5.9282345
   6.3928545  99.6014118   6.7104787   7.1863866  98.3967590   6.2521172
  20.0168800   2.8086588  12.6765311  19.8350251   3.7435961  12.7716732
  20.1709843   2.5024703  13.5702491  18.0876398 104.3701935  20.7861781
  17.9997909 105.3225422  20.7467556  18.8393784 104.2225647  21.3600469
  21.9057369  98.4443092  29.7439790  22.4620008  98.8695908  29.0913391
  22.0685673  98.9316273  30.5515933  68.1932878  58.6989355  79.5130253
  68.2748938  58.3820343  78.6135006  67.3223972  58.4136248  79.7894001
 116.3324261  79.6640444  12.7548647 116.3950253  78.7124348  12.8370225
 117.1723652  79.9277830  12.3791373  21.5244842  19.3426776  19.2956710
  20.8904338  20.0259495  19.5132756  21.1660480  18.9237237  18.5132170
  16.9379425   5.8089679   4.8370543  17.7578890   5.6736594   4.3620682
  17.2022474   5.8871323   5.7537138   0.7751299 110.4463768  43.6580086
   0.5976018 110.2665138  42.7347755   0.5487736 109.6326447  44.1083860
  49.1867590   8.3160132  49.1033459  48.3848524   8.5952663  49.5451641
  48.9532995   8.2928729  48.1753445  35.0403881  47.1562004  11.2599611
  35.6210041  47.2776794  10.5087221  34.5870042  46.3322926  11.0814977
  72.0643950  39.7547078  89.9158478  71.2306547  39.9171257  89.4745731
  72.6728010  39.5428419  89.2079067  26.8780208  20.3806758  20.7893872
  27.3363423  21.2173247  20.7106900  25.9810638  20.6199598  21.0227203
  45.5903864  30.2296638  24.8271656  45.7666302  29.9797010  25.7341886
  46.4170980  30.5977154  24.5151973   9.0133137  40.4320669  21.3176155
   8.5317999  39.7837305  21.8314600   9.5361948  39.9130249  20.7065320
  20.2788639   6.9370568  29.8812199  20.6567669   7.4029893  29.1353464
  19.4913220   7.4349374  30.1005936  21.0078740  25.1564932  22.8147459
  20.6555104  24.3911839  23.2690310  21.2685132  24.8257923  21.9551325
  40.8619070   8.6413199   9.3891811  40.7722282   9.5267355   9.0367198
  41.6444111   8.6805421   9.9390692  13.5903883 106.6043854  24.6867013
  14.4660890 106.5433884  25.0683546  13.2755756 107.4701309  24.9466920
 102.9596329  84.3480778   5.6894928 103.1689262  83.8783741   6.4968377
 103.6826515  84.9652100   5.5771333  94.4886971  54.7194099  93.6500645
  94.3163204  54.1644478  94.4106770  93.7322426  55.3041124  93.6038208
  26.4332318   4.2987514  41.7185831  27.1699595   4.5883176  41.1804199
  26.4764905   3.3429709  41.6895342  44.2980671  15.8483279  31.1716056
  44.5110559  15.1093888  31.7415500  44.5109892  15.5404627  30.2906322
  45.1629019  15.6009150  34.9766088  44.6190548  15.1478970  35.6209970
  45.0713587  16.5282440  35.1954961  43.1722164   2.5075477   7.1294695
  43.7544632   1.7512035   7.2013366  42.2970295   2.1289943   7.0459330
  51.9223928   9.8127484  12.0031345  52.5445843   9.2093194  11.5969527
  51.3354445  10.0668466  11.2909842   4.6232525  94.1029167  40.5739212
   4.8932841  94.1011429  41.4922428   3.7114036  93.8123226  40.5918360
  36.4251757  41.3593149  10.1144707  37.1865320  41.0542011   9.6210366
  35.9558725  41.9275141   9.5036250   7.9359841 104.6053028  26.9856000
   8.1027734 104.6460819  26.0439253   8.5811317 105.1994228  27.3690605
  46.5131903  58.4706736  93.9866543  46.8842220  58.8653994  94.7758102
  46.5544033  57.5281096  94.1482258  63.9628458  35.6711054  80.2883148
  63.9915276  35.8494639  81.2283134  63.4717274  34.8528075  80.2146816
  11.8503678  88.0313396   1.0330585  11.9902205  88.2819939   1.9462104
  11.8515539  88.8602066   0.5542952  11.9921613   2.4848033  24.8529387
  11.6630411   1.7218849  25.3281951  11.2043571   2.9531509  24.5768094
  45.3352118  35.6141162  27.9603696  44.8799896  36.1137056  28.6381674
  45.0684071  36.0266447  27.1388674  27.8093147  10.9718406  41.4919567
  28.4558225  11.0635781  42.1918392  27.4942803  10.0716436  41.5733862
  55.0198889  36.6530085  88.0518723  55.4638624  35.8132005  88.1695080
  55.6916523  37.3077941  88.2421875  21.8448210   2.1647713  10.1162148
  21.8995428   1.3118108  10.5471385  21.3849640   2.7214986  10.7445610
  49.9816036  62.6314306  93.7356091  49.7499037  62.6250839  94.6643257
  49.1408825  62.6039410  93.2788086 103.5506344  93.7503338  17.1450222
 104.4012833  93.9592075  17.5310338 102.9234314  93.8994598  17.8525603
  52.3929787   8.3779925  18.2943761  53.2210541   8.8573837  18.3210349
  52.0689154   8.5090870  17.4032938   3.3515856 107.2442436  -0.2027234
   3.1181061 106.3376713  -0.4023425   2.8899643 107.4362850   0.6135221
  38.1480122  22.2910714  31.3526893  37.9983640  21.5814328  31.9773889
  37.7384830  23.0561304  31.7566752  89.2852592  69.8262167  79.4639444
  90.0058556  70.4528522  79.5295429  88.5494041  70.2614880  79.8944044
  36.0068798   1.3768032   6.7054552  35.7063770   2.2487986   6.4494205
  36.9404793   1.3736022   6.4942336  47.0551062  50.8118200  96.3712597
  46.3875532  51.2698030  96.8820000  46.6426659  50.6579399  95.5212975
  40.6081152  10.7670677  30.3198576  40.8480835  10.4921544  29.4349456
  41.0801744  10.1641846  30.8942437  33.9429641  25.6742764  27.2182536
  34.3595934  25.8708715  26.3792038  33.5223198  24.8250604  27.0836425
  40.6452084  21.4327836  16.6849756  40.8706903  20.7566953  17.3239553
  41.4175844  21.9971395  16.6507602 113.3366680 107.6039982  29.7807240
 113.6761475 108.3127213  29.2341924 114.0931320 107.3091698  30.2877545
   8.4934908  89.4839191  12.8919506   7.6302105  89.2125034  13.2039011
   8.9902973  89.6653748  13.6897516  22.0936418  20.0650692  15.1587570
  22.1607685  19.3302441  14.5490360  22.9641199  20.4631090  15.1508915
  36.7180371  19.3558908  45.5176067  36.9439411  20.1399612  46.0180426
  36.3805652  19.6909297  44.6868896  15.1305509 105.0089741  26.8091822
  15.2387929 105.9219933  27.0754695  14.6130228 104.6144962  27.5111651
  18.3318794 108.8737202  60.7401705  17.8283179 109.0085125  59.9373722
  17.6979625 109.0045452  61.4453411  63.1835794  15.2698338   7.1895880
  63.9720488  14.7753489   7.4132746  62.8452682  14.8389506   6.4046568
  52.4116898  11.9136727   1.3075294  52.5999117  11.5881467   0.4272810
  51.6947746  11.3611817   1.6190013  67.6006889  80.5311489  89.0444756
  67.9639149  80.1691723  89.8527241  66.7636204  80.9132767  89.3081379
  87.9736996  45.8780384  94.4821644  88.1972218  46.7719889  94.7412491
  87.8652096  45.9240103  93.5322380 105.0562382 101.6890144  35.6879449
 105.1681519 101.7007542  36.6385078 105.8507347 101.2690163  35.3584003
  10.7419634 100.2887344  24.4041276  10.2219534 100.9003830  23.8828659
  11.5924323 100.2632618  23.9656234  61.0069895  11.2444675   1.9275182
  60.1022720  11.0225654   1.7073272  61.3816261  11.5645170   1.1068796
  29.3058538  27.8713799   9.5456171  29.9385166  27.7789688  10.2579582
  28.4525466  27.7824259   9.9700981 109.9965000 101.9687748  16.3513756
 109.1844749 102.4736595  16.3072383 110.5611801 102.3648643  15.6876826
  40.5881166  10.0504112  12.7330518  41.2675381  10.0716293  12.0591331
  39.8041320  10.3792560  12.2932100 114.2854881 109.2550278  15.2498031
 114.2872238 110.0424671  14.7055876 115.1542759 109.2394447  15.6512940
  36.3010979  25.3937316   4.5730200  37.0296979  25.9600401   4.3187189
  35.6404519  25.9940434   4.9185729  43.6206007  11.6963804   8.9680314
  44.4773197  12.0933640   9.1250813  43.7377977  11.1818910   8.1694096
  47.8360558  21.3873076  30.2724910  48.7380934  21.0753751  30.3450084
  47.3569202  20.8909965  30.9360719  14.7425449  93.4654427   8.1733239
  14.3465543  94.0205097   8.8451302  14.0003037  93.1368828   7.6660168
   8.7541687  99.5976639  10.1882744   8.2508135 100.3600502   9.9025464
   8.1004190  99.0033340  10.5565262 107.5776005 105.7472992  27.2719145
 106.6965961 105.4883766  27.5421429 107.4716091 106.6341686  26.9277382
  22.6366138  14.6733344  35.5316782  22.4800396  15.2166665  36.3040161
  22.7164078  13.7840259  35.8766341 104.4210529 107.3646450  43.0629826
 103.8300991 107.4255371  42.3124504 104.7850704 106.4809418  43.0101347
 104.9121857 106.5762329  19.6507704 105.3257847 106.6061592  18.7880588
 105.6424332 106.4904118  20.2636337  92.2477722  96.4701080  15.4569292
  92.9484177  96.2619495  14.8388791  91.5869904  96.9173336  14.9281561
   1.5104613 111.6448593   1.5323180   1.3412359 111.0963917   0.7663079
   2.1735395 111.1650658   2.0286623 117.4229145  95.2699280  19.2564547
 118.1947708  95.7816696  19.0144026 116.8851185  95.8747959  19.7674775
  32.7354455  20.5065823  25.7502794  32.3301697  21.2387085  26.2150097
  33.5309982  20.3178906  26.2479973  95.8485603 103.5678482  -0.0859724
  95.4218864 103.3199787   0.7342336  95.4758644 104.4228935  -0.3009732
 105.1370621  94.1850185  13.0903363 105.8142567  94.4229031  12.4570441
 104.3233585  94.5085716  12.7037823  80.9257984  67.4238873  90.6199837
  81.7090321  67.2230625  91.1322880  80.1999187  67.1096182  91.1590385
  11.6262221  87.0260239   6.5622056  11.3615334  86.9479275   5.6456500
  11.1023474  86.3683510   7.0196593 104.2958260 100.5577469  27.6684952
 103.4805298 101.0551357  27.7326751 104.0216255  99.6417046  27.7122998
  34.9584365  18.0306232  27.5113964  35.5926514  17.3148298  27.4708557
  35.1279616  18.5457897  26.7226672  28.0212569  37.0255446  30.1906967
  28.6344600  37.0808554  29.4577885  27.3692083  37.7023482  30.0090337
  43.1185532  13.2568848  19.2312729  42.3436069  13.1904995  19.7892058
  43.8541794  13.2692814  19.8435879  11.8891561 106.4443874  19.6930480
  12.5504661 106.6566181  20.3517294  11.0667717 106.4102077  20.1816654
 101.5749073  92.3872375  11.4077771 101.8268490  93.3062935  11.3177896
 100.8867455  92.3915768  12.0730865  41.1920691   5.5114746  23.8760161
  42.0836258   5.7541263  23.6260581  40.6672478   6.2857801  23.6729336
  22.8959346  16.3028753   6.9088072  23.1337094  17.1756828   7.2217000
  22.8642130  15.7651830   7.7000797  50.4257107  43.7417507  95.9593201
  51.3335085  43.5181665  95.7540131  50.4671478  44.1349506  96.8310452
  29.0611863  30.0755572  12.8182161  29.7791243  29.5507622  13.1723130
  28.3253479  29.9018526  13.4052455  46.6944838  10.1074648   6.9561476
  45.8566427  10.1126504   6.4932936  46.8994284  11.0327125   7.0908517
  35.6261611   6.8917316  31.6755533  35.0439501   7.5822073  31.3585258
  35.5221701   6.9088340  32.6269341  27.0084977  24.3657446  36.5206122
  27.0673466  23.4547472  36.8084550  26.3540769  24.3544459  35.8221602
  61.8733978  44.0156889  86.7329502  62.3922920  43.8744402  87.5248051
  61.9783115  44.9475384  86.5408993  48.5918570   3.2120249  42.3463631
  49.4595242   3.0771220  42.7273941  48.7147284   3.0566698  41.4098787
  21.1974239  34.5162535  32.5380349  22.1204543  34.3329930  32.3629260
  20.7343936  33.7429070  32.2158980  31.8396473  12.5701630   2.3592430
  32.0168781  13.1754553   3.0792728  32.6113415  12.6347303   1.7966127
  12.2703969  36.5966582  25.9295750  11.4564407  36.1087132  26.0545325
  12.2779047  36.8153405  24.9977183  29.0770030  33.9280248  11.5628207
  29.3210101  34.0135455  12.4844384  28.6829519  33.0580258  11.4991200
  60.8010483  43.7318468  96.7951584  60.7259083  43.2589960  97.6240158
  61.2320662  43.1136799  96.2049770  99.6621418 103.1576157   2.3231898
 100.5756569 102.8753090   2.3681618  99.5609188 103.5007191   1.4353479
  12.2132826 110.6821156   0.6006129  12.4619925 110.4085350   1.4835203
  12.0199084 111.6158009   0.6847398   0.7657800   0.2631163  86.4451885
   0.4542814  -0.5965352  86.1619949   1.6401754   0.3388095  86.0631752
  40.8921671  22.7837038  25.6979060  41.6735601  23.1109476  25.2522945
  40.3293705  22.4656796  24.9919653  48.1595802  32.4260402  30.1179790
  47.2075748  32.3490286  30.1810908  48.4767818  31.5244222  30.1699376
  46.7460537  41.9266224  26.7188191  46.9655085  41.4141178  27.4969006
  47.3312473  41.5924788  26.0390234   3.8636476  90.0004101  93.6940002
   3.8727200  89.2474365  93.1030846   3.0445236  90.4529285  93.4927750
  69.3858671  28.7925529  19.2832744  68.6643124  29.0921044  18.7302232
  70.1636267  29.2031670  18.9054918  52.5363922  27.4689603  28.9460182
  53.3750820  27.7094626  29.3397045  51.9594526  27.3060966  29.6922421
  67.1595955  20.4544926  34.3628287  66.8064260  20.1098013  33.5426521
  67.9405785  20.9421444  34.1011214  35.7430792  26.1843348  24.4994068
  35.8041596  27.1118093  24.7280860  35.2506876  26.1719418  23.6786580
  55.3907537  27.8033757  29.5391941  55.7720280  26.9272327  29.5960712
  55.8927202  28.2387614  28.8502097  37.9590321  14.7050178  10.5959332
  38.6424136  14.1057491  10.8961022  37.4935770  14.2166710   9.9168885
  76.8288279  56.7388773  95.6925297  76.2946367  57.4378204  96.0698223
  77.5684309  57.1936607  95.2895546  64.2092800  11.9497991  32.3710918
  63.7355137  12.7418685  32.1173143  63.5531616  11.2541676  32.3282123
  20.2361274  94.6950054  19.2572308  21.0701609  94.2599964  19.0800667
  20.4337430  95.3150368  19.9591911  62.9892778  56.7953968  82.4980927
  62.9330873  56.3231897  81.6673756  63.4305477  56.1865044  83.0903435
  62.5042248  56.0494518   2.5939783  61.7047787  56.2397432   2.1031620
  62.5750923  55.0950527   2.5756267  58.4203386  30.7453370   8.0831414
  58.4579563  29.8347545   8.3758062  59.2399788  31.1305666   8.3930171
  36.7424417  20.9019089  21.1905432  36.3992476  20.2684641  20.5603099
  36.1934948  20.7891798  21.9665480  33.4974623   1.1047767   0.7450943
  33.2230067   0.3041287   0.2980275  33.4802675   0.8778574   1.6748489
  65.8770227  24.4628763  21.3079810  65.9776878  23.5473537  21.0473728
  64.9735451  24.6795034  21.0776901  44.1936541   5.7503271   3.6534074
  43.4659147   5.1973647   3.9377692  43.7801790   6.4467078   3.1431851
  28.5959768   8.4908277   9.2907697  29.2395854   9.1564035   9.0478480
  28.6378431   8.4546655  10.2463698  51.4718771  37.3754382  35.5070281
  51.1729670  36.6052651  35.0235868  51.3485003  38.1033850  34.8978448
  81.1809444 102.8764439  91.1401939  81.6868019 103.6014080  90.7730865
  80.7035732 103.2645988  91.8734550  22.9982519  12.5878406  33.1716466
  23.4541035  12.0723581  32.5062823  22.8772950  13.4471238  32.7676225
  46.4838743  24.2438483  18.4742963  46.4381790  24.3047214  17.5201273
  46.8871737  25.0677204  18.7478173  23.9730000  32.6545882  15.9153056
  24.0519500  31.7692113  16.2704194  24.1420245  33.2283401  16.6626155
  15.2082813 102.7213097  30.2056837  14.3687201 102.5937939  29.7639728
  14.9795568 102.8259277  31.1292481  35.3321815  22.7495790  14.2927027
  34.7227383  23.4603500  14.4917285  35.7446933  22.5457025  15.1320481
  78.5292196  85.6391716  92.2297382  78.3809042  85.4125309  93.1478214
  79.3126488  85.1466560  91.9849968 112.1635914 103.0154800  33.9171481
 111.6297722 103.8008022  33.7965703 112.7299500 102.9901123  33.1458998
  43.4630394   2.4086401  12.5618315  43.0634928   2.4803379  13.4286964
  43.6312103   3.3138451  12.3000014  48.2272053  19.7663772  14.5916760
  49.1008949  20.1370811  14.7160947  47.7483511  20.4390311  14.1074586
 110.4392147 105.0899506   6.0852647 110.1251221 105.4805183   6.9007629
 110.7244873 104.2110252   6.3349557  25.8429313  10.8601582   8.7808776
  25.4717946   9.9794132   8.8335824  26.6431570  10.7524920   8.2668000
  50.3508711  46.1408854  18.6313128  51.0614681  46.2180185  19.2679715
  50.7916117  46.1193562  17.7818930  65.9651423  18.6245000   0.4796015
  66.0433483  18.8712788  -0.4419279  66.4899015  19.2744446   0.9469672
  35.9584093  23.3016610  35.8790803  36.3991117  23.9471078  35.3264403
  35.8155370  23.7552667  36.7097759  53.8993549  29.1498017   1.7717515
  53.9336443  29.9135041   1.1957163  53.4400368  29.4591260   2.5525063
  41.5075111   4.5252809   1.3711816  41.7176914   4.6505800   2.2965766
  40.8662128   3.8146934   1.3653073  42.4836111  13.7913096   2.3072934
  42.2432137  13.2486176   1.5563434  42.9269171  14.5480418   1.9238028
  39.3643665  47.9434252   2.5590277  38.7881017  47.2076416   2.3522241
  39.0194583  48.6707306   2.0410511  45.6001282   8.9935708   1.1476119
  45.6040668   9.4242752   2.0024277  46.5163565   9.0024781   0.8707030
 116.8544102 105.3737736  19.2496490 117.1103668 105.0439644  20.1110101
 117.1567059 106.2819481  19.2413950  40.8142281  38.2502556   6.7622060
  40.4581308  38.9237881   7.3416746  40.9673119  37.4984193   7.3345172
  27.9907107 106.6402912  32.8650522  27.5736570 107.5012779  32.8331590
  27.7591562 106.2309742  32.0313454  44.4697666  19.1441333  10.5076694
  43.7704849  18.5612154  10.8033729  44.0719700  20.0147605  10.5079114
  38.6069012   1.3624837  19.9723971  38.7395144   1.8353093  20.7940316
  39.0783238   0.5380133  20.0917363  47.8480721  11.1035120  26.1290932
  47.4336338  10.4861641  26.7318821  47.1431494  11.3733339  25.5404401
  57.1820450  21.6102958  23.1181455  57.6452303  22.4448848  23.0463767
  57.7938938  20.9654927  22.7630353  43.4049702  20.1317215  39.2966294
  43.6093616  19.2214656  39.5108557  44.2575216  20.5388021  39.1427541
  56.3863611  32.9228449  32.0860839  56.2871885  33.6640501  32.6835895
  55.6967640  32.3119116  32.3457956 118.7601376 106.3244152  21.3958144
 119.5325184 106.1232090  20.8674455 118.7509727 107.2798920  21.4524746
  53.4794188  39.4267893  14.9498546  54.1666842  40.0228262  14.6521330
  53.9322329  38.8041091  15.5185890  42.2106361  33.1932402   3.2224542
  43.0463409  33.3360195   3.6668029  42.4044847  33.3360672   2.2960338
  60.5024862  22.7999449   1.0792022  60.0988197  23.3383894   1.7599094
  60.7597399  23.4244680   0.4009543 100.0239658 109.2280293  17.2667599
  99.2169476 108.9825249  16.8143451 100.1103306 108.5835361  17.9691875
  91.0107708  87.5182438  91.3868427  90.4704952  88.2192993  91.0223579
  90.9389782  87.6288128  92.3349190  41.7787504  46.1351538  21.2375450
  42.6994228  45.8926916  21.1385155  41.6536093  46.8570900  20.6216073
  57.9491329  78.7445021  88.4131432  58.6173248  79.4016504  88.6078453
  57.1262169  79.1525888  88.6824036  21.6666269  21.6954350   7.5385797
  21.8382955  21.2209082   6.7251998  22.5072432  22.0927286   7.7660787
  34.3296695  45.5656147  33.3727527  34.1039824  46.4694309  33.5927892
  34.1366386  45.0700092  34.1685820  30.5583644  22.3060513   9.8332173
  31.3848734  21.9995499  10.2062738  30.7737565  23.1489277   9.4339705
 110.1447868 100.5830956  20.3176045 110.4951859  99.9693871  19.6719873
 110.3171253 101.4475727  19.9444950  49.9157763  11.9454467  42.5859594
  49.9852037  11.2225807  41.9623613  49.5239496  11.5522468  43.3657646
  84.0680695  71.5821457  89.4694901  84.6521187  70.9444094  89.8798656
  83.1879139  71.2539768  89.6535110  52.5268025  -0.0884843  44.9582863
  51.5794069  -0.2188611  44.9992323  52.7195544   0.4988551  45.6891155
  47.5654650  31.5430641  11.4769042  47.4923468  31.2900424  10.5566514
  48.3075094  31.0361171  11.8064547 106.5664482  60.5334044  85.9349155
 107.2658730  60.8920717  85.3886604 105.8837223  61.2041664  85.9208584
  34.6257162  20.9074235  23.1529760  34.4204831  21.3011670  24.0009594
  33.7915421  20.5527639  22.8454041  43.4156132  35.9750438   8.1512165
  43.1659412  35.1401281   8.5472107  42.6711512  36.2094307   7.5970751
 101.6175079 106.2612152  51.2351799 102.0989895 106.9293022  51.7231035
 101.9701290 106.3127422  50.3467941  27.9720616  31.1268234   7.8903073
  27.7983761  31.1139679   8.8315302  27.7290678  32.0104623   7.6139587
  25.6969762   8.2655001   9.4704592  25.4803801   7.7859211  10.2700353
  26.6430712   8.1562752   9.3745077  26.3679671  32.5744510  14.5221722
  25.8602047  32.6832867  15.3262639  27.0327377  33.2618952  14.5637929
  48.5997486  16.4662850  17.4161398  48.9153814  15.6432438  17.7892447
  47.9941893  16.8102837  18.0727935  38.2221818  11.0271943  11.5939939
  37.8620052  10.5882406  10.8233941  37.4855900  11.5207505  11.9546413
  34.4813633  15.7279468  24.9565578  34.6661711  16.5958869  24.5977283
  34.5575404  15.8393621  25.9041953 113.9451599 107.7279949   2.3846713
 113.4640980 107.3621464   3.1269482 114.2119980 108.5991573   2.6781124
  44.7430086  35.1278424   4.4660884  45.1847458  35.8589268   4.8980770
  44.1515064  34.7779536   5.1323712  32.1233630   5.9760749   6.4922208
  31.2822890   5.5453765   6.3394946  32.0966864   6.2337095   7.4137110
  20.3291535  93.1937885  25.3392959  20.1209545  92.9864120  24.4283199
  19.8883426  94.0277481  25.5018592  37.0231032  28.4308171  12.2893167
  37.1443939  27.4986386  12.4697709  36.6769409  28.4590459  11.3973486
  11.2302339  20.5553055   6.0323328  11.9389236  21.1671209   5.8331537
  11.5647769  19.7026050   5.7544583  38.1066012   5.4574275  18.0599916
  38.4285665   4.8420441  17.4013019  37.7385187   6.1806929  17.5524151
 110.4706955  47.4812841  84.6566391 109.7677231  48.0633640  84.3681240
 111.1100197  48.0632114  85.0675583  90.0718307  82.3609352  96.8148613
  89.2366028  82.6919842  96.4846516  89.9554729  81.4115429  96.8516541
 114.5641518 111.3402748  13.2527494 114.8177719 112.2337437  13.4842861
 114.3858147 111.3778114  12.3130572  28.2329917  48.4475517  23.0526686
  28.2584786  48.6894989  23.9784360  27.7691817  49.1698027  22.6290345
  85.6511784  52.1009922  91.8786907  84.7781181  52.4933577  91.8720818
  86.0973072  52.5217772  92.6136303  12.1830595 105.8472252   4.6282080
  12.9587662 105.2888489   4.5759970  12.3935139 106.4865398   5.3088117
  47.8731585  16.3856471  11.4251661  47.5783825  17.2447729  11.7272282
  48.5247326  16.5793061  10.7512379  19.5627713  16.4824772  53.4967804
  20.3518486  16.7629600  53.9603758  19.5450079  15.5318820  53.6076164
  21.4587855   7.3299158   7.3194736  21.4177299   6.4272732   7.0035893
  20.8789635   7.3437923   8.0809504  54.0744925  14.2110777   0.5225961
  53.3947754  13.5374141   0.5423217  54.7178030  13.9212441   1.1694216
  55.2486324  49.9280214   1.3681239  54.6539593  50.6624937   1.5202719
  55.2871609  49.4728231   2.2092789  33.8236833  27.7058864   8.8868684
  33.9660120  26.7680597   8.7585849  34.5099306  27.9707122   9.4993740
  19.2809391   9.6249568  50.4299021  20.1862764   9.3141627  50.4288292
  18.7748563   8.8896018  50.0844097  53.5567045  12.8324068  13.2184172
  52.8307247  12.6951206  13.8269722  53.1435823  13.1764841  12.4264741
 112.7334309 104.3945122  16.5103805 113.3496380 103.9605999  17.1005023
 112.8036499 105.3231907  16.7314112  73.3103704  73.8974142  82.3559284
  73.9752483  74.5805979  82.4421215  72.5398636  74.2561531  82.7962208
  54.1574478  33.3168316  50.4879475  53.8503218  33.8125920  51.2469769
  54.9036884  33.8186812  50.1600695  43.1459236  29.5507431  23.8764095
  44.0812159  29.7173429  23.9934945  42.7226686  30.0705719  24.5596862
  17.5199972  77.4396745  -0.1758173  17.7953611  78.3562390  -0.1936701
  17.5831018  77.1885363   0.7456895 106.3510704 100.3333378  14.3932748
 106.1319256 100.0664997  13.5005236 105.5529118 100.1684952  14.8952723
  57.3448181  11.8409204   8.8615137  56.3936329  11.8878853   8.9578187
  57.5759363  10.9712315   9.1877913  29.8377514  26.1961913   5.1152754
  29.4265747  26.2009788   4.2509007  29.2298937  26.6824055   5.6723535
  44.2279530  14.0975547  15.7761371  44.3606043  15.0296128  15.9490621
  44.6040964  13.6567056  16.5379775  32.6608324  21.2364054   0.5532204
  32.9785442  20.7584429  -0.2128369  32.0299411  21.8634415   0.1996183
  37.6719260  24.8933983   7.2426021  36.7731667  24.8617983   6.9147778
  38.1346011  24.2244482   6.7379570  42.7932596  25.5748034   2.7042413
  43.3776665  26.1824989   2.2510272  42.1941042  25.2666545   2.0243195
  45.8949757  15.1923454  22.0210123  45.2086544  15.8491647  21.9036198
  46.6464138  15.5430377  21.5429068  46.3428402  27.1645665  22.9292226
  45.8784294  27.9878497  22.7783513  46.5114784  27.1538806  23.8713908
 117.3654175  82.9467678  74.7547007 118.1412792  82.4400330  74.5149231
 116.8641472  83.0161572  73.9422035  65.7132196  16.6839385  28.4282327
  66.2922335  16.0189664  28.0556941  65.9496355  17.4908376  27.9707909
  35.8241844  18.9895082   8.4164387  36.6961765  18.7896931   8.0759490
  35.9718132  19.6801484   9.0625447   2.2325844  80.8143044  92.7683353
   1.3190173  80.7099533  93.0342960   2.1857955  81.2434101  91.9139862
  96.1902809  70.4815054  94.5444489  96.9558334  71.0529804  94.4845772
  96.0425854  70.1841402  93.6466789  43.4155560  26.6264200  11.2227130
  43.7769556  26.7110848  10.3404129  43.9730740  25.9751320  11.6484249
  35.7501793  22.3027611  26.9539595  36.1576819  23.0872560  27.3210311
  35.0845551  22.6374674  26.3530040  30.6852794  19.0688813  24.7887564
  31.2786770  18.7955308  24.0891933  31.1201549  19.8203731  25.1917148
  82.1256924  63.3680582  94.4440746  81.6707516  62.9918814  93.6905766
  82.0425892  64.3143177  94.3261051 107.8557873  68.7632227  90.3340054
 107.8449345  67.8329277  90.1089001 106.9746494  69.0712452  90.1220036
  59.3563890  25.2299142   6.4530188  60.2116394  25.6266165   6.6185606
  59.4812775  24.7155690   5.6554699  98.5483551  37.9394364   7.1911979
  97.9377365  38.3599997   7.7965939  98.0812645  37.1640396   6.8800437
  58.9261198  44.6279430   1.4832786  58.4282732  45.4180431   1.2732199
  58.7147856  44.0169477   0.7774087  77.3993492  83.6452007  96.8018246
  76.9921541  82.9140759  97.2664738  76.8563223  84.4017792  97.0230293
  40.5015182  14.1074002  70.2207375  40.6803274  14.1750622  71.1586475
  39.8750877  13.3873487  70.1476717  52.5556564  11.5832448  96.3916016
  51.8111801  11.5532506  96.9925022  52.3506641  12.3005831  95.7919025
 102.6836491 107.0719624  79.3566465 102.8868866 106.1768532  79.0851259
 102.2121429 106.9702339  80.1834297  35.3153777   7.8583586  85.2425957
  35.5373716   7.6066637  86.1390305  35.5744052   7.1054512  84.7113037
  24.4338512  18.2790589  83.7117481  25.3367567  18.4795356  83.4651566
  23.9620614  18.2372129  82.8799438  64.7602415   1.9667920  68.7417650
  64.8309708   2.1491928  67.8047705  64.4139433   1.0755672  68.7868071
  55.0189447  11.4961326  65.9581041  54.2258167  11.2758911  66.4466429
  55.1193285  10.7812631  65.3295231  48.3154249   8.3303338  69.8446512
  47.5840044   8.9358550  69.9654722  47.9139423   7.4617624  69.8696899
  37.4001646  88.6890507  88.4895420  37.7663946  89.5654106  88.6083031
  38.1513715  88.1458187  88.2511711  28.1700993  10.7926476  85.4852295
  28.0126405  11.7207956  85.3120804  28.5979676  10.4702461  84.6919918
  42.1298838  30.8940697  79.5912504  42.4572802  31.2498784  78.7651491
  42.1141958  31.6441941  80.1856422  59.9255276  21.1816525  94.5189095
  59.4891167  20.5340433  95.0724316  59.9435997  21.9776297  95.0502586
  52.7575541  25.9876633  92.9348564  52.5147676  25.6950021  93.8132858
  53.7072372  26.1008072  92.9740429  91.4998531  65.0189257   2.7929541
  90.9449577  65.5676699   2.2386976  91.0321426  64.1857147   2.8499147
  97.1809196  73.7153721   9.0068454  97.5250340  72.8510141   8.7816697
  97.5232601  73.8884354   9.8838174  27.9425025 112.0313835  96.3114071
  27.4575686 112.8561211  96.2815571  27.4639034 111.4505863  95.7199192
  90.0091171  47.0740175  10.3475630  90.2051640  47.4084044   9.4723594
  90.8574104  46.7967319  10.6935942  51.5513420  15.7617927  72.8661251
  51.2562609  15.0978518  73.4892941  51.8765116  16.4764571  73.4136200
  59.3959522   9.3482572  90.5921841  59.3971968   8.9429545  89.7250271
  60.2490854   9.1228765  90.9631348  94.4423962  45.1505327   9.8690706
  93.9681530  45.2095175   9.0397060  95.3644180  45.1090431   9.6153241
  69.2532110  40.4343843  95.5499744  69.6315336  40.3322554  96.4232826
  69.4323301  41.3451958  95.3163719  87.2063541  45.5496168  12.5870383
  87.2850132  44.6263504  12.8270805  87.2047520  46.0152340  13.4233582
 116.5987110  84.4161606   3.5280755 116.4727974  83.8049030   4.2538488
 115.7356644  84.8070049   3.3916354  55.1338959  11.3102210  86.6257858
  54.3350220  11.7381811  86.9338226  55.7735920  12.0188487  86.5560246
  72.2580051  24.2328572  89.5028210  72.6692915  24.0474677  90.3470325
  71.9677877  23.3779120  89.1848946  92.1061611  12.4347734  90.5367947
  91.9100475  11.5468681  90.2378082  91.6322613  13.0023432  89.9289227
  35.7257795  93.9544582  93.0696392  35.9469962  94.8062038  92.6930523
  35.5948687  94.1311836  94.0012360 109.4428444  44.4988251  12.4041188
 110.3231049  44.4030476  12.7677178 109.0372562  43.6409187  12.5295198
  90.8000374  79.2595720   4.8666415  90.4542542  79.0225220   5.7271457
  90.2964973  78.7268448   4.2511123  99.4126987  78.4322643   4.1685966
  98.8980865  78.5648108   4.9647361  98.7792015  78.5204744   3.4564635
  65.9037447  20.8424640  96.9125938  65.2145624  21.0196996  97.5527859
  65.6202221  21.3017821  96.1221027  58.0654049   6.5296441  95.9830666
  57.6173449   5.8047014  95.5472565  58.9937019   6.3797146  95.8041286
  23.9159226 104.9330330  92.5928307  23.2212520 105.0987339  93.2301807
  23.4534764 104.7802925  91.7687893  38.6520338  32.4646902  89.8925114
  39.0093017  33.1631184  90.4409599  37.7078223  32.6218057  89.8894882
   2.0650440  56.8614531   0.6580260   2.0144744  55.9631157   0.3314267
   1.1587145  57.0945406   0.8591922  17.7811086   2.6532233  95.8414364
  17.7446902   2.9644895  96.7458820  18.0865729   1.7487828  95.9115219
  83.9696503  80.6442451   9.0255123  83.7984276  81.1119080   9.8429519
  83.1054115  80.5270672   8.6310655  90.9221077  56.5683985   0.4847484
  90.3377247  56.8213844   1.1994003  91.6110039  56.0564470   0.9084976
  78.6005974  15.3948116  78.6805820  78.3937645  15.1588166  79.5848799
  78.9759207  16.2732053  78.7421370  69.7755337   4.5695415  74.2518425
  69.5810080   5.4834324  74.4596767  68.9469194   4.1108030  74.3903685
  61.8504715  24.0482974  92.5210953  62.7732563  24.2376685  92.6909065
  61.8647242  23.3973789  91.8194294  77.9812431  12.2210574  88.9407539
  78.4168100  11.4055109  88.6929798  77.2753239  12.3192799  88.3018017
 111.5709400  52.9161787  39.3142009 111.2364674  52.0302725  39.1744494
 111.7494869  52.9593611  40.2536106   9.3675184 111.4530087  73.9015484
   9.6253914 112.2508240  74.3633127   9.0324694 110.8764744  74.5882750
  55.1681900  15.3539085  82.8081799  55.8317661  15.8294928  82.3084641
  55.4092741  15.4971111  83.7233829  44.8828983  18.3977163  96.3690853
  44.2187881  19.0409672  96.6169071  45.3999043  18.8355899  95.6929111
  95.7642746  67.9425335  16.2783551  96.4142799  68.0154133  15.5794871
  95.4296398  68.8326025  16.3879824  49.0931082  33.8738084  89.5093632
  48.9655113  32.9306960  89.6117878  49.8977757  34.0605545  89.9929619
  74.1805506  71.6441488  17.1497548  73.9636755  72.2481585  16.4395618
  73.7433481  70.8268070  16.9109392 109.9604225  54.6189785   2.2804865
 109.0559959  54.7429609   2.5683644 110.4845905  54.7649860   3.0679914
  75.1406002  40.1183748  79.1112995  74.7832203  39.2417932  79.2531157
  74.3704939  40.6759930  79.0007210  85.9598923  58.7609291   7.4848545
  85.2543354  58.4581995   6.9132072  85.7184219  58.4401941   8.3537930
 110.2756882  82.9924488   0.6529216 110.0960350  83.9144230   0.4687632
 110.9148502  83.0106068   1.3652185  75.2428436  79.6588373  17.4211895
  75.5845165  78.9644146  16.8579185  74.5684624  79.2299080  17.9479384
  52.2443676   2.7841079  96.9426537  51.9866562   1.9627276  97.3611736
  51.7996550   2.7709255  96.0951424  74.6130371   4.3725064  80.2599430
  74.7925615   3.4327233  80.2884197  74.1313601   4.5489272  81.0680866
  14.4118834  97.7541065  90.8054447  13.7901735  97.6129723  90.0914478
  13.8689232  98.0248356  91.5458107  78.3168507  90.8332920  10.9055209
  78.2837152  90.0914192  10.3015721  77.9365778  91.5604687  10.4127431
  77.8154182  86.7813206   2.8596845  77.1794319  86.6005421   3.5518357
  78.0087566  85.9232903   2.4820043  73.8677597  88.5070229   6.1859506
  72.9453373  88.6845493   6.3699555  74.1069794  89.1502380   5.5186570
  95.7069683  41.4222336   1.5969563  95.3646278  41.6480398   2.4618530
  94.9380970  41.1410713   1.1009581  49.2467356  17.5274134  91.1234093
  49.3358088  17.8457057  90.2250862  49.0347290  18.3085680  91.6343784
  84.5772934  83.5728550   8.1581527  83.9048862  84.2298031   7.9778230
  84.1132069  82.7368259   8.1142950 106.8270683  81.6545200  17.2384441
 106.7042923  81.3997078  16.3239884 107.7233219  81.9885254  17.2757494
  50.6981993  21.0356593  77.2274923  50.1338339  21.0606718  78.0002165
  50.8624554  20.1041174  77.0809269 112.9602623  62.5117970   7.3097372
 113.4074402  61.7821836   7.7386081 113.1738663  63.2736158   7.8484768
 115.9670353  62.2367144  16.8563557 116.4984703  61.8522072  17.5534642
 115.6326485  63.0512953  17.2316980 116.2414742  73.7020016   8.6761737
 117.1389866  74.0269709   8.7475920 116.0509300  73.7288332   7.7385139
  31.8182015 108.2782173  95.1572227  31.1724448 107.6510811  94.8317623
  31.7314577 108.2388306  96.1096668   3.7673932 110.1832676  93.3441067
   3.2287830 110.7909393  92.8372860   3.2348594 109.3908024  93.4122276
 110.7111073  59.4891882   8.8198334 110.9957504  60.3364658   8.4772909
 111.0079002  59.4868088   9.7298557  89.7383308  68.1106186   8.0322397
  90.3970146  68.6844206   8.4235382  90.2203941  67.3176050   7.7977550
  85.2639198  52.0017290  22.6708531  85.8427811  52.7631235  22.7087379
  85.7502460  51.3564301  22.1577120  73.1252623  41.4056110   0.4442079
  72.9631042  41.3976336   1.3875380  72.2774696  41.1936235   0.0536429
 106.4920235  64.4411516  12.7117944 106.0556507  64.7721958  11.9267988
 106.5856552  65.2089930  13.2756102  55.4775810   5.6886369  82.4295330
  55.8102655   6.0421246  81.6045475  55.3418064   6.4581442  82.9823971
 116.9532394  63.3862734  11.5457642 116.0080910  63.2349205  11.5404105
 117.3213196  62.5889921  11.9266701  86.8034172  48.1975794  15.6387162
  86.1394691  47.9696178  14.9879956  86.4470387  47.8766251  16.4670956
  93.0523109  72.4797106   7.5326401  92.2696877  72.5482893   8.0794674
  92.8160667  71.8466663   6.8546504  73.2745409  67.9759121  22.3476386
  72.4761486  68.0749416  22.8662920  73.6920881  68.8364697  22.3840523
  30.7589912  19.2181170  91.5010166  30.4142380  18.3807755  91.8112278
  31.6043568  18.9987278  91.1092854 118.5590458  74.9966049   7.3944306
 118.6933136  75.1495218   6.4591122 119.3904400  75.2437830   7.7993053
  80.2705002  53.6545753   1.5676543  80.3440475  54.4394636   2.1105814
  80.7060528  53.8886070   0.7480495  39.9300480  10.6016326  95.0387669
  39.9678516  11.1856925  95.7961750  39.4665933   9.8268032  95.3566933
 112.7005005  81.6688824  15.4834449 112.4662209  82.4546528  14.9895704
 112.7810860  80.9839439  14.8196709  86.2119579   5.6665796  96.3001537
  87.0882702   5.5655873  96.6717720  85.6394863   5.1945448  96.9048786
  68.8605022  80.6406879   4.6094036  69.6030617  80.3899574   4.0598819
  68.4415722  81.3576984   4.1333613 119.1446877  68.2164907   3.2172200
 118.8903332  67.9969120   2.3209411 119.0031433  69.1609621   3.2817939
  63.7756538  19.8837829  82.1485901  62.9661417  19.3817449  82.0543575
  63.7908697  20.4594254  81.3839722 118.0170441  71.2986851   2.1428888
 117.7086449  70.9625435   1.3013844 117.3038387  71.8561316   2.4540406
 102.0472527  66.1620378   2.6373547 101.6657639  66.7307138   3.3061606
 101.3148785  65.9467649   2.0598491  51.3249445   5.3223217  78.3688354
  51.8605423   5.2139318  77.5829506  50.6631947   4.6337101  78.3045387
 111.2967873  67.6769018   1.1287115 111.5814018  66.7694807   1.0200594
 110.7551193  67.6651716   1.9178179  61.2089348  70.9788895   2.0926316
  61.6800499  71.1324120   1.2736616  60.8435774  70.0992918   1.9975078
  69.4067049  21.9113159  78.0813217  69.0716553  22.7160001  77.6857805
  68.9061165  21.8162799  78.8916349  78.1385612  69.4467831  12.2842991
  77.3281479  69.0248919  12.5697362  78.1021833  69.4133282  11.3283765
  79.1138029  15.9174919  70.1093960  78.2179070  16.0363090  69.7939825
  79.5785713  16.6991091  69.8105764  86.5029144  81.1083317  11.7326641
  86.9416618  80.7121372  10.9798265  85.6793213  81.4452171  11.3799191
  71.6210222  19.2218792  87.3230839  72.2066593  19.0064216  86.5972424
  70.7503510  18.9782143  87.0087719 106.6567993  80.6514359  10.0045621
 106.8791199  79.8303699   9.5656359 107.0950317  80.5953789  10.8537066
  43.1434250  14.4227397  65.1211977  43.8123703  14.9468899  65.5616665
  43.5287237  13.5489905  65.0552988  36.5651774  29.9880171  88.6056423
  36.5106702  30.9221053  88.8074875  37.4726439  29.7535443  88.7999535
  59.8966074  17.5741231  56.9205379  60.5747366  17.0922756  57.3940277
  59.5031834  16.9241297  56.3383341  89.1124249  57.2036505   2.4132641
  89.1524887  56.6737127   3.2093745  89.3307686  58.0891848   2.7037656
  61.0461855   1.5828888  96.1460495  61.8422794   1.0817946  96.3231564
  61.0943174   2.3283932  96.7444897  96.7831516  52.3757696  24.9964023
  97.6639462  52.6344252  24.7252202  96.8943405  51.5008831  25.3684807
  61.5678501   5.6981909  86.0692596  61.0889101   5.4233080  86.8511105
  61.6338634   6.6496098  86.1509705  94.7292137  78.5319471  10.8066070
  95.1727295  77.7004480  10.6388569  94.8287773  79.0250587   9.9922627
  45.5346823  11.9877362  82.6837349  45.9405899  12.7607417  82.2913933
  46.2629509  11.3850248  82.8340435  29.5360732 108.1225967  87.6371288
  29.2700911 108.2734299  88.5441780  28.9916849 107.3909187  87.3464108
  97.7398396  59.2197514   0.2494658  96.8713284  59.4704390   0.5642426
  98.3377171  59.8239517   0.6895867  60.6074476   7.5351763  81.9397736
  61.3981199   8.0741560  81.9637585  60.7901716   6.8713588  81.2747955
 107.7002525  47.6764345   4.7346336 107.0374775  47.0286417   4.9740654
 107.2161770  48.3480310   4.2541569  28.3263350  91.7302799  92.4087715
  28.1517363  92.5162983  92.9263878  29.2656565  91.7661953  92.2281647
 115.9598160  77.3534584  30.9134841 115.4459286  77.0309591  30.1731157
 116.1475849  76.5719080  31.4332509  99.5868683  60.9334898   1.2069792
  99.8991108  61.2871885   2.0398261 100.3771687  60.8401537   0.6750537
  39.4710922  37.8862834  96.4710712  40.4280281  37.8679347  96.4580917
  39.2099929  37.0853424  96.0165882  11.1793339  68.2467413   6.4327466
  10.5587745  68.6083317   7.0655096  12.0198321  68.6377668   6.6712660
 103.6385250  64.4250631  28.0091119 103.8306713  65.3440094  27.8224468
 102.6976013  64.4078588  28.1840467  19.4750917 102.0456886  87.9456329
  18.6291766 102.4909878  87.9943180  19.3088567 101.1754417  88.3079433
  67.7611399   6.2839097  71.6567659  68.6640263   6.0794246  71.4134264
  67.2807741   5.4710120  71.4996624 106.5393734  79.5689297  24.5078826
 106.8624973  80.0201988  25.2877426 105.6105423  79.4200325  24.6849155
  74.8836327  78.9585495   7.9099661  75.4383898  79.4400072   7.2962290
  74.9726486  79.4332647   8.7363756  27.6968265  17.6272988  93.7127590
  27.1890330  18.2429302  93.1842041  27.3978829  16.7637491  93.4279060
  76.0061455  72.8338051   4.4496024  75.5747843  73.6399603   4.1662762
  76.5588236  72.5847960   3.7088108  33.3971167   9.4801480  86.6569138
  33.8964438   8.7661004  86.2606239  33.4249926   9.2992795  87.5964546
  93.8124275  73.8864326   1.5858954  93.0192184  73.9289379   1.0518089
  93.7130928  74.5972204   2.2192562 114.9565887  88.0680084  22.7058959
 114.6365356  88.2215595  21.8169522 114.5126915  87.2673225  22.9853249
  61.6404819  19.7545898  87.3381805  60.7733631  20.1280022  87.4959850
  61.5011597  18.8078368  87.3600960 100.5886841  84.8963070   4.6660921
 101.4764786  84.8453236   5.0202829 100.4467201  84.0450096   4.2521170
  72.5198030  27.0878506  94.7014046  71.9153690  26.4101171  94.3987942
  73.1520176  27.1805048  93.9886951  75.5600405  21.6570091  94.8863983
  76.3321304  22.2225308  94.8693180  75.8184671  20.9153104  95.4335117
  86.1244869  24.8139548  79.4064426  86.4783001  25.2520204  80.1804924
  85.1877880  25.0098586  79.4275475  68.8463640  22.1106291  69.7280693
  67.8992987  22.2378874  69.6723652  68.9756393  21.1835647  69.5278883
 117.7032566  89.7556210  11.3710654 118.3538818  89.2857838  11.8927634
 117.4184799  89.1200733  10.7143962   6.3000447  69.5811033  17.9336679
   5.4385936  69.8316431  18.2673812   6.4551538  70.1762867  17.2002316
 109.9611282  42.6618195   6.8414897 109.5957661  42.2169304   7.6062226
 110.7698727  42.1863699   6.6514903  97.4322891  77.5469780  10.3998792
  97.6092339  77.3642254   9.4770998  96.8264008  76.8564987  10.6688929
  38.3053970  22.5045013  83.1050396  38.7329936  22.1481586  83.8837719
  38.2865238  23.4499121  83.2536221  65.8808994  35.7960653  92.6750946
  66.2643003  35.3153157  93.4086609  66.4341831  36.5715480  92.5816154
  66.8653393  19.4106448  76.1449862  67.6698399  19.8917246  75.9511471
  67.1335745  18.4919333  76.1608839  11.8356919  81.2368107   1.4224875
  12.7674150  81.4551449   1.4438391  11.5218687  81.6066837   0.5972944
  77.4527979   2.8355736  85.4228306  76.7663956   2.6757684  84.7751045
  77.5713444   1.9919607  85.8592892  92.9039001  28.5260749  59.3902159
  92.2763729  28.0709696  58.8286924  93.0490112  29.3663359  58.9553165
 114.2562580  93.5731602   1.0988291 113.8688564  94.2704964   0.5698062
 115.0692177  93.3515263   0.6447169 107.3082542  53.7863636   0.9621768
 107.0707321  54.5447826   0.4286819 107.4210739  54.1400290   1.8444592
  33.9687753 100.3106594  93.1538677  33.5525537 100.4835320  93.9983177
  34.8699450 100.0753880  93.3747196  69.3799114  29.0488958  93.8906670
  69.7862291  28.6200881  94.6438313  69.9409437  28.8158941  93.1509495
  68.8544130  34.5513821  84.0765095  68.7564468  34.9282575  84.9509239
  68.0027628  34.6861005  83.6608410   3.1661370  82.5998688   8.6280459
   3.5781229  81.7398357   8.7107557   3.1349525  82.7608109   7.6849878
  89.5291424  85.5079556  16.4964950  90.0842094  84.8367882  16.8935573
  88.6681747  85.3714180  16.8918705  49.2549372   4.2175791  92.4219990
  48.6346483   4.8808873  92.1195221  48.8886547   3.3887649  92.1135521
  52.7648354  12.1578026  90.5519962  51.9025993  11.8124354  90.7833004
  53.3509922  11.8074799  91.2227631 112.8577805  92.9784679  16.5394223
 113.2202339  93.8373852  16.3223410 113.6247444  92.4265003  16.6921484
  97.7526188  81.8387222   2.1181868  97.1140575  82.1093559   2.7779078
  97.5992680  80.9004307   2.0071496  95.1713657  80.9358692   3.5845542
  94.6856499  80.1871395   3.9305568  94.7984123  81.6928196   4.0363902
  65.8411407  42.8892088  74.7479677  65.7115126  43.1862354  75.6486368
  65.4936790  41.9973612  74.7375345  58.4573936  35.4005551  91.4162827
  58.3813095  35.7492971  90.5281258  58.7220812  36.1520290  91.9468117
 112.9728222  62.2556210  16.9957554 113.3260155  61.5306807  16.4800501
 113.7385273  62.6436377  17.4192774 113.6491394  75.9350777   1.4538831
 113.3575726  75.4284334   0.6959055 112.9386806  76.5561056   1.6145259
 109.2300320  73.9313030   8.6325085 108.8291836  74.4410944   9.3365407
 109.2146111  74.5159388   7.8747517  71.2423372   9.0436226  89.2490196
  71.9461203   9.4978076  89.7123146  70.4396963   9.3585014  89.6647739
 112.9323483  80.9057236   0.6673267 113.0550098  81.8445778   0.5268181
 113.5242081  80.6921577   1.3886556 100.4159451  70.6700563   4.8467538
  99.4820118  70.7323027   5.0470704 100.7494259  71.5571260   4.9814016
  75.3001070  33.2115626  87.7234077  74.9676657  33.3901596  88.6030769
  74.5365906  33.3091855  87.1544266  89.5458984  83.8630199  38.9533210
  89.1196060  84.5636845  38.4597898  90.2868652  84.2897034  39.3836045
  85.9440517  16.7374539  96.4482212  86.7004108  16.2128437  96.1856651
  85.9062576  16.6436064  97.4000549  73.1216431  11.2610817  84.2886066
  73.9455080  11.7346275  84.1735458  72.5086021  11.9218028  84.6108723
 112.4804688  91.6091061  10.7323027 111.7731094  90.9907913  10.5491269
 112.0366192  92.3888874  11.0657310  88.6140060 109.1481495  12.4760890
  88.2554913 108.5635281  13.1438589  89.0431499 109.8446846  12.9729772
   1.3040699  93.6451530   3.4520507   2.0717686  93.7377167   4.0162343
   0.8172745  92.9119110   3.8283828  80.1533031  23.1813431  72.7693415
  79.8289871  22.9988575  71.8874454  79.5756340  23.8695478  73.0993414
  60.2864265  36.1460280  88.6068344  60.3184414  35.4462767  89.2591763
  60.9339237  36.7836356  88.9075565  89.2870808  84.7435379  10.9667933
  88.3926105  84.9959564  11.1958075  89.7412300  84.6821690  11.8071568
  76.6762972  81.6185379  25.6462026  76.1625481  80.8652782  25.3548360
  76.6837788  81.5485477  26.6008091  77.0458937  89.6111202   4.3332136
  76.1396742  89.3377781   4.1907918  77.1346951  90.4189491   3.8274857
  81.4414501  45.6790686  76.9382048  80.5451393  45.3572607  77.0346498
  81.9618797  45.1127529  77.5080109  94.5286274  83.1381035   7.4302691
  95.1254082  83.8122368   7.1052670  94.0315056  83.5723114   8.1235015
  69.1099977  17.7692258  81.4622784  68.4597969  17.7912903  80.7601547
  68.7109900  18.2696724  82.1740246 114.0763664  91.2981987  33.9995813
 113.2220268  90.8700943  34.0549231 113.9283943  92.1748829  34.3542075
  73.0350065  22.1012425  78.2732010  72.5172758  22.8415871  78.5895491
  73.2051897  21.5763640  79.0553570  92.5786304  84.1376781   9.2010325
  91.6750526  84.4443130   9.1252303  92.5281334  83.3877468   9.7937292
  55.2286768  22.7208495  85.1911354  55.2246809  22.2291470  84.3698883
  54.4478607  23.2725024  85.1438046 100.2929306  63.6322594   5.6778342
  99.5125961  63.1905174   6.0127425 101.0011959  63.3318901   6.2473661
  66.3782787   5.0845766  97.1277905  67.1647310   5.2615142  96.6116333
  66.3648653   5.7767570  97.7888012   0.5484639  51.8748236   7.2891617
  -0.2126868  52.3747540   6.9942808   1.2871727  52.4723291   7.1728456
  10.5630004  59.7676420  14.9680424  10.4878306  60.2939463  14.1720629
  10.9496856  60.3610516  15.6119144  72.4194956  13.9503777  91.2302303
  72.1871281  14.8394108  91.4982986  71.5854883  13.4811497  91.2082386
  40.9707165  10.5375409  71.2694502  40.0326252  10.6113040  71.4448595
  41.3856316  11.0416472  71.9694185 103.8945389  60.9096813   1.9044438
 103.6984444  60.8502865   2.8394565 104.7938156  60.5908918   1.8276048
 117.8657532  67.5904894   0.8188309 117.0413876  67.2231722   1.1377776
 118.3807373  66.8284941   0.5535260  82.0260334  27.8596139  96.3350773
  81.0708237  27.8998542  96.2883472  82.3219585  28.2120967  95.4957771
 110.7758236  65.1159859   4.2887050 110.3987503  65.8586454   3.8170075
 110.8359241  65.4142284   5.1962680  69.0820742   7.8372812  91.9802856
  69.5195103   8.0713707  92.7988720  69.4622517   6.9927275  91.7385674
  56.1252100   0.4011035  87.6478195  55.8946556  -0.4356218  87.2441196
  56.8925721   0.2044177  88.1851292  63.6665583  24.2807841  84.7335339
  63.6004686  23.8290119  83.8922405  63.1355381  23.7538767  85.3307056
 112.7297115  52.2468042   4.1901973 111.9682598  52.7634335   4.4538546
 113.2281017  52.1252012   4.9983114  66.8474483  27.4118376  95.2162552
  67.3118258  26.5779448  95.2884197  67.3008060  27.8784657  94.5141411
  39.3915176  22.0623803  85.7681179  38.8505054  22.7134395  86.2149429
  40.1952744  22.0224380  86.2863922  61.7247057  28.3704424  76.6526318
  60.9185743  28.4721494  76.1466265  62.2509193  27.7539349  76.1434650
  61.0357666  29.0067053  92.6460171  61.4391947  29.3507433  93.4429646
  61.2294579  28.0694962  92.6648808  59.2450142  23.0846262  92.2526836
  59.5050573  22.2139788  92.5536537  60.0420809  23.6100578  92.3222351
  78.9369774  32.1345353  90.7541180  78.1799269  32.7164459  90.6871796
  78.6036015  31.2766075  90.4913425 106.8474483  93.8706779  15.2038527
 106.4633942  94.4433975  15.8677340 106.2228584  93.8919830  14.4788229
  67.9485989   4.2932484  88.8987637  67.6072693   5.1821643  88.9965153
  68.7774277   4.4048008  88.4331131  81.1372852  49.7035933  72.4781132
  80.1908112  49.8084402  72.5752735  81.2836170  49.7144556  71.5322256
  47.2709990  14.1826618  82.2419453  47.5467157  15.0147939  82.6263523
  47.9495907  13.5608637  82.5048351  70.5309057  47.9195642  89.8521328
  70.0541210  48.1248999  90.6563377  69.9673271  48.2444859  89.1499615
  81.6827106  32.2954869  90.9435558  81.7628193  33.2337809  91.1150742
  80.8061028  32.1937561  90.5728245  21.4186859 109.4465923  77.6569986
  21.8637490 109.8513412  78.4015369  20.6320763 109.9772167  77.5308371
  95.4415989  86.6579533   4.2822844  95.0550747  86.5430546   5.1504028
  94.7041321  86.8991661   3.7217650  84.1420746  17.9424000  76.4360571
  84.4747829  18.7929153  76.7226934  84.3115902  17.9239607  75.4941702
 105.2080345  66.6522169  28.6949444 105.0568199  66.4338541  29.6145558
 106.1553955  66.5736580  28.5827732  67.5476885  32.2421455  94.7058773
  67.3729038  31.4250565  94.2389202  67.1823692  32.1016693  95.5793953
  34.9974871 107.9903507  85.1369572  34.9288917 107.6875210  84.2315197
  35.9371686 107.9895401  85.3192425 110.2500153  75.9778404  16.6009140
 110.4991341  75.2260399  17.1384740 110.5862904  76.7359543  17.0788455
  82.5647354  12.3080039  89.1725159  82.5084782  13.2421815  89.3734550
  82.5494194  12.2673488  88.2162952 115.5048943  87.7498722  17.8983080
 116.1170578  87.8188896  17.1656930 114.7599125  88.2925034  17.6398647
  92.7727890  86.0984325  38.4112597  92.5830173  86.9383526  37.9932284
  92.1068096  86.0146523  39.0936732 114.7293091  95.5072689   3.2561091
 114.1752529  94.9419689   2.7178830 114.1479683  96.2130642   3.5391939
   6.8715709  79.6695995  28.7016559   7.3625207  80.4855728  28.6047864
   6.5829986  79.6706057  29.6143198   3.1367069  98.4232330  32.8944349
   2.3581156  97.9780102  32.5600624   3.3068857  99.1181469  32.2585320
  65.4782248  17.2047973  81.1396217  65.8325481  17.3863244  80.2691460
  65.4277039  18.0626166  81.5613174  68.7867117  21.8862987  82.7300644
  68.9543962  22.0335078  83.6608887  69.6546030  21.8928456  82.3263836
  65.3260851  18.4367526  84.2573452  65.0196028  18.6350608  85.1422024
  64.7274303  18.9150608  83.6837006  75.9057093  29.7387528  71.8106890
  75.2199364  29.9661183  72.4385786  75.8322144  28.7898207  71.7089081
  95.0794792  94.9048710  19.0939021  95.0193405  95.8576679  19.0247178
  95.3697586  94.6196651  18.2275128   5.4244876  96.6021538   5.4748082
   5.9210938  97.4158573   5.5614161   6.0924721  95.9197140   5.4091597
 103.2552624  73.7790394  10.2101958 102.7238941  73.7912130  11.0062730
 103.0772114  74.6206903   9.7904927  71.3673353  90.8604813   8.6380857
  71.4497232  90.8986378   7.6852018  72.2156572  90.5348396   8.9389890
  70.6163883  22.3745060  94.0580750  70.3354263  21.5911984  94.5310593
  70.8732700  22.9897666  94.7448730 110.5620766  88.9870834   7.5359982
 110.1049805  89.4708443   6.8480456 111.4162731  89.4139767   7.6018858
  80.7004261  77.7718925  14.0552604  80.5971050  76.9157553  13.6398244
  79.9626112  77.8343725  14.6618497 115.6275177  98.5613823  12.8065205
 115.4991627  97.6225185  12.6712942 115.1080704  98.7645435  13.5844266
  74.7552013  26.6088295  92.3981190  74.6681833  27.2434568  91.6868401
  75.6389666  26.7494965  92.7378273  63.8566971  21.7372227  79.6840143
  64.3548107  20.9561253  79.4431782  64.2301130  22.4349117  79.1454792
  50.9080982  15.3167069  80.5431843  51.4775133  14.8759604  81.1738491
  50.9084082  16.2330699  80.8197880  69.0574265   5.3068328  95.9955883
  68.7817955   6.0164678  95.4153442  69.6021271   4.7447816  95.4445553
  66.2793350  26.0092425  68.7033606  65.4961157  25.4590201  68.6956215
  66.2253618  26.5141439  67.8919458  82.7872372  29.7020006  80.7907200
  82.2228622  29.0210676  81.1568451  83.0187416  29.3786645  79.9200392
  92.4879265  70.9140730   4.6662647  93.3484650  71.2875175   4.4758669
  91.9355392  71.2026358   3.9397460 117.6982403  92.0239353   2.2769068
 117.8369045  91.0822678   2.3782174 117.2776699  92.2933102   3.0934781
 111.2550926  82.6370716  10.2901971 111.6422939  83.2869720  10.8766675
 110.9088039  83.1497478   9.5597970  77.4006271  26.4758301  88.7856388
  76.5323210  26.0755062  88.8304901  77.2344828  27.4162245  88.8511181
  97.1747112  79.4605637   5.6356543  96.8426895  79.5584106   4.7432289
  96.8788338  80.2498722   6.0891712  70.8890343   3.0808619  90.5464363
  71.3116646   2.7965996  91.3568783  70.8466959   2.2903503  90.0083542
  75.1464033   9.7947645  76.9637299  74.9481297   9.0603799  76.3826990
  76.0937023   9.9101275  76.8892336  51.3603878  31.7501807  81.2904167
  52.1024513  31.5844154  80.7089615  50.9931326  32.5778437  80.9800529
 112.0278835  71.3232088  20.4506350 111.5394974  70.6400108  19.9913454
 111.4016438  71.6848707  21.0777378  54.9999571  19.0958655  95.3730297
  54.5529747  19.1247821  94.5270920  54.8490286  19.9611926  95.7533741
 118.0152035  87.8855324   0.9632060 118.0713844  87.0177269   0.5632170
 118.2426548  87.7410889   1.8817021  49.9396610  22.9992580  82.2157860
  50.2457333  23.1239581  81.3174534  50.2846718  22.1432710  82.4697208
  82.7390099 101.2601376   4.6881261  83.1307411 102.0193195   5.1198900
  83.1721878 101.2195301   3.8355190 116.9729424 102.7005672  23.3918667
 117.7378368 102.4108887  22.8946137 116.3845825 101.9455528  23.3877182
 108.0697918  88.2475662  14.7627711 107.3642635  87.8137875  15.2426553
 107.6243401  88.8915062  14.2121828  29.3833184   1.6154116  43.3952761
  30.2251267   1.9068955  43.7454557  29.5334649   1.5258613  42.4541759
   1.8574812  72.3344755  14.2457223   1.1157575  72.7448320  13.8011062
   1.4770915  71.9368267  15.0289285 118.9089870 102.1275520  19.0672004
 118.8653374 102.8452206  18.4353149 119.2008495 102.5411510  19.8795974
  90.2546024  70.7890463  17.7096939  89.4554710  71.2466526  17.4484956
  90.3982067  71.0569239  18.6173558   2.7277604  71.1004782   7.0005339
   2.3718712  71.7801666   6.4281696   2.7950126  70.3269672   6.4407194
  76.8987894  77.0828724   9.2716563  76.3012981  77.4808311   8.6385208
  77.7713776  77.2505522   8.9156926  81.0515881  28.0825543  88.1899929
  80.3998089  28.5367346  87.6560020  81.4900875  28.7800145  88.6773300
 114.0060425  80.5177689   3.6022007 114.4572353  81.3231850   3.3493006
 114.6303272  80.0602341   4.1653711  74.3382883  19.6516442  89.7179985
  75.0111485  20.0094867  89.1388321  73.8253117  19.0690577  89.1579342
 104.5863342  82.8182507   4.0190312 104.1442013  83.5360718   4.4723326
 104.2304230  82.8405952   3.1307435  58.3827496  10.9986877  78.0507135
  58.0713892  10.6661427  77.2088718  59.1059971  10.4171908  78.2852507
  77.7008200  13.8513815  97.0764542  77.1706963  13.6421776  96.3074112
  77.9584789  12.9994631  97.4287033  57.2825432  19.9533093  79.1978884
  57.5417900  20.7944751  79.5740032  56.5806770  19.6415973  79.7692490
  99.8415852  61.9803858   9.4399595  99.1722107  61.8309355  10.1076746
 100.4028320  62.6609278   9.8115700  97.6326752  83.3259010  22.4487400
  97.2814083  84.2162895  22.4564481  96.9014072  82.7774715  22.7328205
  12.3250270 106.8746090  95.5589676  11.5660655 107.2412109  95.1052952
  13.0401134 106.9474125  94.9268436  91.8489552  66.0844707  16.1938679
  91.8961334  67.0392656  16.2425864  92.7228451  65.8156300  15.9105337
  71.3358545  16.0827553  93.4711933  70.5322695  16.5357435  93.2156849
  71.3283539  16.1031103  94.4281483  80.4297352  90.6064320   4.8516807
  80.4815483  90.0289917   5.6133288  79.7074604  91.2019920   5.0513339
  57.7550411   2.5105593  86.6143513  57.2061491   1.7341743  86.5040016
  57.8943205   2.8338885  85.7242393  52.6433325  14.3937743  82.5767994
  52.4070072  13.8185835  83.3044910  53.5365200  14.6754980  82.7745056
  85.9370232  29.6744227  91.5248203  85.0632668  29.5808053  91.9042969
  85.8503532  29.3296838  90.6360722  72.5802660   8.2636845  95.3883457
  73.2492638   7.5791049  95.3835964  73.0107641   9.0220165  94.9935913
  49.9909735  86.0827065  92.5339890  50.8697939  86.2150478  92.8895092
  49.7969580  86.8950558  92.0663548 109.3273735  83.9187431  13.2855153
 108.8917065  84.6408272  12.8327286 109.1249275  83.1472588  12.7563047
  16.2973213   4.0448299  29.2487073  17.1173048   3.8317928  28.8032031
  15.6224704   3.9180738  28.5818172  93.8597107  83.9640617  12.8140831
  93.4283447  84.6093082  13.3742833  94.3700409  84.4868565  12.1956372
  64.7533798  14.9751079  67.3859978  63.9270258  14.4940209  67.4299669
  65.4210949  14.3246019  67.6033211 113.0273724 100.1882648  15.0972879
 112.2372437  99.6494961  15.1379812 113.7129021  99.6369267  15.4745352
  59.0928984  20.7972646  87.2588158  58.5971498  20.7944560  88.0776310
  58.8949394  21.6454887  86.8618774 103.9975834  83.1590557   1.2298451
 103.2781410  83.7470913   1.4597103 104.5161057  83.6521053   0.5940263
 112.9623222  72.4741650   5.6193554 112.7856064  72.9094791   4.7853863
 112.0972347  72.2388744   5.9547508 104.1930676  84.1790581  17.6257741
 104.2490005  83.4820557  16.9721043 105.0493240  84.1754627  18.0536044
  48.4739065  17.1028352  78.6631155  48.0138540  16.3322544  78.9959669
  48.4497976  17.7277565  79.3877697 103.7719917  51.3573742  12.5966334
 103.5438442  51.4391756  11.6706252 103.2516956  52.0326090  13.0320466
 118.5360050  80.0073624  27.0103216 118.5500240  79.0705872  26.8141580
 119.4109344  80.1938915  27.3508167 116.6675091  79.3570423  19.2441797
 116.4310360  80.2139664  18.8892198 116.5349388  78.7509775  18.5152459
 110.7176399  87.6168633  15.0329185 110.9780407  87.1341515  15.8174002
 109.7607994  87.6179695  15.0589645 112.1329594  67.1720982  19.3473375
 111.7995644  66.3814306  19.7715187 112.5302792  67.6756811  20.0578094
  36.6554689   5.6750941  87.1854591  37.3076677   4.9745423  87.1953106
  35.8622670   5.2591449  86.8477440  95.1350403  73.0069637  40.0993586
  94.7881794  73.8745165  40.3073692  94.9466515  72.4810171  40.8766079
  95.4122639  67.8559065  22.6786041  95.2541256  67.8548908  21.7345595
  94.8270226  68.5326815  23.0187583   9.8828125  64.9136496  23.1932330
   9.4186115  64.8113918  22.3623943   9.9764091  65.8602190  23.3003759
  69.3799114  54.6120310  83.7210941  69.8735571  54.2606211  84.4620800
  70.0311470  54.7165680  83.0274200 102.1121502  54.3350840  24.4603729
 101.5003109  53.6771393  24.7905135 101.5745926  54.9101877  23.9158344
  95.6007957  69.5673180  11.3317239  95.0730515  70.2152109  10.8648622
  95.6580544  68.8258505  10.7290840 114.0917301  69.7420120   6.7499715
 114.2499352  70.2973080   5.9865254 113.1972885  69.4220924   6.6322279
  89.0330696  21.3732529  84.0513134  88.4356499  22.0481157  84.3736362
  88.4608078  20.7162857  83.6548996  58.1120634   8.3654249  85.9471226
  58.5208893   9.1242176  85.5307961  58.3558559   7.6262462  85.3899765
  75.8361769  21.7793751  69.4847488  75.9596682  22.2490168  70.3096247
  76.1108255  20.8826423  69.6762562 109.5522499  70.4546070   1.1453695
 108.7262440  70.9172297   1.2865095 109.3880749  69.8981905   0.3840051
 116.1961174  50.2157211  16.8637884 116.7230511  49.5284081  16.4561510
 116.8307114  50.7579184  17.3323357  11.6795433  84.1514874  12.5824296
  12.5473893  84.4277191  12.8770030  11.8478692  83.6287117  11.7984641
  90.0653839  20.2536082  95.7741356  90.0731277  19.5301259  96.4008236
  89.4962597  20.9110236  96.1742878 106.2399006  84.7218609  25.9011984
 107.0374870  84.7342491  25.3721094 106.4774990  84.2200756  26.6809344
  72.2141171   6.9715410  78.2022572  71.8929148   6.1234391  77.8960180
  71.4872932   7.3343152  78.7085676  65.9992743  78.5695505  18.5627925
  65.7690477  77.8160954  19.1064215  65.1718569  79.0329552  18.4329295
  52.3733950  19.1547787  93.2729435  51.7596579  18.4205484  93.2514763
  52.2891569  19.5626450  92.4110985  81.1842251  27.5697803  81.5501308
  81.2996578  26.7275548  81.1101818  80.8367157  27.3436809  82.4128914
 104.5554352  47.8504753  16.5603328 103.9814663  47.2853804  16.0431707
 105.1840782  48.1971121  15.9271789  78.5797405  20.9075427  92.0934105
  78.7775755  21.4981961  91.3666153  79.3566799  20.9455514  92.6512241
  84.7652245  77.9944706  19.5507741  85.4954529  77.4208403  19.7830379
  85.1634979  78.6883926  19.0253425   3.0961412  71.6256571  17.2373223
   2.4581474  71.0585403  16.8042219   3.8466772  71.6391516  16.6433978
 118.0719757  64.6297407   9.1765696 118.3521652  63.9314604   8.5848570
 117.7334881  64.1707897   9.9453509  15.7795882   1.4698990   5.2655125
  15.3814852   0.9246774   4.5869270  15.0501645   1.9737962   5.6264275
  18.9801908  71.8072510   7.1993273  18.0523849  71.8056440   6.9639438
  19.0699017  72.5348854   7.8147388 110.5395412  95.7367516  20.8709621
 110.3812218  96.1490440  20.0217366 111.3559055  95.2510929  20.7529545
 116.3324261  94.7519207  30.7870936 115.4592323  95.1206303  30.9205890
 116.9110012  95.5135918  30.7505012 109.8360920  78.8444567   2.8818637
 109.8482704  79.3886948   3.6691943 109.3426323  79.3586683   2.2428656
 118.0402088  62.6719379   6.9876188 118.2390976  62.0605803   7.6967818
 118.8776398  62.8038168   6.5431583   8.4288108  36.5739727  13.2940733
   8.8013303  36.9467521  14.0931332   9.1888332  36.3009119  12.7802300
  37.0683455  51.9673300  87.0447159  36.4635420  52.3103523  87.7025700
  37.5138569  51.2426996  87.4836445  72.6779318   4.3710867  82.0680046
  72.0608854   3.8744450  81.5305710  72.1887255   5.1482344  82.3380947
  93.8185215  66.0334063   9.9339163  94.2049122  65.1914930  10.1749921
  92.9279423  65.9969091  10.2828670  66.0542291  28.6440524  97.3953689
  66.3613027  28.1228121  96.6535768  66.8323224  29.1128119  97.6971393
  68.9922523  11.0948336  92.6913834  68.3153152  10.8428085  93.3194542
  69.8134995  11.0020077  93.1742573  66.8517780  29.6191382  80.0990009
  66.3939762  29.0832233  80.7466412  67.0388985  30.4391980  80.5558586
  65.3104734   3.5917082  82.5555038  64.3806744   3.8112241  82.4961662
  65.7461452   4.4316989  82.6998520  58.1130838  27.2182155  67.1955538
  57.5287676  27.2713900  67.9518509  58.5328579  26.3618302  67.2769499
  26.7481351   7.3190504  15.9086084  25.8535480   7.3509347  15.5695999
  27.1042323   6.4984256  15.5680180  84.2066383  81.9503403  19.8684990
  84.8019218  81.5172577  19.2566895  83.3811951  82.0221996  19.3892097
  28.8972783 110.3638172  86.5445614  28.8383913 110.1716328  85.6087017
  29.1762853 109.5386600  86.9414330  96.8406105  85.9986019  17.5250733
  96.6024017  86.6996288  16.9184041  96.8176746  85.2032757  16.9929469
  54.9702883  46.8643808  87.6562977  54.8511887  46.6661501  86.7274570
  55.9183311  46.9382572  87.7657890 113.6076927  56.1083078   5.0752443
 112.6767731  56.3032484   4.9674183 113.8196087  55.5362701   4.3376166
  69.9172068  40.0984192  84.3740273  70.6167316  40.1456785  85.0256920
  69.1693974  40.5232906  84.7941399 113.4986782  82.6146221   5.7734323
 114.4517231  82.5294590   5.7994646 113.3461475  83.4934616   5.4261404
 103.4324169  88.6627007  11.9041252 103.6224365  88.4572983  12.8195131
 104.2682552  88.5429096  11.4532876  64.0799761  50.3018761  91.8951797
  63.2973242  50.6875324  92.2888279  63.9476633  50.4012251  90.9523869
  45.8203220  36.4834738  88.0140305  45.2340126  35.7517076  87.8216934
  46.6984510  36.1053491  87.9677773  99.4499779 107.5141716   4.8435947
 100.0560665 107.4268913   5.5793035  99.1837502 106.6164875   4.6447983
  97.1149254  90.2263355  10.8702314  96.3125706  89.9585533  11.3182878
  97.8203392  89.8529816  11.3986456  76.7559528  22.7405429  78.9501858
  77.6187801  22.9677844  79.2967796  76.3680506  22.1798277  79.6220207
  15.5856872 107.0229435   3.6734393  15.6745040 107.5226307   4.4850203
  14.8911738 106.3902092   3.8565275  87.8871346  22.1223092  91.4710617
  88.2883644  21.6939473  92.2272015  88.2291985  21.6443229  90.7155800
  85.0672817  64.7860861  90.7401562  84.6045685  65.5571699  91.0681248
  84.6993160  64.0561390  91.2381554  70.3979445  44.2060566  92.8308296
  70.4411602  44.1738558  91.8751526  71.0840702  44.8248672  93.0809021
  90.4378319  37.0537496  93.9918423  90.6659603  37.4227571  94.8450851
  89.4857502  37.1385384  93.9410305  68.5172653  90.0560474   0.3719709
  69.1431236  89.5405197   0.8806620  68.8038683  89.9532509  -0.5355109
  19.6872902  96.0228157   3.6934620  19.5202672  95.8923912   4.6269095
  20.6141448  96.2572575   3.6464563  25.3500152  86.0978222  10.7182658
  25.6585670  85.3948498  10.1465476  24.6990466  85.6797981  11.2819386
 117.9136181  85.1118088  -0.1239915 118.5102654  84.5304775  -0.5954725
 117.9465389  84.8050785   0.7821328  14.5120287  82.1111298  13.2783079
  15.4213428  82.3335457  13.0785346  14.5333195  81.8088436  14.1862750
 106.2990952  70.8890152  20.6853676 106.7304134  70.0449657  20.5520272
 105.4829884  70.6723738  21.1362171  55.6513596  20.5569267  88.6028957
  56.2026596  20.4887724  89.3824196  55.3141117  21.4524627  88.6256027
 113.7521267  90.2133942   0.9255433 112.9349422  90.0612450   1.4001894
 113.5206604  90.8481312   0.2474863  73.2505655 103.4072971  43.9737606
  72.8646517 102.7241802  43.4254360  72.9156113 103.2270718  44.8521423
 106.0025406 102.5047016  28.3961725 105.7640457 101.6612625  28.0115223
 105.6598282 103.1536770  27.7816677  78.7741947  38.6769915  94.3598747
  78.7439775  38.5925651  95.3128624  78.6931467  37.7794623  94.0372181
 102.5773907  20.9732413  87.0672131 103.3626747  20.7473636  87.5657558
 102.0549870  21.5023899  87.6699829  73.8793373  43.6170578  80.1915550
  74.5077276  43.1592035  80.7498837  74.0223789  44.5444679  80.3804588
   7.2395515  66.3617373   9.8986775   6.4459020  65.8326483   9.8185760
   7.8831542  65.9125853   9.3507075  31.9839764  78.5129118  21.4354324
  31.2968111  78.9655209  20.9463692  31.6807771  78.5269737  22.3432326
  62.2158909  18.4380102  94.4069386  61.8813419  19.1073108  95.0038910
  63.1332111  18.3299851  94.6581078  93.0713749  30.3285956  88.3962154
  93.9543152  29.9901557  88.5448551  92.9930019  31.0668969  89.0003681
  69.7353554  50.8983850  82.4163723  68.8803959  50.4761934  82.3325062
  69.5416737  51.8357229  82.4058437  65.3164799  60.2002310  97.2577885
  64.9862678  60.9720477  97.7176687  65.9991176  60.5400094  96.6791785
   6.4064562  88.4705925   8.2549691   5.6576371  88.5808277   7.6690084
   7.1704972  88.5353184   7.6820081  82.6194000  23.5298848  74.1576767
  83.3389187  23.5862088  73.5289001  81.8481636  23.3416319  73.6228991
  28.0742121  98.6352444   4.6911487  27.2919655  98.5040188   5.2269673
  28.2087636  97.7945042   4.2538008   7.1437961 111.2440109   7.3390186
   6.4728987 111.8275738   7.6934087   6.6854465 110.4180145   7.1845335
 110.1876163  58.4971428  16.8484306 111.0387897  58.6312628  16.4315963
 110.0181866  59.3151903  17.3156822 113.3617210  93.7176037   8.2269484
 112.9008675  93.0355549   8.7154698 113.4579372  94.4362926   8.8518143
  56.8945503  28.0589700  85.1664639  57.7478743  27.8660917  84.7780514
  56.9555378  28.9755416  85.4355526  32.9676557  84.0904808  32.3726940
  32.8184366  83.1481457  32.2954345  32.1054721  84.4818211  32.2322273
   1.2359442  93.5191154   7.5544268   1.2027764  93.2515240   6.6359895
   1.5986878  92.7606106   8.0119419  90.3177738  54.5945883  75.3312635
  90.4193974  55.5304670  75.5045843  90.8285618  54.4413662  74.5363760
  90.2499199  83.1953049  17.6248467  89.5855427  82.9496479  18.2686520
  90.6836891  82.3716164  17.4020815 104.9997044 104.5424557   2.1427652
 105.4858971 104.2472267   1.3729034 105.6532764 104.9865437   2.6830089
 101.7336845  24.6820354  90.7350636 101.8805790  23.9395332  90.1490974
 101.5562725  24.2833686  91.5870094 114.6001339  77.7722263  24.0111971
 115.2042103  77.5697374  23.2968283 113.9767933  78.3904505  23.6297846
  73.3091116  42.2209501  93.3030224  73.5950422  43.1320715  93.2371426
  73.1803370  42.0775270  94.2406178  67.1787119  47.4884653  89.6365547
  67.4964666  46.7790937  89.0779400  67.3833609  47.2023106  90.5267620
  91.8916035  97.8896999   7.7972454  92.5171757  97.4792099   7.2002548
  91.1370468  98.0989456   7.2467136  53.0466557   4.2365044   1.4324789
  52.4331951   3.5177845   1.5852474  52.7949476   4.5888895   0.5788403
  29.6237063   0.9442970  18.1604791  29.2818069   0.3453995  17.4966586
  30.0480366   0.3741627  18.8016689  58.0881405  58.6840391  80.3510761
  58.3601665  57.9817152  80.9418201  58.8610363  58.8579512  79.8138475
  55.7847643   4.8226562   5.0169784  56.4884615   4.3387815   4.5846504
  55.5487537   4.2806175   5.7697904 113.4583569  95.5119419  15.9562862
 114.0113258  95.6606102  16.7233324 112.7907753  96.1961079  16.0060513
  66.7154884  30.4944181  89.2864990  65.7658625  30.4752493  89.1678619
  66.8471146  31.0102367  90.0820065  67.4653387  37.6151395  85.6209755
  66.5497398  37.4297762  85.8296776  67.4762344  37.7279758  84.6705151
  67.5299358  26.5626144  78.6342049  67.5875330  26.5892887  79.5893002
  67.2889137  27.4544859  78.3837938 104.8618793  25.7928395  94.0599346
 104.1297626  26.3540745  94.3153858 104.6596336  25.5291128  93.1622791
  78.7416315  11.1134350  94.4282818  79.3517923  11.6826868  94.8972034
  79.0385056  11.1417305  93.5187244  18.6302483  68.6855555  13.7228167
  19.0877008  69.2497540  14.3462312  19.2936468  68.4630394  13.0696535
  77.8996754  58.2003021  78.7386942  78.1007099  57.5085545  79.3690109
  78.7533665  58.5592604  78.4966326  79.5587683  31.4090776  83.7415314
  80.0679588  32.1416402  83.3946800  80.1482773  30.9799838  84.3616867
  43.3473206  11.2801397  95.8457279  43.4851837  11.9155598  96.5481949
  42.8555822  10.5700123  96.2582111  23.3202672  91.7068100  14.8366463
  24.2159820  91.3967609  14.9700618  23.1248808  92.2193432  15.6211007
  98.6236858  18.3090556  86.8165970  98.1472397  17.6569951  86.3027382
  99.4060707  18.4974194  86.2983131  69.9977922  41.1334658  88.7068176
  70.1314402  41.4403534  89.6035862  69.2245531  40.5716419  88.7586689
  97.3469353  82.3440838   6.3149899  97.0545959  82.6018238   7.1892589
  96.9972706  83.0215073   5.7361376 107.2962475  72.3648930   3.4217235
 107.8723526  72.9536390   3.9092842 106.5734768  72.1848774   4.0229118
  75.1661396   9.5444244  79.6190786  74.7549009   8.6851668  79.7128296
  75.1437664   9.7192919  78.6782503  74.9128628  37.5397515  93.4890556
  74.1455173  38.0952978  93.3520031  75.3147936  37.8794742  94.2885971
  -0.0833666  62.6799917  15.5989921  -0.6331551  63.2920504  15.1097608
   0.7937872  62.8033447  15.2362013  83.2532883  12.7803981  79.3581390
  82.3345280  12.7358663  79.0933132  83.4208870  13.7141824  79.4853783
  82.8886890  26.3692427  87.0573139  82.3401546  27.0675373  87.4147129
  82.3063278  25.6115675  87.0024109  74.8169661  36.0397768  85.2040958
  74.4231510  36.6603708  85.8172894  75.2844667  36.5889072  84.5747089
  93.1065845  23.1669593  84.0252876  92.7874184  22.3031807  84.2865372
  92.3131466  23.6869836  83.8977623 108.4984875 104.7274971  10.7372820
 109.2027283 104.8079681  11.3805521 108.1502628 103.8461781  10.8723640
   7.1654600  57.4630165   5.1020491   8.0114138  57.5526428   5.5408674
   7.3092365  57.8263140   4.2282227  79.9295378 103.0683708   4.0676701
  79.0021706 103.3052158   4.0565026  79.9342775 102.1149540   3.9827576
  90.4507160  40.7853365  94.6957493  91.2053585  41.3410711  94.5010567
  90.7284355  40.2580833  95.4448128  62.9808331   9.0150535  81.7300701
  63.6218929   8.3596313  82.0052052  63.4032631   9.4729656  81.0033703
  39.1668320   4.2110872   8.2000393  39.9784446   4.6729070   8.4103745
  38.4742260   4.8408329   8.3999062  72.7707624  26.8463373  70.9333324
  72.9437351  25.9335256  70.7029200  73.2944918  27.3533392  70.3129387
  70.1883745  37.8055882  92.0953083  70.8861780  38.3257866  91.6969490
  70.6235075  37.3153138  92.7928162  90.1862812  34.2732072  90.2969742
  90.2279854  35.2238798  90.1934624  91.0228634  34.0391159  90.6989193
  59.6808290  64.4523430  82.7143097  60.4633141  64.9732971  82.8947449
  59.8622942  63.6014652  83.1134415 118.7447643  99.2197323  14.0268350
 118.3841228  99.8953724  14.6010160 119.2723370  99.7026443  13.3906806
  75.7173777  39.2466116  90.9735870  75.6499195  38.3686590  90.5982494
  75.2286386  39.1941524  91.7949390 109.1521358  88.1537437   3.0232099
 108.2480240  88.0317307   2.7335221 109.0847969  88.2868481   3.9687157
  18.0228341  13.0556846   4.6462253  17.6415849  12.1801794   4.5801044
  18.4037590  13.0853856   5.5238616  82.0418930  39.4411016  79.9488354
  82.9485035  39.6701455  80.1533699  81.6566563  40.2549744  79.6241379
  21.3621140  11.8486905  21.7556334  22.2345376  11.9262314  21.3695025
  21.5160680  11.8637753  22.7002501 115.2988148  28.2963705  88.4902573
 115.4406834  29.1581154  88.0984592 114.4951057  28.3947444  89.0007591
  74.9594164   3.0481204  96.8332672  74.7021866   2.9911944  95.9130383
  75.6558323   2.3982942  96.9279289 116.0933590  91.8682480  30.6083965
 116.6027355  91.2649441  31.1494923 116.1844158  92.7157497  31.0439229
  96.2897587  34.1418338  94.1456032  95.9311008  35.0142336  94.3084335
  95.5458450  33.6335206  93.8224316  69.8759604  48.3195162  84.4466114
  69.6540928  48.3052921  83.5155869  69.1077328  47.9495764  84.8815823
 104.3171215  99.1287231  15.8187783 104.0194893  98.8427830  16.6824257
 104.2157364  98.3562756  15.2626419  32.8260040  83.4575272  25.5135751
  33.3661032  83.9014244  24.8597550  32.6776505  82.5848961  25.1492238
  94.7838306 101.9942474  12.2764897  94.8764896 102.5655746  13.0388761
  94.0523338 102.3676586  11.7848480  77.0238829  38.1713152  84.4227695
  77.3892021  38.1416726  85.3070164  77.5992441  37.6064897  83.9068508
   7.8563780 106.2336159   5.2115899   7.8049874 106.8168831   5.9688145
   7.4352705 105.4249668   5.5031228  12.7443004 104.6469212  28.1977725
  12.4312460 103.8143253  27.8442144  12.5525057 104.5967388  29.1342163
 102.9755020 106.2615490   1.4980076 103.4823132 105.4625511   1.6428469
 103.1432247 106.4890862   0.5834994  14.7905588  92.4050999   3.9657894
  14.6804261  91.7171288   3.3094412  14.7251737  93.2214832   3.4703362
  83.5790253  95.1580429   3.3274812  82.7846813  95.6884480   3.3900839
  83.8490677  95.0230217   4.2358187 116.0801792  99.5976925   2.7918845
 115.9045506  98.7528038   2.3776911 115.4076290 100.1811314   2.4404581
  68.8069296  36.5365934  75.4172564  67.9112959  36.2158871  75.3113222
  69.0875673  36.1881948  76.2634802  67.4082851  37.8456068  82.5694370
  67.8312731  38.0752039  81.7420387  66.9597960  38.6469197  82.8396034
  81.4602661  50.7091761  90.9933853  82.2352314  50.2685213  91.3419342
  80.9725857  50.0177526  90.5457973 110.9222126 108.4847450   1.2164433
 111.0340786 107.6302624   1.6330722 110.4391193 108.2973766   0.4116172
  94.5502853   8.5966903  86.2319183  94.4669533   7.7530897  85.7873726
  94.2170048   8.4361589  87.1147442 113.9192200  80.1015282  13.4932971
 113.5307598  79.2565680  13.2666445 114.8227406  80.0406551  13.1831932
 101.8151379  37.5435281  94.4347095 101.2635136  36.9965792  93.8754272
 102.7006435  37.4186826  94.0933418  35.5485058   5.7728285   0.9892244
  35.5272174   6.4240366   1.6904420  36.1110759   5.0757879   1.3266860
  72.3746204  16.6941202  61.2458372  71.7563772  17.3145604  61.6319275
  73.0282831  16.5501416  61.9301081  91.9161129  34.5699000  93.8005161
  92.0790577  34.2369509  92.9180050  91.5308571  35.4352427  93.6626911
  61.4896393  67.1201134  97.0347595  62.1371460  67.2687769  97.7238655
  62.0036173  67.0770693  96.2283993  11.2663817 101.7376709   6.7344570
  10.7458830 101.0271549   7.1092755  10.8472955 102.5363731   7.0548671
   1.8402737 108.1318951   2.3176341   1.2220549 108.2770252   1.6014104
   1.3175833 107.7194691   3.0053300  58.5573244  38.4030342  87.3579788
  58.8515949  39.0140605  86.6825008  58.7809658  37.5386572  87.0129204
  68.0987167  44.5826530  88.5243607  67.4492264  44.2789125  87.8902245
  68.8478947  44.8485708  87.9912090  96.5827370  21.1447191  81.0845470
  97.3551655  21.6851974  80.9187984  96.6985989  20.8298826  81.9810295
  33.1800818   5.3478611  12.1365595  32.7488327   5.4893273  11.2937999
  33.4859848   4.4415975  12.0999348  62.0560026  21.4807034  90.6596661
  61.4371681  20.7573867  90.5592251  62.8512907  21.1781287  90.2212715
  56.6514349  67.4880457  94.3577003  57.4994707  67.9279089  94.4175720
  56.6037560  66.9510984  95.1486778 106.6878414  93.7331295   4.7134832
 107.3752213  94.0499020   4.1274902 106.7227077  92.7801704   4.6304718
  73.1957102  52.9674530  94.1699696  73.4835720  52.5645924  94.9891663
  74.0027285  53.2771730  93.7588406 108.8855076  58.2173443   7.1135515
 109.0924168  58.9230347   6.5008402 109.2155647  58.5277653   7.9567188
 110.7694149  83.8589096   7.9033649 111.7039013  83.6693859   7.8193831
 110.4693508  83.9877605   7.0035923  54.6991348   6.1846983   2.4396263
  53.9732790   5.7009161   2.0455228  54.9635410   5.6512898   3.1891572
  75.4804707  57.8936338  77.5262547  76.2964153  58.0463696  78.0028486
  74.8693991  58.5370588  77.8851748  13.2855690  92.0653248  12.6894629
  12.4560058  91.5997410  12.7956998  13.1918013  92.5358105  11.8611610
 107.7055454  85.8827019   4.4908983 108.4375668  86.2522793   4.9846429
 107.9820347  84.9897289   4.2850548   4.2957348 109.9745464  -0.0836858
   3.8453001 110.0604820   0.7565259   3.8387030 109.2607880  -0.5285586
 107.8908062  86.6095924  17.8081620 108.3657455  86.4460182  18.6229646
 108.3931160  86.1428261  17.1402943  61.3923073  33.4007049  77.1666670
  62.0134068  33.0104494  76.5517139  60.8679819  32.6629281  77.4781132
  68.9297676  34.9485469  86.8497276  69.1030312  34.4377351  87.6404762
  69.5071840  35.7083416  86.9240952  95.0961399  12.4901414  82.4286175
  95.4644203  11.8156791  81.8579197  95.5733490  13.2868421  82.1967411
  78.0940723  51.8474007  94.1763496  78.0261850  52.6483345  94.6961021
  77.8549576  52.1164513  93.2894135 114.2253208  78.8113356  10.5182803
 115.0043964  78.9008808  11.0671449 113.6688232  78.1927109  10.9914100
  89.6096134  22.0185518  65.6733274  90.4185963  22.5277925  65.6238699
  89.1239929  22.2633052  64.8856020  68.9910221  22.2083688  91.9087696
  68.8082790  21.3397145  91.5506077  69.3692493  22.0371175  92.7712345
  67.2738457  21.5584016  80.4189205  67.6553917  21.4236784  81.2863922
  66.9481611  20.6952190  80.1638317  87.8558064  11.7818356  65.1080084
  87.9283237  12.4897385  64.4678164  88.2946968  11.0386837  64.6940851
 102.8437233  75.3878641   7.4318272 103.6362362  75.5774593   6.9296229
 102.4576187  74.6299076   6.9928908 110.2158165  80.2830315  25.2185678
 109.8547840  81.0323238  25.6923342 110.3881741  80.6167889  24.3381524
  86.3205719  42.2181129  87.5614357  85.9749126  43.0933762  87.3863029
  86.4335442  41.8274164  86.6949368  74.4146538 104.7747803   1.9873086
  74.0297079 104.4193554   2.7883855  75.1823854 104.2261410   1.8266240
  50.4574013 107.2737408  83.5952663  49.9956560 106.4400578  83.5058975
  50.0936508 107.6650620  84.3894863  74.4432402  38.5656166  86.5667343
  74.6911287  39.1185427  85.8257484  75.0609350  38.8015676  87.2588444
  82.2847176  38.1704521  97.2654152  82.4590397  37.9383874  96.3532829
  81.3871670  37.8759956  97.4201488  84.8222733  45.8304548  77.4372578
  85.7192135  46.1512947  77.3435068  84.4557285  45.8826828  76.5545607
  88.8600731  20.4111862  93.2846546  89.3657494  20.1777124  94.0631199
  89.2224884  19.8614907  92.5898743  88.9628983  20.4091787  80.6811333
  88.8001728  21.3330150  80.8715916  89.9081612  20.3566384  80.5398846
 109.9142933  98.5468769  32.1711922 110.0179291  99.2632961  31.5449071
 110.6735897  98.6222553  32.7491355  95.2804089  40.5009794  84.3439198
  95.0655079  39.5755386  84.4605923  96.2372017  40.5275869  84.3523026
   8.4003800  91.8790531  25.1569939   7.9232472  92.0790863  24.3516588
   8.1305742  90.9882164  25.3802562  93.3275604  98.6510754   0.9183772
  93.9533710  98.0550289   1.3298467  93.8336182  99.0991783   0.2406318
  68.9246559  44.2696381  84.8907757  69.3239737  45.0248098  85.3226280
  69.6007633  43.5926342  84.9185944 101.3150501  57.0343018  37.7641988
 100.3642750  57.1294928  37.7077842 101.4791870  56.8077326  38.6796021
  24.0468359 107.8105450  14.4437647  24.6512413 107.1549511  14.7917974
  24.1451502 108.5615730  15.0290143  78.2885504 107.4234962   7.4842256
  78.7725449 106.9827175   6.7858714  78.3354235 106.8201160   8.2258266
  55.8388138  62.6373911  84.5247269  55.2542973  62.0852089  85.0440216
  55.6725740  62.3766375  83.6188507 104.5020771  93.2089615  10.0529110
 104.7535610  92.3413754   9.7362304 104.2353439  93.6833286   9.2654681
  70.1411009  34.3450713  89.8853779  69.6688747  34.5220852  90.6989479
  71.0642195  34.3492174  90.1384926  76.9855690  34.0645528  90.6303787
  77.3738194  34.5288181  89.8887920  76.1546516  33.7286735  90.2942371
  11.0059488 101.2922287  15.4169106  10.3879762 101.2134457  14.6901810
  11.6179204 100.5671310  15.2905977 116.7109394  92.1800137   9.5256084
 116.1454296  92.4320316  10.2556193 117.0945168  91.3459587   9.7966307
  64.9106312  26.8627238  85.7544422  65.6948662  26.9772768  85.2177048
  64.5357561  26.0337591  85.4569244 116.8996716  53.8665819   8.0187196
 116.3713074  53.0981445   7.8029263 116.4264393  54.6004295   7.6266176
  68.6546707  37.1438956  89.4371891  68.9368629  37.2369266  90.3471088
  68.6046410  36.1982751  89.2974281  61.2906361  26.4226723  93.8738728
  61.6553116  26.3798714  94.7578526  61.6053057  25.6262636  93.4461498
  90.6532383 105.0998020  12.4349153  90.9137821 105.9884357  12.1927011
  90.0241184 105.2201462  13.1462300  26.6761541  65.1603127  15.8980405
  27.2992182  65.5487204  15.2839029  26.5726328  64.2580414  15.5956841
  62.8800154  42.0634937  95.4286289  62.9816532  41.4658880  94.6878338
  63.7015676  41.9856453  95.9136295  16.1180866 109.0078545   5.6151640
  15.6136703 109.8203468   5.5746996  17.0246744 109.2940617   5.7265896
  68.7816763  47.6565266  81.2542152  68.9610863  47.7331686  80.3171062
  69.1057014  46.7871952  81.4898014   6.7796242 109.9886608  17.9180098
   7.5116611 110.5740452  17.7239025   7.1634471 109.2948437  18.4542322
  61.1788177  29.9919820  79.2219448  61.9826221  30.4038382  78.9049149
  60.4918051  30.3373265  78.6518717  86.7081451  40.9380674  92.4476051
  86.8681240  40.5019665  93.2845402  87.5817585  41.1291313  92.1062469
  64.7333765  56.4574671  89.3366528  64.2418909  55.6973886  89.0252781
  65.0910473  56.8533754  88.5419464 118.3334541  75.1758146  28.8551354
 118.3710289  74.6707439  29.6673703 117.9603195  74.5708990  28.2139826
 113.5587120  79.5979786   6.4527780 112.8750038  79.6449804   7.1210402
 113.4081936  80.3660202   5.9017009 115.5986691  77.7032185   1.6454549
 114.9577427  77.0339155   1.4057226 115.5180168  77.7825403   2.5959474
   8.4369510  76.2019873  14.6503544   8.2576090  76.6802073  15.4599059
   8.8873142  76.8360662  14.0923655 105.9001350  72.8268814  18.9172077
 106.6094875  72.6821518  18.2910192 106.0325527  72.1571350  19.5881307
  61.6428280  26.2894225  85.2414417  61.0843086  25.5419183  85.0280762
  62.5103569  26.0384822  84.9241829 107.9065609  18.9055133  91.0362148
 106.9902992  19.0826893  90.8233547 108.3188820  19.7690988  91.0572433
  92.4627018  33.3386827  91.6011715  93.3137512  33.4616065  91.1806393
  92.5872517  32.5851178  92.1781158   2.7974367  97.2207928   5.9376377
   3.7274462  97.2133064   5.7112360   2.3580818  96.8843174   5.1566231
   1.5375428  80.9199429  15.5568361   1.4719649  80.0043583  15.2854669
   0.8568169  81.0219479  16.2219965  51.0933638  59.5292521  85.8112907
  50.5829000  60.3156853  86.0041046  51.2071371  59.1032743  86.6608906
  73.2663870  18.2716894  96.7113495  73.0729771  18.5132134  95.8055496
  74.0082455  17.6703811  96.6457176  96.3908958  16.9185078  83.7422848
  95.7683277  16.4925218  83.1530666  96.4673996  16.3186121  84.4842434
  56.2764835  44.2349768  96.0701084  56.4641714  45.1324797  96.3448715
  57.1024561  43.7680817  96.1966133 116.4676380  81.4895248   9.6765357
 116.5996170  82.1987534   9.0474075 115.9664726  80.8318138   9.1943645
 101.3282681  95.1869965  28.9262867 101.0766792  94.9181271  28.0427456
 100.4976368  95.3571892  29.3704939  66.7155457  15.6467223  95.3076649
  66.3767385  14.7793186  95.5291367  66.7083406  15.6695163  94.3507576
  77.0889330  35.4784656  77.8092957  77.2263956  36.4221191  77.8920746
  76.1425066  35.3656435  77.8975010   6.2724894  75.1324892  12.9499173
   6.7491907  75.5839682  13.6464465   6.5267342  74.2142725  13.0419433
 101.8904495  23.0296898  96.1050320 102.5811958  23.0738521  95.4438591
 101.4423943  22.2024727  95.9284306  52.5103474  31.1253786  83.6698627
  51.9653893  31.3134503  82.9057407  53.3423519  31.5604830  83.4836102
  58.6810207  49.0926886  91.6851425  58.1173563  48.3207989  91.7370987
  58.4119511  49.6360445  92.4258137 108.7033558  94.7580624   3.2856157
 108.2705879  95.0122738   2.4705610 109.5777225  95.1424217   3.2225111
 112.6019669  29.3578482  86.9288445 112.9538441  29.1864896  87.8023815
 111.7277718  28.9681911  86.9420910   2.3285860 103.5059738   9.5756739
   2.4213250 103.2043934  10.4793787   1.9649827 102.7538967   9.1083235
 105.9065533 102.6748562  10.5993569 105.6461906 103.5779476  10.7806826
 105.6068134 102.5142384   9.7046000  80.9578514  72.7761316  88.4797096
  80.0922966  72.9306841  88.1013489  81.5171909  72.5832176  87.7272892
 111.2761402  92.7493858   5.4911214 111.6522217  93.5474968   5.8623683
 111.7589664  92.6138783   4.6757990  55.0597668  53.3644438  86.4872837
  54.5924950  52.7626991  87.0667553  54.4222546  54.0507174  86.2902260
  82.2350788  30.5701661  97.3331738  81.9606781  30.3137493  96.4527321
  82.3823071  29.7414613  97.7890301  81.8259335  34.7028995  91.5619659
  82.5822449  35.2328324  91.3101673  81.7900562  34.7747040  92.5157928
 101.2697601  85.8741665  14.9134123 101.0795784  85.1604843  14.3045390
 102.2085571  85.7992268  15.0845420  96.5804100  92.6208591   0.5925742
  95.8981705  92.7041245   1.2587875  96.7226887  91.6777229   0.5120261
  93.0342197  12.8053093  96.1240196  93.7830257  13.3371961  95.8545589
  93.3881664  12.2113097  96.7859268  93.5921574  78.9341593   4.6308628
  92.7294445  79.3391180   4.5415965  93.5613537  78.4890938   5.4777402
  97.7525520  64.2257690  96.5243912  98.4003162  63.5476971  96.7163563
  96.9160652  63.7606668  96.5098572  22.9627562  11.0549152   3.8619968
  22.8503084  11.8708789   4.3496343  23.1120729  10.3917706   4.5359224
  92.3118114  27.0720744  83.1926441  93.0471992  26.6661763  82.7336311
  92.1208000  27.8622675  82.6873302  97.7013206  69.5071650  85.6270981
  97.0115185  68.8727951  85.8219528  97.5659275  70.2107525  86.2618160
  30.3458285   4.9600574  18.5290003  29.5935655   4.7364485  19.0770221
  30.7573438   5.6990564  18.9770722 118.1237125  53.5049868  89.4400692
 117.2178459  53.6542559  89.7109032 118.5348701  54.3677425  89.4932842
  78.4924221  50.2883196  72.5089550  78.0871534  49.5364428  72.0768929
  78.1469822  50.2666044  73.4013844 111.4242554 107.3240757  13.9146757
 111.5247822 106.7887020  13.1275976 112.2024536 107.1302032  14.4372213
  27.5806236  83.8699055   6.8888032  27.1699834  83.0691910   6.5625262
  27.0154595  84.1531944   7.6075280  86.7682934  67.4298429  91.9894123
  87.5525570  67.6242208  92.5026226  86.9918633  66.6374779  91.5011501
  58.2374430   4.7370046   7.6228309  57.9665518   4.8297703   8.5361999
  57.5388765   4.2238367   7.2167587  86.2614632  50.4780388  94.2673397
  86.7064381  51.0085344  94.9282551  85.3452301  50.7502556  94.3188286
  64.1076517   1.9283526   2.5553024  63.1629133   1.7750694   2.5408301
  64.3771791   1.6793646   3.4393793   4.7850558  91.4116573   5.7612658
   4.4876736  90.5052280   5.8397806   5.4740143  91.4956474   6.4204425
   0.1894914 103.8334846  16.7726755  -0.2006568 104.6968651  16.6363156
   1.0750300 104.0175915  17.0859778  -0.0661807 103.6163044  21.2712002
   0.7241962 103.3897781  21.7613244  -0.3060552 104.4856453  21.5920520
   2.3055467 108.7229347   5.2078152   1.5165836 109.2625904   5.2582210
   2.1138056 107.9660606   5.7615447   9.6286398  94.3390560   9.6379346
   9.0860736  95.1151562   9.4982266  10.3392029  94.4260216   9.0025067
  95.9441948  62.5773621  90.5456448  96.1136818  61.8576241  89.9377918
  94.9901581  62.6515293  90.5689812   4.9262372 103.3429241  22.7666330
   5.0515193 103.9029121  23.5327554   4.1837510 103.7319469  22.3044515
  15.1342475 109.8446369   2.3951915  14.8588562 109.0750504   2.8933203
  15.4678619 110.4511070   3.0563492  71.3450439  59.7151598  97.2982916
  71.8016679  59.1875785  97.9535669  71.9103177  59.6804943  96.5266072
  82.1260929  47.1225452  74.3356848  81.3154125  47.3114109  73.8630724
  81.8551540  46.5587425  75.0602198  39.0376592   2.8274071  11.8913925
  39.6643162   3.5224608  11.6903138  38.8587070   2.4144988  11.0465765
  12.1672404 101.8752003   0.6933878  12.1415770 102.5692940   1.3520330
  12.4257219 101.0925770   1.1801240  45.0736523   8.2586014   4.8470938
  44.3260527   8.4796500   4.2916974  45.3898144   7.4236310   4.5019880
  73.1029415  39.5744681  92.3426914  73.0440998  40.4472780  92.7312374
  72.8359127  39.6992135  91.4319897  43.1821394   4.3904081   9.1628450
  43.9842510   4.7422382   8.7767553  42.9876900   3.6109543   8.6423898
  36.0339665  95.7505798   1.0075417  35.2613163  95.2000713   1.1347421
  35.9262300  96.1152744   0.1291207  48.8789654   7.1024245   2.8502378
  49.5680571   6.5417767   3.2066905  48.6368752   7.6760370   3.5772815
  97.5383949  39.8476219  74.9049377  97.4783325  40.3002930  74.0636826
  97.4256992  40.5388308  75.5574369  10.2208471  99.5193195  30.6593132
  10.2608120  98.8168240  30.0103641   9.3266070  99.8545551  30.5946279
  95.9992123  39.9818659  93.3336067  96.9387817  39.8945451  93.1729221
  95.9290886  40.1127529  94.2792225  37.8843021  96.5602493  11.7117906
  37.8526425  96.1214352  12.5618887  38.3643150  95.9543705  11.1472261
 111.2449741 105.5559254  20.0754404 111.1459446 106.2407780  19.4140780
 110.6505108 105.8151054  20.7794785  50.7134962  16.0096931  12.8523719
  50.1473093  16.7410636  12.6058698  50.7667255  16.0591161  13.8068116
  10.5867994 105.9795380  10.9409010  11.0860753 105.1864910  11.1359072
  10.1658273 106.2074184  11.7698073   0.4738794  13.2780731  90.0656605
   1.2447732  13.5775220  89.5837021   0.6209620  13.5777164  90.9627724
  73.9921141  51.4877367  74.4857264  73.4221745  52.2195816  74.2495060
  74.4747257  51.2911606  73.6828089 117.3922634  46.5557623  81.1053276
 116.6758347  46.4349985  81.7285252 117.9221439  47.2579479  81.4826775
  89.3021488  37.3898625  82.2333813  88.4913826  36.9176102  82.4227333
  89.7592163  37.4275064  83.0735588  82.0763588  28.6091661  93.3657265
  82.6365089  28.9545178  92.6706028  81.6849995  29.3856359  93.7659359
  61.2797070  57.3021507  80.2028751  60.6505537  56.8268824  80.7455730
  61.8350172  56.6194534  79.8263311 104.5612240  58.8169622  92.6332951
 103.8389301  59.2728853  93.0653381 105.1665115  59.5136499  92.3793793
  74.1643667  48.0772877  87.9956245  74.4221449  47.4487448  87.3213005
  73.2438946  48.2633638  87.8102970  77.1390772  46.1410952  96.9450378
  77.5773764  46.1838198  96.0951519  77.7997923  45.7823658  97.5374985
  73.1626654  72.8650331  89.3257332  72.9403353  73.0282784  88.4091377
  73.9960909  73.3178997  89.4543552  83.3534908  74.3727255  79.9763536
  84.2359829  74.6830654  79.7735262  82.9644108  75.0781918  80.4932404
  16.8996203 109.7758579  12.8823245  16.7462158 110.5656528  13.4009051
  16.1883950 109.7680378  12.2417545  25.3733897  94.2376232   3.7001774
  26.0237694  94.0270329   4.3701696  24.5377851  93.9760208   4.0869087
  93.9370441 111.5118885   3.9164767  94.4693184 110.8458710   3.4813476
  93.2699394 111.0141373   4.3891737   6.8759626 104.8116398   9.8698193
   6.0349506 104.9835396   9.4462836   7.4971235 105.3725910   9.4053507
  59.2417669  16.1021578  12.0134199  59.5256615  15.3056836  11.5647948
  58.5867977  16.4852285  11.4298892 109.9417019  92.2548866   2.7458635
 109.5221519  93.0790234   2.9928589 110.8645344  92.3802280   2.9670081
  88.5045528  23.9919329  63.7799788  88.4202671  23.8084245  62.8443193
  89.3542194  24.4247317  63.8635826  81.2395000  44.0268421  87.0042038
  82.0701790  44.3106508  87.3858643  81.1502647  44.5507812  86.2081146
 106.2296200  35.5346203  67.7344847 105.9312439  36.3220787  67.2793818
 106.1850452  34.8442602  67.0729351  70.4425859   2.0999381   4.3262777
  70.7706785   1.6927603   3.5245332  70.6957293   1.4946297   5.0232369
 103.5473347  14.5056045  93.7677670 103.8482189  13.6203611  93.9728165
 103.0615902  14.4097340  92.9485607  16.6879010 100.9478760  -0.2401305
  17.6196778 100.8920479  -0.0282151  16.2516069 101.0004616   0.6102301
 107.1396160  64.6040440  65.6028891 106.3000393  64.2981291  65.9460402
 107.5051785  65.1398134  66.3068390 110.5388260  46.2285948  91.9571304
 110.7440948  47.0197868  92.4552441 111.3846588  45.7984114  91.8316078
   0.0660473  64.2241335  83.8396263   0.5017987  63.5988522  83.2605171
   0.7652069  64.5567465  84.4024563  71.1058140  60.6902933  87.7399540
  70.4556417  61.3250923  87.4390697  71.3361883  60.1930904  86.9551277
  15.2333915   5.3594816   8.8663018  15.0570786   4.6683684   9.5046651
  14.5569026   6.0162532   9.0313631  46.8851900  18.0270064  15.9791243
  47.4536085  17.3878026  16.4087129  47.4857283  18.6873150  15.6333280
  86.1192703  39.4330955  90.1762962  85.8540154  39.9969721  90.9028721
  87.0161533  39.1747761  90.3886700  63.8138437  35.8472705  94.5257759
  63.6483288  34.9462080  94.2484283  64.6156263  36.0959840  94.0658665
  41.0294867 102.1276951  10.4152858  40.9927654 101.8554592   9.4983506
  41.8377733 102.6360703  10.4820096  90.2310085  46.2834167  65.7228661
  90.8517838  45.5580997  65.6536770  89.3905258  45.9047365  65.4651642
  70.6278229  51.2353992  90.1040268  71.0744143  51.7225933  90.7964420
  69.9486065  50.7388067  90.5604172  43.9733171   2.5586259   1.5813161
  43.4304237   3.3468577   1.5951875  44.2708921   2.4886875   0.6742386
 117.5128651  95.6422329  10.7775640 117.8090572  96.5020180  11.0763514
 117.9954147  95.4918289   9.9646968 112.6754665  55.6180763  86.5129852
 113.5467148  55.8108234  86.1665821 112.6598263  54.6654844  86.6054535
  55.7440233   0.8277082  12.4026358  55.7674932   1.0204050  13.3399451
  56.6358089   0.5504402  12.1927106  94.1684151  75.5201292  81.2915134
  93.9472389  74.7408819  80.7815266  95.0007057  75.3031826  81.7115784
  93.6739445  39.8910761  92.0983982  94.5456791  39.9324799  92.4915791
  93.6047935  40.6953001  91.5839386 111.3490868 100.7594013  12.5211811
 112.0247841 101.3313961  12.8851819 110.6637478 100.7430553  13.1892192
 100.5189419  42.6938248  91.9123173 100.3441525  43.3371305  92.5992298
 100.4484177  43.1894445  91.0964584  67.6046896  16.3411248  14.3144500
  68.2362175  16.2144065  13.6063886  68.0807066  16.8482995  14.9720323
  41.8029118  11.5730786   5.4099935  41.3246918  11.2781751   6.1849576
  41.2637472  12.2769475   5.0492960  99.7809601  95.0766850  14.0669513
 100.6510735  95.3554821  14.3522823  99.7239780  94.1591835  14.3337345
 105.6719875 112.1121407  16.7167759 105.6708717 111.2238979  16.3600266
 105.5204773 111.9938183  17.6544738  79.7981071  52.6362658  89.9436474
  80.3317261  53.4191847  89.8075485  80.4001999  52.0001841  90.3297997
  93.4757614  49.5510530  90.6056499  94.2307186  50.0146151  90.9681034
  93.3156013  48.8358879  91.2213802  86.1855125  54.4415760  96.1132908
  85.3887367  54.0490866  96.4701462  86.2189770  55.3141785  96.5052986
  75.2805376   0.4393012   5.1780635  75.7441378   0.9725499   4.5323461
  75.2061892   1.0048248   5.9467554  19.3252695 105.1298141   3.9238450
  19.4869149 106.0065937   4.2722157  20.1952147 104.7934055   3.7087676
  81.1499405  40.3908110  94.5701027  81.3586712  40.7514715  93.7083721
  80.2680969  40.0316429  94.4722366  88.4601974  38.0980253  90.6057358
  88.3164883  38.1083941  91.5520287  89.3981647  37.9341698  90.5077076
  86.4577198  25.5680585  73.7644053  86.8524456  24.8210931  74.2143631
  85.8008671  25.1797438  73.1864834  52.4244690   7.6071543  25.8274817
  51.7921972   8.2175487  25.4481602  53.0465317   7.4364424  25.1202869
  72.9185534  71.4221048  83.7975121  73.2641554  70.7593584  83.1995487
  73.0851221  72.2542906  83.3548355  56.7065191  11.4950585   1.5416348
  57.2977781  12.2172892   1.3294306  57.2040272  10.7066035   1.3247064
 109.1439152  63.1272078  97.3264980 108.2459259  62.8660297  97.1224689
 109.3988228  63.6960459  96.6000748 101.3767624 102.2509861   6.7790955
 100.7854652 102.7120113   7.3741192 101.2803936 101.3278866   7.0132434
  71.2210083  50.7486582  75.6358480  71.6297913  51.0318089  76.4537430
  71.7357159  51.1750793  74.9506664  33.3446789  11.8762016   6.7659229
  33.9821982  11.2359273   7.0819122  32.8089738  12.0793056   7.5327343
  41.2317991   4.1173029  11.1818206  41.4391851   4.7601014  11.8600786
  41.9620705   4.1751301  10.5657125  81.4286423  64.4915247  79.1799974
  81.1101055  63.6498928  79.5062304  81.0668182  64.5583344  78.2963371
  21.2066317  85.1217937  14.2657351  22.1598148  85.0356865  14.2496932
  21.0046053  85.6868839  13.5200214  38.4002614  15.8623564  22.2830033
  38.1233120  15.6865644  21.3837647  38.9248395  16.6605556  22.2203541
 115.5225658  49.4157314  96.9093323 115.0750446  50.0982428  97.4094677
 115.0635719  49.3941879  96.0696316 110.0569534 111.6764736  20.1829362
 109.9022675 112.1930885  20.9737659 109.4219112 110.9621906  20.2354264
  13.4527063  96.0232353   3.0659407  12.5389075  96.1665154   2.8196192
  13.4055042  95.5563450   3.9002138  78.1665850  12.3396242  38.8291097
  77.2621298  12.2419500  38.5313630  78.4237289  13.2123494  38.5316873
  81.2067509  52.6792192  93.2989883  80.4953575  52.4145699  93.8821793
  81.1032963  52.1226740  92.5271225 103.5838890 109.4284058   5.1848406
 102.8889275 109.1854095   4.5731056 104.0619278 110.1275349   4.7388279
  42.5863361  12.4399900  28.7619162  42.2650433  12.0232809  27.9623175
  42.1548796  13.2943082  28.7767768  87.4501514  85.7003880  85.7569599
  86.9404697  85.6620979  84.9476528  87.6622963  86.6277695  85.8627605
  24.8839974  97.1297455   3.4782150  24.8518491  97.8543377   2.8535762
  25.0174618  96.3521004   2.9362938 111.2581539  67.1589279  91.2237263
 111.7974472  67.3162413  91.9987297 110.6885910  66.4308023  91.4720440
  73.1744194  12.8831089  11.6030824  73.3949137  12.0025086  11.9066560
  73.5996819  12.9553628  10.7485867  36.1333418  12.3168623  12.9815578
  35.2241325  12.4846220  13.2293987  36.6409063  12.9487062  13.4908545
 101.1788464  35.8838320  90.4086590 101.0720348  36.6990757  89.9185562
 100.8244514  36.0778594  91.2764072 116.7892647 109.2367172   0.9860256
 116.3869381 110.0513935   0.6849039 117.3935604 109.5090008   1.6766173
   4.8874295  90.9956741  11.8565607   3.9565772  90.7760525  11.8176734
   5.2456993  90.4039097  12.5181484  32.8309798 103.0705452   5.7826573
  32.0277786 103.5884094   5.7286775  32.5929117 102.3145390   6.3193256
  20.0439334  98.4529877  14.0940249  19.0894842  98.5055637  14.0440893
  20.3095913  98.1061363  13.2423484  42.0361996  16.6198015   5.9451610
  42.1748114  16.9718874   6.8243957  42.8861141  16.7101967   5.5142230
  77.2458649  10.1020348   5.4427749  76.9640827   9.5965171   6.2051958
  78.1732988  10.2778769   5.6014305 108.2601833  77.3963261  96.6362572
 108.1710052  78.3410358  96.5105534 107.5874519  77.0150709  96.0720634
  28.5823965  97.4568653   9.9943203  28.5849047  96.5012741  10.0497258
  28.0608273  97.6502514   9.2153466  79.7527266  41.7524433  97.3448944
  80.0972176  41.6761398  96.4550972  80.4123688  42.2632504  97.8141308
  61.0278797  31.1347270   2.3984677  60.4450464  31.2709522   3.1454486
  61.8907452  30.9982204   2.7896976  95.6972313  89.2639446  23.6629367
  96.5544033  88.8402176  23.7071037  95.0721169  88.5572624  23.8243890
   7.3281461 109.0411186  10.3501129   6.7703527 108.9030933   9.5845765
   7.2247773 109.9698639  10.5574536 119.1321850 104.0293694   2.1312809
 118.5215664 104.4673729   1.5383883 118.6571503 103.2562637   2.4360538
  39.0656114   7.1879029   2.2557640  38.9317513   7.4990845   3.1510177
  39.8595643   6.6553682   2.3034972  58.0232763   4.2378062   3.4036100
  58.3568907   3.3462667   3.5040602  58.7978935   4.7618467   3.1997001
  72.8483200  51.0509109  88.2606220  72.2977495  51.2280035  89.0233326
  73.1686068  50.1594400  88.3982277  39.5110893  -0.0272164  16.0989869
  38.8849187   0.5709582  16.5068221  39.1775870  -0.1540046  15.2107668
   0.2477231 110.6686211   9.2051405   0.3892166 109.7880268   8.8576311
   1.0188851 111.1626911   8.9268690  19.5991492 106.1485481  12.9502559
  20.2882409 105.6990528  13.4394789  19.3363023 106.8732262  13.5176945
 117.0458221  90.0426579  21.1912107 116.1059475  89.9041080  21.0742879
 117.2551250  90.7709980  20.6064534  88.4230900  42.2599745  77.7493620
  87.8287983  42.0098877  77.0418978  88.0545139  41.8455887  78.5295296
  91.5229607  56.8792391  85.1074219  92.3596287  57.1396160  84.7221756
  90.9440327  56.7479849  84.3565273 110.8634281  94.0025711   9.9762911
 110.7126808  93.2609177   9.3902397 110.3761005  94.7244644   9.5792782
 116.9541264  46.6641140  92.6261139 117.6726151  47.2891474  92.5294399
 117.1652508  45.9598255  92.0132160  73.6260605  49.9949980  90.9444427
  72.8312206  49.5561266  91.2475300  74.2851162  49.3015718  90.9123230
 100.9135151  29.8759031  82.4788761 100.9511852  29.0784669  83.0069923
 101.6925335  30.3697109  82.7348328 106.1458492  64.9606943  62.9112625
 105.2907276  65.1743221  63.2845831 106.7210388  64.8637009  63.6701918
  83.2783222  25.5769706  96.5168095  82.4886894  25.0477076  96.6290569
  82.9650021  26.4812732  96.5341568 105.9177208  98.1858158   3.3192813
 105.1914883  98.6358356   2.8876570 105.9691048  98.5900307   4.1854241
  73.9461422  60.9107924  82.2203732  74.3367243  60.0446510  82.1042824
  74.3881226  61.4614153  81.5740776  86.0879612  59.5168781  94.4565773
  86.2401676  58.8077879  93.8318729  85.3780746  60.0290203  94.0692806
  20.3547287 107.5247192   4.7680464  19.8056436 108.0938625   4.2287707
  21.1208439 107.3447323   4.2231596  17.1335316  91.5201664  21.2095809
  16.8969023  90.5951881  21.1414289  16.3936257  91.9238758  21.6632199
   7.6304084  88.5785103  25.4318142   6.8865579  88.2952690  25.9635043
   8.1553698  87.7869129  25.3133702  13.3449781 101.0635567  11.8708277
  13.0028939 100.3847504  11.2890756  12.8565550 101.8515587  11.6326571
 100.9066963  47.1094561  95.6591988 100.7430458  46.4600563  94.9752808
 101.7905331  47.4296713  95.4788685  76.0200787  60.3763723  87.0226860
  76.0999537  59.9277544  87.8644657  76.0666466  61.3069725  87.2418785
  57.0666552   8.5586005  38.3079982  56.2898111   8.0027550  38.3694673
  57.3121309   8.7285554  39.2174435 104.7826481  91.5640163  12.3538470
 103.8385487  91.7204666  12.3746812 105.1661587  92.3654842  12.7099359
  68.0949545  60.2168226  93.4601498  67.6008368  60.8239365  92.9092407
  68.9802551  60.2296638  93.0964088 102.6441383  87.5342941  85.8030701
 103.0664253  86.6762829  85.7616615 103.2417297  88.1181526  85.3359127
  71.4596796  54.2983961  88.0059052  71.4510489  54.4933558  88.9430046
  70.6357288  53.8369465  87.8496742  59.8499250   2.0504670   6.0635465
  60.5796146   1.9803597   6.6790682  59.8846292   2.9552224   5.7529908
 113.4970093 102.0099449  10.4582894 113.4104633 101.0567379  10.4694808
 113.6317062 102.2490025  11.3753200 107.3256207  52.6146173  86.4801025
 107.6501465  52.8914690  85.6232071 106.9232368  51.7610836  86.3194942
  71.3511038  35.2685380   5.7261652  70.8814287  34.4552875   5.5410624
  70.6665707  35.9363079   5.7677877  41.2442970   9.6979970   3.2733053
  40.3119993   9.7682852   3.0680990  41.4000940  10.3873777   3.9188388
  95.6330776  44.6866703  84.6081448  95.8730507  45.5366230  84.2390633
  95.4556370  44.1359234  83.8456345  20.0623703 107.2006130  21.2775373
  20.5985379 106.9528484  20.5242991  20.6765842 107.6170826  21.8821216
  10.3531182  99.0854645   8.1008446   9.8445052  99.3716240   8.8595670
  11.2423432  98.9735603   8.4369808  96.8970680  78.2348204  89.1157055
  96.5894222  79.1245699  88.9426899  97.0049286  77.8456879  88.2478523
  93.4791183  47.8539753  87.7534676  93.1871700  48.5990572  88.2786942
  94.4347572  47.8967810  87.7874279  25.3890729 109.3655396  29.2448568
  24.8232388 109.9491882  29.7502494  26.2649155 109.7399521  29.3394208
  65.3889608  57.5468349  86.8477917  65.4868364  57.1106958  86.0013676
  66.0486174  58.2403612  86.8375778  34.7113252   1.8228392   9.2983156
  35.0418878   2.7149561   9.4036132  34.8127198   1.6385010   8.3645219
  77.3752260  39.4560599  71.1191034  77.8830099  40.2626324  71.2075853
  77.0846796  39.2570972  72.0091724 111.0042858  43.8088369  72.8508425
 111.6210079  44.3906021  73.2951784 110.9301376  43.0506802  73.4304428
  20.4605913  91.9560051  16.7223370  19.7581041  91.9138336  17.3711562
  20.0182724  91.8346119  15.8821893  88.0798244  26.2096405  92.0407581
  87.8275871  26.5145016  92.9123497  88.9983463  26.4647388  91.9543171
  83.5322475  49.3045807  92.0146179  84.1479874  49.9906635  92.2722912
  83.9123631  48.9272213  91.2213039  94.6515369  53.2942009  90.8348370
  94.4893456  53.8717031  91.5807724  95.2982044  52.6652813  91.1550045
  85.3570366  50.0728846  76.3495922  84.9014759  50.0682735  75.5077600
  84.6581459  50.1443911  76.9997311  33.1779885   3.6437061  18.9976943
  33.6438203   3.2938215  19.7571778  33.2748461   4.5929527  19.0737283
 102.3222446  54.6827126  91.5709114 103.0613804  54.8518181  90.9866905
 101.6218758  54.3840599  90.9908104  92.3014927  64.5903778  93.4639263
  91.6249752  64.6102428  92.7870464  92.1512985  63.7671089  93.9285755
 112.6951218 106.4248848   4.8187685 112.8703403 107.2295570   5.3066492
 111.9413471 106.0354328   5.2619094  21.4104295  95.7686901  15.8342171
  20.6856537  96.1754417  16.3090670  21.1115289  95.7332134  14.9255753
 116.2643719 107.1490288  38.0584741 116.4821911 107.7139664  38.7998462
 116.3577461 106.2595654  38.3995843 117.7872849 109.4384861  12.0228446
 117.2913170 110.1452541  12.4360275 117.2361946 109.1535187  11.2939203
  73.6472225  63.3122063  86.3977623  74.1262102  62.5614738  86.0467720
  72.8431797  63.3468723  85.8795547  81.3556290  48.5986042  96.3028908
  81.6555595  47.7697945  95.9296036  80.4725266  48.4120989  96.6216087
  66.4758253  48.0506134  97.0578098  65.7843781  47.4453068  96.7899704
  67.2857189  47.5519371  96.9499683  94.3227005  38.4038115  80.5574036
  94.5959282  37.6229548  81.0389042  93.4262657  38.2133603  80.2810860
  21.9981170  80.8361435   1.1647183  22.2168994  81.7466736   0.9664617
  22.1262360  80.3732872   0.3367222  10.3087080  92.5987625   6.4681113
  10.0178933  92.0995998   7.2313279  11.1505270  92.9704475   6.7315829
  72.4044561  37.2577000  88.2614231  73.1338739  37.5541568  87.7171040
  71.6477585  37.2700787  87.6753426  42.0685244   9.3961006  24.3597078
  42.7473116   9.8675573  23.8767934  42.4417162   9.2654055  25.2314186
 104.7667503  56.7348957  94.4835091 104.5218658  57.3621082  93.8031673
 103.9525032  56.2763834  94.6908760 104.7537994  38.0334282  84.4659519
 104.5239925  38.3193874  85.3500652 103.9736938  37.5763535  84.1517067
   0.1894964  81.8007183   7.8321904   0.9219496  81.7852116   8.4482294
  -0.3409369  82.5476933   8.1095099  67.0487118  57.5820684  83.4045124
  67.5954390  57.9428720  84.1024685  66.5612459  56.8732691  83.8242912
  68.7938166  55.1679564  96.6535378  68.6044598  54.2652893  96.3974857
  69.7057056  55.3036690  96.3961029 106.6446114 112.1695900  13.0281687
 106.1244297 111.4857388  12.6062799 107.5337315 111.8156815  13.0489743
  80.1579380  41.9762135  79.0092039  80.4472160  41.7903852  79.9025202
  79.3789625  42.5216866  79.1182852  25.6916761  84.4485760  14.6993423
  25.1637030  85.1749611  15.0307631  25.5213690  83.7308502  15.3093433
  49.8124838   4.5106214  10.7104349  50.4442501   4.0055031  11.2222552
  49.8565388   4.1305515   9.8330313  43.7333202  16.0207748   1.1113724
  42.9106665  16.3876879   0.7875615  44.3241978  16.7716229   1.1690311
  77.2030830  64.2112446  77.3631287  76.7911005  64.8975086  76.8382025
  78.1279612  64.2455864  77.1188927 102.4384403  49.1362858  73.4967470
 101.8519211  49.8779869  73.3480310 101.8788242  48.4618521  73.8817215
 112.6981449  23.4796166  92.2285557 113.4547043  23.6454153  92.7910137
 111.9424057  23.5845923  92.8065491  13.6230266  94.5308971   5.5432099
  14.5492136  94.7690964   5.5841023  13.6237550  93.6110401   5.2784759
  55.2936363  58.5794067  81.9755840  55.8526564  58.3921862  81.2214756
  55.8997583  58.6395741  82.7139759 101.3653469  60.5953646  87.2893333
 101.5760612  60.9273815  88.1620216 100.8112335  59.8317719  87.4509335
   2.1146315 100.9982586   0.6843691   1.8743497 100.5228996   1.4796898
   2.5026757 101.8140125   1.0009101  22.1921325 107.4434185   2.4120621
  22.4040389 108.0987549   1.7473432  22.0320249 106.6411972   1.9150200
 114.8113918 103.4416294  18.3419323 115.3280926 104.2427349  18.2554615
 115.1310730 103.0362511  19.1479766  87.4597073  27.6961923  62.9185486
  87.7957916  27.4249315  63.7727690  87.4980450  28.6524105  62.9387283
   5.3613305 102.8002834   2.3926772   5.2886951 101.8828583   2.6558962
   4.6220309 103.2316494   2.8211561  66.7584467  50.9089565  96.1004353
  66.4619303  51.1876440  96.9668293  66.6121101  49.9630642  96.0899925
  92.1904945  44.1295433  65.8380079  92.6953793  43.5016346  65.3212357
  92.8490925  44.7090578  66.2209511  73.0139065  57.0964384  93.7782001
  73.3509827  57.1476555  92.8837872  73.2319546  56.2099361  94.0659428
  98.6967468  54.6456528  76.7942095  99.1370487  55.4634476  77.0256901
  97.8068066  54.9103355  76.5614367  10.9165347 102.7363586  10.7360649
  10.5685318 102.2240448  11.4658976  10.1418221 103.0124760  10.2463603
  73.4722281  75.1918745  96.2581158  74.0178585  74.9259377  95.5179787
  73.2228041  74.3694115  96.6795158  22.0135069 101.5464020   8.0453616
  21.6245365 102.1797085   7.4421602  21.4712834 101.6008854   8.8322896
  34.6505880  11.8995976  10.3991818  34.9370193  11.7234993  11.2953842
  33.7130928  11.7064643  10.4050481  87.7832603  75.4420090  92.0037651
  87.0205402  75.1215601  92.4852180  87.5911713  75.2391243  91.0882473
  28.9755654   5.8827949   8.6982656  28.3362031   5.5005032   9.2993486
  28.9528751   6.8205041   8.8891029  49.0537071  13.1279898   6.0050350
  49.3030596  12.2356057   5.7648194  49.5114708  13.6828113   5.3734839
  86.0214233  59.0978527  79.6030331  86.8484688  58.6164141  79.6242476
  85.9936523  59.5631886  80.4390430  75.7810831  73.4076262  89.3181992
  75.9612179  74.3439484  89.2339993  76.6294289  72.9869747  89.1782188
  63.5408831   9.4744122  17.7442765  63.8836575  10.3660262  17.6829553
  63.8183022   9.1700572  18.6083591  88.3789825  74.9949408  87.0058632
  88.0866241  75.5261993  86.2652397  89.2241859  74.6416140  86.7283249
  59.2606020  53.3829737  18.8403642  59.2806768  53.1289339  17.9177082
  58.8970709  54.2684507  18.8371301  76.4738178  63.1588745  87.8875732
  76.5793324  63.0492306  88.8325977  75.7198858  63.7416029  87.7967644
  39.2375994   7.3298794  11.4033341  39.2383361   6.4837980  10.9556997
  39.5301318   7.9529953  10.7382154  77.6670313  16.4448452  18.4222960
  78.1117153  15.7419658  18.8960576  78.3720446  17.0293450  18.1438148
  61.1480379  73.4328127  93.7528419  60.2025127  73.5670614  93.6881161
  61.3866949  73.8134575  94.5980453  76.7742825  66.6555357  89.7731018
  77.2625828  67.2314262  90.3614426  77.1510839  66.8208694  88.9088631
  32.9159594  16.0729980   6.1773741  32.5855589  15.8475876   5.3077435
  33.7174106  16.5682447   6.0081375  58.2277441  10.1847124   4.1515994
  58.0135870   9.2902476   4.4167447  57.7148056  10.7383502   4.7403386
   0.3075484  66.2486219  74.3082380   0.3654078  67.1484709  74.6294260
  -0.5735036  65.9638691  74.5509243  47.1605110  26.5287757   1.9830605
  48.0636168  26.8418002   1.9316310  46.6455698  27.3131299   2.1724193
   8.5501951 101.8764973  19.9565732   9.2939293 101.6364479  20.5092621
   8.8800931 102.5869274  19.4063985  47.0182133  20.5486417  18.5367656
  46.2531757  20.9838748  18.9129567  46.7491484  20.3173375  17.6477599
  36.5196347  11.0240817   1.3947798  37.2648001  11.2903380   0.8561984
  36.0273337  10.4188979   0.8401410 101.4594841  63.7093306  67.2088432
 100.7898045  64.3422699  67.4679899 100.9691429  62.9149723  66.9972038
  67.1245003   8.8357782   9.6999222  66.2123489   9.0869206   9.8453206
  67.3650122   9.2702204   8.8816041  77.6716805  12.5174630  23.8259745
  77.4925613  11.6183519  23.5507512  77.5839186  13.0349565  23.0255175
  54.2734814   7.2893310   5.7103860  54.5779419   6.4744478   5.3110099
  54.5933294   7.9766130   5.1259458  83.8345051  85.7082176  83.0499268
  84.7710514  85.5104923  83.0521965  83.6585045  86.0238934  82.1635818
 101.6042614  67.9325533  96.3843060 101.0854530  68.6886024  96.1096001
 101.1415195  67.1787977  96.0183144  68.3331394   0.3995492  14.2621601
  68.3898020  -0.5280764  14.4913590  69.1120863   0.7917546  14.6566820
 111.1111546  52.1533585  94.0058327 110.1966953  51.9608450  93.7986183
 111.2218189  53.0740404  93.7685108  96.8985271  68.0362177  95.7520962
  97.8428173  68.1367540  95.8722782  96.6210270  68.8545275  95.3402710
  92.9704189  80.6426907  94.7282696  92.2726059  81.1189270  94.2782879
  92.5574398  79.8287964  95.0168133  55.9720230   4.8367110  10.3360176
  55.7973099   5.7338083  10.6204879  56.9175434   4.7317398  10.4418445
  59.0727329   1.5024243   9.8652965  60.0107908   1.5622553   9.6844584
  59.0126944   0.9351280  10.6339324  89.1294765  64.6233368  77.0064116
  88.4319496  64.0639448  77.3481226  89.3299484  64.2570543  76.1450863
  68.1144190  48.3151340  93.9143181  67.8102112  47.5951052  93.3618259
  67.3125029  48.7508059  94.2030334  82.6912403  95.7278156  92.3329353
  81.8491268  96.0771751  92.6245308  83.1448460  96.4809322  91.9544029
  61.4204121   3.6897254   0.4389672  60.7782364   3.9122418   1.1130066
  61.6107941   4.5216826   0.0055687  98.8788986  66.7462015  91.7971802
  98.3895874  66.0301256  92.2021961  99.0463924  66.4465332  90.9036541
  66.4712715  76.2990141  91.2438393  65.8897018  75.5825233  91.4981079
  67.3509789  75.9267759  91.3053799  54.8475838  18.7941658  10.3951180
  54.7888327  18.2223833   9.6297133  54.7735071  18.2014763  11.1430907
 106.0877609 107.6401901  10.7238460 105.6943512 108.4422112  11.0676980
 106.4078331 107.8837395   9.8552471  18.9753067   3.2350859   7.9373306
  18.8487041   2.4035457   7.4804449  19.0272617   2.9946205   8.8623756
  48.4996557   8.7053126   4.8313236  47.6487732   9.1341239   4.9226943
  48.8859034   8.7507349   5.7059550  56.2746239  28.0041885  10.5802679
  55.8792448  28.0776525  11.4488947  55.7761574  27.3106527  10.1480997
  79.8134804  80.4032135  96.3286304  78.9581871  80.8322525  96.3034916
  79.8215199  79.9337578  97.1627617  50.7704496  13.2277858  13.2127941
  50.2942038  12.7116275  12.5624073  50.7299471  14.1253328  12.8826392
  28.7996483  36.2450361   6.3737375  29.0261722  36.0766649   7.2883797
  28.9663577  35.4140735   5.9288281  35.4365993  26.8820310   2.0837796
  35.8772111  27.7317309   2.0736189  36.0563612  26.2960362   2.5182194
  43.6664009  31.1781549  13.8325202  42.9112959  30.5901861  13.8140047
  43.9151525  31.2195325  14.7559059  18.8094914 106.6253662   7.3944014
  19.2265415 106.7015743   8.2525927  18.6649203 107.5300598   7.1171731
  40.0512171  30.3683615   6.5939856  40.6966114  30.6978869   7.2193748
  40.0950289  30.9806681   5.8595514   3.3469111 107.9341221   9.1206759
   2.5868040 108.0778503   9.6844226   3.0714801 107.2425175   8.5189652
  61.6311979   1.1352084   3.1160700  60.6894636   1.2704927   3.0108723
  61.7375231   0.8968191   4.0369916 110.0675488  75.5517340  82.2378159
 109.1153145  75.6490278  82.2350597 110.3542423  76.0234070  83.0198383
  90.5788612  81.6919422  93.7935162  90.5616951  82.5254440  93.3231735
  89.6767998  81.3745403  93.7514114 108.6000156  37.2687411  78.4749269
 108.3167458  38.1281996  78.7868881 109.5339584  37.3753619  78.2943392
   0.6766775  71.4538145  87.9333210   1.2683055  71.1706686  88.6304855
   0.8371858  70.8381224  87.2182083  10.1008213  75.7520723  66.2250757
  10.6050992  74.9393415  66.1875868  10.2292717  76.0726786  67.1177912
  35.1414204  36.7357397  21.3007832  36.0488772  37.0250630  21.3958979
  34.6779394  37.1595621  22.0231342  97.8641510  63.1710196  88.6454773
  97.4226665  63.4450769  89.4493484  98.5173893  62.5345516  88.9360237
  85.1276016  75.9978676  95.3079319  84.2525291  75.9429455  94.9239254
  84.9911594  76.4216709  96.1552811  15.2906919  69.1884851  62.4236107
  15.9276021  69.4011927  63.1057644  15.4261529  69.8574066  61.7524719
  54.6473074  26.5703464   1.1640975  55.4100418  26.2730217   1.6601488
  54.3046951  27.3069930   1.6702610 107.0159245  53.1819344  89.2144585
 107.0419025  53.4022856  88.2833290 106.0875511  53.0435181  89.4020271
  99.2617130  78.3326912  92.4089622  99.0321732  77.4315596  92.6359081
 100.0747013  78.5000753  92.8856850 102.8481770  81.3350105  86.2519360
 103.5006428  81.9183350  86.6395473 102.3455238  81.0083580  86.9981670
  88.0372047  80.6986809  94.6026802  88.5663128  80.1250553  95.1569557
  87.7363873  81.3903522  95.1920319  98.1295872  71.2799835  92.4460125
  98.8064671  71.9528580  92.3731232  98.5867214  70.4594421  92.2616959
  30.5529666  68.2600784  17.3788750  31.1991715  67.8867626  17.9782832
  30.0916362  68.9156151  17.9020166  80.8298683   9.0538508   7.6933193
  81.4728737   8.6997527   7.0790035  80.4086876   9.7675514   7.2142833
  39.7136497   7.7692485   6.4972049  39.5697761   7.6382691   7.4344224
  40.6164217   8.0812347   6.4347744  86.7803669  60.1359320  87.6985645
  86.1641407  59.5712805  88.1651115  87.3407936  60.4976034  88.3851147
 102.3123550  50.6711435  88.0844975 102.2449303  51.1514854  87.2593021
 101.4047813  50.5167818  88.3466244  44.3215561   7.9289579   8.9218611
  44.8228025   7.1177793   8.8383359  44.9823332   8.6213517   8.9076555
  57.2179127  21.1048889   3.4001839  57.5856781  21.6331339   4.1086608
  56.7091846  20.4274702   3.8457507  37.7186394   7.8156161   4.5975554
  38.3245540   7.8785956   5.3358865  37.4819136   8.7226486   4.4039440
  31.5163279  32.9995489   0.4440087  32.0510125  32.3393178   0.8849608
  32.1311188  33.7009358   0.2287904  24.8021793  43.0697632  22.3967743
  24.5976210  43.3101225  21.4931083  25.3970170  43.7563419  22.6984453
  60.5045795  28.9805460  11.4665139  60.9865236  28.5219121  12.1547103
  60.1024485  29.7262669  11.9119620  77.8199244  71.5367222  87.0215797
  78.0318499  72.4067545  87.3597527  77.0059395  71.6611814  86.5335464
  65.0643437  54.7824493  -0.0056723  65.3981392  55.2455822   0.7626459
  64.5287888  55.4311386  -0.4624155 110.6234741  72.5038767  92.2505951
 111.5711117  72.6310492  92.2053242 110.4057217  72.0366669  91.4440346
   6.0476840 111.9384003   2.8944865   5.5299568 111.4111996   2.2860062
   6.6687596 112.4069595   2.3368531  59.3652868  13.1078124  20.2394819
  59.8074436  13.5517037  19.5158184  59.7210312  13.5202289  21.0266209
  46.1434460  17.1697557   5.2441686  45.5376625  17.9084074   5.1837367
  45.6307793  16.4152086   4.9542293  82.6696014  62.9705143  73.6957216
  83.1911373  62.9492712  74.4980812  83.3104038  62.8760719  72.9909658
  96.8152809  67.5550127  76.5381050  97.1476460  67.8535223  77.3846626
  97.1096611  66.6466045  76.4720345 113.1008053  81.1497402  89.9782658
 113.5157204  80.6521511  89.2736530 113.8300323  81.5592003  90.4438877
  45.2442598  12.7336013  11.5952826  45.8806705  12.0393121  11.7660916
  45.7489491  13.4185052  11.1566174  49.8576736  12.0368719  11.0004199
  49.4449186  11.2210798  10.7169592  49.8693800  12.5846887  10.2155685
  30.7331467 108.1985474   4.5390254  30.1596737 107.4428654   4.4113630
  30.6577206 108.6966610   3.7251306  87.9769897  63.3460760  86.4095402
  88.0258083  64.0769768  85.7933998  87.9529095  62.5663805  85.8548069
  17.3999286  87.1208954  82.9963207  17.4206650  86.4532757  82.3106956
  16.6722071  86.8613815  83.5613918  39.4537139  12.2551870  27.3553753
  39.1333270  12.4937057  28.2252574  39.4213772  11.2986243  27.3421979
  83.6139202  61.0775042  95.0748825  83.8022423  61.4030075  95.9551239
  83.0025673  61.7166567  94.7088718   1.7173208  73.8469791  76.2965584
   2.3710552  74.4722986  75.9837675   1.3800836  73.4350061  75.5010843
 104.7222137  97.0179272  10.8764875 105.6455517  96.7655945  10.8732140
 104.5853710  97.4367714  10.0267410  65.6239843  18.7763751  17.7188027
  66.4108610  19.2201102  18.0352724  65.7843399  17.8493810  17.8954387
  35.1202655 108.5170650   0.4477991  34.3064380 108.3154869  -0.0140315
  34.8525310 108.6529827   1.3566867  66.0850477  34.1250038   9.4508141
  66.7002344  33.5627174   9.9215680  65.7891750  34.7573090  10.1057053
  40.5593395  10.4950726   0.6584667  41.0402250   9.9892187   1.3135162
  39.8412895   9.9208528   0.3921791 100.1305389  72.8253078  92.0732880
 100.8699703  72.3499250  91.6944885 100.5310535  73.5593224  92.5391674
  96.8394184  87.0067883  86.6578865  96.1785793  87.6820564  86.8113232
  96.9222450  86.5572357  87.4988842 108.1778336  60.7032871  83.1846809
 109.0439796  60.3669691  83.4147167 107.8819084  60.1359367  82.4728012
  93.6905193  88.5039043  96.2889671  94.4309616  87.9824924  95.9789658
  92.9238415  87.9573441  96.1165810 105.2225113  46.1134338  70.1420546
 105.8625793  46.7857695  70.3755379 105.7123947  45.2920771  70.1823521
 107.9907227  77.7173185  90.0564957 107.4639511  77.1205711  90.5881310
 107.3540115  78.3166504  89.6671104 108.7618065  64.0736485  88.9979172
 108.1993294  63.3055067  88.8988400 109.5581150  63.8512230  88.5155773
  92.5111389  61.1458731  88.2577038  91.7842293  60.7936049  87.7441406
  92.9364586  60.3741074  88.6314869  87.8873920  33.1632352   2.4934402
  87.3220921  33.3454275   1.7427859  88.7721920  33.1470704   2.1286167
 115.5619431  82.5051022  92.4029350 115.5292034  82.4318409  91.4490986
 116.2819004  83.1128407  92.5718880   8.1821972  41.5512228  89.6184349
   7.2868407  41.7819262  89.3707657   8.1273043  40.6346226  89.8887348
  11.2228203 103.1105137   3.1903994  11.4798820 103.9186954   3.6342305
  10.3760207 102.8847694   3.5753688  34.6820402  24.1753912   0.9219594
  34.2396712  25.0153565   0.7994949  34.3067670  23.8224316   1.7286944
  42.1244907   6.8758601  15.8232808  42.2981787   7.7804393  16.0836685
  41.3695669   6.9358855  15.2378583 108.5949516  73.4973669  96.3421154
 107.9811287  73.4299517  95.6107426 109.1503429  74.2448187  96.1205578
  65.2199411  20.0300598   5.4855764  65.9495497  20.4885888   5.9022915
  64.9186802  19.4077909   6.1475867 103.8647556  74.5440435  61.1716175
 103.6157036  75.0931454  61.9150496 103.0327988  74.2897558  60.7723475
 111.0246849  58.3287477  91.0515308 110.9033775  58.3586931  90.1025200
 111.5060329  57.5159121  91.2059307  55.5286217  16.5556502   5.3982091
  54.6637487  16.3300025   5.0557053  56.1116362  15.8893764   5.0343317
  44.4175768  14.0854204   5.9648764  44.5663261  13.3538568   5.3657770
  44.9812078  13.8985860   6.7156392  90.0694847  71.4882135  89.7160912
  90.9920120  71.3439560  89.5054722  90.0790024  71.8368530  90.6074905
  99.1669083  89.1492176  70.9605551  98.9725590  88.3069611  71.3717318
  99.9461937  88.9827156  70.4302502   9.0035743 108.6461353   7.4010235
   8.8361913 109.4985867   7.8029412   8.6402571 108.0136204   8.0208319
   7.7734202 103.8782120  15.9978139   7.2345757 103.1129646  15.7971144
   8.4929723 103.5325909  16.5260422 116.3291359 106.4436340   2.7325532
 115.5847263 107.0296192   2.5957546 116.4574146 106.0175133   1.8850911
  87.2028065  69.7896051  94.1565418  87.8644180  69.5955324  94.8204899
  86.3807678  69.8379898  94.6445370  81.3855839  63.9950705  88.9905548
  81.6285133  64.8125648  88.5558987  80.5965424  63.7055540  88.5324955
  58.7513828   9.7885734   1.5921603  58.4252453   9.9570143   2.4761814
  58.6236429   8.8485223   1.4648116  55.0942898  23.7464952  20.4145002
  54.4235373  24.1550708  19.8673368  55.2515459  24.3805146  21.1141586
 110.7122421 108.1935501   9.5688152 110.1656342 108.5882950  10.2482486
 111.1687565 107.4793911  10.0135660 103.8561535  63.5896063  95.4943180
 103.6110783  64.5028114  95.6434155 103.0956364  63.2057047  95.0579071
 117.5156116  72.3485327  89.0665817 118.3526516  72.1306849  88.6565304
 116.9074249  71.6878414  88.7351894  40.7547426  23.5368276   1.9740278
  41.3573122  22.8063297   1.8343379  39.9227619  23.1211090   2.2003475
   8.5816479 100.3023243   1.1200910   7.6828712 100.2347183   0.7978155
   8.7270975 101.2421608   1.2286624  96.7704582  58.0387115  94.2533684
  96.3503170  57.7206659  93.4542751  96.2426949  57.6730490  94.9632931
  86.7987442  60.7737446  70.5198097  86.2402058  60.0400066  70.2631044
  87.4878502  60.3755713  71.0516119  89.1008472  61.5221930  88.9288425
  89.3849564  61.4149046  89.8365879  89.0733719  62.4698591  88.7968922
 113.8408852 106.1907959  12.2219658 114.2320347 106.3866615  13.0733585
 114.0203476 106.9671822  11.6916275  98.1894302  84.6596050  84.8011208
  98.3170128  84.1271496  84.0159798  98.3683968  85.5552769  84.5147896
 105.0764465  85.8909702  72.1906424 104.2255974  85.7331467  72.5997591
 105.2977276  85.0601292  71.7699623  60.9621954  30.5780268   6.3396639
  60.1529217  30.8470249   5.9049833  60.9758186  31.0817838   7.1534681
  11.5589964 109.4019413   8.1773061  11.3131905 110.1856804   8.6688054
  10.7391465 109.0951157   7.7900910  62.8271675  19.3915308   3.9403480
  63.4513998  19.8662615   4.4891581  63.0095005  18.4680498   4.1140413
  84.0281296  41.4246750  92.8254986  83.7839508  42.3021936  93.1197166
  84.9795437  41.4612007  92.7269268  97.4447060  64.9127960  78.7782812
  97.1975899  65.5498695  79.4485855  98.0869484  64.3487453  79.2091131
  95.7373047  56.1868620  87.2956181  95.6640339  57.0402145  86.8682384
  94.9427223  55.7202291  87.0365524  54.3003893  14.9761283   9.1668159
  55.2220869  15.1719761   9.3351942  54.2878294  14.6327364   8.2734203
 112.1542740  66.8085337  68.1172228 112.5499439  65.9518814  68.2779121
 112.5174999  67.3720741  68.8003922  46.0295296   3.9637497  23.5678840
  45.4766273   4.2208490  22.8300285  46.9215107   3.9986864  23.2223749
  44.9495125  31.0967517   5.3056884  44.4629955  30.6604981   4.6062481
  45.6623125  30.4929042   5.5142850  82.6689148  73.3353758  92.5371075
  81.8669224  72.8387833  92.3744965  82.9663754  73.6015368  91.6671085
  90.4124355  60.5027151  86.8964291  89.9441051  60.5185556  86.0617733
  89.7363091  60.6675863  87.5536251  37.6563001  14.9798954   1.7868842
  37.5184345  14.0613663   1.5555213  37.7710104  15.4239047   0.9466887
  14.9716520  23.2337213   7.8382033  14.0477228  23.3266711   7.6059389
  15.3846765  24.0283704   7.5003064  83.2253838  37.2716284   6.7532516
  83.3665848  36.6817498   6.0127544  82.2817326  37.4320960   6.7550868
  95.8640957  47.3212004  72.3132372  96.1948395  47.9393864  72.9649162
  96.4055157  46.5401554  72.4275541  86.3657856  63.5744953  82.7170181
  86.9924641  64.2082024  83.0661964  85.7007790  63.4936380  83.4007263
 101.2847233  80.5224323  92.3624516 101.3908195  81.3211727  91.8457413
 100.4947948  80.6757069  92.8808689  55.4799128  10.6117809  13.6047089
  55.2432680  10.5818605  14.5317125  55.2367735  11.4939404  13.3237994
 107.1064186  71.2760687  93.6234760 107.7270317  70.7316828  94.1079617
 107.5282001  71.4248896  92.7772045  69.0299797  16.7776585  20.6981254
  69.0377855  16.0556006  20.0697899  69.4324636  16.4134479  21.4865327
  70.6844854  62.4265528  96.4351845  71.4640856  62.9648018  96.2982845
  71.0223913  61.5365458  96.5348911  44.2794132  17.1386838   8.0936140
  44.5148897  17.8046060   8.7396240  43.9389992  16.4105475   8.6133921
  95.1227570  42.6173449  94.6035767  94.1951752  42.4442577  94.7643757
  95.1266193  43.2757664  93.9088058 115.3435040  92.0065212   7.1298003
 114.7271061  92.5927258   7.5687110 115.9131527  91.6896057   7.8307295
  80.4034138  25.0914049   6.1197984  80.8433056  25.8987260   6.3861823
  80.3430843  25.1548147   5.1666075  70.4932785  10.6688213  10.8701122
  69.9367380  11.3766086  10.5452538  70.0778198  10.3932750  11.6872418
  90.9081078  45.0998116  93.4920883  90.2015495  44.7158289  92.9728985
  90.5062771  45.2901077  94.3397617  92.6636314  77.3870182  90.3554153
  92.0290661  78.0305910  90.0401783  92.1499825  76.5907764  90.4910660
 110.0413990  62.0324945  72.5530338 109.8228550  61.1534929  72.8625917
 109.3510532  62.2435951  71.9244719  75.6443024   4.5090759  17.3918581
  75.1287794   5.1075101  17.9325438  76.5538597   4.7466335  17.5721431
  95.5610466  71.1607647  91.4546776  96.5062809  71.2429762  91.5811920
  95.4702663  70.5895424  90.6919861  69.6708584   1.9128905  21.7777610
  70.6239080   1.8352051  21.7343259  69.4391823   1.5450403  22.6305485
 111.9417572  58.6364126  81.8135643 112.8590298  58.7579298  81.5684414
 111.7398643  59.3906593  82.3672676  15.9600472  74.7432756  94.6369553
  16.3982928  74.1973877  93.9841366  16.4728975  75.5512476  94.6568012
  71.5032864  11.8564451   2.0101729  71.1427402  11.5997136   1.1614519
  71.0459328  11.3019609   2.6423150  66.7525864   3.3317733   7.3514980
  66.6763973   2.3890071   7.4985307  66.5985203   3.4410542   6.4131194
  79.5562887  58.0803585  87.7917576  78.7544823  58.0370188  87.2707367
  79.5886517  58.9836311  88.1068420  92.3100758  97.5125885  97.4604034
  93.2628155  97.5378323  97.3716927  92.0386791  96.7712975  96.9190407
   2.6326421 104.9199200  21.9350958   2.3086438 105.4838657  22.6373935
   2.6573348 105.4872131  21.1645103 117.2810745  36.6110063  68.3449030
 116.5689373  36.1996794  67.8551006 117.9998970  35.9807420  68.2971287
  92.9442787  62.5067282  90.7165623  92.6896572  62.0645666  89.9066925
  92.3893166  63.2859659  90.7486916  71.9729948  19.0563166  36.5791154
  72.6625299  19.4624817  37.1042848  72.1368408  19.3656409  35.6882119
 108.9793587  55.9756088  90.1643085 108.6566734  56.7569733  90.6132793
 109.0265369  56.2310362  89.2430305  99.6377373  53.2721663  96.7768955
 100.5665970  53.0538750  96.8530178  99.6197510  54.0528250  96.2232876
  97.1296215  64.8190975  92.2800159  96.1978817  65.0157356  92.1829224
  97.1514797  63.9242601  92.6191711  58.6605930 106.8168449   2.9964280
  58.9216280 107.4339485   3.6800027  59.1166449 107.1214390   2.2119105
  52.6949263  13.4377134  10.6940544  53.2261086  14.0454173  10.1794934
  51.9716167  13.2010913  10.1134753  77.0692635  86.5967655  87.3404408
  76.4639235  87.2767925  87.6360130  77.4111462  86.2129784  88.1479454
  45.0912714   4.8286125  11.9721472  45.7346439   4.7833842  12.6794362
  45.6018353   4.6888351  11.1746407  89.4820595  70.1590538  96.2129116
  90.2463722  70.7099533  96.3819313  89.4089508  69.6057367  96.9905567
   6.7508459  76.1087179  83.9289665   6.2924349  75.3549862  84.3004131
   6.1228168  76.4935827  83.3176613  84.6589470  16.1634529  11.7601240
  83.7046051  16.1985183  11.6950142  84.9075699  15.4066277  11.2294340
  73.4337997   0.3213280   8.5153675  74.0522718  -0.2168199   8.0212826
  73.8159704   0.3828039   9.3908077  56.5979910  30.4263520   0.7363238
  57.0272589  29.5708895   0.7241169  56.3848782  30.6004906  -0.1804588
  89.8030472  49.5696449  73.5478163  90.2748299  50.2103615  74.0799236
  89.3713665  50.0914764  72.8713655  30.0098133  25.8778763   0.6832848
  30.2567983  25.5053616   1.5297271  29.4200087  25.2292299   0.2990682
 112.8577328  93.0797768  82.6588535 112.8901863  92.9976273  83.6119652
 113.3419418  92.3196793  82.3363113   4.9904197  57.9920006  76.4176035
   4.1463408  58.4046173  76.2345505   5.4957789  58.6694860  76.8668842
  57.8005219  36.0503793   0.9439037  57.5161123  35.1794386   1.2210451
  58.6887741  36.1339045   1.2907006  59.5923853  35.1918268  10.5522001
  59.0386915  34.6194792  10.0210929  60.4501295  35.1553941  10.1289082
  75.2262259  69.3541479  95.7865620  74.9692965  69.8730564  96.5487671
  74.4089699  68.9651394  95.4751301  90.4683304  57.8759384  79.9200487
  89.8737144  58.4450388  79.4313908  91.2630463  58.3979893  80.0301743
   6.2476164  42.0701122  92.4133778   6.6119438  41.2804604  92.8133106
   5.9511977  41.7857838  91.5487766  98.7666035  75.7224178  92.6573086
  98.3242893  75.2374983  91.9605732  98.1436539  75.7192230  93.3840561
  39.5068097  20.8368158  20.3859615  38.5970831  20.8984947  20.6772065
  39.7348666  21.7282915  20.1223493  17.8076994 108.7874413   0.7847529
  17.1983111 109.3333244   0.2878674  18.6350942 108.8577080   0.3086089
  32.0933962   5.6863248   9.3270355  32.1525478   4.7379631   9.2115241
  31.1683893   5.8477372   9.5128828  55.3511953  24.0878773  11.8996477
  55.3173113  23.1618762  11.6596425  54.5574856  24.4633055  11.5184474
 113.4368515  76.9281101  92.3138618 112.7382278  76.4913082  91.8266582
 113.9894104  77.3221254  91.6388416  96.2431812  61.3725090  80.2817345
  96.1531258  61.7077541  81.1737728  95.8053493  62.0251179  79.7352552
  47.0439529  32.3414731  26.3929367  46.9698000  31.3880801  26.4350724
  46.2481117  32.6625800  26.8169165   1.7833787  75.3232336  60.9976625
   2.5296977  75.6282949  60.4817390   2.1610211  74.7036791  61.6219807
 101.2434196  79.1300917  81.9342613 100.6384468  79.7911453  82.2707844
 102.1023464  79.4068336  82.2534752  63.7203693  30.8121467   7.5489384
  63.2537222  30.9874558   6.7317855  63.6393499  31.6237593   8.0498874
 101.0551548 102.2584152  93.8088703 100.1947689 101.8704510  93.9684200
 101.5574646 102.0604134  94.5992565  62.1882200   9.2955649  23.7115192
  61.7475414   8.9618665  22.9300594  61.5379190   9.2090642  24.4085503
 110.7870007  95.6753635  61.7963696 110.8046913  96.6258526  61.9081306
 109.9760437  95.5056095  61.3170242  70.9621811  24.7115946   9.1146910
  70.8699036  25.1526952   8.2702106  70.8477831  23.7827897   8.9135265
 110.9082699  85.7971382  96.2929821 111.1700058  86.0464764  97.1792984
 110.1298523  85.2540779  96.4169502  51.9502974   8.2546806   1.6554657
  51.2717962   7.8674012   2.2085318  52.7642393   7.8511125   1.9568926
  59.3495417  16.1154580   1.6679622  59.1417217  17.0002532   1.9682615
  60.3060102  16.0786712   1.6748242  87.3466873  67.3763943  96.5066147
  87.8354645  66.8625879  97.1495247  86.7153072  67.8731394  97.0270252
  68.1298494   8.3585614  11.9707930  68.6496592   9.1602141  12.0289695
  67.7077103   8.4085393  11.1131632  64.4975471  39.2058063   6.8493330
  65.4172421  39.4509387   6.7478061  64.1161489  39.9155378   7.3660976
  92.3614120  89.0188217  85.8640385  91.5987110  88.5706234  86.2296009
  93.0294704  88.9497852  86.5460587   6.5049177  74.0633631  92.7578259
   6.4728528  73.5001183  91.9845486   7.3978722  74.4080305  92.7662277
  40.1647902   1.3126716  96.4554787  39.6680713   1.2575391  97.2718430
  40.1758862   2.2462535  96.2444401  90.9478378  90.6227684  89.4153214
  90.4709911  91.3629436  89.0398312  90.7921600  90.6906128  90.3573322
  95.7091045  81.4095020  95.1811600  94.7592068  81.3097668  95.2441883
  95.9592056  80.8578300  94.4399834  90.3750324  78.6070156  84.2481327
  91.1280155  78.5751915  84.8382473  90.5688286  77.9525471  83.5770607
  52.6493740  20.2140355  40.5363083  52.8346395  20.7501698  39.7652912
  51.7219400  20.3669786  40.7171583  52.1566296  41.4105892  12.9110265
  51.6659260  40.6354523  13.1841624  52.2159719  41.9472885  13.7013841
  47.0257711  46.4232826  11.6370392  46.4791679  45.8471489  12.1713841
  47.6071358  45.8292961  11.1622524 116.0409164  88.6903477  90.9795189
 115.2766228  88.6313725  91.5527630 115.8774281  89.4648457  90.4413033
  86.2983418  96.8818665  96.1293125  85.8925819  96.0463715  96.3607121
  86.1714745  96.9559193  95.1834488  87.4926662  80.1948547  83.3653450
  87.8019333  80.9105778  82.8100777  87.3829079  80.5921745  84.2292404
  96.7724895  82.5841236  82.6763344  97.7296543  82.5796795  82.6688671
  96.5251637  81.8529129  82.1103001  90.2693367  78.3632278  87.4372959
  89.3592072  78.0674028  87.4176693  90.3635216  78.7919998  88.2878971
  21.7070150 110.1525879   3.7820804  22.1380305 110.6274414   3.0714634
  21.5831327 109.2678642   3.4383678  97.4492836  82.7516174  73.5028028
  96.6742039  82.8798485  74.0496540  97.9475021  82.0675659  73.9501190
  63.1837416  63.8851643  14.0106976  62.6457214  64.3764305  14.6315217
  62.7522421  63.0335617  13.9413488  97.6160812  91.9365883  93.2816315
  97.8910255  91.6068268  94.1371346  96.8317699  91.4301300  93.0704784
 116.7730808  88.5743809  67.7636051 116.7929077  88.1320381  68.6122370
 116.8252277  89.5058537  67.9777527  91.8912029  83.2198715  90.3964233
  91.7148209  83.6673927  89.5688629  92.8282261  83.0263233  90.3690815
  57.1846914   7.4420750   5.0045651  57.3088694   6.5045792   4.8565379
  56.5403414   7.4897599   5.7108045 105.6266499  88.2973099  76.7615747
 105.8625412  88.8847160  76.0435629 105.3186512  88.8795948  77.4560547
   2.8682786  79.3463230  70.2538443   3.5464048  78.7470865  70.5657578
   2.1026862  79.1420507  70.7908487 107.7706909  94.5257187  84.6659756
 107.2876930  94.0394115  83.9978123 107.2139359  95.2788925  84.8633957
 102.6373482  84.7794533  95.4311562 102.0445919  84.7359180  96.1814785
 102.8730869  85.7048416  95.3655338  70.9751511  71.1799383  13.1651676
  70.2365303  71.7311954  12.9067421  71.3165283  70.8347321  12.3402274
 116.8007660  94.7556782  96.1546040 115.8887863  94.8484516  96.4301491
 117.0064068  93.8344097  96.3133907  66.0475683  30.4145932   8.9054275
  65.8633614  29.6591711   9.4636732  65.2295923  30.5681229   8.4325922
 105.6611538  83.9926243  66.3449097 105.7251453  84.2869854  65.4363441
 106.3025475  83.2853889  66.4132786 111.8319893  93.4425926  85.9485340
 111.7333317  94.1824913  86.5477371 111.2480736  93.6465073  85.2179813
   8.3890510  51.1910772  87.3960209   9.2731470  51.1824989  87.0292377
   8.2114834  52.1151543  87.5714588 101.2273979  57.8133821  85.8210754
 100.8515263  58.3997726  85.1644993 102.0833397  58.1931877  86.0194397
  62.3411751  31.8583035  11.4054954  62.6341009  30.9586191  11.5503943
  61.7127037  32.0217633  12.1087301  90.4948616  98.1119442  89.4954586
  91.1136341  98.7637424  89.8248672  90.2661514  98.4204388  88.6186790
  97.6501465  93.9799786  66.5732622  97.1619129  93.2973957  67.0336199
  97.9631138  94.5601082  67.2673368 116.2650108  77.4374008  82.4342060
 115.6970596  77.6075602  81.6827297 116.2841797  78.2663155  82.9124928
  53.5583258  43.5869026  19.2269373  53.9312506  42.9157495  18.6553538
  52.9723501  43.1055021  19.8109901 104.6565533  79.4515991  87.1415520
 104.4648933  78.7091017  86.5686703 103.9820290  80.0971889  86.9306850
 107.2456932  83.3100986  88.5803604 107.2718430  84.2603779  88.6922264
 107.8588581  83.1360340  87.8662300   0.1498035  84.6988106  87.3100662
   1.0805573  84.5603561  87.4854469   0.1252618  85.0753975  86.4304066
  55.2742815  16.6154444  13.5027015  54.6139097  16.5535462  12.8125501
  54.8371267  16.2759352  14.2836356  62.7220011  58.5971785   0.2329809
  62.2852850  58.4923458  -0.6123117  62.2894621  57.9642439   0.8061649
 113.0707932  56.2603235  82.9297352 112.5482559  55.4743910  83.0894470
 112.4256611  56.9451189  82.7534103 107.3533916  93.5872364  92.9814339
 107.6785946  94.3611622  93.4413528 108.0523682  92.9403400  93.0772781
 100.6981087  80.8442211  95.7423592 101.1216259  81.1596870  96.5406990
 100.9214783  81.4968967  95.0787735  58.6728621  18.6015558   2.7084109
  59.2374325  18.9733541   2.0307267  58.0245399  19.2842531   2.8811508
  51.9862461  47.3961544  29.0593195  52.2199154  47.2204638  28.1478596
  51.7556381  46.5387678  29.4169998  52.4511671  45.3569603  30.7911563
  52.7007103  44.7021294  30.1391172  52.6233292  44.9346733  31.6327429
 104.2827606  95.3610611  96.1815739 103.9263153  95.4259109  95.2955818
 105.1333427  95.7970524  96.1300468  65.0244284  32.2318840   3.6711305
  64.2570448  31.6702008   3.7800735  65.7459307  31.6234016   3.5117081
 118.8018703  52.3521757  75.0013256 119.5188808  52.0171976  74.4628906
 118.5481167  51.6104889  75.5506325  49.0598822  37.7687025   4.2604154
  48.9481020  36.9554424   4.7526973  49.9916172  37.9721522   4.3423742
   0.9747414  69.5377588  95.2785683   1.8144950  69.0946865  95.3999519
   0.3363391  68.8274908  95.2138138 103.6030006  76.5612459  94.2780781
 103.6135292  77.4857664  94.0303326 102.8252220  76.2066889  93.8472748
 101.6276455  73.3808374  95.2386761 101.9355202  72.9882669  96.0555840
 100.9174919  73.9642859  95.5060577  67.7560663   3.2383522   4.6285394
  67.3050261   2.8731868   3.8673234  68.5699081   2.7379426   4.6875480
  80.0545311  62.3712635  84.9843979  79.2093182  62.4966288  84.5529747
  80.3030968  61.4726591  84.7677040  68.7943649   7.5852281  19.4753778
  68.4857368   8.4387410  19.7795057  68.0427647   7.0037985  19.5905614
  89.2553711  76.1471128  94.0692902  88.7887573  75.7934904  93.3120155
  88.5715771  76.5470266  94.6066189 116.2668514  88.7633324  87.8372669
 115.5456161  89.3549824  88.0517483 115.8419323  87.9272652  87.6457977
 102.7437878  68.7853289  91.4740562 103.1579399  68.2199907  92.1260548
 103.3122253  69.5540810  91.4279270  79.9582100  93.8090897  81.7967606
  79.0678501  93.8587666  81.4488792  79.8521090  93.9137363  82.7422905
   0.6481378  74.9345589  94.4799805   0.2042736  75.7443476  94.7318935
   0.3310383  74.2830610  95.1054668   0.4670556  71.5513706  91.2695789
  -0.0871742  71.2916613  90.5336285   0.9189782  70.7470369  91.5246010
 100.1618862  93.7557125  96.2132454 100.5572891  94.1161442  97.0069599
 100.5479813  94.2651081  95.5007362 113.0011463  65.4051018  83.8327408
 112.1701908  65.8775187  83.7821674 113.6665058  66.0719728  83.6630058
 114.7732162 109.0753555  95.1435566 113.9590454 109.1042995  94.6410370
 115.2434349 109.8675156  94.8835659  81.6547680  27.6293302  12.1340501
  82.2655392  27.6753974  11.3984776  81.6248894  26.7003274  12.3627305
  42.9775047  16.4162886  10.6184578  42.2298098  16.8080211  10.1670969
  43.1636047  15.6175494  10.1248860  55.4604435  28.6029530  13.1089008
  54.8859119  27.8923321  13.3937883  54.9088955  29.3845916  13.1415701
 110.4923916  96.8107700  96.6166401 110.8221245  96.3497734  95.8452797
 109.9497509  96.1643600  97.0682144 117.8352547  94.9473572  80.2840137
 117.2931004  95.2930355  80.9930992 118.5594463  94.5071602  80.7289886
  48.4742069  20.5394435   5.8291548  47.5863171  20.8948374   5.7894415
  48.3718348  19.6138537   5.6077170  56.3156557  19.5148921  16.7556322
  55.7694387  19.4725740  17.5405455  56.8150902  18.6983967  16.7670822
  85.5484772  71.9925594  86.3866329  86.3496971  71.9066668  86.9032574
  85.6432915  72.8313208  85.9352779  99.5929718  68.6194468  73.5899162
  99.8545551  68.5062122  74.5036888 100.2744484  69.1759396  73.2129002
  49.4485855  34.9059319  10.0283325  49.4571304  35.8011103   9.6894920
  48.5386276  34.6236062   9.9361044 105.8710289  81.2384892  94.4981766
 106.1567688  80.4031086  94.1284275 106.4600849  81.3870144  95.2378941
 117.6377678  56.8170547  94.4825649 117.9032803  56.3462687  95.2725697
 117.9695034  57.7057743  94.6104813  39.9523973  25.2974081   8.9771456
  40.0016785  26.0580015   9.5561987  39.1876745  25.4648709   8.4263402
  39.7911310   7.1336347  72.1924305  40.7072353   7.0848364  72.4655628
  39.8239350   7.4989837  71.3083076  14.6034741 108.6876011  74.4644880
  14.1714478 108.2745934  75.2121592  14.4137883 109.6205711  74.5636034
 112.4572277  87.1343040  89.7446060 112.4769688  86.2232113  90.0374413
 111.6699123  87.1949863  89.2035866  78.5364866  44.2356539  20.6003857
  78.0367088  45.0487375  20.5272555  79.3599987  44.4192123  20.1483226
  55.8133936   0.8690496   3.5959166  55.8377028   1.3597982   2.7744505
  56.5025997   0.2114002   3.5025162  50.0437403  22.5077724   1.8405868
  49.3145132  22.9767179   2.2462399  50.5212164  22.1247864   2.5765011
  58.8016796  16.9379807   7.7999502  58.6861467  15.9954739   7.6792592
  59.7372389  17.0445061   7.9720348   7.1960497  65.5389452  87.0499325
   7.3299122  64.6407652  87.3525620   7.4728960  66.0836983  87.7867031
  35.8044767 105.9364510   9.2498791  35.8026910 105.4731750   8.4122610
  36.5129304 106.5750217   9.1688919 106.3487530  88.7202835  96.1300468
 105.7874298  89.1610432  95.4921818 106.3836575  87.8116894  95.8309174
  53.6250639   0.3653057  24.0741086  53.5664463   1.0030892  24.7854638
  53.8133955  -0.4649213  24.5116997  78.4378672  29.4080520   2.6969108
  77.7581215  30.0476217   2.4844654  79.0184164  29.4138217   1.9358873
 105.5173779  49.8008108  82.5440788 104.9791718  49.9227190  83.3261967
 105.6317139  50.6835508  82.1920395   1.9554649 107.1109962  86.6123390
   2.6504368 107.6966095  86.9128609   1.4367099 107.6442337  86.0100269
  85.3624630  14.8427308  20.2985024  84.9491024  15.2382350  19.5310783
  84.6511936  14.7492898  20.9322095 109.5170021  87.6596546  81.8146324
 108.8980961  88.2214928  81.3482285 110.3448105  88.1393623  81.7855644
   3.6497939  93.4891224  91.9418526   2.9380172  93.1746674  92.4992752
   4.1257980  94.1127968  92.4901962 112.6064682  99.3822956  84.0412235
 111.9650650  98.8561344  84.5187092 113.4462547  99.1581154  84.4421291
 113.0993080  91.0868835  86.7553806 112.7337646  91.1824894  87.6348591
 112.8729630  91.9043159  86.3117599 116.6696167  98.1163692  91.9892311
 117.4731922  97.9191303  92.4704647 116.6055775  97.4208736  91.3346958
  39.2167854  90.1800919  94.8652649  38.6811614  89.6573925  95.4620266
  38.6151648  90.8385658  94.5178604   2.5892437  83.6890793  86.7529964
   3.2637498  83.9061642  86.1094570   2.7673924  84.2706108  87.4921322
  87.1905422  83.5678959  93.3736801  87.9339409  83.2313919  92.8733158
  86.8584347  84.2961311  92.8486919  99.4635868  77.0307589  67.9085350
  98.7559032  77.6746321  67.8795195  99.0481949  76.2328768  68.2357264
  63.8792753  30.4983377  18.4239614  63.8153124  29.5832157  18.1506610
  64.7919226  30.6049705  18.6921787  38.8270974  49.3616962  31.6223097
  37.9721284  49.3983746  31.1934566  39.2665696  48.6142397  31.2168407
  92.1299362  57.1388912  19.8227453  91.7411709  58.0106163  19.7507167
  92.9988480  57.2311163  19.4319570 109.3533039  84.9315548  78.4600496
 108.5099506  85.3842449  78.4521580 109.2194653  84.1859818  79.0452337
  80.6040955  32.4404383   0.5640910  81.0463524  33.2688642   0.3787436
  81.3092804  31.8429089   0.8129175  86.0112762  39.4315529   4.1838276
  85.6365871  39.9026060   3.4395513  86.8087387  39.9161243   4.3970767
 104.6350574  70.0504446  94.6874046 105.3214836  70.5806255  94.2824745
 104.8015404  70.1204252  95.6274128  22.7654600  29.7689795  81.2647724
  23.2043576  29.1355062  81.8325043  22.3496079  30.3841329  81.8688297
  86.9460011  50.1455498   1.0668573  87.5889111  49.8018837   1.6871682
  86.7062187  51.0021544   1.4203617   3.1073311 104.3855381  64.1170740
   2.5982398 103.6792946  64.5149088   2.5430143 104.7258759  63.4228468
  78.1268024  73.1324196   2.2441719  78.8661385  72.7386713   2.7073929
  78.2503510  72.8726292   1.3312224  19.2676425 110.8426666  78.0528259
  19.6175551 111.0775566  78.9122581  18.5624337 111.4718914  77.9012156
  31.5784693  93.0390835  89.2492390  31.8917727  93.6715412  88.6026573
  31.2840271  93.5751820  89.9855328  14.3902147 101.6104984  90.5876732
  14.9098480 100.8281898  90.4027462  13.6242425 101.2832832  91.0593224
   9.4938278 101.5081406  71.2671614   9.0196353 100.8593464  71.7872000
   8.8858414 102.2433186  71.1891222   1.0419227  49.6366310   0.4749596
   1.5190807  49.3933201  -0.3183588   1.4271423  49.0931559   1.1623278
  34.7011042   3.4170461  83.6394978  33.8212156   3.6228517  83.3237934
  34.5957780   2.5997025  84.1264153  77.2693968  14.9461913  66.8771648
  76.5639877  15.0198138  66.2343502  77.6318169  14.0715861  66.7359352
  74.7846889  65.0320244   4.3664882  74.4897890  64.5029736   5.1076823
  74.2666626  64.7166300   3.6259431  70.1990700  30.4614210  62.0715332
  70.4568624  31.2188363  62.5969839  69.2475176  30.4173851  62.1655416
  37.2936153   2.4719325  75.5728006  36.3595843   2.2970758  75.4577351
  37.3730016   2.7607733  76.4819193  59.2420101  10.6684709  84.8099613
  60.1260424  10.3019619  84.8296547  59.3127680  11.4907181  85.2948666
  61.1356640  92.3402596  77.5865698  61.8030357  92.5109291  76.9219494
  60.3063583  92.3875046  77.1109104  31.9717932  87.0642757  54.2241001
  31.1546469  87.3118401  54.6567917  32.6378703  87.6129913  54.6382093
  75.0627184  11.5927255  70.7186270  75.7211447  11.0318184  71.1286116
  75.3705549  11.7054820  69.8193216  65.9422255   8.8938302  72.1984863
  65.5719805   8.2722068  72.8251743  66.8886328   8.8265336  72.3250437
  14.7905111 101.5989685  50.3686142  14.0496826 101.6297722  50.9739685
  15.0142467 100.6700706  50.3109694  42.6144075   6.5583277  77.7895641
  42.1369076   5.8620918  77.3384714  41.9311237   7.1369582  78.1279993
  54.9768066  17.6367497  75.5731058  55.0045300  18.2758701  76.2851381
  54.0499687  17.4133158  75.4877663  39.9803519   7.2418541  79.4223070
  40.4908943   7.2242665  80.2317905  39.3244743   6.5543103  79.5378113
  58.7600040  30.5161762  84.3553162  58.9619732  31.0594845  85.1170635
  59.6065140  30.1626587  84.0820503  78.7284231   7.9511964  82.8505516
  77.9936838   7.8863770  83.4606266  79.2329121   8.7026060  83.1621742
  69.8971605  17.6439834  53.5201359  70.0274086  17.7778459  54.4589376
  70.7437420  17.3290193  53.2033873   4.9305657  55.8070993   6.8053389
   4.4189447  56.2100363   6.1038280   5.6002033  55.2963591   6.3504112
 109.4688320  55.8643436  16.3823831 109.6269512  56.7724419  16.6404355
 109.4541454  55.8863401  15.4255486  88.1407452  25.7219815  76.7909002
  87.4919605  26.1156678  77.3742723  87.6219940  25.2492046  76.1400461
  33.5128713 100.0958538  90.6051922  33.7812591 100.1469231  91.5225792
  33.5364270 101.0020924  90.2979469  22.3115015 105.3441334  94.9942207
  23.1738710 104.9991512  95.2256012  22.0449448 105.8549976  95.7585526
  44.8364401 111.1452293  95.2216053  45.0526571 111.4291191  96.1097908
  43.9819431 110.7223415  95.3066635   2.3337649  53.2620001  20.8518052
   2.8788599  53.3696508  20.0723743   1.4691550  53.5736656  20.5843258
  74.0375328  16.4643085  80.9667683  74.9252939  16.8120766  80.8821392
  73.4691906  17.2020626  80.7455444   5.5990070  84.2360878   9.9659729
   6.3135797  84.6587276   9.4895411   4.8075628  84.5078564   9.5012289
  95.2566242  40.0954866  10.7167983  95.6279755  39.8035240  11.5493166
  95.4860306  41.0233164  10.6644738  97.8008938  78.8137388   2.0960502
  97.0111465  78.2778931   2.1694958  98.0763531  78.7107563   1.1851443
  24.5036387  10.2984023  95.4933834  24.9082613  11.0086918  94.9953842
  23.8189387   9.9608147  94.9159241  94.3158245  35.7926440   5.2167410
  95.1999855  35.7265997   5.5774891  94.1342926  36.7322898   5.1981729
  27.3706317 107.6669502  93.9246559  26.5323186 107.2113419  93.8479805
  27.5003242 107.7729034  94.8670959  62.5777054  10.7038629  76.6754580
  62.3505783  11.4463270  77.2352695  61.7345428  10.3567135  76.3842535
  97.7222061  62.9331303  11.5739942  97.3679543  63.5590267  12.2056508
  96.9505882  62.5090456  11.1985087   3.5494530  40.7936096   6.0591054
   3.1244826  40.0419712   5.6459796   3.8575765  40.4610538   6.9021356
  17.8094065   4.4828790  88.3739090  17.1329379   3.9678961  88.8136959
  18.6332417   4.0796128  88.6475945 114.8892498  44.2537451   6.3683140
 115.0500965  45.1966190   6.3315600 114.0892315  44.1672754   6.8867004
  13.3914912  62.9343033   6.0541314  13.9679253  62.3963499   6.5968657
  13.7229085  63.8256502   6.1632103  69.9574375  12.3017621  89.4830513
  70.0466013  12.7473927  90.3254795  69.3265533  11.6011178  89.6483040
  76.3613415   9.1659677  71.7528391  77.0010281   8.8594389  72.3955488
  75.7129955   8.4633166  71.7063046  46.1880875  96.8874454  70.4768610
  45.6769466  96.8303013  69.6695757  46.1797142  95.9974766  70.8291578
  84.6198082  18.4158838  72.7673960  85.0931358  17.5857413  72.8226423
  83.7873077  18.1897759  72.3526049  88.3349609  13.9740920  80.8668327
  88.9176464  13.7547386  81.5938759  87.5275612  13.4952724  81.0541153
 100.6343079  73.6272430   5.6034780  99.7067165  73.3945990   5.5623984
 100.6728745  74.5196533   5.2594548  18.3437824 102.6686382  50.9259844
  18.3963585 102.5467396  49.9780321  18.2827008 101.7808533  51.2786055
  45.4976606   2.8240752  63.1013680  45.0287008   2.0785071  63.4761143
  46.1995363   2.4298112  62.5835228  52.7918386  17.5629067  78.8396502
  53.4447765  18.1285834  78.4274435  52.8842258  17.7339566  79.7769022
  55.5070543   5.1915443  92.6946259  56.2261820   4.8616529  93.2333851
  55.9285975   5.7750571  92.0637226  72.2059917   6.1211360  68.7869310
  71.8389940   5.4624897  68.1972456  73.1526756   6.0524642  68.6632442
  49.4931030  26.2370682  76.5140820  49.9250746  27.0587015  76.2805128
  49.7281647  25.6339931  75.8089018   0.6792435  53.5307932  11.9656157
   0.5807297  52.9022455  12.6807773   0.5483785  54.3848228  12.3776126
   2.0129445  42.7881193  11.6958082   1.4623508  42.2200203  11.1569762
   1.4286818  43.1043148  12.3849297  69.2465973  14.1053414  60.2436781
  69.2353392  13.5639262  61.0329676  68.7244320  14.8740745  60.4730797
  96.6429138  69.5803165   1.1158364  97.0545578  69.2125607   0.3338260
  95.7689667  69.1902256   1.1324151  33.4402299 104.8281574  87.7562141
  32.8728247 105.1970959  87.0793247  33.1420493 105.2379704  88.5682297
  92.6249123  60.2921104   1.8081817  91.9703293  60.9848833   1.8965769
  92.4065304  59.8602104   0.9823471  43.3497906  98.0449104  75.5919790
  43.9939642  97.8904724  74.9010229  43.8078117  98.5944080  76.2279749
   8.1454813  61.2539101   5.7856089   8.7325615  61.0138273   5.0687194
   7.9413092  62.1759462   5.6294262  32.6432562  10.2249801  69.7306490
  33.5480309  10.0683701  70.0009966  32.1145225   9.7995698  70.4057026
  94.4394398  72.7628279  11.5967727  94.5646381  72.1732998  12.3404205
  94.5344734  73.6400270  11.9678831 106.4982033  58.1192446  14.1342759
 106.9195271  57.8020430  13.3354652 105.5751896  58.2110739  13.8979793
   1.8684649  48.1234550  18.5880017   2.2123842  48.9279222  18.1996894
   0.9195641  48.2488537  18.5977662  87.6701069   4.9434674  70.7848358
  88.5104179   4.4950539  70.8798456  87.8957462   5.8013844  70.4252529
 104.8783779  75.2872181   5.4399055 104.9400616  75.0400972   4.5172146
 105.0811386  76.2226248   5.4514009  94.2743015  65.9323120  25.4816461
  94.8106003  66.5315485  26.0008073  94.8976040  65.4933786  24.9028015
  47.4934387 108.9355659  63.2482290  47.7373981 109.8611069  63.2387257
  47.9865074 108.5504627  62.5237942 118.7771511 107.1837425  55.4129553
 118.1814003 106.6246986  54.9141788 119.5708466 106.6582394  55.5135918
  93.8429070  38.4493804   4.2381978  94.6974850  38.7296176   3.9104831
  93.2437325  38.6045861   3.5080367  77.4462080   7.0998341  85.3978539
  78.0673647   6.5260184  85.8463287  76.8433332   7.3837912  86.0849857
 103.7516880  55.0998116  11.2576783 102.9895782  54.6628189  11.6377592
 103.3819485  55.7855415  10.7015312  70.3213167  14.0367317  72.6875544
  70.6545401  14.9131429  72.4949455  70.9674025  13.4448171  72.3022699
  11.0777223 112.4778652  88.0535316  10.6909084 112.0417213  88.8127327
  11.9669139 112.1271133  88.0031013  66.1719227  10.5247343  89.6955204
  65.5348015  10.7535362  90.3722477  65.6555939  10.4615057  88.8920021
  92.6208401  21.0814214  71.8582010  93.3230305  21.6551399  71.5516043
  92.0819855  21.6404772  72.4179554  92.2909260  10.2752328  72.5786066
  92.5489426   9.3670833  72.7364922  92.6470280  10.4784799  71.7136717
  69.8466158   7.4473000  79.4204998  69.1450310   7.0988888  78.8703871
  69.6135712   8.3662748  79.5524359  67.8387785  24.1022277  77.3860693
  67.9883337  24.8107719  78.0120325  67.6492882  24.5480251  76.5604830
 114.5741081 106.1746597  95.8102608 114.6786308 107.0832348  95.5277824
 114.3672848 105.6964684  95.0072670 112.2190952 104.0056419  79.3772936
 112.7814674 103.3366776  78.9868402 112.3886967 103.9423275  80.3172207
  63.9293146  16.5198827  64.7955513  63.6982965  15.7263374  65.2784061
  64.8631620  16.6412926  64.9670696  74.7266006  10.2449560  87.7912903
  74.0609121  10.9124756  87.6254368  74.7346020   9.7119433  86.9962692
  57.9471350  30.7273579  93.7792301  58.7405300  30.4229188  94.2197609
  57.5540400  29.9329591  93.4177876 108.3818626  22.6904225  76.6606426
 108.4486008  21.8621278  77.1357250 107.4467850  22.7890611  76.4813948
  61.6704607   7.2680330  69.4862270  61.5536928   8.0842757  69.9723816
  60.8024693   6.8645316  69.4836330  66.4103413  28.5783315  83.7745762
  65.7743645  28.4510350  83.0706120  66.1488390  29.4012427  84.1876888
  80.7136440   3.5534060  61.9038916  81.3360214   3.2874233  62.5807476
  80.1956177   4.2461589  62.3137426 116.5472889 110.5405617  58.5696030
 115.8831215 111.2217331  58.6749506 116.8202972 110.3320026  59.4630289
  55.1928568  13.8582039  64.5507622  54.9325418  13.2089186  65.2041340
  54.3800306  14.0801430  64.0965748   5.6802672  99.5686340  95.5581760
   5.6092012  98.9404392  96.2768936   4.8209447  99.5489120  95.1369762
  62.7038670   9.1049904  67.1020508  63.4208775   9.2312604  67.7234888
  62.6339769   8.1551117  67.0067739  66.3755131   0.4325858  77.5178003
  66.5419054  -0.2801153  76.9008684  65.4244709   0.5405428  77.5081968
  50.0052261 104.1795063  79.2127037  49.2219543 104.2751122  79.7545242
  50.3693867 103.3312130  79.4656992  50.5783129  18.1230569  77.3601198
  49.8981094  17.5766098  77.7537584  51.3411093  18.0001247  77.9251575
 115.1783371  82.3836899   2.1872838 115.8289623  81.8131161   1.7781834
 115.4597092  83.2697582   1.9593793  66.9822502   8.9304882  75.8516312
  66.8552637   8.8094896  76.7926216  66.3626099   9.6199453  75.6130266
 107.3932171  24.2767668  10.0456738 108.0941677  24.4349313  10.6780457
 106.6167355  24.6680236  10.4459560  53.4594011   9.4898158  74.6302986
  52.6004028   9.1884017  74.3344927  53.8089609   9.9827456  73.8879633
  58.8281059 100.9048939  87.3449993  57.9602480 101.1069679  87.6945972
  59.1988611 100.2816963  87.9698181  86.0464191   1.3166830  75.4308796
  86.3113785   0.4171359  75.2389383  85.1471233   1.3754821  75.1083279
  21.1996961 101.5919685  62.7723551  20.3940725 101.1063766  62.5951242
  21.9017506 100.9796906  62.5522089  96.4678574  32.0046926   0.5909375
  97.3128891  32.3528671   0.8754177  96.6746330  31.1461759   0.2215794
  25.3257489 109.6776867  81.9240761  25.3482080 108.7406921  82.1184254
  26.1195898 109.8353863  81.4130211  58.8737011  27.2177768  58.1456089
  58.0103159  26.8674779  58.3649015  58.6911964  27.9674053  57.5790596
 112.4509621  57.8309155   0.6863801 113.2571030  58.3124447   0.5006243
 112.6550865  56.9244194   0.4565401  43.8910151  82.7456474  60.0036192
  44.6407080  82.9085732  60.5760241  44.0717077  81.8923569  59.6093130
  20.2005410  93.1321144  87.0299435  20.4922700  93.5224342  87.8538227
  19.5583725  92.4722958  87.2916603   2.5660190  48.0563736   7.7162772
   1.6317828  48.2494402   7.6377970   2.9260385  48.8045883   8.1925035
  27.5904632  97.1021652  89.8757076  26.6859651  96.7889690  89.8709583
  27.5161695  98.0503654  89.7678852  27.3190403   3.3693102  82.6758099
  26.6812277   3.8529262  83.2007313  27.7460766   2.7817696  83.2992458
  79.4363880  16.1038268  84.1156578  79.8619032  15.4348505  84.6519756
  80.1490879  16.4945054  83.6100388  28.2262206 105.6825066  76.7241573
  28.1148791 105.3705406  75.8260918  28.4929347 104.9059391  77.2161293
  87.5236893  70.7098293   2.3525406  86.9130707  71.3232183   1.9437172
  87.9736614  70.2938890   1.6171831  87.4747181  19.3796480  85.8200550
  88.3918571  19.3003094  86.0823345  87.0430756  19.7780836  86.5758133
  60.3640223   9.3531698  75.4189491  59.7702265   9.9293214  74.9376106
  59.8034382   8.9089119  76.0550404  52.7816057   9.7336441  38.8090825
  52.9556608  10.3502870  39.5201993  51.9469738  10.0227737  38.4402585
  77.5517368  19.0518498  77.2183847  78.4576225  18.7711525  77.3480558
  77.0760489  18.2440603  77.0249176  62.3815060   0.2316517  54.4359636
  63.0208492  -0.2599576  54.9515152  62.9077578   0.8470240  53.9254618
  64.0969133   9.9314785  79.2626524  64.0326977   9.2292798  78.6153269
  64.9649382  10.3092170  79.1209507  52.7343798   3.5212380  68.1289101
  52.1091795   2.9250848  68.5411739  53.3860064   3.6925939  68.8088036
 113.2835960  72.2807407  12.8609538 113.2693481  72.5485277  13.7798214
 113.3962727  73.0977345  12.3750973  22.4261737  95.3631592  75.2399158
  22.3278165  94.6250153  74.6385002  22.9577780  95.0183487  75.9573698
  22.6933813 110.3253460  85.9636688  22.7460718 111.0552120  86.5807152
  23.3328557 110.5393982  85.2843380  39.2466688 101.3588047  91.7551327
  38.8222384 102.1997261  91.9252777  38.5331655 100.7806969  91.4850616
 114.1995239  58.8718748   4.9518937 113.4634590  59.1967869   5.4704159
 114.2685699  57.9466963   5.1874924  81.5433311  19.6967816  76.4628744
  82.4533463  19.9111199  76.6682100  81.6007805  19.0914202  75.7236385
  75.8821058   5.7711470  83.3094406  75.1542902   6.3840097  83.2049656
  76.3879108   6.1226469  84.0421295  61.5602446  10.6421375  97.2124195
  60.8565378  11.2896657  97.2540665  61.2326622   9.9705559  96.6141701
  75.9270954  39.5445704  61.9641876  76.7011499  38.9994502  62.1053076
  76.1486626  40.0830889  61.2044907 119.0152836  45.6237745   5.6576598
 118.5833359  44.9747324   5.1023239 118.3318710  45.9155750   6.2610149
  37.6819277  96.9842720  83.9626217  37.3415041  97.6843643  84.5195961
  36.9697762  96.3462639  83.9176846  62.8790855  21.4073372  93.4471607
  62.9178429  20.9853983  92.5888443  61.9897318  21.2373924  93.7576485
   4.5325977  87.4013042  71.3913679   4.9866873  86.6207218  71.7087555
   5.1307535  88.1225300  71.5870094  47.1694326 106.2335205  76.0069275
  48.0641985 106.0114479  76.2644482  46.8166208 106.7133331  76.7562819
  92.5395870  94.8453903   3.4471032  92.0780754  95.5127048   3.9549634
  91.8919659  94.5358753   2.8138414 113.1804848  76.0364628   4.4976720
 112.9677963  76.8047142   3.9677811 112.6620960  75.3294802   4.1133964
  74.1193724  20.7522583  72.7742815  74.5282650  21.5762424  72.5095415
  74.8122835  20.2777433  73.2335711  78.9624071  14.1254199  72.4968863
  79.0084887  14.6274555  73.3105612  79.0125799  14.7851908  71.8052053
  63.3821201 111.9447136  95.2335358  62.6136065 111.8800735  95.8004951
  63.7064886 111.0466480  95.1664543  35.1841307 108.4808445  74.5813131
  34.7292542 109.3049431  74.4075823  35.5606055 108.2324600  73.7370348
  85.1589108  34.1634989  68.1976461  84.8940468  33.3084774  68.5367823
  86.1035347  34.1987395  68.3482409  52.9803038   8.8092893  89.9147987
  52.7424097   8.5021991  90.7896328  53.8741732   8.4925991  89.7846413
  37.4222207 110.3863049  77.9018831  38.3501124 110.2075481  77.7492666
  37.3159313 110.3077030  78.8499117  72.6962614  17.4710846  54.5049810
  72.2065115  18.0682921  55.0704145  73.1098175  16.8544018  55.1090527
  71.8055773  16.6420174  84.7603130  72.2649670  16.0345924  84.1804695
  72.2091722  16.5063250  85.6175995  74.4232225  43.0881596  83.9574718
  74.4492912  42.2120333  83.5728264  75.3422689  43.3146381  84.0999222
 108.6258793   5.1352769  88.9271450 108.7994289   5.4021227  89.8298645
 107.9235935   5.7170069  88.6362362  69.7357893  10.0786388  76.5924120
  69.1908598  10.2358198  77.3634958  69.1156530  10.0427568  75.8641434
  85.9890747  24.2124653  68.9331484  86.3609409  23.4395099  68.5083008
  85.1392555  23.9194489  69.2620516  60.4814863  12.2095907  94.2876625
  60.3277254  12.2285128  93.3430767  60.5434179  11.2786734  94.5016384
  86.2911034  25.6853127  87.7085018  86.8593311  26.1344504  88.3342934
  85.5830479  25.3259063  88.2430267  75.5573320  28.6745548  83.9184284
  76.4513969  28.7681937  84.2472267  75.6095219  27.9611135  83.2824135
  67.2642851  16.1482668  73.5505915  66.8493557  16.4288080  72.7348948
  67.2043085  15.1930976  73.5336494  97.0243645  14.9401212  85.7915592
  96.3528633  14.2623186  85.8683777  97.7988625  14.4751883  85.4749680
  97.7367878  48.2760715  10.1912045  97.1045971  48.9266586  10.4966664
  98.5055256  48.7883663   9.9405426  92.9156971  16.7638695  73.2827425
  92.2563839  16.9249940  72.6077747  93.6716366  16.4251125  72.8031301
  26.8527913  95.5604839  80.7188511  27.5142169  95.5514717  81.4107132
  27.2974873  95.1879215  79.9574900  71.1623478  14.2764902  82.5386333
  70.9630060  13.8642275  83.3791924  70.3465128  14.2142403  82.0418739
  85.2423668  37.6506090  79.1336393  85.1602077  36.7354226  78.8654661
  86.1316967  37.7195239  79.4808912   9.4444430  51.1654663  15.7797718
   9.2629266  51.6096163  16.6080308   9.1207635  50.2741194  15.9100175
  47.9420996  10.9379292  94.2595768  47.0278311  10.6873322  94.3920422
  47.9319429  11.4688587  93.4631824  71.6283989   0.4642800  89.8978901
  71.4001513   0.1718490  89.0155029  72.5766611   0.3454342  89.9518108
 103.3039474  54.3892097   3.3406520 102.4670029  54.4464540   2.8796980
 103.1126595  53.8684464   4.1206780  74.2371225   6.3922870  86.7846584
  74.1191101   7.3409343  86.7359447  75.0374126   6.2764722  87.2968578
  25.0793433  68.6288214   1.6292760  25.5718827  69.4481230   1.5804039
  25.4495525  68.0849648   0.9340100  42.1846771 108.2051659  85.7355309
  42.5823402 108.9633846  85.3075123  42.8580999 107.5261879  85.6940365
  14.6079886  49.1038036   0.5140420  13.9217675  49.6396971   0.1163563
  14.3867862  49.0836906   1.4451149  80.4092216  29.8681092  94.9244499
  79.5461988  29.5237899  94.6945381  80.3730202  30.7914472  94.6747208
  10.3167486  92.4291229  12.7509570   9.5580405  93.0120945  12.7780879
  10.0159478  91.6247082  13.1736600  98.4100437  35.5341840  88.5383511
  98.3870983  36.4495564  88.8172722  99.0404320  35.5189657  87.8182030
  81.6336250  36.7708540  73.4603071  81.3873291  35.9578705  73.0191469
  81.0157299  37.4212170  73.1264544 109.5824909  67.2534418   3.1417033
 108.7225914  67.0643091   2.7661660 109.3957329  67.8020000   3.9035660
 112.5864506  86.9865036  12.9936612 113.1792927  87.7193642  12.8272676
 112.0758533  87.2597599  13.7558007  76.9102669  16.5133417  76.4999151
  77.5854969  16.2967062  77.1428490  76.9647074  15.8126581  75.8500624
  69.3779850  22.6698112  85.3175640  70.1881504  22.1761799  85.1903248
  69.0400171  22.3627090  86.1588192  37.0158148  98.5660744  18.6330533
  37.7050233  99.2274475  18.6947489  36.3287401  98.9838600  18.1138074
   8.2537133  63.7224960   4.0237793   8.9944154  64.0335655   3.5033703
   8.3376878  64.1826582   4.8589021  82.3930645  16.4198864  91.3670731
  81.9403267  17.2124326  91.6553783  82.0728397  15.7343912  91.9534016
   1.1317925  73.1819296   2.6490223   0.5648506  72.4155664   2.5624207
   0.5771442  73.9199686   2.3962493  87.6365662   5.5563682  85.6559563
  86.7942810   5.5339575  85.2017689  88.1918621   4.9542472  85.1606560
  96.7680454  14.0372837  80.5429745  96.2605572  14.2253387  79.7534609
  97.6176739  13.7408817  80.2166271  99.3736076  11.5894866  92.9392052
 100.2205181  11.4117026  92.5300980  99.1301155  10.7623899  93.3549595
  40.5802298 108.3129406  94.3765640  40.0782347 108.4393215  93.5714149
  39.9186635 108.2697678  95.0670052  94.0440083  19.1277957  70.4618502
  93.4086418  19.6396971  70.9623432  94.2316532  19.6652257  69.6923113
 103.4976768  60.7518959  12.2748208 103.3659935  61.2915516  13.0543482
 103.4802151  59.8520517  12.6007152  64.3913555  23.5304546  68.2574415
  64.5942783  23.6193943  67.3262358  63.5389328  23.0954289  68.2763338
  51.3429308 102.7530098  68.1776428  51.1385727 103.1987953  67.3556089
  50.5588293 102.8688717  68.7142944   9.8340791  59.7296143   8.3989340
  10.1181293  60.4192877   8.9988464   8.8789934  59.7354841   8.4622461
  82.2220325   7.4202579  96.7641163  82.6573277   8.0820596  97.3014927
  81.8725300   6.7912155  97.3952866  83.3658218   2.2419368  74.5923471
  83.2001781   2.3707777  75.5262613  82.6353645   2.6811215  74.1567135
  91.1668301   2.6335037  87.5375652  91.8714428   2.1366504  87.9533768
  90.7404613   2.0037927  86.9562721  78.5851192  16.8296695  56.0425615
  78.4792185  17.1775997  55.1571417  78.9114714  15.9392619  55.9125662
  83.6770916  51.5025282  94.3906403  83.3413124  52.3638153  94.1423035
  83.4115219  51.3961935  95.3040981 101.8453026  34.4305944  70.1732206
 102.1967411  33.7897086  69.5551729 102.1515369  35.2750778  69.8426104
  69.2393637   1.8669081  80.0925064  69.6188402   2.7420866  80.0131893
  68.3212471   1.9807842  79.8468971  17.3157203 101.3535690  57.7620697
  17.4992239 100.6403923  57.1505642  18.1080079 101.8905354  57.7484941
  63.4276628 106.9734287  74.2510605  63.0016136 107.2955513  75.0453854
  64.1746473 107.5586987  74.1257477  79.6064854  14.7425091  94.9229145
  79.0578127  14.5334852  95.6788826  79.8651028  15.6539536  95.0593567
  50.1141882 111.0306263  92.2326660  50.4415655 110.1615810  92.0006561
  49.2139482 110.8785343  92.5201988  62.1222544  12.9033494  58.1053591
  62.1561861  13.5661507  57.4155951  63.0377960  12.7601421  58.3451653
  63.4452772   1.9054660  85.3450108  62.5454378   1.5948814  85.4453087
  63.8508892   1.7435536  86.1967659  77.2174406  31.5758657  79.1219759
  77.6201296  32.3641872  79.4861507  76.9987011  31.0434675  79.8867893
  72.5081491  12.0534039  87.9549885  73.0597973  12.6368308  88.4760761
  71.7518091  11.8761075  88.5142231  76.8138695  33.2910609  81.9836044
  77.5525808  33.3414960  81.3769817  76.5486240  34.2014527  82.1142292
  96.1571407   3.6833543  82.0946503  95.8963871   4.5523492  81.7895508
  97.0573711   3.7967092  82.3995590  10.3836787  74.8021936   1.3661428
  11.1922002  75.2423191   1.6284645  10.6758428  74.0598583   0.8371691
  55.9538698   3.3505401  58.4406233  55.3043175   3.2861927  59.1407490
  56.5938139   2.6684421  58.6441994  67.8088474  18.9948702  83.5621071
  66.9400358  18.7700284  83.8950443  67.8163576  19.9517703  83.5393333
  41.9675493  19.5165837  85.4878139  41.8423367  19.8149562  84.5869637
  42.4525404  20.2257752  85.9097862  36.4528966 105.9775734  93.4772205
  35.5002499 106.0347080  93.5509014  36.7747116 106.2062740  94.3492031
   9.6232235  70.6883478   3.6561459   9.0073949  70.4867315   4.3606573
   9.1092521  70.5933046   2.8542536  77.2571278  17.8200507  85.3279305
  77.4774694  18.6849356  84.9820232  77.8462839  17.2213161  84.8689747
 104.4582462  73.2284355   0.4261621 104.6123791  73.5376072  -0.4665247
 103.5405445  72.9563141   0.4302870  92.1726608  10.4826653  81.8417645
  93.0129910  10.8631206  82.0973682  92.0790291  10.7086241  80.9163475
  74.3428183 109.1962910  97.0127583  73.4949350 108.7522125  97.0237541
  74.9849796 108.4864616  97.0124149  58.1748962  32.2985125  81.2671089
  57.8091955  31.4942884  80.8987045  57.8910971  32.9877377  80.6665611
  20.4451180  82.7918243   8.7190509  20.6252670  82.9374218   7.7903008
  20.9469724  83.4709930   9.1697210  21.0030174  55.7182598   5.4523903
  20.5874372  55.3611088   6.2372273  20.3613591  56.3358545   5.1015556
  84.5736122   8.0345148  83.6276913  85.3807259   7.5460625  83.7896061
  83.9336491   7.6435953  84.2225456  43.6044884   5.0585806  63.0630493
  44.1850805   4.8700958  62.3257494  43.0968428   5.8190536  62.7798414
  88.1320572  25.5152178  95.7206345  88.9536953  25.7339907  96.1602879
  87.4517059  25.7698059  96.3439655  83.7665939   5.5449581  75.5530834
  83.0323029   5.6344551  74.9456072  84.3169594   6.3082111  75.3776646
  98.2547474   6.0641396  86.7997742  98.6963177   6.4193016  86.0283375
  98.9614296   5.8909482  87.4217319  43.9491224 105.3370571  97.0215797
  43.5784388 104.6042919  96.5297604  44.7104645 104.9656487  97.4672699
   4.9185184  59.1746855   5.7887876   4.9927521  59.1286564   6.7419940
   5.6845224  58.7002516   5.4657066  52.4768877  14.4919014  93.6448956
  51.6302252  14.1209245  93.8934326  53.1042767  14.0725267  94.2337513
  58.7307215  17.8405011  79.0021563  58.5725594  18.7408721  78.7183428
  57.8789806  17.5344861  79.3137980  93.6355019   5.2660954  90.0627613
  93.2076931   5.8753437  89.4610691  93.0634022   4.4987488  90.0735664
  84.3368149   9.4663733  61.5487576  84.8233604  10.0083292  62.1698809
  84.5395565   8.5668671  61.8057013  78.1874561  17.9366028  93.3998013
  77.4974680  18.5750985  93.2196140  77.8605938  17.4351048  94.1467190
 103.9081573  62.4534225   9.9126637 103.7917042  61.7854977  10.5883467
 104.6084309  62.1119928   9.3565440  98.2991028  34.0335464  90.7970905
  99.2513752  34.1153741  90.7450676  97.9670620  34.7645640  90.2759457
  41.1461210 107.2745991  90.3906155  40.7656431 106.3962650  90.3915787
  42.0240402 107.1549225  90.0284481  52.3874998 104.8470688  45.2441740
  52.6905489 105.7372284  45.0652456  52.2535563 104.4611168  44.3785334
  77.1062279  64.2275524  90.6966209  77.1349955  64.4079733  91.6362190
  77.0788383  65.0924301  90.2873898  73.1477165  24.6572900  60.1108503
  73.9307261  24.8531365  60.6254148  72.6949549  23.9792442  60.6123352
  65.7951736  27.3828554  66.3540888  65.1383829  28.0718184  66.2531471
  66.3175201  27.4307346  65.5534077  85.0115776  13.8045549  64.3779850
  85.7835197  14.0798640  64.8724937  85.0641060  14.2964375  63.5585165
  54.8004961  22.3074746  72.6283550  55.6823587  21.9716740  72.7889204
  54.2330313  21.7589045  73.1699133   3.8414332 110.7646561  71.5485668
   3.7471390 109.9151421  71.9794655   4.7872460 110.8988476  71.4880371
  87.1565819  16.2763500  72.5869131  87.6021290  15.9673917  71.7980814
  86.6194153  15.5343938  72.8647375  81.3813019  19.8186934  95.6092930
  81.9899082  19.0887821  95.7235622  81.3273525  20.2233410  96.4750767
  74.5414495  18.4323370  64.5258617  74.3542099  19.1774905  63.9549685
  73.9881086  18.5740852  65.2939463  64.8345757   9.3784165  54.8577261
  64.8602915   8.8626391  54.0517855  64.7706032   8.7275618  55.5566740
  54.8310328  91.1728668  94.8810673  53.9406157  91.0970879  95.2240753
  54.7161627  91.4845085  93.9833355  75.0328922  31.7604733  90.3451920
  75.2599764  31.4122677  91.2074089  74.1639662  31.4024234  90.1635456
  87.5670624  26.8974161  69.1254425  86.9841957  27.4488425  68.6035061
  87.1134186  26.0565019  69.1828775  36.6574335   7.4815917  93.8773632
  36.0844922   7.1766144  93.1738281  37.2990537   8.0401760  93.4385681
  14.6110654  76.3901281   3.9764059  13.8017714  76.8930149   4.0679500
  14.8342156  76.1306286   4.8703268   3.1396940  47.9610109  23.5674953
   3.5100180  48.8195133  23.3624053   2.2869453  48.1547880  23.9567280
 112.1248722  44.9370813   3.1078315 111.5735149  44.2113686   2.8153032
 111.5498447  45.7017422   3.0783856  88.0394936   0.3543129  96.0254574
  88.8186455   0.8919699  95.8837700  87.4132156   0.9455530  96.4431190
  61.6593885  31.5128326  85.6966209  61.0726213  32.2660589  85.7643604
  61.9279337  31.3365674  86.5983105  66.6778374  36.3852453  73.7993813
  66.8597651  36.5325284  72.8712416  66.1199379  35.6075740  73.8136339
  41.9453573  34.7341466  95.1897907  41.8686581  34.4719887  94.2723942
  41.7397118  33.9404249  95.6837082  88.5460567  16.2432861  89.0122414
  88.3602333  15.3447556  89.2849064  88.0496311  16.3550842  88.2015038
 109.2623997  59.9614525   4.8227718 109.5578480  59.7491598   3.9374048
 109.4550800  60.8937407   4.9224690  99.2071152  13.7416935  84.7104740
  99.9702263  14.1992283  84.3575478  98.9448643  13.1403482  84.0134525
  95.8195686  49.7972059  -0.0148346  95.1178741  49.1471815   0.0217591
  95.4805756  50.5436468   0.4792764  81.4361477  33.0268717  82.2651863
  82.3551178  32.9282522  82.0161819  81.1829758  33.8803554  81.9134808
  76.2213135  35.8512259  82.3651123  75.2685738  35.9315324  82.4106503
  76.5089321  36.6545987  81.9314098  93.0178547  17.6320767  62.8613520
  93.8774300  17.3541439  62.5449467  92.6462078  16.8478310  63.2651711
 106.7510033  64.6915102   7.5952125 106.8698883  65.5900288   7.2873706
 107.3458195  64.6131897   8.3410633  68.7722921  18.3465028  73.7228012
  68.5287476  17.4485552  73.4978342  67.9425907  18.7733150  73.9364862
  66.4349985  11.0713673  78.4897804  66.6646576  11.7585230  79.1153288
  66.3008738  11.5350366  77.6631927  63.0765724  28.1687498  79.7599649
  62.2361374  28.6196780  79.6789408  63.2738590  27.8686023  78.8727093
  15.6846857  86.2568188  95.9361458  15.2217209  86.3890553  96.7634392
  15.5955410  85.3204250  95.7588196 113.1487656  76.9760036   6.9581401
 113.0315685  76.4252186   6.1841065 113.5122013  77.7934408   6.6176295
 107.5069809  10.4598224  82.8461075 107.0631695  11.2842524  82.6471710
 106.8233395   9.7945613  82.7667046  67.9782104  20.9643507  45.6339979
  67.7020359  21.1482573  44.7361469  67.4160004  20.2421689  45.9143543
  78.5253954  17.6967943  73.8698721  79.3220997  17.6418197  74.3975782
  78.7268591  18.3494174  73.1992579  51.8389273 107.6687050  63.6136532
  51.3209343 106.8753147  63.4777927  51.9308138 107.7349091  64.5641327
  75.7018518 110.8198643  78.2425880  74.9076796 110.8342552  78.7767363
  76.4150143 110.7388401  78.8758898  74.9146843  35.2665377  71.8545341
  75.4963493  35.1767206  72.6094055  74.0408850  35.0898933  72.2031069
  86.2922192  29.6133113  94.2719936  86.0959911  29.3384218  93.3763599
  87.1833897  29.3010116  94.4285774  71.0870266   6.3587725  65.0316954
  70.3421021   5.9547150  64.5866537  71.8021774   6.3060617  64.3976498
  86.2433147  46.0518122  90.8415318  86.8740273  45.3317881  90.8414745
  86.5184021  46.6111326  91.5679741  93.3747101  28.0250788  90.3488731
  92.9329967  28.7277722  90.8256817  93.1620026  28.1885862  89.4300365
  68.2174253  12.8069735  96.4060116  67.8960896  13.0201948  95.5299377
  67.8161240  11.9620574  96.6092587  55.0306511  16.2168324  96.3862133
  55.9488440  16.0732174  96.1570263  54.9319410  17.1688938  96.3944912
  89.7198009  22.9693413  81.1486244  90.5301189  23.2325935  80.7123661
  89.8656082  23.1785822  82.0712185  19.1415143  97.2775745  93.2515717
  18.9561641  96.3608265  93.4551620  18.2893097  97.7107334  93.3000851
  17.8855205  55.5784321  10.3005612  18.3790600  54.7716904  10.4482567
  17.8150499  55.9782028  11.1674225 101.0952568  10.9727395  81.9422722
 101.8246174  10.8260894  82.5445652 101.3920784  10.6009638  81.1116600
  90.1358700  32.8529429  88.0413342  90.1823711  33.3670163  88.8474274
  90.6465530  33.3557487  87.4068069  85.7776356  36.5515947  94.6191311
  84.9313641  36.9256425  94.3738556  85.6645489  36.2801266  95.5300331
  38.8875318 105.4117966  94.9208164  38.7553310 106.3385582  95.1204681
  38.8641024 104.9773884  95.7734394   0.1570964  87.8763103   7.5935328
   0.1576061  87.8219891   8.5491896   0.1608830  86.9646645   7.3018050
  60.5910158   9.1863376  71.7518091  61.2294340   9.7405118  72.2007513
  60.4354858   8.4613860  72.3571920  91.9856834  14.3780696  74.6441698
  92.0205307  15.0932646  74.0089417  91.8207073  14.8099744  75.4823065
  63.7590933   9.7460198  94.4151211  62.8346825   9.5167273  94.3196201
  63.9307642   9.6631056  95.3531456  69.1710091  29.1392350  65.7557249
  69.1361284  28.3240294  65.2552652  68.2802773  29.2556405  66.0862970
  70.9899855  12.4499738  79.3503904  71.8974686  12.7539802  79.3335485
  70.9979582  11.6434717  78.8349056  84.2480850  27.2248030  50.9868622
  84.6235657  26.7144704  50.2693558  83.3846855  27.4873948  50.6677818
  18.3068407  71.2839746  18.6362755  18.7078798  71.2082815  19.5021105
  18.4831941  72.1859264  18.3686543  14.1453671  77.8727484  19.6787667
  13.5408020  77.6292706  18.9777315  14.1391134  77.1216249  20.2720666
  80.1860142  10.4968286  56.2643099  80.0765228   9.5459133  56.2666941
  80.4794407  10.7019126  55.3765774 114.5848274   8.4842741  70.8529043
 113.7574863   8.0031413  70.8369112 114.7594547   8.6910129  69.9347544
  32.0499635  53.8669205   0.4058783  31.8173456  54.7786283   0.2300581
  33.0068374  53.8644075   0.4308176  80.7143593  24.1402054  66.1086559
  80.6990242  24.5281959  65.2337503  80.1058578  23.4033012  66.0545731
  42.6903582 102.2507763  59.3676853  42.6420879 102.7010155  60.2110100
  41.7769194 102.1071625  59.1202211  34.0707922 103.5623169  84.0815163
  34.1445804 103.8157177  83.1614208  33.1318688 103.5958481  84.2646217
  21.4888573  57.9197359   1.8747921  20.6523919  58.1041002   1.4475101
  21.4310455  56.9981384   2.1268739  88.2421589  26.4027071  65.2877617
  88.1413651  25.5288219  64.9104071  87.4439812  26.5363812  65.7989216
 115.1966381  63.1677771  25.8834124 115.0840092  63.6606121  25.0706053
 115.9819794  63.5414457  26.2832212 105.6893158  66.2083769  10.5808604
 105.0937557  65.7606077   9.9799967 106.5325069  66.2068510  10.1277971
  66.2599325   4.4525474  85.2728081  65.9956455   5.1442534  85.8793736
  66.0862923   3.6392084  85.7466793  93.9018154   3.2798472  69.8833084
  93.3191776   3.4222719  70.6292868  93.8678360   4.1010246  69.3926525
  24.5783925  57.7093697  16.3193369  25.2803397  57.0711184  16.4463603
  23.9951539  57.2999382  15.6802535  70.0419331  34.1754174  73.1883287
  69.9796534  33.9707398  74.1213131  69.1455126  34.3893743  72.9297018
 103.0675125  78.1756783  17.1598017 103.8187313  78.6873102  16.8595791
 103.4218025  77.6099586  17.8458560  67.8996468  15.6163609  63.2201290
  67.5714111  16.3296115  63.7676430  68.8522911  15.6955373  63.2693672
  46.7001581  26.6194654  87.6610279  46.3739395  27.5182867  87.6170349
  46.0103655  26.0941935  87.2554302   4.5117462  70.8725834  20.0850558
   4.3227080  71.8049955  20.1904511   5.0500143  70.6499767  20.8446264
  69.3259001  10.7448971  65.3544283  68.7914276   9.9959654  65.6183910
  70.2271461  10.4630947  65.5111885  48.3423042  98.4164715  94.6028137
  48.6257553  98.2984734  95.5094337  49.0626621  98.8895798  94.1862965
  84.9824619  16.7989612  90.1971531  84.0587616  16.7459929  90.4425430
  84.9998760  16.5465856  89.2739868  45.9321404 111.8176556  63.6476946
  45.8713722 112.6960087  64.0232468  46.1400747 111.2528038  64.3919659
  52.3801327  15.7593524  96.2081242  53.3100033  15.6251562  96.3913155
  52.3032904  15.6426525  95.2611828  91.3663864  11.5693617  54.6851158
  91.5518665  11.9298351  55.5522299  91.6466236  10.6557834  54.7405624
  37.6182699  97.7820587  70.8250999  36.9192648  97.4687672  70.2511072
  38.2478929  97.0615482  70.8510303  56.9294310 109.7730255  93.3078575
  56.8941689 108.8676453  92.9991722  57.8466463 110.0261021  93.2034779
  92.9411602  25.2278352  95.2978802  93.7241268  25.6905365  94.9993896
  93.2108402  24.3110156  95.3521633  73.7994957  43.8592529  72.9881477
  73.8132524  44.7162104  73.4143734  74.7224474  43.6426973  72.8558779
  10.1562726  79.3945503   7.2678232  11.0868788  79.2786741   7.0760548
   9.7078407  78.8718605   6.6030407  43.8942957  91.2269115  81.8362141
  43.6350775  90.6032658  81.1579037  43.0746365  91.4624882  82.2708416
   6.8114287  71.3165855  15.8894789   7.6564080  71.2809563  15.4411793
   6.1858702  71.5491486  15.2033138  82.2072411   8.5307842  58.0198097
  82.9459190   9.0523630  57.7058983  82.3577690   7.6586300  57.6552296
  11.5593755  94.7779369   7.7871722  12.0198727  94.9078655   6.9581395
  12.1973991  95.0245476   8.4567571  73.1400776  23.3388901  86.2079334
  72.7633762  24.1644764  86.5124607  73.0694866  22.7514458  86.9603729
  60.6126118   3.1604266  93.9258575  60.9856415   2.9307488  93.0747795
  61.0763264   2.6014373  94.5493317 116.4845467  68.1636047   7.6989943
 116.0861969  67.4128008   8.1392628 115.7643986  68.7835836   7.5839466
  74.3890762  19.5270729  51.5893888  73.8141727  18.7619209  51.6054773
  75.2687120  19.1636372  51.4874601  40.7261705  15.5737305  85.6210423
  39.9546981  15.0206578  85.7442093  41.2975025  15.3552747  86.3573074
  93.4255028  17.6374090  86.3286686  93.9823532  18.3714259  86.0691166
  93.3481979  17.7198100  87.2791767   2.7518892  59.6807003  41.4861393
   1.8373644  59.9611616  41.5210485   2.9744181  59.7047091  40.5554771
   3.8256741  62.4689817  10.4977179   3.3488101  62.0234585   9.7974741
   4.3111116  61.7715073  10.9382999  94.4075871  22.1780634  70.0015926
  94.4962025  23.0779004  69.6874714  95.2472973  21.9863605  70.4191732
  66.7403650  52.3485851  81.4733791  66.2283421  53.0323362  81.0414600
  67.4598551  52.1696377  80.8679485  91.4868832  50.3554296  88.8597107
  91.7722511  51.2664080  88.9297390  92.1611786  49.8570395  89.3214130
  84.6224689  20.3794742  77.1458054  84.7993660  21.2648034  76.8277931
  85.2829456  20.2316880  77.8226852  37.9243469 103.6297512  14.5617032
  37.6390648 102.8944683  15.1041222  38.7836337 103.8659191  14.9111116
  96.7728424  33.3359337  77.1678305  97.4788857  33.3031034  76.5223455
  96.6955662  32.4358630  77.4842644  93.8732243  18.9455903  83.3459282
  94.5935917  18.7217593  82.7566910  94.3030071  19.2725694  84.1362381
  61.8466711  23.1911349  63.1477928  61.9661570  23.0669379  64.0893507
  61.5030909  22.3533773  62.8373957  77.1863317  33.3365059  64.1462564
  77.5196314  32.4562693  64.3204021  76.6605091  33.5503364  64.9169827
 103.8648129  32.7553988  87.3977089 103.3482075  33.4378624  87.8261852
 103.2875633  31.9919991  87.3825741 106.1568642  25.1472330  68.2426739
 106.3797760  24.3109512  67.8338051 105.7487297  25.6553411  67.5416183
 100.8478737  21.7166686  81.4113617 100.8638573  22.0334315  80.5082321
 100.6608486  22.4957085  81.9351387  91.7171669  20.0438404  82.0787048
  91.1713314  19.7356772  82.8021145  92.6107597  19.8246312  82.3426533
  75.6693745  24.7866201  69.5647621  74.7865343  24.7287655  69.1994190
  75.7308531  24.0409636  70.1617956  91.8731213  17.3924780  94.3458366
  92.6661491  16.9822609  94.0007687  91.9263172  18.3017540  94.0515232
  90.4545403   6.8155342  84.7877693  90.7587147   7.4135816  84.1050911
  89.5032597   6.9216526  84.7927094  87.1269226  27.7093029  71.9294596
  86.7921448  26.9727135  72.4409246  87.5638199  27.3024487  71.1812496
   5.3440619  92.7874470   0.0231481   5.5383259  93.6300850   0.4335770
   4.5907611  92.4522209   0.5093517 110.4311848  73.7922049  18.2869625
 110.7623672  74.5835781  18.7115538 111.1777973  73.1932402  18.2810199
  89.2610645  40.9306955  72.5406790  88.3387756  41.1050129  72.3529863
  89.2447948  40.2222061  73.1841183 105.9067917   7.8580916  74.1178131
 104.9519825   7.8473085  74.1845560 106.1227608   7.0556432  73.6427689
  85.4858112  50.0406933  82.7378559  85.9761238  50.3042507  81.9591618
  85.5967236  50.7692575  83.3486938  21.9501185 103.9007473   4.0934515
  21.5050101 103.9011288   4.9408653  22.8084922 103.5175419   4.2739478
 109.8364162  19.9827814  95.6477070 109.9013805  19.6475661  94.7534847
 110.4112720  19.4134974  96.1592579  97.9602623  25.3942323  70.6067991
  97.7830887  25.1056600  71.5021038  98.5525894  24.7302580  70.2539349
  77.3896217  35.0012636  87.9809952  78.0454588  35.2079344  87.3151207
  76.9374132  34.2294455  87.6403522  97.2517204  37.0729685  82.2760010
  97.3940086  37.1962786  81.3374996  97.9247284  37.6109314  82.6929951
  79.7589445   6.2944543  86.9738960  79.8300600   7.1804750  86.6187382
  79.3843889   6.4155155  87.8464127  68.5543394  19.5464730  90.6706047
  68.1962729  19.1431570  89.8798084  69.4960022  19.3831587  90.6174278
   6.8247455  38.7366199  90.4305458   6.5241724  38.4087467  89.5829773
   6.8463910  37.9623246  90.9928894  10.4239666  82.8217793   3.8696557
  10.5231738  82.4948502   2.9755044  11.2651563  82.6364803   4.2871407
  69.3342829  28.4961390  88.1035233  70.0667429  28.0663681  88.5451508
  68.6658049  27.8149676  88.0302143 106.7156792   7.6415348  51.6432762
 106.7543125   7.5324649  50.6930971 106.8307209   8.5817176  51.7813158
  69.5643950  37.5824046  59.2995787  69.2276049  38.2148099  58.6648655
  70.4035807  37.9478741  59.5796347  73.4831810  25.4946542  66.1642599
  72.6628065  25.4562283  66.6559362  73.8362694  26.3636565  66.3550377
  81.7638206  32.0803905  57.7196598  82.3472786  32.4260831  58.3951664
  81.4804363  31.2315750  58.0594206 112.0336246  66.4080048   6.4158034
 112.9068184  66.3053608   6.0373551 111.8618011  67.3485470   6.3700426
  71.1478996  29.3802023  83.3858395  70.7165575  30.1323438  83.7913799
  70.4635620  28.7133121  83.3294964 114.5125008  45.9267092  69.0304708
 113.7429237  45.3591871  69.0739775 114.9419498  45.6854105  68.2097483
  75.0302124  22.1726227  56.9110918  74.2122173  22.5673532  56.6089249
  75.5350208  22.0256233  56.1112213  92.4634552  24.3958855  80.5826187
  92.8119183  23.8306808  79.8931646  93.2394218  24.7499275  81.0170937
  19.4003212  50.1611376  16.7744911  18.7643111  50.3317118  17.4692047
  19.3376994  50.9240723  16.1998272 103.1435776  12.0030510  67.0558882
 103.7066841  12.7041471  67.3839235 103.7351227  11.2618804  66.9256163
 100.2480030  31.7229486  93.1029797 100.4331493  30.7905340  92.9909325
 100.3489971  32.0942116  92.2265148 117.3982716  65.8339977  12.7020681
 116.6649437  66.0259008  13.2865632 117.2367573  64.9399376  12.4007368
  98.3621788  37.5288320  96.5185738  98.1942749  37.7815628  97.4264145
  97.7349186  38.0403972  96.0076141  86.5906811  52.2629070  73.6023855
  86.7157936  51.4916229  73.0494881  85.6408119  52.3450851  73.6874533
  79.7034121  23.8516235  95.9690189  79.7361755  23.3577704  96.7883301
  80.4750156  23.5607052  95.4829788  74.0565252  18.5901451  85.8551693
  74.7335434  17.9205823  85.7573795  74.5411396  19.3973625  86.0277271
  70.7007170  34.8442960  81.8496323  69.8229122  34.7882724  82.2271824
  71.2633896  34.4015026  82.4849033  62.7907467  45.9941578  79.4024420
  63.4626579  46.6650438  79.2812872  62.4616241  46.1421585  80.2890110
  86.6526890  28.4809327  86.4639187  85.9682846  27.8672910  86.1969566
  87.0926094  28.7189341  85.6478024  86.6787148  19.9537551  83.3033371
  86.9391346  19.6001744  84.1538715  86.0069561  20.6036758  83.5096550
  94.0770626  15.9499049  93.5394955  94.9764919  15.6332612  93.4558201
  93.5349941  15.1928341  93.3176041  15.7089162  84.7218609   8.3106452
  16.6145241  84.5218277   8.5474831  15.7057917  84.7205257   7.3534513
 100.7652760  36.0764527  81.4222050 100.2107334  36.8172193  81.1773109
 100.1952171  35.5132985  81.9457722  14.6146059  82.1406269   1.0632664
  14.9899828  81.5083504   0.4504473  15.3731287  82.5677681   1.4612953
  90.7040119  30.2316356  64.2912960  90.6822300  30.3570962  65.2399874
  91.5232944  29.7635508  64.1303492  38.6086178  93.7936592  85.7408333
  39.0053296  93.5738182  84.8979092  38.0160213  94.5193100  85.5446720
 106.0642910  12.0911622  74.1932583 105.8209419  12.7580214  74.8353767
 106.7946053  11.6236115  74.5985556 111.3348389  96.1467075   3.5276824
 111.7283344  95.5504417   4.1647583 111.7853260  96.9793797   3.6689121
 113.9895153   8.6639291  77.0719719 114.0528297   9.4592947  76.5431833
 114.3796539   7.9815036  76.5257883  93.6986923  40.2245140  75.0513649
  93.4785748  40.2552748  74.1203260  93.3725357  41.0532713  75.4020977
  82.8607559   6.1262190  57.2725105  82.9593658   5.6829047  56.4299107
  83.5257149   5.7261723  57.8328943  80.2544498  21.2453198  83.4921837
  80.8464718  20.7927942  84.0929890  80.7210541  22.0465136  83.2542706
  84.3989658  14.7425163  56.6732502  83.6595440  14.2431223  57.0197916
  84.0864754  15.0824380  55.8347750  96.7533684  27.2204208  75.2507019
  96.6483498  28.0809164  74.8448086  97.2717094  27.3884606  76.0376644
  90.8648109  25.6914830  76.1811399  89.9271107  25.7540250  76.3629150
  90.9222698  25.6631017  75.2260923 109.7101974  27.6755404  95.1477718
 110.2482128  27.0585775  95.6438828 108.9615440  27.1571136  94.8528385
 110.0692654  39.5607734  67.5251818 109.9886799  40.0063324  66.6818428
 109.7473907  40.1969194  68.1638861  73.2081604  13.9718294  58.5794830
  73.5073662  13.9519095  59.4884968  73.5500097  14.7959614  58.2328129
  21.2819505  83.6006832   6.2608689  21.4229822  84.5471096   6.2361759
  21.7373395  83.2703781   5.4864329  80.8110046  25.9799218  64.0950823
  80.5497837  26.7786741  63.6368370  81.0462475  25.3691316  63.3966398
  85.5769062  14.7705984  62.0423603  84.8569393  14.5169508  61.4648294
  85.8620167  15.6217933  61.7100716   8.0650800 106.0571861   2.5285330
   8.9522517 106.3445950   2.3127753   7.9652435 106.2650681   3.4575358
   8.7356478  37.6976562   3.5131431   8.7398314  37.1902633   4.3247879
   7.8212607  37.6893473   3.2301974  98.9619732  40.6519508  81.8887043
  99.8667908  40.9248543  82.0405769  99.0270710  39.7259092  81.6553783
 110.3063679  36.6623855  88.1124592 110.6946754  35.7875633  88.1010056
 109.5447922  36.5788937  88.6862755  70.7623148  32.6154947  63.7426758
  70.4368544  33.5155606  63.7288809  70.5618572  32.3018074  64.6245193
  78.7332630  10.7394695  64.6444893  79.4769669  10.7909775  65.2448988
  78.6690092   9.8107266  64.4219112  94.5913410  24.7837567  78.6714220
  94.0581512  25.3080964  78.0739164  94.3882084  23.8772202  78.4408569
  78.2598495  26.1865187  79.5240593  78.3638620  26.8638611  80.1923561
  77.3125839  26.0837984  79.4325495 102.0264053  51.5269899  96.8878746
 102.2828293  51.3429546  95.9842110 102.3062134  50.7541037  97.3783684
 107.6521015  15.5721760  77.6191854 108.3447266  15.9824860  78.1370163
 108.1104755  15.1726997  76.8798971  80.2982616  64.1654158  74.0439367
  81.1695862  63.8125181  73.8636684  80.0898170  64.6939373  73.2735872
  97.0386696  25.7124877  84.2304802  97.4913883  25.9266663  85.0462055
  96.1935425  26.1562133  84.3019581  97.8239632  42.4849653  94.8867702
  96.8787956  42.3889160  95.0036430  97.9982853  43.4039211  95.0901413
  71.9078016  45.8009005  80.6736660  72.0212221  46.2813187  81.4937687
  72.5722694  46.1651611  80.0888348  79.6865368  17.7842939  62.0628738
  79.8055506  16.9105351  62.4351835  78.9604568  18.1599450  62.5607967
  82.9031467  56.3038492  91.3864803  82.7000809  57.2224903  91.5627956
  83.6975479  56.1327887  91.8923569  82.0180130  31.8360639  71.0592270
  81.8468857  31.7227221  70.1242971  81.3919163  32.5042748  71.3380384
  73.0949640  13.9633453  80.6977367  72.3460054  13.9034963  81.2907887
  73.3725739  14.8776722  80.7540226  76.1666393  13.8534153  72.1330929
  77.0945454  13.8592935  71.8981791  75.7676363  13.2384706  71.5175676
 106.0612774  41.0306263  72.3026800 107.0004272  40.8462667  72.3180199
 105.6488228  40.1893950  72.4987364  96.8855190  33.2448483  87.7482986
  97.3056316  34.0172219  88.1266785  97.6058197  32.6356506  87.5861835
  72.5911808  45.9046555  96.7250633  72.5877428  46.4746475  95.9560871
  71.7353439  46.0441446  97.1304226 117.8554630  51.4779663  78.2900381
 117.0206356  51.1023617  78.5697031 118.4229660  51.3978148  79.0566874
  88.1270790   6.0103226  75.5010319  87.5457287   6.6999346  75.8215094
  87.5499535   5.4117095  75.0268745  81.9442749  35.1001239  61.4460325
  81.8257523  35.0876379  62.3957872  82.1682358  34.1971803  61.2207222
  76.7551947  12.4467206  91.4437675  76.9461441  12.5864112  90.5162621
  77.6154995  12.3756492  91.8573570  88.0256081  43.6573362  83.2059097
  88.7496090  43.9375782  82.6459789  88.4122181  43.0028963  83.7876987
  62.2217655  33.2866168  93.6435604  62.4342203  32.6418066  92.9687881
  62.0782948  32.7670979  94.4346046  93.9186382  50.6950665  72.7742100
  94.4628906  50.9321117  73.5250998  93.5468197  49.8442984  73.0069637
  59.3266010 109.5668125  72.2623348  58.8114786 109.6428108  73.0655146
  59.4877291 110.4715729  71.9946146 107.1089935  17.0432222  61.3028240
 107.2127438  16.6043067  60.4585409 106.5179253  16.4752126  61.7970228
  96.2633610  96.6699028   8.6990547  96.2668896  96.8922710   9.6300614
  95.4183960  96.2428570   8.5580003   4.3352434  61.5061665   7.3604435
   4.0835071  61.0662413   6.5484554   5.0601649  62.0780849   7.1081877
  83.1801128  53.1872749  91.6182613  82.6924324  52.9835892  90.8201981
  82.5632286  53.0087328  92.3280621  88.4919357  33.6152577  83.5156441
  88.2268524  33.9099312  82.6443672  88.4525490  34.4034553  84.0573311
   3.2320938  67.4016857  18.9781094   3.8388827  67.6855898  19.6618044
   3.7748638  66.9012022  18.3688915  97.8019714  40.6317616  71.6018867
  98.0622101  39.7812223  71.2482023  98.5500526  40.9106064  72.1299505
  82.9590893  12.7250361  86.4717007  83.6367702  13.3112454  86.1350441
  82.8393078  12.0748806  85.7794762  86.9330025  47.9938698  92.4754333
  87.1640301  48.8514853  92.1185589  86.3639164  48.1895971  93.2197857
 103.6601734   6.6938090  76.5214157 104.0185261   6.2608975  75.7465649
 104.3830872   6.6988915  77.1487951  32.9189014  99.9072647   4.8028576
  33.0213523 100.6174278   4.1692954  33.0509853 100.3247452   5.6540316
  97.5145626  42.4732924  89.8972607  96.9680977  43.1704473  90.2600098
  98.4119034  42.7795935  90.0283813  99.9116039  42.2333574  78.7904644
 100.2713203  42.4319887  79.6549749  98.9661694  42.1811676  78.9306498
   8.7897831  77.0734739   5.8275002   8.9000624  76.8558407   6.7530841
   7.8827256  76.8379831   5.6325078 102.4097729  44.2020416  86.4165020
 101.8951225  44.6221733  85.7273960 103.3109856  44.2338181  86.0955048
  18.3503628  97.4952126  21.1624479  18.4664822  98.0081272  20.3626609
  17.6791835  97.9678345  21.6547608  97.8543758  54.4049788  88.1698895
  98.3321762  55.1732492  87.8573227  96.9327736  54.6580410  88.1165981
   3.6204556  75.3344107   6.5434092   3.9794219  74.6473122   5.9819245
   2.7984118  74.9702406   6.8718213  16.8916583  68.9963818   8.2185823
  17.0897639  68.5225391   7.4108326  16.6285515  69.8689651   7.9260045
  80.6489182  34.4392657  72.3067665  80.6964493  34.2818785  73.2497454
  79.7134733  34.5319605  72.1262646  13.2396638  84.4269085  15.2764785
  14.0332246  84.5239449  15.8028603  13.0519545  85.3109074  14.9609697
  72.2046661  53.6222982  69.9238825  72.7516317  52.8388929  69.8661089
  71.3239241  53.2875729  70.0926447   8.0314362  73.9972448   2.8200603
   8.7203616  74.1846752   2.1824995   7.4247724  73.4212923   2.3547941
 117.8196526  63.9475298   3.7420592 116.9341087  63.6918020   3.4838688
 117.6899052  64.6494198   4.3798250  21.3710284  73.7860918  12.1761608
  21.4901543  72.8363895  12.1656740  21.1179662  73.9858007  13.0774426
  91.6496086  22.8567028  76.4129305  90.8584499  22.3426199  76.5742159
  91.3708591  23.7658906  76.5220547 115.4369640  40.8386803  91.4835835
 115.4188347  39.8850894  91.5646267 114.6094036  41.0584641  91.0557079
  78.3063459  28.7399101  84.0238380  78.9152956  29.4068480  83.7066460
  78.1044149  28.2128596  83.2507420 113.4913349  15.3216076  67.3636675
 113.7540627  14.6727097  66.7108822 113.0109119  15.9823000  66.8647575
  74.8305511  24.1633129  95.8315372  74.1587400  24.1483426  96.5132141
  74.6786499  23.3635879  95.3279495  81.3828850  60.3231955  90.2297211
  81.8087959  61.1796427  90.2661705  80.8523464  60.3532267  89.4335651
  14.5470870  87.8415489   6.2949491  13.7332833  87.3497772   6.1848527
  15.2378321  87.2085285   6.0990256  58.3371687  17.2235453  61.2053585
  59.0110588  16.9038975  61.8053007  58.7354326  17.9833257  60.7806778
  72.5429440  48.2711935  94.5759583  72.2990084  47.8120279  93.7722778
  73.4837484  48.1178999  94.6632481  83.9683151  37.0369315  88.4412384
  84.4201946  37.8713679  88.3157349  83.7721443  36.7350221  87.5543308
  74.6872950  25.6182480  88.6340904  74.0316057  25.0678182  89.0622616
  74.4041395  25.6615925  87.7207565 114.8939228  59.1339397  77.1565342
 114.1773415  59.3364143  76.5550852 115.6841087  59.2091322  76.6215754
  18.5604405  81.4443207  16.9017279  18.5399854  80.6571770  16.3574588
  19.1937637  82.0176601  16.4699709   5.3881824  68.4514666   6.6376263
   5.2913910  69.3302488   7.0045149   6.3174695  68.2483530   6.7444074
  92.2869110   3.3446765  72.1225739  92.5422001   2.4680550  72.4099731
  91.6904354   3.6557466  72.8035212  75.5463505  33.1708765  75.7865715
  76.4553881  32.8778887  75.8501053  75.0870705  32.6754403  76.4646864
  96.2658310  74.5700979  76.6850471  96.3102436  74.5370197  75.7294512
  95.3344631  74.4760799  76.8849277  73.9857197  27.9614711  86.4589691
  73.3987141  28.6511445  86.7688179  74.4097853  28.3367133  85.6872272
  38.3101797 105.7908821  77.2872543  37.9749370 106.6032505  76.9079208
  38.4685516 105.2221870  76.5337658  17.3380709  83.1712151   4.8470497
  18.1282830  83.5079670   4.4246802  16.7878807  82.8730297   4.1227522
  87.5631332  56.1515903  80.3369617  87.5066566  55.4973364  79.6405506
  88.4637070  56.4727068  80.2914524 102.1589851  55.0096750  85.2334118
 102.2438335  54.9677801  84.2809010 101.5754128  55.7521820  85.3894615
  60.8396864  12.9104781  77.1421242  60.2755404  12.3354995  77.6592016
  60.6517935  13.7894821  77.4711847  89.7891426  39.8142290  68.3442879
  90.3643990  40.5243587  68.0596399  89.1144657  40.2474833  68.8671017
  26.2843728  85.0170612   0.3757039  26.5461326  85.0576782  -0.5441133
  27.0650578  84.7050858   0.8333396  99.8542690  48.9321136  84.9400425
 100.0728512  49.6386242  85.5477428 100.6698227  48.7601519  84.4693661
  79.6025085  60.5819845  88.2374096  78.9902401  61.1213923  88.7378216
  79.4724464  60.8525276  87.3285007  10.7938540  79.6647453   3.3765826
  11.2938607  80.3414536   2.9201955  10.3662574  79.1703224   2.6773438
  60.2348614  34.9500036  85.7925892  60.2163458  35.4858756  86.5855122
  59.5195818  34.3247199  85.9093285  96.9503212  29.3761086  84.8451042
  96.4750767  30.1930428  84.6934795  97.5336456  29.2947602  84.0905476
 104.6935654  24.9700356  86.3178062 103.8810730  25.4473853  86.4857769
 104.4150448  24.0650702  86.1774635 104.7522449  25.1857042  91.3618469
 105.3572369  25.8729768  91.0827923 104.8438931  24.5019960  90.6982422
   9.7011602  78.1814766   1.2375392   9.1677874  78.4481049   0.4887689
   9.6637356  77.2250414   1.2298103  17.6382697  82.2225094  13.8065410
  18.4020901  82.4494457  14.3369257  17.8602993  81.3771820  13.4162307
  80.4326439  17.2169578  95.6473732  79.5273304  17.3772526  95.9137344
  80.7137108  18.0396628  95.2468872   6.5774685  88.2433128   0.7262518
   6.4130610  87.3909473   0.3229245   5.7078624  88.5724163   0.9536460
 101.4389992  39.1427207  85.4166031 102.0549107  39.7098851  84.9526978
 100.7329273  39.7285342  85.6895733   5.3752941  78.0835867   2.6682156
   5.6189805  79.0071058   2.7311140   6.2099576  77.6150084   2.6695797
  89.9041653  23.6236215  94.6049881  89.0337372  24.0109992  94.6973705
  89.9690056  23.0041742  95.3318405  10.0436497  84.6487236  34.3877888
  10.8962023  85.0448418  34.5680022  10.2513492  83.8136482  33.9685750
  99.0941334  34.8316002  73.6893797  98.1458187  34.9615669  73.6830854
  99.3721676  35.1381111  74.5525026  98.4746647  14.6353209  94.9665356
  98.9446831  15.4626000  94.8620224  99.1488743  14.0081668  95.2279758
  71.8820143  40.7090139  86.1694145  71.2183285  41.0091734  86.7904282
  72.7027988  40.7436514  86.6606808  92.0125675  26.3667250  57.6456022
  92.1578026  26.0008788  56.7730761  91.8353462  25.6054115  58.1980753
  94.3192291  21.6537499  95.6084919  94.6490288  20.7597995  95.5172825
  93.4460926  21.6280270  95.2170849 114.3375397  43.4964132  91.0132790
 115.1438141  44.0052700  90.9282970 113.8179302  43.9768314  91.6578197
  80.6565475  18.3369577  91.9806671  80.8445740  19.2349267  92.2536659
  79.7665787  18.1731379  92.2926807   1.4797984  79.6531820   9.4320410
   1.3057902  78.9230442  10.0260532   0.8706811  79.5212889   8.7055349
  85.2318668  30.1668119  45.4564190  85.8051395  30.9324718  45.4195881
  85.8182049  29.4219780  45.3235292   5.4224271  81.7929173  17.4104655
   5.0960904  82.6667118  17.6254547   5.8514351  81.8996525  16.5614712
  15.8854878  77.7066517  14.9881482  16.1352313  77.0917797  15.6779277
  15.7142842  78.5276222  15.4495823   1.0290854  28.7976980  87.7311993
   1.8402180  29.2840338  87.8787518   0.3395464  29.3790746  88.0517769
 104.9222279  20.5141354  95.7985497 104.5507336  19.7390425  96.2198067
 105.7438087  20.6693959  96.2645054  71.3271952  26.0031199  73.5945034
  71.2116814  25.0813317  73.3638620  71.2262487  26.4717817  72.7660131
  88.8362694  31.2487721  86.4274406  89.3519974  31.7078900  87.0903683
  88.2252312  31.9087481  86.0998917 113.6299419  89.7868347  17.0349371
 114.1516972  90.2483940  16.3784552 112.7433872  89.7791004  16.6741192
  74.2903900  21.9412494  84.0476990  73.6983967  21.2090611  83.8754463
  73.8460732  22.4549294  84.7221947  65.5126429  21.1583519  91.3238811
  65.3499603  21.8787217  91.9328403  65.6993341  20.4067278  91.8864059
  97.9792690  26.9921756  88.2826805  97.6042366  26.2727475  88.7906170
  97.2680473  27.2761869  87.7084541  66.2111807  34.6827245  85.7398129
  67.1011782  34.7771406  86.0792637  65.7400322  35.4390812  86.0893440
  85.9475613   7.1759993  74.3524551  85.4903316   7.9134643  73.9483213
  85.8345413   6.4553893  73.7326336  74.1729641  37.7050853  79.7064686
  74.0001106  37.3975062  80.5962753  74.1394329  36.9138718  79.1688013
 104.7402287  27.5089288  72.9029179 105.1663780  27.3240757  72.0659828
 105.4316521  27.3927259  73.5545731  12.0519125  70.7616806   0.5278073
  11.8374300  70.3230000   1.3510874  12.4067438  70.0678062  -0.0279496
  67.6594543  16.2090158  86.5048027  68.1847286  16.5000796  85.7594204
  68.1546021  15.4788566  86.8761921  55.9363174  54.8140812  92.3792267
  56.3029385  54.9842930  93.2468987  55.1668406  55.3811741  92.3288822
  37.8083038 109.4517231  52.0087814  38.0271220 108.6958694  52.5537968
  37.9900861 109.1628265  51.1145067   0.5641838  86.5314865   3.2435209
   0.5280037  85.8065414   2.6195210   0.8125878  86.1219788   4.0722752
  99.1692066  36.1584258  76.1884785  98.9603996  37.0351386  75.8659840
  99.9973583  36.2662292  76.6562128  95.5977440  39.8010421  78.6248016
  95.0859356  39.4141650  79.3351603  95.7163429  39.0868974  77.9985714
 104.2343616  23.4706020  89.1847420 103.5328865  22.9172182  89.5281506
 103.7823582  24.1355419  88.6653423  61.3324451  41.4213943  86.3720798
  60.6570768  41.4050341  87.0501995  61.5817642  42.3430824  86.3045406
  85.1940727  12.8607249  54.1256237  85.9070683  13.0322850  53.5104465
  85.6336021  12.6003206  54.9350882  98.9804745  39.4146538  77.7060032
  99.7113228  40.0239992  77.8098965  98.2039738  39.9738503  77.6819515
  83.5534763  37.0758653  54.5408297  83.3858490  37.5586057  55.3502083
  84.4994354  36.9295740  54.5407438 106.0298347  37.2247982  96.2803650
 106.8888474  36.8141103  96.1820984 105.4076481  36.5409994  96.0323048
  94.0280628  58.2407856  72.0440674  94.4583988  58.9881134  71.6286802
  94.7287369  57.6011324  72.1710730  75.2956152  40.4606009  84.0244198
  75.8482742  40.9964705  84.5933247  75.8086586  39.6673512  83.8702393
 106.0765076  26.5269828  81.1030006 105.6435108  25.8101797  80.6393909
 106.0149670  26.2861419  82.0273590  71.3427019  28.0859852  92.0957375
  71.3904047  27.1638632  92.3480225  71.5837669  28.0936432  91.1694145
  80.0783157  18.1839967  78.3719826  80.7984447  17.8074276  78.8778019
  80.5072308  18.6426079  77.6495266  80.7458305  38.8139510  82.5731468
  80.9976101  39.5126176  81.9692421  81.3050461  38.9459991  83.3386993
  14.4830561  89.5629978  18.3939910  15.0800920  90.3013420  18.2730556
  13.8122916  89.8928165  18.9919257  80.2202606  24.7353721  83.4300613
  80.6899452  25.4107237  83.9194870  79.3005323  24.9944472  83.4867668
  84.3393135  24.6477008  83.3664608  84.3275547  25.1201320  84.1988754
  84.7923756  25.2367353  82.7631378 116.1841488  65.9909248  15.1898420
 116.1300850  66.3417673  16.0787845 115.3836727  65.4763937  15.0863242
   4.7906342  77.2476006  12.6844561   5.2366364  77.9925299  12.2814763
   5.3383511  76.4936447  12.4658394  48.5159159  70.9857321   8.9009476
  49.1077471  70.4715633   9.4501239  48.7812805  71.8936539   9.0475512
  99.7776318  43.5103512  67.8722191 100.0979042  43.8969040  68.6872244
 100.1990414  44.0228128  67.1822691  17.6980984 101.0159683  16.9006062
  17.9793966 101.8821621  17.1952510  17.5612342 101.1161900  15.9585571
  81.1685848  62.8878832  81.4224815  81.1262989  63.2322168  82.3145962
  81.7918110  62.1632481  81.4747238 106.3939095  24.8786187  59.9241972
 106.6239071  25.8043098  59.8440361 106.6530514  24.4940543  59.0868282
  91.4402294  21.1129355  85.3344440  90.6739426  21.0390401  84.7656155
  91.3305950  20.4113603  85.9763145  46.8053198  87.8660965  22.6260114
  47.6370001  87.8920364  22.1528697  46.2881470  87.2054291  22.1652627
   6.4770633  45.6752777  96.1600590   6.6202313  45.1070070  95.4032135
   7.1302968  45.3915310  96.7995930  82.4201488  43.2649851  78.1062937
  81.4943314  43.0759335  78.2591343  82.8868580  42.6465893  78.6684275
   6.3548225  24.4618869  88.0563736   5.7446450  24.9342465  88.6227512
   6.5228605  25.0633836  87.3309803  95.0991726  63.5226059  83.0365944
  95.0282574  64.1250801  82.2961712  95.5419922  64.0300846  83.7167454
 105.7277679  42.5533009  78.1683683 105.1095104  42.5867176  78.8983488
 105.4836941  43.2942200  77.6136637 105.8712959  27.8439569  91.8661404
 106.1187458  28.7010098  91.5190697 105.3632927  28.0417514  92.6529312
  97.1491623  69.6165752  88.5397053  97.7972126  70.2433825  88.8612270
  97.1401215  68.9222240  89.1985035  78.8154602   5.5771893  13.9006948
  77.9819775   6.0476553  13.8864720  79.0398932   5.4595923  12.9776394
  99.6523857  25.9622240  92.9151535  99.5239735  25.0235033  92.7789879
  99.7427845  26.3220763  92.0327950   9.3199968  51.1808777  83.8085747
   8.4497541  51.5673256  83.9063931   9.9234945  51.9080257  83.9611435
   2.4107626 103.3625126   2.7370605   2.2613013 102.9278374   3.5766757
   1.5354851 103.6008549   2.4315862 115.6547546  51.8909740  84.7540951
 115.3229713  52.2204971  85.5893040 115.7978821  52.6766825  84.2264557
  17.5744247 101.1101627   2.6698047  18.2859492 100.9111404   3.2783711
  17.2067678 100.2558422   2.4435398   2.4242246  28.7496471  95.7977295
   1.9862442  29.1932178  96.5241241   2.7084520  27.9125142  96.1646843
  83.5916996  55.9645176  65.4754400  83.1768227  56.7688751  65.1638079
  82.8612900  55.3731251  65.6570673 106.9782352  67.5377464  92.7003765
 107.2779846  68.2266474  92.1072483 106.3172054  67.9629469  93.2467079
  30.0489259 101.6019249   3.6267602  30.9238148 101.8908787   3.8862035
  30.1233172 100.6505680   3.5517961 103.8703346  28.4217596  64.3610239
 103.3637238  28.1694508  63.5890675 103.2419968  28.8769078  64.9216127
 100.6423855  64.6001816  80.2250481 101.0389137  65.0190401  79.4611359
 100.5542564  63.6804056  79.9750948 103.7288761  49.8461008  91.5874481
 103.5349369  50.6318760  92.0985031 102.9089642  49.6455526  91.1360550
   6.0439205  81.7597866   6.6816849   6.9544315  81.9905472   6.4974296
   6.0435045  80.8036232   6.7263967  81.9193840  54.2341185  89.1723061
  81.3500690  54.7873926  88.6375141  82.2536564  54.8200893  89.8513699
   9.1306800  48.0161238  63.4748602   9.7956455  48.4432888  62.9348755
   8.4231728  48.6579514  63.5358953  89.5231342  57.4791622  89.4500256
  90.2020073  57.1387672  88.8673687  89.8151493  58.3646822  89.6664047
 104.5040607  62.4955034  84.8990726 104.6459007  63.4395266  84.8288345
 103.9029121  62.2897100  84.1831875   7.3792082  55.2120256  46.6444826
   8.0394250  55.8334494  46.9513655   7.1131027  55.5484056  45.7887554
  78.3752108  33.8527417  79.7774458  77.8808117  34.5453525  79.3391609
  79.2698240  34.1899443  79.8242617  23.5777760  81.4388561  12.6502049
  23.1160855  81.3464260  13.4835899  22.9811096  81.0630989  12.0028830
  70.1563263  32.7915955  94.7601223  70.5351639  32.6103973  95.6202793
  69.2122412  32.7027535  94.8906708  14.5170701 106.9533157   0.2471507
  14.0776002 106.6536903   1.0429672  15.1471233 106.2612343   0.0464334
  88.8441372  68.9742947  89.6251965  89.0894508  68.6639166  90.4968166
  89.0965080  69.8976135  89.6199322  32.8730679 107.4942017  15.2668798
  33.1346512 106.8703556  15.9440958  31.9264412 107.5840092  15.3767180
  81.3866520  44.5140123  68.7289143  80.8623791  44.2624569  69.4892359
  82.2923565  44.4591522  69.0337563 117.7766991  38.3267164  92.9100609
 117.5169277  38.3451962  93.8311481 116.9584560  38.1877685  92.4331760
  24.0187812  87.2576904   6.3238287  24.2158532  86.3833427   5.9878200
  24.7994280  87.5054646   6.8192351 108.1420040  21.0816717  82.6777267
 108.5962868  21.8779421  82.9530621 107.7035904  21.3257360  81.8625832
 117.3249626  34.2753839  83.0309296 116.3766384  34.3947077  83.0826759
 117.6557255  34.6236634  83.8588905  43.3607101   7.0750344  23.0034280
  44.2404127   7.0195001  23.3766174  42.9319048   7.7696651  23.5032725
  68.0736065  31.8148947  75.4582214  68.9911175  32.0843768  75.4159927
  67.9333639  31.3155651  74.6537113  95.5275726  58.9796066  79.1713285
  94.7406197  59.3357563  78.7589169  95.9691334  59.7428513  79.5437717
  46.3486004   3.9986172   2.8497779  46.2623405   3.7790552   1.9221014
  45.4990196   4.3696275   3.0880979 110.8065224  34.5992804  91.0166264
 110.4516697  34.3976665  90.1507950 111.3581467  33.8468313  91.2305450
   2.3797880 106.3344860   7.0937902   2.3433638 106.0181141   6.1911190
   1.7311582 105.8062649   7.5590771  95.8347416  38.2876515  72.8934002
  95.8163548  38.7107325  73.7518263  95.0154781  38.5551906  72.4769211
  96.7749596  77.2796631  78.1958580  96.7532253  76.3332176  78.0544329
  97.5263023  77.5809717  77.6850414  79.0827417   6.1560345  89.6888161
  79.7040272   5.4937059  89.9914074  79.1137791   6.8378782  90.3599072
 105.0597858  34.5710897  83.4587479 104.5595837  34.1174889  84.1371918
 105.9251595  34.7019506  83.8463402  75.1393843  53.0009460  86.5984917
  75.9645033  53.4126759  86.3418007  75.4020023  52.2473621  87.1270466
  40.2177191  92.5060081  14.1939259  41.1651421  92.5866413  14.0838397
  40.0038528  93.1266785  14.8905289 103.4418297  38.7093592  80.0323391
 103.6562824  38.6049891  79.1053295 102.8650475  37.9712892  80.2293205
  14.7730613  93.8481522  21.5444517  15.1055968  94.7294617  21.3742733
  14.7792041  93.7699127  22.4984288 107.0127201  22.9019761  67.4857807
 107.3247433  22.6686025  68.3600855 107.7808952  22.8037691  66.9231987
  35.1706934  83.6722374   3.0571994  35.1208568  83.9005947   2.1289745
  34.4045734  84.0919113   3.4485656 100.9179306  34.1686153  64.1946745
 100.4881191  34.1328311  65.0491953 101.5823460  33.4805655  64.2317629
  90.4505157  57.3386240  75.3815365  89.5876598  57.5006247  75.0001383
  90.6737804  58.1569147  75.8251333  97.5447750  52.8369570  85.4891109
  97.9944801  53.2492208  86.2266922  98.2376480  52.3827076  85.0097179
  92.9957390  52.8502655  88.8850117  93.8623714  53.0116367  89.2580223
  93.0972195  53.0403471  87.9523849  95.8109951  31.2978435  83.0662251
  95.4303741  31.8547368  83.7453651  95.8422565  31.8555117  82.2888756
  76.0207129  45.2939987  70.6758165  75.7569456  45.0654840  69.7845030
  76.4449215  44.5037317  71.0101080 104.0668678  39.2834592  97.1641922
 104.4914436  39.4350243  96.3197994 104.4843292  38.4917355  97.5035000
  79.2429209  48.0795431  84.3803883  80.0985432  48.4480667  84.6002293
  79.2852402  47.9218340  83.4372139 106.8816090  82.8809261  76.2592411
 107.1712399  82.7725983  75.3533649 107.2470856  83.7236691  76.5283918
 106.2759972  36.8345189  80.2174854 106.7115974  36.8098617  79.3655014
 106.9700718  37.0657873  80.8347511  95.5887127  18.3786428  92.8996181
  95.5403805  18.1095517  91.9822979  95.1012516  17.7044570  93.3730030
  88.8983917  44.8457813  91.1250305  89.2589569  45.0111580  90.2538967
  88.9388943  43.8946199  91.2244034 110.5214119  34.9788594  83.9731026
 109.9531841  34.3941998  83.4715843 111.3345623  34.4860554  84.0834332
  10.1365423  43.9407778  96.1002350   9.7529685  43.2442045  95.5674267
   9.4828451  44.1111517  96.7783833 117.0860195  43.8333845  95.3004646
 116.8433952  44.7578287  95.3530979 117.0656395  43.6333227  94.3646240
  25.7125521  53.1016445  90.1571941  25.5915046  52.6661634  89.3134308
  26.5313005  52.7410460  90.4975605 106.8331432 107.9935932   8.0154699
 106.3227463 108.8032532   8.0287278 106.9947720 107.8275299   7.0867443
  91.4897823  53.1897259  91.3038158  91.9730663  52.9704618  90.5072021
  91.4354420  52.3645020  91.7857742  90.3413582  38.4771824  78.0849075
  90.1344872  38.1150675  77.2233295  90.7244110  39.3344116  77.8987408
  80.2316952  57.5403452  54.1497278  81.0270214  58.0695009  54.0890312
  79.6600008  57.8878307  53.4651470  87.1030140  53.9118624  93.3493805
  88.0432320  53.7532282  93.4333992  86.7982578  54.0274763  94.2493725
  77.1362305  53.8769102  79.0878725  76.4841032  54.4822502  79.4407558
  77.9196787  54.4131899  78.9660549 108.3811474  30.5124164  65.4435444
 107.5157452  30.1682544  65.6645775 108.5962963  31.1018181  66.1664248
  71.6226816  47.9489899  86.7664814  71.4783049  47.8766966  85.8229923
  70.8886385  48.4764862  87.0813847 117.7468967  21.2473011  83.2641125
 117.6865482  21.6410518  82.3937416 117.0748997  20.5656481  83.2657433
 117.8065586  16.8126118  76.9957829 118.7298393  17.0311987  77.1222687
 117.4209118  17.6067579  76.6258621  88.8066006  53.0180454  48.8190174
  88.7689018  53.4010935  49.6954203  89.7417927  52.9165745  48.6419964
  98.6419582  57.7815866  97.4478149  99.4985771  57.4819136  97.1434402
  98.2999516  58.3050823  96.7230988 115.3131580  31.7447186  69.5152807
 115.4026890  32.2947145  70.2935600 114.5104313  32.0532942  69.0949821
   0.2974871  34.5896554  67.6367235   1.2462691  34.5018029  67.7279902
  -0.0394269  33.7044597  67.7751017  -0.2654191  47.3409081  86.1679268
   0.5103949  46.9241810  86.5429974  -0.2302858  48.2429504  86.4862347
  32.2733784  92.9407883  11.0793853  32.0903158  92.0434189  10.8010983
  33.1206656  92.8863525  11.5213943  99.5994663  69.8848057  95.9178066
  99.9216938  70.7535124  95.6774902  98.9075947  70.0543976  96.5571594
  56.8972301   1.4567307   8.6036175  56.3866234   1.0303450   9.2918789
  57.8021336   1.4084077   8.9119136  88.6931705  31.6206813  54.3406343
  89.0087509  31.8634892  55.2110815  89.4706154  31.6622567  53.7837887
  99.9767971  67.7476215  83.2066250 100.6476021  67.1249342  82.9264355
  99.9382782  68.3922338  82.5000763 104.0129757  74.5287371  91.7140961
 104.3683243  73.7140417  92.0693874 103.1498241  74.6105480  92.1196938
 101.2707996  58.6041784  81.5944767 101.6060829  58.4272528  80.7155514
 101.8214321  59.3152428  81.9222260 106.1740685  52.8680706  67.8073215
 106.6721821  52.3580599  67.1685696 105.2975750  52.9358196  67.4286318
 108.1681442  27.5486374  90.2886581 107.7707577  28.4194207  90.2815723
 107.4850464  26.9764662  90.6382847 108.1542492   7.3909330  81.9932461
 107.9870510   6.9705129  82.8367615 109.0927505   7.2712970  81.8478584
   0.4585227  43.7659502  87.0860291  -0.0131110  44.0298557  87.8760624
   0.9161109  44.5581150  86.8043900  99.4493675  48.4898663  88.6223221
  98.6529541  48.9832211  88.8186836  99.1755581  47.8412867  87.9737854
  90.2952957  26.4346218  67.0957470  89.8870945  26.5063882  67.9585695
  89.6208858  26.7341256  66.4860725 108.7623787  36.5333295  95.7948971
 109.3864059  36.0275292  96.3154697 108.6609936  36.0300517  94.9870300
  65.1516438  46.7878580  81.9852543  65.0978994  47.2960281  82.7946377
  65.5918360  45.9770441  82.2402954  93.7682056  10.1066577  92.3447800
  94.4846344  10.7414174  92.3513222  94.0890026   9.3779433  92.8761005
  99.8431396  56.5267706  89.8514938  99.3262768  55.9275198  90.3899860
 100.5528450  55.9859085  89.5050716  75.3401804  74.3792915  91.7938805
  74.4812584  74.4376659  92.2122955  75.1655197  73.9755440  90.9437466
  30.2312422  95.0718594   5.3262836  29.5048070  95.5506325   4.9271640
  29.9806738  94.9790573   6.2454319 109.6828175  29.2861938  68.1872797
 108.9252853  28.7521744  67.9481030 109.3655300  29.8494005  68.8932276
 106.5493107  63.0631924  80.9548092 107.3625660  63.5333490  80.7709599
 106.1436176  63.5561848  81.6679668  38.3574104 102.9507637  10.6691825
  39.2675042 102.6550198  10.6468809  38.0302262 102.7857971   9.7848922
 105.2394581  45.4215240  90.2673912 104.5070362  45.2901554  89.6652889
 105.2696609  46.3683271  90.4048347   3.9686999  52.0262384  47.7285957
   3.4295470  52.4279022  47.0472622   3.4636047  52.1425200  48.5333252
   2.2809513  30.8414936  81.1403656   1.4211987  31.0482383  81.5068531
   2.4914010  29.9779463  81.4956474 106.3482952  40.8844471  87.0140076
 106.6362762  41.2529230  86.1788273 106.9619560  40.1699829  87.1848965
  35.3917933  93.2000065   2.8300422  36.0745788  92.8626823   3.4099111
  34.8060703  93.6884403   3.4084865  77.5007582  15.3909850  86.7971897
  77.1765232  16.2878382  86.7149830  78.1931496  15.4460454  87.4558258
  92.4491215  37.8287220  74.7276783  91.5852833  37.7558827  75.1335382
  92.7585316  38.6993694  74.9776125 115.9491348  52.4802160  66.1167526
 116.4053631  51.7741823  66.5745831 115.7428074  52.1139622  65.2568007
  33.1978583  86.6901112   8.8269758  32.2486234  86.6816139   8.9499122
  33.5536480  86.5076923   9.6966714  85.0182152  42.6150179  97.0362854
  84.3850613  42.0167017  96.6395855  85.2313137  43.2350779  96.3389015
  77.5563478  44.7890472  76.3113022  76.8483543  44.3418646  76.7749882
  77.1433067  45.5668974  75.9363651  94.5999432  66.1474276  92.5209522
  93.7680149  65.7621670  92.7960968  94.4157505  67.0833540  92.4412918
  83.0439472  58.9155960  86.5563202  82.1244812  59.0680313  86.3381958
  83.2078171  58.0122852  86.2853813 104.9236774  51.5967083  84.8116112
 104.0274239  51.8998766  84.9566936 105.4037571  52.3834515  84.5531750
 115.7960606  76.9938087  12.7522480 115.2385426  76.4296818  13.2881248
 116.6289806  76.5252876  12.6977634 111.4206314  95.1500702  94.2369747
 111.0025024  94.2890358  94.2401314 112.1136379  95.0773907  93.5807133
  78.4880733  56.8726444  67.4323893  78.1709480  57.2642136  68.2462311
  77.7806759  56.2904406  67.1551609  93.9926720  77.6661968  77.4428511
  93.6404610  77.7110767  78.3317661  94.8776817  77.3186016  77.5531530
 118.6060238 110.2802849   2.5671270 118.7007046 110.0987911   3.5021836
 119.2862701 110.9267712   2.3785490   5.7625741  29.9501562  88.9855289
   5.6717217  30.4341626  89.8063278   5.1620257  30.3874207  88.3818913
  94.9170494  22.7727723  90.5928898  94.0134621  23.0684257  90.4817581
  94.9987030  22.5994205  91.5307140 114.8807526  35.7654953  73.7279081
 115.3130531  36.4900398  73.2758236 113.9457417  35.9361792  73.6144733
  75.3539896  45.9938097  86.0033703  76.3048267  46.0321045  85.9000683
  75.2224970  45.7229424  86.9119835  95.2478600  31.2044597  70.6646061
  95.3017044  31.7882776  71.4212322  95.9365463  31.5120435  70.0752544
 116.7048168  63.5453415  93.3657646 116.1769009  63.2611704  94.1119480
 116.6957951  62.7981377  92.7675724 110.4207993  39.5182538  84.0027714
 110.1746178  40.2348518  84.5876789 110.5187988  38.7609220  84.5799065
   2.9560938  40.0968504  89.1112137   2.5789750  39.2171717  89.0978432
   2.5218138  40.5545807  88.3914089  68.8817739  51.9016790  79.7459650
  68.8049936  51.0768557  79.2663717  69.8112869  51.9654942  79.9654341
 114.0613270  37.1710539  70.6520891 114.1549969  37.0972395  69.7023487
 113.5759354  37.9857135  70.7822943  98.5641956  54.8095942  91.4502621
  97.8582191  54.3828678  90.9647465  98.3897972  54.5932198  92.3662281
 108.1876564  36.8038368  90.1297569 108.5746193  37.1966982  90.9121609
 107.9768562  35.9074569  90.3910828   4.6164742  88.5682011   6.0973614
   4.9893156  88.2399845   5.2791363   4.3125883  87.7836323   6.5538025
 110.0390148  36.9281888  75.3868771 110.3709602  37.5680995  76.0166073
 109.6023941  36.2674069  75.9244299  83.4389114   6.8346775  60.4848576
  83.9463425   7.3748761  59.8791122  83.5594845   5.9400517  60.1665258
 102.4745178  20.4379058  73.1298733 102.2437191  21.2394714  72.6603460
 102.4643612  19.7557044  72.4585104 117.3128319  38.4526277  95.4137039
 117.4238682  38.2965779  96.3515472 117.6051140  39.3549466  95.2847862
 117.9167652  67.2112274  89.0943718 117.9574680  68.0732155  89.5085621
 117.6978302  66.6125011  89.8083878 102.9790783  57.9998589  72.2368050
 103.0181503  58.9499998  72.1275377 103.1577587  57.6508045  71.3636112
  91.9028950  34.8696041  81.4332581  91.6017437  35.1024461  82.3115063
  91.1923504  35.1470542  80.8550072   8.1706625  49.3271875  68.1962013
   7.6439416  49.5265245  67.4222136   8.9356905  48.8655567  67.8528976
  97.3459339  68.0259228  82.5278854  96.7515659  67.9851627  83.2770824
  98.2020187  67.7950239  82.8884888  76.3690090  88.2480431  97.0858955
  75.6121302  87.8696346  96.6384792  76.7942381  87.5024509  97.5095654
  90.6838608  51.1927176  86.3213921  89.7666168  51.3819742  86.5190887
  90.9234905  50.4998732  86.9368458   2.0027414  89.7281361   6.5223134
   1.3608938  89.0577030   6.7563647   2.8267226  89.2495537   6.4315188
   2.8247762  61.5183258  66.5352297   2.3638186  62.0361423  65.8752155
   3.6849913  61.3507128  66.1503029  86.4603519  32.6426339  90.3650951
  87.2487354  32.7139926  90.9032345  85.8849907  32.0588112  90.8594036
 108.1819820  53.3142805  78.4182978 108.7205124  53.5530233  79.1727591
 108.3962250  53.9694595  77.7541685  24.4576693  90.3635216   0.9116982
  23.8735580  90.4084873   1.6686812  24.4143009  89.4498539   0.6296401
 100.6948376  53.6944580  69.5814657 100.2543640  53.9960527  68.7869501
 101.3259697  53.0441380  69.2732716  81.6075325  60.1666212  84.1682243
  81.3456726  59.2462540  84.1922665  82.0619678  60.2645683  83.3314896
  12.8005469  99.3585491   9.6228856  12.7021503  98.8423157  10.4229152
  13.3127892  98.7995625   9.0386188  95.6387234  61.7713594  96.5457535
  94.9849129  62.3163700  96.1078835  95.1380348  61.2621403  97.1831226
 100.9301186  32.3341823  90.4932594 100.8286095  31.5795159  89.9132633
 101.4386845  32.9630494  89.9812794 117.3428726  51.2129259  88.1071281
 116.6555977  51.5190029  87.5153446 117.8170109  52.0068026  88.3544827
  88.9493847  30.6358552  89.0718842  89.5017529  31.4175820  89.0770817
  88.3169460  30.7941198  88.3710289  81.4569473   1.2755565   8.8105321
  80.6436062   1.1373659   9.2959273  82.0811272   1.5779763   9.4702089
  98.4437943  40.8882475  92.5605106  98.3956051  41.2316799  93.4526825
  99.0082264  41.5062952  92.0961189  83.1283569  48.0249929  86.4974785
  82.6783657  48.8433218  86.2875271  83.6651421  48.2359982  87.2614002
 102.5257778  63.2744694  74.5931292 103.0800724  62.9977608  75.3228045
 102.5845528  62.5570250  73.9622164  86.2886143  28.7446880  88.9329338
  87.1560860  28.9710951  89.2682934  86.4101791  28.6680555  87.9865837
 110.9840775  26.4485335  81.8504906 110.2658939  26.9321847  82.2585583
 111.1226749  26.8881369  81.0115814 108.3849812  55.2759600  76.4125156
 107.6466465  55.7520866  76.0325146 109.1573334  55.7632113  76.1256742
 108.4142208  55.9886122  81.8202305 108.3263016  56.9044209  81.5560532
 108.7188911  55.5399942  81.0314655  98.8280964  52.2619963  79.4858456
  99.4780064  52.9583454  79.3912697  98.7786865  52.1069908  80.4291248
  78.2344389  45.2903271  61.6248512  77.5916290  45.9080553  61.2763691
  79.0458250  45.7950640  61.6807461 104.3882275  44.4169998  76.2381029
 104.3188095  44.7721529  75.3519440 104.2065239  45.1627922  76.8099499
  95.1631927  27.3414731  63.1127787  94.2288780  27.3693871  63.3189631
  95.2239799  27.7007914  62.2276640 117.5506592  35.4474306  94.8935509
 117.4712753  35.1404047  93.9904022 117.4585629  36.3982177  94.8322678
 116.2043762  55.2379131  66.0454988 116.2004757  54.2985916  66.2295866
 117.1321011  55.4691601  65.9997320  92.9280949  27.4608898  86.0132313
  92.8602886  27.1383572  85.1145649  92.0580673  27.8085613  86.2092113
  87.4970913  54.1250563  78.0924463  87.7594662  54.3259382  77.1940947
  88.0656528  53.3999109  78.3515596  79.2555523  28.6378074  90.3426456
  79.8787594  27.9739690  90.0474072  78.5396433  28.5929370  89.7088528
  83.2499981  56.3987875  85.8062935  83.4483147  56.4399099  84.8707581
  82.2988701  56.2985420  85.8453274  78.9185429  21.1813235  60.3367472
  78.1657505  20.7832885  60.7739019  78.5596704  21.5490651  59.5291519
 113.7221241  66.4697170  79.7218561 113.4086990  66.1044025  78.8944817
 113.9316368  65.7045412  80.2574348  44.1844416  68.3483171   6.2209785
  45.0921345  68.4788704   5.9466004  44.1754246  67.4741316   6.6107810
 115.5102825  42.1889305  74.3901682 115.0172997  41.6082335  73.8105154
 114.8589611  42.8086185  74.7188044  10.2733278 108.9860821   4.8652899
   9.6643567 109.6918488   4.6478760   9.9258178 108.6106110   5.6742972
 109.4244194  28.2891631  47.6930714 109.8237514  28.1786203  48.5559416
 110.0017262  28.9028382  47.2388172 105.8188725  26.7859554  70.4173946
 105.9487629  26.2400675  69.6419191 105.6042004  27.6509428  70.0681829
  59.3244123  10.1155913  20.1432538  59.8742390  10.0515044  19.3623459
  59.3693876  11.0386074  20.3927565  26.7262101 105.9500790  10.4457247
  26.0891747 106.3449097   9.8503059  26.1946559 105.5468845  11.1321080
  23.9601588  86.6667747  14.9964094  24.3525147  87.4136162  14.5441639
  23.2740378  87.0508194  15.5422890  79.7671890  25.3202820  89.5118427
  80.4397392  25.4689670  88.8471603  78.9866924  25.7511449  89.1633987
 117.0346165  42.6326942  92.6880169 116.8782806  43.4174967  92.1627808
 116.5341091  41.9459772  92.2474003  22.2594142   4.7106659   9.2595899
  22.3667455   5.0472832   8.3699828  21.9319487   3.8191482   9.1404504
  75.1103973  11.9280493   0.8708106  74.9871397  11.7706704  -0.0652827
  74.3536472  11.5133905   1.2850802  80.0063801  49.3595314  56.7322111
  80.3194427  50.0568008  57.3084402  79.7842598  48.6410666  57.3244143
 113.0747032  43.3812904  68.2523012 112.6101971  43.7824345  67.5177622
 112.5833225  43.6574173  69.0259504  98.7584305  51.9253969  93.6970901
  98.8149738  52.5945044  94.3792343  98.8778496  51.0977650  94.1629124
 100.0200653  43.6957550  89.5276165  99.4423389  43.7856674  88.7697411
 100.3239536  44.5861149  89.7041035   9.4814914  48.0434608  58.9995289
   9.4394636  48.7979889  58.4120369   9.9572515  48.3630466  59.7661781
  78.0909729  48.0100822  71.3208818  77.1804953  47.7293968  71.2287998
  78.2806683  48.4782696  70.5078316  88.4658527  54.9794912  71.4785337
  89.3351078  55.3029776  71.7151499  87.9676342  55.0122070  72.2951984
  21.0849547  94.4736195   6.6242111  21.4687705  94.3930435   7.4973804
  20.8686686  95.4024696   6.5424359 104.7307968  55.7521296  70.1454878
 105.0794315  55.7856560  71.0363054 105.3680897  55.2298164  69.6583700
  86.4029980  70.5150700  80.6074142  85.4476357  70.5389404  80.6617069
  86.6676712  71.4344454  80.6379032 104.3358326  28.5839176  82.2098732
 104.6423531  27.7834320  81.7838478 103.5278702  28.3250594  82.6530647
 106.8071938  52.2542477  81.7394829 107.7246380  52.1611547  81.9961357
 106.7279053  51.7330122  80.9405708  81.0601711  42.0187330  81.8062496
  80.8126259  42.8187895  82.2697830  81.7760181  41.6527081  82.3257065
 102.7104282  34.8027301  62.0524788 102.1191216  34.6707201  62.7935362
 103.5839748  34.6505880  62.4130297   2.7315953 100.1006794   6.4571887
   2.1207505  99.9697018   7.1824098   2.9904750  99.2159653   6.1993361
 100.2093029  66.9182777  65.7621002 100.1182842  66.5063810  66.6213417
 101.1502743  66.9023657  65.5873251  79.2261219  58.8363791  91.3147259
  79.6070957  59.2979383  92.0617580  79.5635176  59.3008471  90.5487823
 103.9613628  63.8611412  90.1782131 104.6598244  63.9287615  90.8292198
 103.5206127  64.7102070  90.2107334   0.6193862  69.1949177  86.1399651
   1.3780168  68.6963844  85.8363628  -0.0910480  68.5542202  86.1719513
   1.3668118  40.3329706  84.7060776   1.9633171  40.9219217  84.2439651
   0.5183676  40.4731846  84.2857075 100.6133366  61.5098810  64.0527248
  99.8877239  60.9754133  63.7301254 100.2725601  62.4043560  64.0479660
  98.2251167  46.4316702  69.2717791  97.7545643  47.0475054  68.7100363
  98.2468319  46.8576431  70.1286983  96.2921047  71.9538736  87.0055771
  95.8520126  72.7429247  87.3217201  96.2977409  71.3643312  87.7596664
  64.9051619   4.2499810   0.6481756  65.4810858   4.0778840   1.3931063
  64.2445278   3.5586593   0.6914547   2.6198831  66.2316561  73.1803322
   2.3691677  65.9489441  72.3008728   1.8043229  66.2086916  73.6808968
  41.8070126 108.1196976   6.2948078  41.1867619 108.6856461   6.7544031
  41.7579794 108.4024429   5.3816348 106.3017178  49.3410492  63.1990337
 106.8321323  49.1940165  63.9821482 106.5264511  48.6145973  62.6176643
  83.5221577  29.9642205   2.7993315  84.4058609  30.0501657   3.1569752
  82.9780960  30.5038595   3.3729377  95.6697655  50.6445551  85.8601761
  95.0171661  50.8162594  85.1813030  96.2246132  51.4245367  85.8617783
  97.3488426  94.5434761  80.8020782  96.8012619  95.3155422  80.9445953
  97.7439213  94.3690491  81.6563129  30.7010770 109.8200321   1.9528466
  30.8411765 109.9196625   1.0112116  30.4669905 110.6978226   2.2543716
   2.5877643  67.7263117  85.0456905   2.2288856  66.8895578  85.3411198
   3.3597851  67.4879789  84.5324516 105.5335712  65.3216743  92.0052910
 104.7294140  65.8377552  91.9484043 106.2366104  65.9710455  91.9884491
  85.8645916  58.6682796  76.6025639  85.6498051  57.7369070  76.6539288
  86.4263535  58.8267279  77.3612118 116.2098312  70.0841188  93.1397629
 115.3882122  70.5191374  92.9118538 116.7060375  70.7463455  93.6208820
  90.2923965  65.4913473  96.3192654  91.1049938  65.9708834  96.1581421
  90.4196453  65.0858259  97.1769333 113.4195709  60.5775833  83.7919712
 114.3131924  60.3161907  84.0141201 112.9494667  60.5558872  84.6254921
 110.9162807  80.8526993  80.5433846 110.5867958  80.4795742  81.3609791
 110.3569126  81.6130257  80.3845310  85.3567314  60.1078844  85.2590275
  85.7650661  60.5260658  86.0170650  84.4567776  59.9360704  85.5361557
   0.9606429  40.9955645  76.9912338   0.0831336  41.0971546  76.6226053
   0.8101601  40.7703543  77.9093122  87.0260239  82.6887703  77.7125406
  87.9377651  82.4114895  77.8023863  86.8501759  83.1944847  78.5059834
   9.4574535  76.2453365  73.8465309  10.2072644  75.8749151  73.3809090
   9.0813142  75.5048084  74.3223143 101.3446522  63.4480572  87.4805164
 101.8591690  63.4987307  88.2860756 101.5495682  62.5856495  87.1192837
  22.9517794 111.1717129   1.5023635  23.7285542 111.4298153   1.0061464
  22.4901080 111.9934654   1.6691191   2.4244808  72.0025635  96.1789608
   2.3014165  72.3380470  95.2909660   2.0668440  71.1151123  96.1514282
  26.6918349  50.1863766  90.9677219  27.0535827  50.0207090  91.8383121
  25.7599473  50.3421021  91.1212349 107.1973324  36.3840508  85.1679707
 106.8286133  35.9484005  85.9364033 106.9829845  37.3087907  85.2910423
  82.0642948  15.1582325   4.3816984  82.9519463  14.8208463   4.2613751
  81.9577312  15.8058596   3.6849535  97.6232719  62.4142933  68.9478445
  98.1488037  63.0623531  69.4169617  98.2655048  61.8150473  68.5674953
  92.8855515  52.8020430  86.1155510  93.1770420  53.0599356  85.2410507
  92.1513653  52.2084379  85.9579372   4.9786115  78.3290815  83.2562160
   5.6845838  78.5689020  82.6559448   5.2955651  78.5981417  84.1184044
  88.5380745  23.1561160  72.8183842  87.7902317  23.2715011  73.4046078
  88.1507587  22.8813481  71.9872904  91.1443520  62.8840685  84.5845127
  90.6252289  62.1292210  84.8619175  90.6569004  63.2521915  83.8475609
  94.0296364  53.9584064  80.8982182  93.6886406  54.8146296  80.6396961
  94.9806976  54.0541840  80.8477688  10.6210256  68.1184816  82.9155159
  10.4526508  67.2196293  82.6327801  10.4031694  68.1211615  83.8475895
 117.0268250  69.1294289  76.0661507 116.9991302  68.9280558  77.0015192
 116.6725063  70.0162840  76.0014868   1.0360079  32.7490854  94.7872829
   0.4698330  32.7865672  94.0163898   1.9210692  32.8601241  94.4400597
 107.4337006  66.3155794  89.4040680 107.7647877  65.4187489  89.3560314
 107.1710587  66.5222931  88.5071182  66.7148447   7.2186106   7.1762532
  67.2306871   6.7454082   6.5233976  67.3579264   7.5164247   7.8196728
  78.6377335  66.8641472  92.1904564  78.1903791  67.6218319  92.5673294
  78.2108593  66.1086130  92.5944042  79.3715525  78.3570957  82.6283550
  79.5973158  78.2595110  83.5534191  79.8287916  79.1515779  82.3527431
  22.7274179  69.6890020  66.5788603  23.4956145  69.2237234  66.9099522
  22.1954870  69.0091610  66.1652231  52.0028479   0.0049090   9.1360617
  52.1299929   0.3062319  10.0356543  51.0850341   0.1990485   8.9459038
 110.5953312  59.9113941  84.9771023 110.8440399  59.0262938  84.7107029
 110.5592060  59.8726130  85.9328270 118.9111900  81.3431644  81.0952854
 118.2075977  80.7955742  80.7469559 118.9357758  81.1359978  82.0294762
  96.2883759  71.6643858  76.8369675  96.5475082  72.4552631  77.3098278
  96.6346836  71.7893076  75.9533978 108.7045860  59.0104008  89.6524143
 108.8878822  59.1462421  90.5820274 107.8493786  59.4177771  89.5148849
  93.1058884  63.3386135  73.5726833  93.9274025  63.2729006  73.0858326
  92.4248314  63.2265854  72.9094791  37.3831773  92.3874950  13.9890933
  36.9035792  91.6200733  14.3010020  38.3034372  92.1270943  14.0283859
  87.7267265  60.2845240  74.8953772  88.0887032  59.4566154  74.5795107
  87.0917511  60.0285816  75.5643511 111.2275028  78.0157518  75.6064034
 111.3327503  78.6339235  76.3296032 111.4808178  78.5121918  74.8281908
  17.7270710 104.4342041   6.2357700  17.8245699 104.6051598   5.2990210
  18.0739284 105.2190971   6.6598588 109.2936325  45.0122070  84.9400330
 109.7510433  45.8503675  84.8730183 109.9891090  44.3707371  85.0851440
   2.2610146  70.4230213  70.7918167   1.3340223  70.4745436  71.0247612
   2.4750483  71.2972450  70.4660082  94.6040440  67.2476578  74.7704792
  95.0206470  67.5101709  75.5913067  94.3202209  68.0704355  74.3720865
  96.1582279  67.8618717  90.7856560  95.4964638  67.2962666  90.3876686
  96.8412399  67.2599840  91.0813808 108.2064438  68.4041882  65.1280785
 108.6969757  69.2261219  65.1223803 108.0068779  68.2507706  66.0515881
 107.1365261  89.8013115  85.9751225 107.0777035  88.9027500  86.2997055
 107.8971767  90.1691437  86.4249325  89.2614365  36.1262178  54.4196606
  89.7232151  36.4157486  53.6327934  89.9313831  35.6848812  54.9417973
 106.4915180  76.9206572  62.3543596 107.0352364  77.4174595  62.9657459
 106.9858265  76.9269276  61.5346909 105.5059338  36.8543267  59.1666603
 105.6562042  35.9103680  59.2176151 104.5633698  36.9543576  59.3000793
  14.7614467  66.4960670  77.4627733  13.9756656  65.9499454  77.4397087
  15.4837680  65.8731651  77.5432301 106.4320946  55.8636808  87.2881508
 107.3576546  55.7898760  87.5208092 106.4289570  56.3701630  86.4759254
 109.2072582  83.5606766  65.9685898 108.3922291  83.0724716  66.0853052
 109.4954205  83.3375835  65.0834751  49.4548368 106.2249756   5.1366019
  49.2635632 105.5429649   5.7804245  50.3668451 106.0720348   4.8894465
  85.1030064  53.2367134  54.9559021  84.6803665  53.0186129  54.1252136
  85.0990009  54.1935301  54.9827099  93.0229568  16.6281712   0.0801420
  93.1247711  17.5799406   0.0808353  92.7377129  16.4171588   0.9691515
   1.2953852  75.6718302  90.6630421   2.1220715  75.3828335  90.2766418
   1.5514472  76.3190413  91.3201427   6.2453878  48.3865786  64.3456030
   6.9644159  47.9001999  64.7489214   5.5725121  47.7261591  64.1803217
  20.9385419  72.5414610  84.5532036  20.4194117  73.2441711  84.9442768
  21.0725427  72.8186131  83.6468601   3.7029642  59.7568035  69.9511337
   3.5802206  60.7058811  69.9307966   2.8271085  59.3988657  69.8062611
  51.6447306  27.4356079   8.2812726  52.1842003  27.6300168   9.0477008
  52.2409439  26.9982529   7.6734221  97.4923134  82.0471859  91.6481972
  96.5908527  82.3199081  91.8191528  97.4624634  81.6548538  90.7756042
 117.8999329  55.6840515  62.5511694 118.8204288  55.9446812  62.5195885
 117.6311684  55.8628464  63.4522915  26.9631195 106.1153412   2.4861483
  26.8440914 105.9948826   1.5440479  26.1030960 106.3915539   2.8028405
  72.4875164  31.0102010  11.1609960  72.1422291  30.1649761  10.8735847
  73.2313251  30.7872629  11.7207110  82.7748966   5.0355214  11.3868284
  83.3511639   5.4914933  12.0002043  83.2543945   5.0411135  10.5584073
  76.3537169   9.4050312   7.9052597  75.6864595   9.0964532   8.5182691
  76.4789391  10.3266442   8.1314945 108.6595631  38.8302255  92.0471096
 109.4266033  39.1213846  92.5401592 107.9154396  39.2044044  92.5187969
 111.5805149  54.7694635  92.8800106 111.9464397  55.1215076  92.0685959
 111.9759846  55.3004646  93.5712910 109.2375946  56.0959291  87.0433903
 109.1433620  55.7778740  86.1455059 109.9333858  56.7513800  86.9935226
 101.7934895  69.0493250  81.4925385 101.0100555  68.8513470  80.9794331
 102.2852135  69.6662951  80.9505177  95.0408936  66.0564518  95.3503132
  95.2323914  65.8774376  94.4297028  95.7534027  66.6280270  95.6364155
  22.9958487  90.0519085   3.0853847  23.7401843  90.0137138   3.6859974
  22.6987314  89.1447735   3.0142072  98.6019611  52.6604033  71.1452103
  99.2607212  53.2882786  70.8484983  98.0957890  53.1371880  71.8030167
  92.7690887  11.3350213   3.8722724  93.0760098  11.0706663   3.0050075
  91.8420696  11.0967350   3.8811857 102.1910286  71.9313955  90.6090355
 102.7540588  71.7955446  89.8469543 102.7867317  71.8909454  91.3571930
  32.5513053 107.9221725  18.9442432  32.5964642 108.2712841  19.8343647
  33.1909752 108.4370136  18.4523106 111.2589741  71.6014147  95.9031582
 110.4586315  72.1233130  95.9605694 111.4054680  71.2885857  96.7958546
 113.2385063  84.0210724  87.8553391 112.5767994  84.4206047  87.2907639
 112.8647232  84.0713978  88.7351131 106.9602299  72.7209330  80.5511761
 107.4038982  73.2272196  81.2316608 106.0287189  72.8809738  80.7025337
 107.0078945  75.6804085  82.0001316 106.5845299  75.4825926  82.8355122
 106.3389111  75.4918528  81.3420010 100.8096695  45.0751781  84.3492603
 100.5346298  45.7583618  83.7378311 100.2762032  45.2236032  85.1300335
 103.3900833  52.3170471  92.8022289 104.2605019  52.6015663  92.5235653
 102.8020191  53.0049515  92.4904633 118.9122009  65.4770327  61.8795538
 118.3462906  65.9597301  62.4820328 118.5636044  65.6775427  61.0109329
   3.2286316  73.2863474  82.4796391   2.4484593  73.5185623  81.9760132
   3.8192540  72.8917789  81.8379879 106.3119316  60.7154846  91.5932560
 107.2398376  60.5909157  91.3939857 106.2782001  61.5463829  92.0672798
  88.1388855  76.7735291  85.0135803  88.7608337  77.4527979  84.7527981
  87.3338604  77.2505236  85.2152061   7.0134622  56.2684488  72.0801449
   7.5642312  55.7568693  71.4875460   6.6264904  55.6193829  72.6676846
   5.2600980  60.7154131  90.4357433   5.8299369  61.3843393  90.8152866
   5.8485448  60.1639557  89.9201393  74.6147108  15.4260159  10.1385224
  73.8176537  15.3339219   9.6165526  75.1770592  14.7089672   9.8455423
  87.0248413  49.8852444  72.1545076  87.5831985  49.7800493  71.3841867
  86.1616993  50.0950098  71.7978382  62.1028328  24.1363978   8.3138525
  62.6923800  23.3823037   8.3117211  61.2253761  23.7544870   8.2926285
   1.4404970  46.1702299  71.3790607   1.5140283  45.5200720  70.6804037
   1.7245001  45.7077074  72.1675062  84.4881248  35.3718781  70.5596209
  83.5571098  35.5935836  70.5765009  84.6787930  35.2088165  69.6358871
  50.8431673 112.4886131   6.7002147  50.5889893 111.5722847   6.5908366
  51.2831402 112.7145863   5.8807057 103.3985424  59.2759991  69.6625853
 104.1413403  59.0190983  69.1162491 102.6728344  59.3792152  69.0470123
 108.5236740  74.0742826  60.7916737 108.6185932  73.3882380  60.1309443
 107.5785351  74.1530275  60.9211063  99.1603088  65.7185602  89.3394470
  99.7683907  65.7918739  88.6038685  98.6347866  64.9439144  89.1394806
  39.2413116  83.7756824   1.4639233  38.4920359  83.7729073   0.8682652
  38.8530326  83.8329315   2.3369598  91.4647198  89.7054100  73.2079744
  92.4106789  89.5730400  73.2701540  91.2862682  89.7203827  72.2676754
   0.8777771  47.8369284  94.0882587   0.9668377  46.9572878  93.7214756
   0.8008923  47.6962852  95.0319481  76.1864185   5.5384612   8.7883109
  76.3808060   6.1431283   8.0721945  76.4939976   5.9907472   9.5738447
   7.4347025 100.2908516  13.8187873   7.3931432  99.3354702  13.8607383
   6.7578053 100.5869865  14.4273484 114.8726749  68.9228821  79.9278736
 114.9239731  69.3091965  80.8021545 114.4787407  68.0620146  80.0691509
 112.6283646  90.4067612  65.4621983 113.0009937  89.5384502  65.3091908
 111.7275810  90.3400612  65.1453638  96.1605740  67.2605419  86.3247776
  95.3016090  67.4433041  86.7055607  96.7022800  67.0000315  87.0697021
  98.4918976  95.2254963  83.1949520  99.0631676  95.9934521  83.1839752
  98.8078213  94.7024727  83.9317417 107.0907116  86.1122322  88.7758636
 106.2407684  86.1551952  89.2140198 107.5565052  86.8912601  89.0798092
  97.8974915  71.1613798  82.7858734  97.6102638  70.2483034  82.7811527
  97.3067760  71.6014481  82.1746159  79.0309334  63.1729126  94.7756100
  79.9340773  63.2111216  95.0904083  78.5120392  62.9880810  95.5584335
  63.4331322  49.4955301  95.8632755  64.2905617  49.2223597  95.5370426
  62.9858589  48.6765051  96.0762882  96.5239716  58.0780649  89.8487568
  96.1201572  57.5603724  90.5452919  96.9757366  57.4343395  89.3030739
 116.8573952  64.7947598  73.6684704 117.5848866  64.9063540  73.0564785
 116.0730648  64.8936701  73.1287670   7.6648128  59.5644474  70.0175571
   7.2963554  60.4447889  70.0915337   7.1367437  59.1398191  69.3414927
  92.5560665  79.9825811  81.6607094  93.1423473  79.4346428  81.1389256
  92.2945881  80.6864834  81.0671043   7.3333073  64.9405575  72.9489040
   7.8729826  64.6953964  73.7004900   7.9515100  65.3178406  72.3230362
  83.6809254  78.2737541  92.7623177  83.4412575  77.7164984  93.5027599
  84.4690609  78.7325764  93.0531120  49.1629124   4.1282406   2.7005953
  48.6728668   4.7767684   2.1951291  48.5015774   3.6965311   3.2414246
  82.8397942  22.2711277  60.3531456  83.6419392  22.2106290  60.8719349
  82.4134445  21.4223289  60.4714632  93.0292130  61.7288494  82.5748444
  93.4946442  62.5596714  82.6714993  93.0406475  61.3445139  83.4514236
   8.3184052  85.3695107  81.2077141   8.5442317  85.9148788  80.4541874
   7.4712265  84.9861717  80.9806252  50.6637716  16.9347882  15.5990028
  50.5926609  17.8609765  15.8299780  49.8758888  16.5349364  15.9672260
  28.6744905  84.3061543   1.8612449  28.8623738  85.2278805   1.6841954
  28.5913825  84.2572880   2.8135777 107.2497654  51.5874958  65.6461239
 107.0596600  52.0045662  64.8058033 106.9037914  50.6995201  65.5564928
  88.0158806  42.9475307  61.1788321  87.1323586  43.1202698  61.5040684
  88.2049465  42.0531178  61.4625788 110.2073479  59.6350431  87.5882816
 109.6187973  59.4782591  88.3266830 110.8438587  58.9215755  87.6336479
  50.5079556   7.3435843   8.6297292  50.9235430   7.6697397   7.8315175
  50.4391384   6.3984275   8.4949189  88.1535912  61.0350990  84.9172306
  88.0173683  61.0021353  83.9703465  87.6065159  60.3296566  85.2626133
 111.5271568  30.2950072  82.5627613 110.7554245  29.7364473  82.4696636
 111.5024281  30.8674288  81.7959785   7.1791494  96.3498020  96.1505222
   7.5809568  95.4813290  96.1275482   7.9148716  96.9563866  96.0668373
   1.8687765  59.6655560  83.2708168   2.7263257  59.5967150  83.6904621
   1.7718902  58.8448334  82.7878571   2.7671224  45.8424091  95.3442860
   2.5008577  46.6632652  95.7584476   1.9523028  45.3507996  95.2412415
  87.5486660  34.2987061  57.7011681  87.2471237  35.0065470  58.2706070
  88.5000038  34.4011927  57.6749516   1.9502109  57.0419168  65.7628632
   1.6877462  57.8199673  66.2547827   2.7336287  56.7266178  66.2134981
  96.5433598  47.5819302  63.2888460  96.8727303  47.8168678  64.1563416
  96.6333961  48.3834028  62.7733231  65.6996346  14.7666264  -0.0113478
  66.4895535  14.9732745   0.4882115  65.4682493  13.8791656   0.2627071
  95.4160023   4.5622405   6.4841497  94.7192860   4.0439722   6.0813856
  96.2257195   4.1694298   6.1581433 100.3684235  83.5092163  79.0484953
  99.8910713  83.6269188  78.2272148 100.1136684  84.2609692  79.5834637
  95.6369305  69.3800592  78.9145803  95.6033802  69.9315405  78.1329346
  95.3910065  69.9650669  79.6311855  83.8083839  83.5753918  84.8484993
  83.7067032  84.4583797  84.4932270  84.0382957  83.0374050  84.0909100
 101.9533825  72.1645451  77.6834536 102.4638748  71.4874125  77.2394705
 102.2679234  72.9867315  77.3075438 100.7923126  60.7937193  84.0701580
 101.6395664  60.4767752  83.7572193 100.9099102  60.8992863  85.0142288
  83.4248924  31.0304737  22.2042918  84.0617275  30.8218861  21.5208054
  82.5979614  31.1418438  21.7352319 104.2631054  43.1542635  71.7862797
 104.9169540  42.5239849  72.0887089 103.6419868  42.6307201  71.2799740
  95.4643154  76.4260864  90.5926228  96.0947323  76.9373226  90.0852299
  94.6228886  76.8515825  90.4277420 104.9679852  65.4382610  72.9783869
 104.2029572  65.9188604  72.6621580 105.2089119  65.8803892  73.7924576
 111.5405655  43.2812738  85.3824520 112.2344112  42.9950428  85.9764862
 111.9575500  43.3056784  84.5211983  89.4284534  63.9095974  93.0008030
  89.3234158  64.8516226  93.1341457  88.9432430  63.5099459  93.7226582
 114.8853016  86.5605831  87.7242756 113.9877701  86.4104271  88.0211353
 115.4123783  85.9457302  88.2345486   6.5263504  52.4128532  62.2159719
   5.8183455  51.7992592  62.0198488   6.9920075  52.0142031  62.9511404
 114.6398735  48.1171560  79.7250032 113.8855076  47.6186657  79.4108868
 115.3730392  47.5045824  79.6662617 104.5818329  35.7965112  70.0378609
 105.2215099  35.3327751  69.4974947 104.1653538  36.4153576  69.4380188
  29.8067355  96.9793034   1.5175433  29.0085864  96.6085625   1.8940279
  30.4130340  97.0419025   2.2555920  93.1427097  61.0507727  78.3159018
  92.7365494  61.3979816  77.5217295  93.8470936  61.6678476  78.5141230
 112.6186657  39.3593097  70.5468321 111.9408131  38.9449477  70.0129366
 112.3460293  40.2745390  70.6120777   9.3696445  77.3932076  71.4182091
   9.9508137  78.1394577  71.5651321   9.3819505  76.9133615  72.2463608
   8.3821017  40.7857275  83.5061836   9.0418303  40.3124428  84.0131283
   8.8380492  41.0496855  82.7070141  47.9434586  13.3265638   2.2896214
  47.2083330  13.1060362   1.7176127  47.9680967  14.2834461   2.2898425
 102.1868134  56.2447929  67.1479940 101.3390923  55.8055544  67.0796490
 102.4705124  56.0793066  68.0470848  10.1952708  43.7436390  86.7082119
  10.1875877  43.6264849  85.7582378   9.4781107  44.3538618  86.8800926
   8.0745518  26.8612218  68.0408621   8.4647971  26.6637731  67.1894169
   7.1307242  26.8151951  67.8882074 116.3137245  71.0486126  69.9709463
 115.7705212  71.3282108  70.7078266 117.1514320  70.8100414  70.3678751
 113.0121231  57.2896528  94.4687176 113.3573341  56.9387102  95.2896309
 113.5209656  58.0858612  94.3158436  41.0094070  97.4263000   0.8471796
  40.1513481  97.1535301   1.1720812  40.8384418  98.2402325   0.3733591
  22.4439788 109.9906540   6.3524377  21.8222547 110.5965137   6.7556977
  22.3720908 110.1633072   5.4136860 105.5325317  39.6133423  78.1210375
 105.2752686  40.5348539  78.0915499 106.0591221  39.5370245  78.9167166
 107.0429039  73.0163336  77.8591108 107.1061230  73.1070518  78.8099051
 107.3852158  73.8419533  77.5164509  61.8251085  13.9827597   5.3324533
  62.2368956  14.3024182   4.5296574  60.9220695  14.2957139   5.2794385
 105.1513672  45.5925369  80.2065182 105.4261112  46.1385250  80.9431648
 104.3049431  45.2355814  80.4755497  36.1618996 107.2477722  16.1675596
  36.3560295 108.1690216  15.9948003  36.2152815 106.8267632  15.3095746
   0.2817990  63.6671734  94.1678905   0.4045895  63.5718870  93.2233906
  -0.6673898  63.7132072  94.2825794   7.1864659  66.7799234  89.4941711
   7.0249379  66.6495562  90.4285908   6.6782570  67.5593948  89.2697144
 117.8625965  30.9407711  70.0755310 116.9316673  31.0295391  69.8712492
 118.3111763  31.2811494  69.3014812  15.3105128  63.4146595  94.4481564
  14.6243668  62.8432703  94.1032600  15.4907990  63.0711985  95.3232288
   5.9690523  32.4455070  71.1453581   6.0817546  31.9464445  70.3363657
   6.3861912  31.9078588  71.8185329  99.9819279  18.3239996   5.3885502
  99.4263458  17.9634082   6.0795921 100.5861759  18.9077401   5.8471942
  99.8378086  69.3534088  91.4151287  99.6379566  68.4196234  91.3492775
 100.7929325  69.3909359  91.4657593  63.5160398   8.2076675  15.3540659
  63.7916994   7.3509300  15.6800187  63.6220884   8.7943077  16.1029577
  98.0704403  76.7778158  86.5426254  98.1516647  76.8705893  85.5933952
  98.9605713  76.5930557  86.8422508  61.6959143  19.7906470  11.2922919
  62.1558905  20.5798364  11.5783596  61.2355185  20.0569582  10.4964614
  28.5061669  80.6895828   5.9525561  28.5408854  80.0740147   6.6847438
  27.5849843  80.9436131   5.8966881  81.8005657  18.2429433  14.3681145
  82.7244091  18.2633781  14.1184664  81.5402508  19.1635656  14.3984950
 104.6029377  37.0689797  92.9370403 104.6869183  36.5479684  93.7356091
 105.1249027  37.8531933  93.1066990 117.6357079  41.0566235  75.8543110
 116.8978786  41.5245485  75.4633141 117.8401279  40.3640127  75.2260303
 115.7329845  40.3426886  80.6727123 116.4019775  39.7157335  80.9476852
 116.2163830  41.0113478  80.1874733  86.4376545   5.5862331   4.9761966
  86.2001801   6.4553565   5.2994013  87.1939945   5.3324181   5.5051160
  87.8510666  57.3433924  66.8610477  88.0876446  56.6513443  67.4785662
  88.6457253  57.4880123  66.3474083   8.3775014  70.8250141  83.8163280
   8.2209259  70.3434515  84.6286201   8.4366572  70.1468277  83.1434250
   5.9570622  64.3881845  58.2237196   6.6395491  63.7274933  58.3417511
   5.5916649  64.2031717  57.3585653  51.0009384  14.1891813   1.4356796
  50.4953671  14.2286146   2.2475132  51.4784288  13.3614194   1.4908467
  55.5063486  20.9681654   8.9335710  55.8491087  20.5548429   8.1411630
  55.3741837  20.2428532   9.5440501  97.3917770  42.7631950  54.4345903
  98.2399178  42.3325872  54.3274641  97.5073528  43.6235714  54.0313244
 104.5764065  44.9591160  93.2457733 103.7720966  45.3108025  92.8641510
 105.1990128  45.6849098  93.2031727  17.4888062  81.1355114  83.7436867
  16.9884717  80.8955002  84.5236206  17.0012283  80.7469463  83.0173779
   0.4591510  78.5860157  75.3194714   0.6403811  78.6283541  76.2584019
  -0.3471384  78.0743122  75.2539968  99.3866634  44.9085522  93.0203056
 100.0080109  45.5624199  92.6999569  98.5289288  45.3187275  92.9094982
 115.5078030  74.4229174  75.2151537 115.8401012  74.1441107  74.3618774
 114.5720387  74.5654678  75.0728416 114.2129517  66.8235636  56.2063980
 113.3337688  66.7231655  56.5713501 114.2452526  66.1968565  55.4836082
  94.6732330  82.7906132  91.9091702  94.4422817  83.0718708  92.7944851
  94.9699497  83.5897350  91.4737415   9.6856093  66.0735512  88.7277317
   8.9460009  66.5781212  89.0662861  10.1256609  65.7396889  89.5094681
 113.5281849  91.9774818  76.0942030 112.6183796  92.0111752  76.3897562
 113.9877129  92.5955009  76.6626310 119.0099049  89.1787052  89.1524696
 119.4016933  88.3112526  89.0512180 118.1617355  89.1111088  88.7139797
   8.4750640  77.5983381  57.1396208   7.8379738  78.0399323  56.5780687
   9.0998352  78.2833147  57.3777294 113.7905788  58.8419151  87.6922798
 113.9021206  59.7575903  87.4366951 114.5601368  58.3982563  87.3356438
   2.3434918  89.3734932  90.6464195   1.9804631  89.2203426  89.7740650
   3.2037622  88.9543247  90.6248093   6.7086780  78.1162310  85.6188965
   7.5310242  78.5790491  85.7794571   6.9438952  77.4128580  85.0137806
   8.5399878  76.4970541  81.2702370   7.9022795  77.0619249  81.7066765
   8.4250736  75.6416559  81.6841412 117.2329044  52.2352648  96.3140202
 116.3729954  52.1064758  96.7142773 117.8254890  52.3617458  97.0550156
 112.7146244  86.1965179  84.2771721 112.6868057  87.1026039  84.5845318
 113.6478615  85.9913063  84.2206955 115.4803371  99.3327904  95.6927395
 116.2891579  99.3008995  96.2036419 114.8659515  99.8143291  96.2467098
 104.0247726 100.4859638  63.2606840 104.3960381 101.3653946  63.3314466
 104.3659973 100.0198078  64.0239000  74.9968815  39.9345589  28.1376863
  74.9401999  39.1503787  27.5917196  74.1077280  40.2889919  28.1408405
  98.1328583  88.9841557  90.0230217  97.9283428  89.4644928  89.2207241
  98.7069511  89.5718098  90.5142593  81.2923813  26.7022681  15.1420021
  80.4978085  26.3258862  14.7635663  81.1892700  27.6466823  15.0250256
  87.7273464  28.4288073   6.9305509  87.0424271  28.5398579   6.2711740
  88.0044079  29.3206215   7.1406400  74.6212578  11.0927367   4.5950165
  75.4751539  10.6607747   4.5726240  74.0311861  10.4377079   4.9678245
 118.3593273  93.0566597  84.1819382 119.2281914  92.6587200  84.1276264
 117.7747822  92.3279762  84.3906498 110.2237701  75.7604122  95.7993984
 111.0283089  76.0870695  95.3966141 109.7773266  76.5463972  96.1142635
   0.4570000  81.3355160  74.2664289   0.3479697  80.4693317  74.6589375
   1.0095903  81.1832523  73.4998178  54.9968004  10.0459015   7.0448339
  55.5592871   9.3366516   7.3559695  54.9404526  10.6494391   7.7856439
  28.9596653  83.0138016  91.3606739  29.0775180  83.4094334  90.4970646
  28.8600445  83.7585258  91.9537067 116.5435600  80.5950451  79.9082994
 115.8613968  80.0480556  79.5188236 116.1028957  81.4206886  80.1091957
 111.0925770 108.3531284  71.3637257 111.0973930 107.4124908  71.5409422
 112.0059204 108.5652828  71.1712790 112.0769978  56.2665558  79.4325686
 112.2938728  56.7136717  80.2506638 112.8099823  56.4647102  78.8497257
 108.0745983  91.8083000  68.3992004 108.9543724  91.4601326  68.5441113
 108.1954002  92.7571869  68.3635902  39.5626163  17.2237241  96.9289684
  40.3370285  17.7818704  96.8583202  39.6695018  16.5764451  96.2319469
  69.0339470  16.5851867  11.9442141  69.6234560  16.1773312  11.3098907
  68.4165144  17.0851803  11.4103460  90.6171513   2.1516836   9.3265897
  89.7100067   1.8662982   9.2176402  90.9847355   2.1238174   8.4432238
  88.2653522  63.2578421  95.6837559  88.8364887  63.9805555  95.9439945
  87.4161911  63.6694479  95.5233479 118.9557076  81.2444210  93.7286568
 118.8566971  82.0834064  93.2786179 118.0593300  80.9338570  93.8563156
 114.7398949  63.7945414  86.1405277 115.3618813  63.6555529  85.4263496
 114.5768070  64.7377300  86.1359501  39.3409109  80.9191322  66.3622761
  38.9721036  80.2698517  66.9611502  39.2940807  81.7442608  66.8451977
  75.3268194  14.9530733   3.3378035  74.4040680  14.7168434   3.2431421
  75.7641602  14.5054889   2.6134884  79.0310383  36.0834384   1.8767926
  78.7215662  36.9301414   2.1985891  78.7318230  36.0486150   0.9682274
  86.4435768  73.4482670  80.7191944  86.6523647  73.8857317  81.5445805
  86.7955017  74.0290403  80.0445938  10.0064743  89.8303509  85.8691406
   9.0741700  89.8292923  86.0860348  10.0299597  89.7952366  84.9128723
  12.9036558  56.1365461  86.0349178  13.1774700  55.2288342  85.9033298
  13.6724794  56.6553402  85.7982922  96.9229794  64.3933582  57.4406004
  96.3912964  63.6423206  57.7041960  97.8107834  64.0436029  57.3650551
 116.5468311  79.6166420  84.1426659 116.6001511  79.3870449  85.0703907
 117.4249268  79.9272156  83.9219379   6.9459170  81.5480042  74.4637728
   7.1583462  81.8997383  73.5992527   5.9974051  81.4208317  74.4441509
  91.1682320  71.1910582  85.6602097  91.0456944  70.2680111  85.4384041
  92.0946026  71.2610340  85.8908081 115.8597755 103.1064701  90.9399700
 115.7594013 104.0455723  91.0957241 115.3421688 102.6924801  91.6305733
   4.5873579  63.4575891  69.8593760   3.8201553  62.9327965  69.6308422
   4.5588902  64.1992760  69.2549610   0.2226589  98.0205631  92.9104042
   0.2943121  98.4253120  92.0459557   1.1186801  97.7658367  93.1306171
  10.2728117 106.4365196  76.5990353  10.1220262 105.4935551  76.5333652
  10.9121835 106.5282154  77.3054552 112.5879288  74.8139477  74.5495176
 111.9841290  75.3870106  74.0770149 112.0201588  74.2355156  75.0587177
  15.2262199 101.5012932  79.7283697  15.0149572 102.2289658  80.3132629
  16.1594391 101.6061306  79.5430470   3.5541964  57.3591042  60.4040146
   2.9663193  56.6474915  60.1505613   3.2611868  57.6114702  61.2796211
  68.1248522  13.2021189   1.6370356  68.0609989  12.6291156   0.8729538
  69.0557384  13.4163380   1.6986385  99.2900944  61.7535973  92.7193737
  98.3772564  61.6894150  93.0001640  99.2768955  61.4890432  91.7995453
 104.2106247  72.0698214  85.8951855 104.7046471  71.7088413  85.1590729
 103.3661079  71.6205931  85.8601570  98.8238525 106.8312645  82.2517967
  99.7263527 106.6137409  82.4850750  98.7615681 106.6263103  81.3188744
 116.3288403  84.4419384  82.1620750 116.3215923  84.6704006  83.0915833
 115.5928040  83.8389301  82.0579052 101.6486835  44.5948124  11.0360122
 102.4815464  45.0500727  10.9122646 100.9924603  45.1959229  10.6834948
 108.6078358  69.5298958  94.9316692 109.2790508  69.4314528  94.2563820
 108.7776852  68.8143110  95.5443096  10.3951979 107.3825455  13.3060515
   9.9785602 106.7502594  13.8915920  11.1221731 107.7389526  13.8166499
  92.3393536  89.0347290  66.7483997  92.1849442  88.0957031  66.8514824
  91.6161346  89.4494343  67.2187233 109.4165993  67.8562403  67.9993057
 109.6600151  68.7638712  67.8171349 110.1969624  67.4751472  68.4018326
   0.5847958  79.4161463  67.8477097   0.0872692  78.8625097  68.4495258
   0.2037162  79.2380619  66.9878864   3.2797319  44.1501284  77.2700405
   2.3470441  44.2550755  77.0821285   3.3721143  44.4217205  78.1832409
  13.3936477  77.5718498  89.5578861  13.8707542  78.3571529  89.8260212
  13.0145669  77.8000307  88.7090874  83.9842701  45.3126431   8.1462413
  84.9398327  45.3587246   8.1143749  83.6980724  45.7002258   7.3191363
   4.7564459  73.3125067  72.6430750   5.2098525  74.1244650  72.4164057
   5.3812265  72.6206255  72.4258518 114.0879345  98.3678150  81.8466854
 113.9816475  97.4323368  82.0193577 113.8150883  98.7938690  82.6592541
  13.7784100  66.2834215  91.9423294  14.3124080  65.8854103  92.6298332
  14.4093442  66.7278957  91.3761139  95.6848335  89.6736813  92.7806377
  95.4772377  89.1168785  93.5310364  96.3836479  89.2070675  92.3222065
  90.0064278  85.0595665  74.5917797  89.6346664  84.3293571  75.0865841
  90.5268574  84.6430683  73.9048195  66.6385412  18.1963158   4.2247677
  67.0716906  18.7454402   3.5712588  66.2221670  18.8178658   4.8218763
 111.8332767  71.3724232  60.1370764 111.8855858  72.1907854  59.6433401
 112.3510647  71.5348959  60.9255743  92.8823376  65.0880098  78.2073355
  92.4737644  65.0767136  77.3417854  93.8068390  65.2649260  78.0334949
 114.9223518  67.1319389  83.0147839 115.7649231  67.4710178  83.3170033
 115.1319313  66.2839794  82.6232815  97.2848034  71.9985914  73.6637783
  97.3951435  71.0542250  73.7743855  97.2228718  72.1232033  72.7167463
  99.6686363  96.7982769  81.0810757  98.9304161  96.1890221  81.0729027
  99.3338013  97.5860310  80.6526279  79.1953754  42.4525404   7.7422547
  78.4992838  41.8337440   7.5213850  79.8270512  41.9344187   8.2410187
  80.5142498  72.2335625  97.5139332  80.6229305  71.2827253  97.4959755
  80.1720524  72.4519348  96.6470718 113.1059361  88.5117340  85.8808517
 113.3139324  89.3228531  86.3445854 112.5135612  88.0443001  86.4697742
 118.6884308  75.4001999  74.3582010 117.7748394  75.5101013  74.0945578
 118.7795353  74.4613028  74.5207024  64.2772150  23.0010629   2.0912473
  63.7450123  23.0128717   2.8867656  65.1524639  23.2539797   2.3848498
  90.8278942  75.1721191  91.0026073  91.1786270  74.9081850  91.8532276
  89.8880959  75.2748537  91.1524582 108.8312817  98.2336044  74.8022318
 109.1009521  97.3156834  74.7716951 108.6746407  98.4677792  73.8874292
 100.4610348  89.1096687  83.3288956 100.0238132  88.3474350  83.7084579
  99.7749615  89.5575333  82.8339672 107.2666740  87.9873848  91.8679428
 107.4263763  87.0710754  91.6418457 106.5051365  88.2343292  91.3432407
  98.2646465  77.0455933  84.0462971  98.8947487  76.9113016  83.3383656
  97.8741455  77.8995514  83.8605785 113.3162594  64.2964840  77.7292871
 113.3706570  64.5272970  76.8019247 113.6779308  63.4115505  77.7774620
  26.2874508  71.2834644  76.0124493  27.1975207  71.4941835  76.2212563
  25.9608459  70.8337784  76.7917681 115.4551315 108.1936836  92.2595978
 115.9324074 108.8412476  91.7408466 114.8478317 108.7109947  92.7885628
 103.1900120  91.3960266  54.2962408 102.5056076  90.7301903  54.3632555
 103.6000156  91.2334061  53.4467173  19.2012596  99.0151787  88.3230305
  19.8331869  98.6882877  87.6826859  19.7213376  99.1820908  89.1090965
  57.3608351  25.1992369   2.0921816  57.0860434  24.3459868   1.7564949
  57.7363300  25.6455851   1.3332307   8.7175655  93.4855652  75.8579588
   8.7632322  94.4196510  76.0619974   9.2824095  93.3797169  75.0924683
  -0.1176967  86.3689327  70.8407736  -0.3120918  85.4672146  70.5851507
   0.5277940  86.2850761  71.5425873  93.0355263  26.5822101   0.7325339
  93.9390564  26.8863940   0.8181933  92.5062466  27.3068476   1.0656963
 109.8207092 102.2795868  62.5568199 109.2270374 101.5476799  62.7244616
 110.5269909 102.1656036  63.1927538 113.4215069  84.6150303  62.7844715
 113.0676746  83.8093567  62.4077463 112.8999901  84.7594261  63.5740280
 116.6189003  99.3945408  87.0105934 117.5757122  99.3760204  87.0303345
 116.3716602  99.8551083  87.8124619   9.3668854  77.6744938  92.7511311
  10.3142738  77.8040028  92.7948761   9.2611939  76.7434216  92.5557709
  77.6995277  46.7260313   7.7977294  78.3200169  46.3241529   7.1896881
  76.8577003  46.6829729   7.3441774 103.8513279  74.7315216  89.0176010
 103.8329983  74.6989059  89.9740696 104.4212627  75.4731369  88.8141155
  64.8824358  29.5949888  36.7117214  65.4554605  30.2620482  36.3336921
  64.2145634  29.4457483  36.0424662   9.6967262  77.5116634  54.3711996
   8.8270706  77.8236961  54.6213293  10.2908015  77.9368877  54.9896574
 113.5489368  70.4887104  92.6875687 112.9094982  69.8619366  93.0259418
 113.3747196  70.5244684  91.7470360  82.0139408  31.7763805   4.7633934
  81.7473316  32.6956701   4.7561595  82.1848869  31.5838218   5.6853116
  80.5354786   1.7705600   1.6780476  79.8523235   1.2359670   1.2734011
  81.3331985   1.2495744   1.5861346  75.9917259  25.1064920   8.1827533
  76.2736464  24.2342043   7.9073191  76.8052197  25.5677557   8.3869636
   2.5561643  82.9969788  78.4386301   2.3541823  83.7854481  78.9423704
   2.0100528  83.0665874  77.6555920 115.5741215 107.4580479  63.9949417
 114.9849987 107.2788715  64.7277880 116.1512470 108.1511593  64.3155003
  63.5526459  16.7167393   0.1308652  63.7770359  17.6086918   0.3960058
  64.3483727  16.2106958   0.2951070 107.4454975  58.3213854  68.9751816
 107.0573807  58.8656044  68.2900381 107.3126698  57.4233341  68.6717081
 111.2353134  66.7394924  73.8956022 111.4691162  67.2999382  74.6355152
 111.6086292  67.1814585  73.1330204   1.5776245  90.1717091  75.3835249
   1.4065751  89.4208431  75.9520006   1.8451110  90.8692074  75.9820032
   5.7843649  60.4266787  77.7927637   5.0689542  60.8645678  77.3316002
   5.5669206  60.5241966  78.7198257  88.2130337  96.6447735  89.1995430
  87.5479507  96.9365120  89.8230648  88.9788342  97.1842766  89.3962765
  62.6956654  11.5139771  21.0712671  61.8844557  11.1737275  21.4486241
  63.2201004  10.7344306  20.8882117  11.8536496  81.8774128  85.6067562
  11.5045273  81.3711166  84.8732758  11.1258531  81.9352913  86.2257862
 116.2139606  59.4807911  95.5821037 116.0297680  58.7753487  96.2023163
 117.1631813  59.4524240  95.4620934  41.9545507   9.1651016  75.7832432
  41.8226862   9.2303187  74.8374176  42.8913450   9.3189609  75.9056425
  82.6655960  22.7895117   5.7281852  83.0193996  23.6349297   6.0044581
  81.7772961  22.9870844   5.4313368  35.9694505  77.1581697  84.9039173
  36.1863303  76.3443899  85.3588390  36.6023111  77.7945709  85.2366543
 110.3424454 102.2842693  75.2429104 110.3665066 101.6409302  74.5345545
 111.2619877 102.4908543  75.4101801 108.5999870  94.3415451  96.3198948
 108.7330437  94.3928623  97.2664070 109.1578388  93.6163616  96.0385704
 102.9834557 105.6591797  87.3197746 102.7122402 106.5254688  87.0161152
 102.7058983 105.6285667  88.2353401 115.6538677 103.3817291  94.5331287
 114.7905350 103.3670902  94.1199970 116.0105610 104.2420769  94.3121910
   2.2359940 107.8631020  93.4022141   1.5721902 107.4219704  93.9323044
   3.0668360 107.4972820  93.7057114  93.4261036  16.3717699  17.1697474
  93.5049534  16.4732850  18.1182766  93.0424690  17.1965182  16.8716693
  81.2080193  11.0854757  53.6109209  81.7266273  11.8321991  53.9103842
  81.1499023  11.1992550  52.6622868  60.3098917  20.3137159  41.3717222
  60.5612564  20.3704214  40.4498625  60.5887604  19.4390368  41.6426516
  41.5493870  92.7131939  58.6724758  41.2564898  92.9174900  57.7843809
  40.8698797  93.0788708  59.2388487  46.6846132   5.2846313  91.5671539
  47.2829676   5.8649385  91.0965633  45.8748770   5.3111041  91.0573959
  69.1892576  19.3337798  85.7037830  68.5075188  19.8643970  86.1159801
  68.7774134  18.9875722  84.9120998  18.5816240 104.6055126  84.6940041
  19.3506587 104.1178894  84.3989944  18.3380079 104.1907883  85.5215836
  86.4031315  13.1933367  58.5534334  85.7771206  13.8542891  58.2576466
  85.8629227  12.5196385  58.9664030  64.4315147   5.3390771  51.7192173
  64.3359947   4.3884775  51.6603184  64.0749454   5.6672269  50.8937407
  84.3096066  31.8432879  59.3780088  85.0212097  32.4266768  59.6416712
  84.5695210  30.9836221  59.7091484  74.0101147  14.9689865  70.3378534
  73.4773779  15.6462467  70.7546759  73.6931705  14.1486156  70.7157040
  73.0140352   1.4148387  75.2412701  72.1591663   1.0393889  75.4521465
  73.2954502   1.8397820  76.0514927  73.7414789   0.2911708  62.7756786
  73.9159298   0.4924360  63.6950779  73.4638119   1.1250342  62.3964643
  67.5970888   7.5500536  83.6899662  67.6480055   6.6218001  83.9179707
  68.4845591   7.8801519  83.8301754  64.7192526  13.3099449  64.3204451
  64.8737049  13.8489246  63.5446405  63.8005209  13.4643161  64.5403004
  55.2711248   0.3664691  92.9183006  56.1805868   0.0727768  92.9717350
  54.7848225  -0.4095020  92.6397133  73.3418369  18.5429323  93.7690926
  73.6221457  19.1025138  93.0448437  73.1765127  17.6916265  93.3638954
  90.6399059  17.1283686  39.4007373  90.5523205  17.9532206  39.8784184
  90.0350189  16.5312564  39.8409653  27.7911901  57.3436737   1.9831626
  27.0093036  57.1421909   1.4690717  27.8802061  56.6036749   2.5837514
  72.5357914  94.4393635  34.2048407  72.3489285  93.5568810  34.5250583
  72.4287319  94.3774033  33.2556677  74.3636227  14.9605680  53.8332462
  73.8278103  14.2134476  53.5668850  74.4720936  14.8527634  54.7781515
  98.1906033   8.3630669  51.0418749  98.2419872   7.4470329  50.7689762
  99.1031551   8.6407131  51.1218309  77.9078436   9.7047025  76.7632246
  78.0333710  10.4326761  77.3719358  78.2926607  10.0102854  75.9417820
  39.1269946  97.5216007  66.4968872  39.7540307  97.0909119  65.9158802
  38.9421606  96.8710327  67.1742582 106.7442036  13.7859380  62.7300167
 106.5437889  13.1410575  63.4083939 106.0997581  14.4811726  62.8625774
 114.5959663  15.0478935  78.3722019 115.5040359  15.2917123  78.5516405
 114.2423344  14.7967064  79.2254782  75.0782108  21.6327357  76.4388800
  74.4450760  21.9729972  77.0710135  75.7235384  21.1687756  76.9722891
 104.1627979   0.6208972  80.3508472 104.0032291  -0.0951975  80.9656525
 103.6499882   0.3902634  79.5762157  95.0506401  19.9242532  85.6258488
  94.8090076  20.8160448  85.8759594  95.9602356  19.8339510  85.9099579
  76.7392015  35.1203084  48.5864735  76.8123865  34.4301486  49.2456818
  76.8729162  34.6700454  47.7524376  72.1237803  21.4085126  68.6863613
  71.3714695  21.1362410  68.1608868  72.2443008  20.6991601  69.3176508
  53.6443758  95.4892063  85.1657772  53.8201046  94.8528290  85.8588600
  52.6898909  95.5556965  85.1380444 103.8496208  39.1916990  88.2612038
 103.4347916  40.0082922  88.5392857 104.6862316  39.4642687  87.8843594
 102.4606323   4.6102938  90.7976723 102.9939365   5.4047346  90.8238220
 103.0027103   3.9731357  90.3324699  74.5033979  22.0420766  46.2266207
  74.6587896  22.7522516  46.8493032  73.9783907  21.4070129  46.7137432
  90.1829147   7.0474708  80.2111435  89.9567890   7.5777084  80.9753036
  89.8960304   7.5710404  79.4629431  35.8601403  90.7606888  54.2289305
  35.4130507  91.1725235  54.9683475  36.5610600  90.2462101  54.6292353
  81.9466877  22.3299170  89.3919182  82.0707417  21.3814950  89.4285488
  82.6502609  22.6846600  89.9353981  45.0901604  93.5256481  86.6705894
  45.8006382  93.2444000  87.2470951  45.2473211  93.0572796  85.8507347
  39.3448012 112.0219196  74.7857618  38.3901923 112.0738445  74.8332596
  39.6517652 112.6708937  75.4188776  89.3026447  28.2747865  77.1909046
  89.3120575  27.3444223  77.4157763  89.6032715  28.7162399  77.9852438
  89.6228218  31.2929440  82.6135349  90.4912186  30.9218407  82.7697563
  89.6309566  32.1272540  83.0826759  82.6859188  47.0764160  64.4030952
  83.0457878  47.2693205  65.2688408  82.0895576  46.3422012  64.5497704
  71.6815233  13.0221784  44.6249819  71.4737511  13.8856566  44.2679548
  72.6192522  13.0601573  44.8132658  41.8643141 110.6120682  70.7550955
  41.2686157 110.7157612  71.4971304  42.1014309 111.5068531  70.5114460
 104.6833706  13.5841787  89.5302868 104.1018200  13.9702547  88.8753128
 105.1564407  14.3297732  89.8997688  63.4804773  99.7206116  82.9332924
  64.2985535  99.4628334  83.3581924  62.8253555  99.6792030  83.6299515
  73.9514303  28.8013315  77.0900393  73.0112791  28.6568761  77.1971798
  74.0993643  29.6817303  77.4353600  24.7234654  82.7626610  17.0359933
  23.8938642  82.2996521  17.1527004  24.9963784  82.9926872  17.9241574
  65.4803991  17.4216092  68.0859089  66.3962173  17.2957289  68.3342409
  65.2225065  16.5884638  67.6914549  67.5830126  25.1616549  56.8658352
  67.5921822  24.5406246  56.1374998  68.3725595  25.6883264  56.7414713
  37.6008487 107.8014660  64.9623346  37.6575851 108.6322594  65.4343367
  38.4673977 107.6881981  64.5718288  81.6977596   9.7664332  60.6834793
  81.6562653   9.4265723  59.7896099  82.5228977   9.4274324  61.0305500
  72.5851440  20.9678507  92.0006180  73.4198141  21.2520814  91.6280937
  72.0060444  21.7225575  91.8943501  86.1134243 111.3553810  86.7776394
  85.4437256 111.9948292  87.0201969  86.9372559 111.8399811  86.8295193
   3.3859473  28.2826304  81.5233898   2.9432353  28.0527568  82.3403263
   3.0157039  27.6848555  80.8739090  91.3627911   3.9483640  85.1764965
  91.4461708   3.7074506  86.0991192  91.3286877   4.9049461  85.1808643
 100.4440117  14.7998905  39.2048097 100.6084347  14.2307270  38.4529781
  99.4964600  14.9353421  39.1999745 105.0039673  44.0282917  85.3295326
 105.7968807  43.6851740  84.9174690 105.3243732  44.6310186  86.0005665
 109.2459202  14.1669559  89.1684437 108.5886288  14.2539036  88.4780598
 109.6108532  15.0467014  89.2638779  94.1338062   4.0995336  93.4183502
  93.6292362   4.4777191  92.6982021  94.2114067   4.8097956  94.0553284
  95.9664345  15.6639040  64.6680450  95.6614399  15.6556392  65.5753136
  96.8900013  15.9081626  64.7280502  81.3509369  28.2138801  66.7163897
  81.0348606  28.9301586  67.2670937  81.7840004  28.6493778  65.9822035
   4.2650864   5.4700941  78.9998960   3.4590742   5.2211463  79.4522238
   4.2887112   4.9077564  78.2256556  32.4834895 110.7681465  68.7650442
  32.0886064 110.5275631  67.9269409  33.3214927 111.1662579  68.5294771
  26.4493370 104.5774269  83.3339024  26.4888763 103.8432980  83.9468575
  25.5135250 104.7260571  83.1982613  86.0544968  20.1045513  93.1965446
  86.0760307  19.3728185  92.5798321  86.9736958  20.2650619  93.4099388
  73.9776754   2.4313337  72.8730249  73.1598043   2.7673733  72.5064182
  73.7472343   2.1563926  73.7604570  50.7506752 112.1780491  52.2874546
  50.4966211 111.6684532  53.0568695  51.4851141 112.7139282  52.5869083
  73.9594221  15.5293071  94.3812656  74.6047354  15.8294833  93.7411880
  73.1324530  15.5159032  93.8994217  78.3541203  24.2543864  52.4831581
  77.4716711  23.8837862  52.4701214  78.2235956  25.1893640  52.3249960
  62.6083183  31.6406488  55.6194162  62.0177650  31.9400740  54.9281693
  62.4069881  32.2036004  56.3669348  99.2339325  14.2546463  44.3336868
  98.4052086  14.2883182  44.8114967  99.5959377  15.1365805  44.4195843
  69.2714548   7.4717420  66.7599297  69.9284124   8.0471480  67.1517754
  69.7350740   7.0273423  66.0501432  51.7089939 108.8331127  70.4205704
  52.3031139 108.8776112  69.6713877  50.9605455 109.3723488  70.1650810
  87.2639370  16.4288700  86.6645050  86.6081524  17.0648742  86.3786983
  87.7921581  16.2622356  85.8838272  99.9685860  26.6235828  80.1169682
 100.2239513  27.5063515  79.8491144 100.3759861  26.5064287  80.9751797
  76.4426994  32.0288658  66.7494869  76.1491203  32.0270300  67.6605511
  77.0758104  31.3126349  66.7004156  11.5031314  75.4245186  20.3980207
  10.5977786  75.5247259  20.6921744  11.5689135  75.9899378  19.6284723
  29.9407434 101.0224915  61.3722086  29.1755700 101.5969181  61.4001703
  30.6093192 101.4895821  61.8732786  55.5874634 101.7652225  76.6319942
  55.8152199 102.3254585  75.8900356  55.9283113 100.9028721  76.3944817
  99.2098331   6.6114205  65.8616638  99.4250488   6.6234410  66.7942810
  98.5144520   7.2624904  65.7679224  92.9083157  42.7410316  76.0124588
  93.1278419  42.5218534  76.9180012  92.9319668  43.6975479  75.9850693
  84.0255165  44.9989843  69.4412994  84.1604233  44.0704584  69.6306753
  84.6126747  45.1815891  68.7077188  43.4662962 108.7699509  73.2817125
  43.6067247 107.9557800  73.7650681  42.9541826 109.3168640  73.8774157
  80.1209927  32.6397848  65.2103472  80.6903934  32.2536159  65.8758497
  79.8430872  31.8978930  64.6731377 101.0421562  26.5664673  63.9226341
 101.8197632  26.1127830  63.5974598 101.0795593  27.4302697  63.5119295
  91.2340355   9.5086110  76.3584518  90.4647923   9.5601988  75.7911491
  91.6868401   8.7138778  76.0763216  57.8572512   6.3848096  65.5411100
  58.4484816   7.0673674  65.8585978  58.0355263   5.6321973  66.1050510
   7.7696520  50.0804424   7.6735902   7.0224905  50.5082607   8.0918652
   7.4577737  49.1985989   7.4703395   8.6819571  93.9089870  58.3045816
   8.4793144  94.8274326  58.4823990   7.8525561  93.4503841  58.4387922
  24.9811053  74.5804739  -0.0259301  24.2692327  74.0463734  -0.3783641
  24.8791909  74.5188379   0.9238314  50.6814051 102.5232124  59.9862051
  51.1366177 102.5439739  59.1444302  51.1042976 101.8135738  60.4697466
  93.8680172   8.1963307  73.2035875  94.6909714   8.1000656  72.7243185
  93.9238453   7.5502032  73.9075994  85.1438236  26.4782953  85.4365253
  85.6267548  26.0418558  86.1383343  84.2793846  26.6486406  85.8106422
 102.4398613  34.6934319  54.7520590 103.3220100  35.0649142  54.7445869
 102.0123100  35.0761533  53.9859295  78.0671120  28.6268115  80.8852768
  77.3429298  29.2110395  81.1099339  78.8273716  29.2040467  80.8143520
  19.8592269 111.2555027  60.3206348  19.9483681 111.4264202  61.2582254
  19.4410539 110.3958130  60.2725840  29.3680239 105.2855015  83.3484650
  29.9737763 104.5921135  83.6102200  28.5149908 104.8536682  83.3027840
  45.6589890 108.1405544  67.8298187  45.6402731 107.4761963  68.5186672
  46.2132025 107.7622509  67.1472025 101.7238903   6.4553839  72.3466396
 101.4655304   7.2096002  71.8168879 101.6635609   6.7654145  73.2502270
  81.1285591   6.9894207  71.5478945  81.4157581   7.7332544  72.0774794
  81.5184689   6.2266302  71.9749165 102.7927876   1.6393451  75.9456205
 102.6086903   1.0853528  76.7041922 103.4675121   2.2461133  76.2502718
 107.1029758  16.6659915  70.7846928 107.1848965  17.2195685  71.5612698
 106.2474442  16.8911731  70.4191971  83.8050270  28.4876132  78.3714962
  83.8855553  27.5343728  78.4043884  84.3532181  28.7488985  77.6315975
  28.5827780  98.7808418  60.2218676  28.2722187  99.1754341  61.0367823
  29.4252849  99.2040825  60.0566769  57.6273298  94.7934914  90.1227474
  57.6523018  95.3763485  90.8816242  57.0067263  95.2075481  89.5230484
  82.8837776  25.7278395  76.2032890  82.6098824  25.0684953  75.5657291
  82.4257660  26.5246010  75.9356546  79.2145252  29.9457788  86.9758701
  78.2611227  29.9795079  86.8976593  79.4914675  30.8606696  86.9257832
 112.5735474  19.8757339  71.4498138 112.0081711  20.1385951  72.1760893
 112.5098515  20.5968404  70.8235741  87.9812908  22.1366358  70.3089571
  88.3621502  21.2600851  70.3622055  87.3480511  22.0795798  69.5934296
  74.9239779  14.5367134  60.7038307  74.6939802  13.6708963  61.0410166
  75.6026936  14.8533511  61.2999153  79.2445850  21.8418097  41.0597420
  80.1405430  21.6016316  41.2959623  79.2651987  22.7955174  40.9807014
  94.7267246  34.3381929  62.5291204  94.7723007  35.2684236  62.7500868
  95.5479622  33.9732242  62.8586531  72.0681143   9.6609801  82.5667381
  72.3708200  10.3973377  83.0981350  71.3409662  10.0170326  82.0561409
  77.1861410   8.2534927  56.6274929  76.6841507   8.9920437  56.2828493
  76.7481089   8.0283558  57.4482679  51.6838026  94.0692234  52.3434687
  52.2089958  94.8298931  52.5920248  50.9587002  94.4341946  51.8362665
  91.2698460  20.2924752  79.2464685  91.5297794  20.1462746  80.1560211
  90.6475449  19.5896673  79.0592861 118.8276577  75.8250618   4.7662735
 119.0526676  76.7436886   4.6188775 118.6098099  75.4893351   3.8967544
  95.0609684  14.5544541  78.2360888  94.5839500  13.7833929  77.9292488
  94.4460583  15.0004160  78.8185310  94.4689465  16.3240480  69.8592329
  95.1119614  16.2077713  70.5586958  94.0455246  17.1588194  70.0594854
  45.8651686 107.4853706  79.6222448  46.7601252 107.2274113  79.4014645
  45.7314014 107.1509743  80.5091095  53.1584120  12.8850043  76.2513304
  53.1367207  13.7311018  76.6984129  53.9817190  12.4862552  76.5331078
  31.1345720 112.4273109  73.0231762  31.4028883 112.1105862  72.1606636
  30.5306077 111.7588234  73.3465672  63.1904173   0.0874988  77.9641533
  62.4183178   0.6233514  78.1456757  63.2815170   0.1135888  77.0116520
  92.2159195  19.3204701  60.9485197  92.9505730  19.9278915  60.8615255
  92.5813961  18.5675418  61.4130211  90.3723717   4.0990865  70.3574038
  90.5490017   3.5571247  69.5884371  91.0400295   3.8391078  70.9921312
  73.1606865  26.1047459  75.5282593  72.9772377  26.9837141  75.8599091
  72.8477049  26.1198664  74.6237993  34.9788094 105.8455181  75.1707935
  35.2055931 106.7525387  74.9655437  35.1253033 105.7694817  76.1136532
  53.7163162   9.4339240  56.2661552  53.0094624   9.0592015  56.7916775
  53.3362150   9.5396638  55.3940439  57.6409531 101.4964581  72.8136539
  58.4011459 102.0090389  73.0885983  57.9957342 100.6301594  72.6139259
  56.3738394 112.2800350  73.2896471  55.6122971 111.7143631  73.4173012
  56.0364342 113.0285072  72.7975273  97.2219086  41.6002464  79.7398376
  96.6643620  40.8434868  79.5590639  97.6427269  41.3937950  80.5744171
  83.2217121  52.4560118  84.6555424  84.1664505  52.4025965  84.7999477
  82.8460598  52.4829245  85.5355453  97.5741196  21.6268110  69.4508648
  98.2132435  21.7210460  68.7445498  96.9580173  20.9682131  69.1300869
 102.4372387  24.9519658  76.5046740 102.0969772  24.5909405  75.6860685
 101.9273758  25.7498717  76.6447639 119.0764236  40.7164860  91.7297363
 118.4509754  40.0074911  91.8793011 118.6425018  41.4958668  92.0768738
  99.0788419   0.0321746  52.5334406  99.6858222  -0.2215696  51.8381500
  99.6291596   0.4667449  53.1849957  88.0413151  22.5474882  78.8634920
  88.8046169  22.8121305  79.3768787  87.3295879  23.0968523  79.1919374
  81.0642242  13.2922041  93.2214737  80.4315662  13.7872875  93.7419319
  81.6586018  12.9099572  93.8670921  74.6894217  10.8895564  58.8359833
  75.3808355  11.5454054  58.9256430  74.7500658  10.6005394  57.9254770
  49.8187923 109.6648598  50.7179403  49.2011213 109.7420788  51.4450932
  50.3398180 110.4667282  50.7600784  78.0165768  43.6679220  66.4488983
  77.4003267  43.0336142  66.8151188  78.5860729  43.8996410  67.1825266
 115.9506702  19.2299557  77.2872734 115.1620579  18.9630318  77.7595949
 116.5396881  19.5541871  77.9685688  88.1360626  15.0355935  96.1575699
  88.8065243  15.6856632  95.9475231  88.5283756  14.1983128  95.9100151
  94.2537022  26.6248155  72.1080351  94.0256500  27.3419213  72.6996279
  94.9523544  26.9804096  71.5587902 107.7707291  10.5060148  86.3153839
 107.8997612  11.0155296  87.1153736 107.8754425   9.5955878  86.5917683
 109.9483585  17.1961701  73.3418179 109.8377514  17.5079811  72.4436140
 110.8273983  16.8176425  73.3574104  76.5285301  20.3277135  62.5496244
  76.3667345  20.9226942  63.2817793  76.2145376  20.8033442  61.7805862
 103.8698101  17.2567058  86.9734192 104.8162174  17.3092973  86.8400478
 103.5081768  17.1687019  86.0915470  80.1055241   5.8561593  81.9167614
  80.0281715   6.6491312  82.4472713  79.3355846   5.8722699  81.3482761
 112.6019382   6.1701751  70.2656889 112.8851891   5.7613850  69.4478321
 112.1848297   5.4615760  70.7557249  82.0582008  36.2049770  84.5710278
  82.1524429  35.5535746  85.2660275  81.1324406  36.1666369  84.3307590
  83.5871887  36.9856095  60.9158278  84.0116024  36.7290735  60.0971127
  82.9655838  36.2800264  61.0947084  95.4916286  23.3452582  82.3417664
  95.4303741  22.5284243  81.8465233  94.9164581  23.2122302  83.0952358
  48.8472271 100.5835342  40.8288479  49.2595768  99.9140167  40.2830029
  48.8779497 100.2225494  41.7148399  56.5964413 102.4682522  43.2084131
  56.1482430 102.8072643  43.9832830  57.4406576 102.9193783  43.2034826
  94.5647144  48.2379341  76.7763472  94.2478180  49.1291380  76.6294765
  93.7890625  47.7506495  77.0541000 109.5048904  12.7406001  84.7608185
 109.7762108  13.4494317  85.3440571 109.1191864  12.0858705  85.3428745
   3.9860851  23.8394666  84.4871426   3.1172290  23.8469911  84.8887157
   3.9757809  24.5794702  83.8800812 105.6768227  22.9639816  76.1299706
 105.3689957  22.5769544  75.3104067 105.4863453  23.8977432  76.0402918
 108.0682755  30.1085258  75.9462023 108.0573559  30.9203815  75.4392481
 108.8058472  29.6134305  75.5896854  37.0551324  88.6868000   5.3952241
  36.7821312  89.0756321   6.2261975  36.4003134  88.9857769   4.7643062
 104.5307732  22.8279376  63.5013199 104.9042130  22.3957801  64.2694426
 104.9044514  23.7090468  63.5169077 102.4479961  31.8531156  78.5394239
 101.6131592  31.8790507  78.0718708 103.1050205  32.0311594  77.8664875
 105.2933311  24.9296474  48.3142138 105.8072090  24.1239977  48.2586336
 105.2839470  25.2699518  47.4196005  65.0466394  33.2970977  60.0883198
  64.2213631  33.1626725  59.6224117  65.4608202  32.4341750  60.0957155
  80.8465576  27.4969029  55.9199858  81.1173058  27.7874756  55.0490665
  81.6676235  27.3285890  56.3823175  66.7030621  16.7408991  76.1343479
  66.8463182  16.6601050  75.1913834  67.0566273  15.9303117  76.5006447
  83.2311153  49.8572206  74.2790413  82.8789043  49.1766262  73.7054920
  82.5464153  50.5255699  74.3061543 103.7225056 103.3926392  85.8119678
 104.0794182 103.6487293  84.9615192 103.3130836 104.1892719  86.1495972
  75.6100464  25.4883981  61.3049459  76.1111403  26.1681199  60.8542681
  76.2730837  24.9426770  61.7277908 103.9789486  29.0843511  94.0709496
 104.1975498  29.9032450  94.5157623 103.7913132  28.4693241  94.7800064
  80.2611256  37.9950428  70.1976776  79.6260595  38.5308790  69.7224855
  80.2491283  38.3435154  71.0891151  91.4757156  19.2102325  64.7715044
  92.1778965  19.0803909  64.1340780  90.7249641  19.4892120  64.2473173
  78.6259508  32.1434522  73.6394358  79.3671751  32.6745510  73.9305592
  78.2336569  31.8156815  74.4486952  10.2422047  51.2767553   7.4841291
   9.3933320  50.8996868   7.7153629  10.8512115  50.5394745   7.5261080
  84.0219116  32.2718501  81.4471245  83.7946796  31.3763738  81.1966801
  84.7634888  32.1727157  82.0441723  84.7392941  23.7250471  61.6852140
  84.5957088  23.3821368  62.5672770  84.8556995  24.6668601  61.8103886
  81.0592079   4.2879155  89.8457146  81.8447590   4.5721453  90.3129959
  81.3290405   3.4937215  89.3845463  92.0098686  30.6130266  83.2520771
  92.3238564  30.7773471  84.1412640  92.5240612  31.2051582  82.7032471
 109.4630718  40.0150347  62.3334026 108.8006592  39.4739437  61.9036865
 110.2970695  39.6757889  62.0084667  90.4327774  35.5494428  87.4395847
  90.1508331  36.4511776  87.5932693  91.3570786  35.6246161  87.2024155
 105.2344608  53.8854933  83.2122326 105.8480358  53.2505369  82.8426552
 105.0447941  54.4838905  82.4896145   1.2175387  37.9413414  89.0542698
   1.6300702  37.1061993  88.8338470   0.7644913  37.7739501  89.8806858
   6.7824936  20.4822755  86.6181755   7.0307606  20.5408955  87.5407600
   6.0419846  21.0824800  86.5308189 103.1133652   4.5696902  70.6994772
 103.3472729   3.9634603  71.4023304 102.6007843   5.2522570  71.1326075
  67.4381781  38.0472732  66.7788172  67.4785233  37.1350193  67.0658636
  67.9733801  38.5222912  67.4145412  95.7048607   5.2199107  86.8035126
  96.6204166   5.2581787  86.5268898  95.7436371   5.2147198  87.7599144
   2.8712651  22.3009348  74.8176622   2.7155519  22.9310250  74.1141176
   2.2838157  22.5772953  75.5210543  79.1775751  35.5475426  86.0449600
  79.3100214  36.4681149  85.8185959  79.0541697  35.1092291  85.2030087
 105.0275707  27.2577119  49.9464417 105.8848476  27.2666240  50.3721476
 104.8606586  26.3331246  49.7633886  84.6588898  21.4646792  84.5090675
  84.3158627  22.0105433  83.8015366  84.7235775  22.0566702  85.2584553
  91.1963940  14.0723193  88.6570263  92.0588017  14.2266262  88.2714462
  90.5808735  14.2487931  87.9455376 103.2545185  44.9420023  68.4499550
 103.8647461  45.2856398  69.1024590 102.3913288  45.0488615  68.8495922
  95.3774452  20.6918383  75.6536341  95.5066872  20.7360196  76.6010380
  95.0118637  21.5455317  75.4217052 103.2704639  38.8182783  91.2231827
 103.5681534  38.1167674  91.8023968 103.0592060  38.3764005  90.4007721
 102.1274567  33.4754276  80.7027817 101.2110996  33.7479877  80.7500362
 102.1347523  32.7711987  80.0545216 104.1497898  22.4282718  74.0008259
 103.6977768  21.6527820  73.6683559 103.9297199  23.1197786  73.3766270
  68.3443165   3.0837268  60.4497099  68.9992332   3.2454151  59.7706079
  68.2146072   3.9362419  60.8651876 108.2694912  23.7028909  73.8129091
 108.1943226  23.5159302  74.7486591 108.4165573  22.8477049  73.4088564
  15.4396355   3.2331145  76.2773705  14.6706796   3.3578652  75.7211542
  16.1382794   3.7115192  75.8309889 108.0179501  23.4623694  51.3361788
 107.2008514  23.9101601  51.5554094 108.3753109  23.1888700  52.1810007
  83.5415745  19.3779910  54.5742273  83.5715485  20.1804304  55.0952101
  82.6093769  19.2312169  54.4138765 116.7222214  20.2184129  79.6301603
 116.7931938  21.0785246  80.0441647 116.2534428  19.6825790  80.2699757
  95.6968498  37.9056406  58.1540823  94.7404575  37.8702211  58.1370068
  95.9392071  37.4467349  58.9583826 104.4834042  58.3848047  74.7013807
 104.1054726  59.1913986  75.0518084 103.9227962  58.1605816  73.9586353
 104.8021030  23.8642716  51.2664270 104.5728397  23.8166928  50.3383064
 104.0349579  23.5160327  51.7207956  61.3340855 109.4883633  62.0622253
  61.9168520 110.0968552  61.6079521  61.9150591 108.8055420  62.3975706
 104.7004223  43.0425167  59.3568945 104.5351887  43.7356758  58.7177849
 104.3880558  42.2443724  58.9307308  65.9892416 109.8626423  78.8245344
  66.3702536 108.9872265  78.8931799  65.6496048 109.9066067  77.9306984
 112.2166252  46.9324636  76.1658430 111.5771389  46.2204266  76.1485910
 112.2149277  47.2339535  77.0743227  93.5885715  28.0635500  45.2652740
  92.8532410  28.6396098  45.4742432  94.2421532  28.6422777  44.8726749
 107.6297188   2.5398144  71.3051605 106.9670582   2.0620865  71.8040371
 108.4634686   2.2492908  71.6748762  82.6675510  46.3684034  82.4266052
  83.2512760  47.1210241  82.5218010  83.0583763  45.8495998  81.7235184
  14.5990372   3.6466956  70.5730772  13.8751125   4.0194428  71.0762930
  14.2351997   3.5048127  69.6991682  87.2299385  58.1904602  84.7750854
  87.4448395  57.6420450  85.5296040  86.3967609  58.6007833  85.0067806
  91.1655045  48.9142799  62.3281431  90.2955818  48.5660696  62.5236225
  91.7472267  48.4626102  62.9395628 101.7595387  23.6513877  63.6669111
 101.4072514  23.6807847  62.7773762 102.7053070  23.5651898  63.5472441
  85.5907822  11.7017126  93.3555889  86.5046787  11.7891455  93.0846691
  85.5076790  10.7873881  93.6263943  96.7598820  33.6432648  57.1999454
  97.3114491  34.0228844  57.8839779  97.2696209  32.9066873  56.8625355
   6.2141418  20.2703571  80.8723259   5.8929545  20.7649755  81.6262627
   5.5267072  20.3653669  80.2130604  76.8493605  17.6373672  67.0784616
  76.9410133  16.6966629  66.9271088  76.3180065  17.7016318  67.8720379
  97.7307320  24.1879654  73.1708479  97.2909641  24.4172883  73.9895344
  97.7395725  23.2308316  73.1636667  69.1296482 110.4999447  74.0070581
  69.4691610 110.5990982  74.8965120  68.9822149 109.5591068  73.9104700
 113.2906437  36.3749957  81.5170097 112.4576855  36.0446882  81.1804008
 113.0424881  37.0283175  82.1710873  96.5099239  25.7007003  43.3599949
  96.4032364  26.5495777  42.9307461  96.1450672  25.8276272  44.2357826
 110.9695721  16.4083731  93.1252670 110.6312370  15.5248618  92.9797745
 111.2929344  16.3956869  94.0261078 102.0219135  19.2321241  80.0408554
 101.8338966  19.2122030  79.1025162 101.3520622  19.8095059  80.4071426
  99.0837955  12.6378715  65.4194927  98.7493610  13.0676937  64.6323204
  99.6193886  13.3056426  65.8478165 110.3568268  29.2062473  89.1200256
 109.8506165  28.6250782  89.6876812 111.2670708  29.0586233  89.3767262
  32.5290346  68.8545418   2.7162361  32.3286319  69.3280792   1.9088751
  31.9342327  69.2277527   3.3667392  86.8509483  15.3730881  65.8104515
  86.2230873  16.0916662  65.8857298  87.6448154  15.7835984  65.4677010
  95.0070667  17.1243727  81.0544968  95.7153606  16.4830923  80.9969521
  94.7597408  17.2903395  80.1448250  70.4922676  29.7415185  57.4882603
  71.2643766  30.1750350  57.1247387  70.7559824  29.4836688  58.3715487
  30.3707504  90.7190609   0.1091231  30.3561568  89.9409199   0.6663582
  30.8839011  91.3581467   0.6035740  92.7468300  12.8286970  78.7267923
  92.4635887  13.2190573  79.5536089  92.3524570  11.9565153  78.7261868
  92.0931721  43.5104513  80.9103870  91.5961552  44.1641951  81.4021492
  91.7014599  43.5189104  80.0370407  64.2001867  22.8108096  75.4802418
  64.2294073  21.8561220  75.4174137  64.6600723  23.0113792  76.2954187
  71.5234518  18.6684191  56.3957548  70.5804062  18.7655044  56.5279198
  71.8596792  18.4062743  57.2527599  95.0760078   5.0418091  56.7813349
  94.5091724   5.6809920  57.2130442  95.6358337   5.5662704  56.2088299
  99.4398117  11.0719728  71.3367748  99.9320126  11.7062473  70.8155584
  98.8487530  11.6056347  71.8678904 113.6794853  26.9392419  72.1745443
 114.5912647  26.8055987  72.4334431 113.2130146  27.0711398  72.9999113
 105.4785824   8.7770563  31.1887240 105.1686287   9.5084119  31.7228365
 105.9965134   9.1884100  30.4967880  90.7703018  17.0386469  57.8613615
  90.1265907  16.7190731  58.4936190  90.7926750  17.9854739  58.0001116
  95.1594734  15.0711739  41.4483738  95.0324154  15.8282042  42.0202065
  94.5985222  15.2451193  40.6925249  95.3678226  14.5560169  95.9544945
  96.0807323  14.0485883  95.5665398  95.5139637  15.4498839  95.6448555
 100.3011799  38.8940406  75.0761318  99.4540310  39.2891049  74.8699951
 100.7477570  39.5503831  75.6109381  90.3309441  12.0671535  75.3221560
  90.5690956  12.9196310  74.9577427  91.1685658  11.6311181  75.4786587
  53.1083012 103.0490685  69.9508953  53.0235910 102.4196815  70.6670809
  52.3504734 102.8787899  69.3914938  88.2759762  22.6288390  46.8620300
  87.4506283  22.5743961  46.3803005  88.8810349  23.0527353  46.2533855
  90.4978275  44.4595623  78.3649921  89.7834396  43.8303566  78.4649086
  90.5232048  44.6460915  77.4264812  95.8679199  20.7834697  89.1779232
  95.1611614  20.1623893  89.0018845  95.4572296  21.4715338  89.7015095
  86.6305351  19.5504713  78.8250971  87.0152664  19.8976624  79.6298742
  87.2731304  18.9166093  78.5064745  82.5001907  35.8307815  39.1856861
  81.7220879  35.2759337  39.1316462  82.5662804  36.2355375  38.3207941
  55.4370546 108.2712555  66.6803026  56.2822962 108.4984779  66.2927866
  55.1898813 109.0451145  67.1865416  80.9729862  33.5716438  74.8175478
  81.1839676  33.0157733  75.5676985  80.3620052  34.2213202  75.1651812
  98.8991070  18.4381425  93.1345654  98.1578732  17.9494405  92.7768421
  99.1917515  17.9164183  93.8818264 118.2996941  48.6641455  15.9028435
 118.9140701  47.9518604  15.7255781 118.2264233  48.6853504  16.8569994
  12.9867351  84.2746830   2.0300084  13.0309176  83.6572552   1.2999019
  12.2199249  84.8153210   1.8404111  81.0438251  29.3514872  47.2415781
  81.8194962  28.8173723  47.4127150  80.3328419  28.8910270  47.6873446
 111.7110443  50.9211969  63.0059624 112.2103596  51.7252970  62.8633738
 110.8546734  51.2217903  63.3101130  65.5241632  35.4016161  76.5914679
  64.6028996  35.6213570  76.7300940  65.5444717  34.9877763  75.7285929
  97.0223141  52.9832268  67.6432896  96.7183781  53.7197542  68.1737423
  96.2747765  52.7640724  67.0870638  71.7321205  11.5928733  58.4552479
  72.1686745  12.4172950  58.2408190  72.3014212  11.1826634  59.1062927
  90.8346939  26.2648416  69.9928999  91.0331631  26.2816501  70.9291506
  90.4059219  25.4203820  69.8540831 103.4434128  42.1503162  68.1082916
 103.1235027  41.7699957  68.9263630 103.4102249  43.0956888  68.2545710
 112.1018219  15.3711534  52.0313644 111.6184902  16.1729813  51.8321323
 111.5268326  14.6652269  51.7359066 114.2375374  20.1851821  56.9937944
 114.2636776  21.0618567  57.3771906 113.6226845  20.2611041  56.2641287
 106.9417858  13.5847664  92.3051929 107.2467136  14.0254736  93.0983067
 106.7889404  14.2939925  91.6807938  69.0232944   9.6326208  72.2655296
  68.9319754  10.3560591  72.8856325  69.7585487   9.1202480  72.6018476
 108.8281822  24.9016070  80.4189587 109.0005493  25.8255672  80.6001186
 108.5247898  24.8880625  79.5112085  83.1805325   9.3989521  68.1377172
  83.1050396  10.2759576  67.7616978  83.1365585   8.8105834  67.3839808
  95.3729343  31.5418100  41.8851900  95.7051754  31.5047669  42.7821159
  94.4652748  31.2456560  41.9535637 112.6111221  24.9002671  71.1601353
 111.8005085  25.0175095  71.6555023 113.1660557  25.6311059  71.4324427
  73.9945841  15.8561170  56.8566418  74.8618746  16.1335754  57.1516848
  73.3873606  16.4258754  57.3287535  91.1231709   4.8324722  44.9904108
  91.9231987   4.6516454  44.4969702  91.2783051   4.4410050  45.8500147
  71.1226463  25.4492164  93.0719185  70.3923798  24.8304009  93.0688858
  71.7719412  25.0563264  92.4885750  45.5805445 111.2951279  56.5416241
  45.3849697 110.3633976  56.4423084  44.7225618 111.7189312  56.5637159
  91.6985130  20.9648776  89.9052048  91.4713860  21.8883276  90.0142193
  91.3886738  20.5456352  90.7079983 115.5444145  15.6929994  74.5277262
 115.3753662  15.0282550  75.1953840 115.5212307  15.2125752  73.7001467
  98.1161594  19.0726340  89.2755890  97.3115921  19.5605624  89.0999985
  98.4469509  18.8363588  88.4089947  98.1670380   8.3645827  89.1285038
  98.2979298   9.3123329  89.0990067  98.9477348   8.0018401  88.7099934
 104.0905762  45.4459906  73.7705421 103.3594990  45.9355879  73.3936405
 104.2962360  44.7798824  73.1146193 101.1339283  22.3849416  78.3969116
 100.5778217  22.9806447  78.8990164 101.4989567  22.9290295  77.6990891
  85.2796459  29.3925428  60.3152323  84.9695110  29.0540099  59.4753218
  86.1835384  29.0840626  60.3787661  95.1712990  36.4096522  88.6324978
  95.6974220  36.8817139  87.9870701  95.3319073  36.8706942  89.4558334
 109.2712307  30.6071472  95.2872944 109.9750519  30.7007003  94.6453285
 109.3442440  29.7029161  95.5926895  70.9549809  46.0378265  73.7329721
  70.1702690  45.5976486  74.0596247  71.2674952  45.4755402  73.0241728
 102.9137611  29.6511459  72.5660896 103.0830479  29.5146275  71.6339207
 103.2085705  28.8420558  72.9840565   0.4128766  37.7851915  85.8860111
   0.9126624  38.5682774  85.6553078  -0.4896244  38.0930185  85.9694767
 117.5928497  25.6077456  80.7763195 118.0646706  25.7075000  81.6031647
 116.6686916  25.6147051  81.0255623  39.6979380 110.8880138  43.1588554
  39.8271656 111.8342590  43.2232523  38.9601064 110.7068634  43.7411070
 113.7038326  22.5772429  81.9742107 113.6651802  22.3846936  81.0373783
 113.8990688  21.7345524  82.3840714  82.0884800  25.5268931  90.9524441
  81.2826157  25.5758452  90.4382133  82.6091385  26.2723160  90.6532955
 111.9672203  17.6915121  66.4027309 112.2768784  18.5745573  66.6041613
 111.8857193  17.6779974  65.4491043  24.6514773  77.4340725   3.9580560
  24.5503759  76.5047693   4.1640016  24.2379236  77.5357866   3.1008166
  18.8983583  38.8007593  81.3341331  17.9972148  38.5904074  81.5789223
  18.9982212  39.7255754  81.5599060  92.9733181  27.5808477  66.3423204
  92.1043587  27.6004720  66.7432690  93.5773945  27.5227499  67.0825577
  56.9247150 100.2963829  85.1210594  56.9777155 101.2502861  85.1801109
  56.0657167 100.0812721  85.4844856  34.9286461 110.7163620  59.7592640
  35.5434775 110.1311302  60.2016687  34.1752100 110.7615566  60.3479242
 111.9215012  23.1758976  85.6976128 111.5790749  23.8739324  85.1392937
 112.6255894  23.5911965  86.1956310  99.8104763  32.1949601  66.7890406
  99.9746704  33.1333375  66.6956711  99.1754436  32.1327543  67.5025511
 101.4794922   3.7935093  74.0361023 101.0181522   4.4746196  74.5254755
 101.2709713   2.9825041  74.4998074   5.0702542  20.6697893  78.5497141
   4.4144481  21.3655162  78.5956955   5.8402157  21.0912776  78.1679535
  86.5993595  13.4462869  42.9747486  85.8619022  14.0397525  43.1168127
  86.7781830  13.0753374  43.8388348 117.5570869   9.6650022  79.5627880
 116.6215897   9.7578728  79.3826103 117.8666401  10.5617619  79.6901655
  77.7991295  26.8637800  52.0356894  77.1786547  27.4521661  51.6055202
  78.2201481  27.4058771  52.7028465 114.3579292  30.2441549  72.4262285
 114.5977974  30.4271173  71.5178108 115.1949692  30.1371884  72.8780746
  80.3903961  25.9748411  59.3675756  79.6011734  26.3478255  58.9748383
  81.1068344  26.3057137  58.8258410   4.4668254  41.6885090  71.4315176
   5.0777769  41.8971825  72.1382189   4.8756191  42.0524549  70.6462383
   3.8478073  39.3662643  85.9715462   3.1927320  39.6553922  85.3363228
   4.6688038  39.3526244  85.4796028  83.0847931  60.2901602  75.5333662
  83.8938713  60.0888109  75.0631857  82.4557209  59.6422911  75.2159166
 111.3399982   9.7746897  64.3235445 112.1639538  10.1850832  64.0610266
 111.2813473   8.9874876  63.7821531  89.1868782  15.9190607  63.3885145
  89.9373436  15.7401776  62.8219128  88.8989544  16.7959976  63.1349182
  86.5601349  21.3092065  87.6745510  85.8389759  20.9014249  88.1540108
  86.4127636  22.2496867  87.7746201  71.3782167  35.2733946  43.8678503
  70.4822969  35.1680970  44.1879559  71.5037537  36.2208343  43.8146496
  46.2422276 104.6594524  69.2646933  47.0527458 105.0576591  69.5820475
  45.5631781 105.0032806  69.8451281  24.9722791  68.2351542   6.1428714
  25.1595855  69.0649939   6.5816271  25.1772738  68.3992863   5.2223992
  83.3556080  13.6882079  28.0122852  83.9620590  13.8441455  28.7362576
  83.3257389  12.7353859  27.9258657 113.0925560  29.0865564  89.8515987
 113.2250500  28.4514022  90.5553532 113.3677578  29.9223518  90.2283573
  27.4636197   1.6379750  64.3635845  27.6177669   1.4210147  65.2830410
  28.0846071   1.0920607  63.8813162  50.5166483  97.7885151  68.3227491
  50.1114321  96.9389057  68.4965420  50.1878452  98.0385494  67.4592686
  85.9189606  16.5367901  83.9131069  85.0624275  16.9351757  83.7586021
  86.4351654  16.7721784  83.1421566  89.8969078  44.6227026  75.6218386
  90.1371002  45.5456066  75.5394077  90.1531506  44.2329502  74.7859764
  97.8671837  32.2863197  74.7962618  98.6086845  32.0638013  74.2333174
  97.3005486  31.5156269  74.7617960   9.6618730  73.8376904  13.3640194
   9.1071099  74.4114494  13.8924825  10.4082441  74.3848896  13.1196117
 112.5888538  11.7302203  76.5249920 112.6792336  11.8502498  77.4703264
 113.4339428  11.3773727  76.2464857   8.9700001   6.7562938  71.9180727
   9.1092920   6.9715005  72.8403044   9.7552490   7.0786124  71.4756632
  15.2626288  19.6366394  85.5402660  14.3896914  19.2545033  85.6307411
  15.1008511  20.5545211  85.3222084   3.4602109  55.4020357  71.9527102
   3.4698573  56.2216616  72.4470329   4.2095572  54.9105930  72.2891521
  98.3125877  41.1348295  60.3717279  98.5292816  40.7475281  61.2198305
  98.7235832  40.5542183  59.7312546  11.3215172  12.7483737  84.7613239
  11.1757851  13.6070657  84.3642807  12.2498977  12.7467310  84.9944305
 105.5161762  21.9135189  40.3073359 105.2108574  22.6036334  40.8962011
 105.8458424  21.2296820  40.8903551 116.6568851  16.7121720  79.6504450
 116.9449997  16.8563306  78.7490892 117.4369049  16.3908672  80.1027393
 107.2072792  17.5812995  73.4021235 106.9905949  17.7639186  74.3164158
 108.1532097  17.4348938  73.4047985  77.5396824  31.1481690  76.2268305
  77.6952124  30.2039289  76.2481308  77.3870945  31.3864636  77.1412468
 109.4434547  18.3366024  76.3703680 109.4804096  18.2996571  75.4145956
 110.1655483  17.7788508  76.6597128  10.3505325  64.3779993  18.3954358
  10.1099885  63.7009573  19.0278769   9.5352209  64.8512268  18.2294369
 110.5408001  39.5260930  76.3819599 109.7829914  40.0773859  76.1869526
 111.2593937  40.1445866  76.5136194  85.9525013  31.0209799  29.4304824
  85.7970238  31.8533897  29.8767471  85.4929066  31.1074710  28.5953021
 103.3674526  33.4612823  67.2520494 103.5333252  33.2960391  66.3239241
 103.3144855  34.4146061  67.3198700  97.5306225  30.9413028  61.4160252
  97.1699619  31.1005926  60.5437946  98.0690765  30.1566577  61.3129282
  84.3387604  34.6750188  83.5800743  83.7259960  34.6697998  82.8447342
  84.0061283  35.3564644  84.1642094   0.6981944  29.3398094  68.5989618
   0.9459915  29.6450472  69.4716930   0.3629236  30.1206422  68.1583643
 109.5144653  55.4112101  70.1743889 110.2547169  55.0688267  70.6754208
 109.0822601  54.6326303  69.8233318 108.3045006  61.2027550  94.5341015
 107.7834606  60.5672789  95.0249386 107.7293777  61.9620609  94.4395733
 106.6729069  22.8167582  80.9166336 107.1801853  23.5921621  80.6765270
 106.3299274  22.4881363  80.0856113 110.7716656  34.0414214  88.4139824
 110.4512310  33.1394506  88.4144878 111.7134953  33.9609122  88.2632732
  20.0829458  39.2821884  63.7800646  19.5762813  38.4875822  63.9477587
  20.4137468  39.1716599  62.8886700 105.0803852  50.8137989  76.7660999
 104.9427032  51.6226721  76.2731504 105.8468056  50.4116774  76.3572836
   0.6619638  30.3223920  78.7481451   1.3060296  29.7664714  78.3095503
   1.1863412  30.9573698  79.2360592  89.4289780  18.6079693  51.1035061
  89.1067219  17.7070451  51.0766029  89.7681904  18.7145698  51.9922113
 101.1430550  10.9550476  69.1952658 100.8876133  10.3383040  68.5092545
 101.9382668  11.3696301  68.8606310 112.6078701  53.3456850  71.9033241
 112.1449184  52.5842237  72.2527361 113.0572510  53.7210274  72.6605558
 114.4958115  65.3277683  64.1641426 115.3732300  65.6325960  63.9329720
 114.1657829  65.9878969  64.7736883 103.1473637   2.2629137   4.1311198
 103.7366104   2.9958409   3.9526737 102.8810024   2.3860884   5.0422221
   8.0637646  48.7757206  79.0666723   8.6012053  49.5671844  79.0978622
   8.6068058  48.1354237  78.6069393  96.7330074  65.1618624  84.7704411
  96.4328480  66.0029173  85.1150703  97.5195122  64.9619675  85.2780628
 118.6705494  12.1970856  79.1200638 118.0627155  12.6665866  79.6913290
 119.4421196  12.7618265  79.0755606 111.9034290  26.6207457  61.4848852
 112.0882797  26.2831020  62.3612738 112.3951721  27.4404836  61.4353848
  84.2334270  19.3012393  65.0189114  83.3800983  19.0691197  64.6526051
  84.0321064  19.9169207  65.7236338  85.3491402  24.9313116  94.4809151
  86.1661816  24.9124932  94.9792290  84.7256374  25.3699970  95.0597382
 112.6677990  20.7558560  54.9911118 113.1522083  21.4888430  54.6112251
 112.0570469  21.1645746  55.6044340   4.4549036  56.2458467  66.9403172
   4.7016555  57.1212578  67.2386456   5.2741969  55.7509232  66.9464874
  96.4999390  25.4546428  90.0863647  95.5990982  25.1358986  90.0304031
  96.4497471  26.2137818  90.6672478 111.2615204  11.5943205  66.3770533
 111.4013004  10.7709742  65.9092951 110.9298801  12.1954179  65.7100201
   1.0411183  19.6597183  85.6358242   1.4867046  18.9381254  86.0796642
   0.1677711  19.3190837  85.4422665 114.8521805   2.7115661  80.3849697
 115.2914429   2.7839360  79.5375919 115.5635452   2.5911283  81.0139942
 104.2501640  60.1502132  46.6871786 104.5811272  60.3537655  47.5619745
 103.5211277  60.7572365  46.5596724   4.7096047  70.6515598  63.6657953
   4.8499289  71.4895201  63.2249260   4.5284313  70.8870316  64.5757198
 105.1497650  53.4891367  53.0470324 105.7601166  52.8401518  53.3970547
 104.4757748  53.5723495  53.7215996  98.0237865  39.0030193  90.3488445
  98.0319977  39.8978186  90.6886959  98.2638454  39.0948081  89.4267941
  15.7859337  66.5346861  56.4418459  15.2376628  66.0219526  55.8479309
  15.2501237  66.6449118  57.2273302   6.1303532  40.9729290  59.6412277
   6.7834163  41.4196491  60.1799107   5.2894866  41.2526989  60.0030327
 111.3396263  28.6335635  70.3596020 111.6103268  28.9135194  69.4852018
 110.6295013  28.0112052  70.2026892 112.3356915  61.7359829  63.8461828
 112.4880791  61.5600967  62.9177046 111.3949871  61.6037512  63.9637613
 100.9067822  25.6152105  82.9750824 100.7127953  24.7988749  83.4357262
 100.7757854  26.2982798  83.6327267  89.3911648  34.7009921  77.5884867
  88.4851074  34.7448707  77.2829247  89.3514633  34.9946594  78.4986591
 105.5815315  33.7649584  59.0982628 105.6307983  33.0131173  59.6886349
 104.7119713  33.7025666  58.7030363 118.2979679  45.2966881  58.2633781
 117.8578568  44.8985147  57.5123835 118.3784389  44.5852566  58.8986874
 107.4543858  42.8607178  84.6736526 107.9436207  42.2296476  85.2015018
 107.9418755  43.6792755  84.7661114 119.1266155  30.3172159  51.5454292
 118.8546181  30.0233698  50.6759977 118.3194733  30.6254196  51.9574594
 116.0031986  59.2088223  67.2934389 116.0464764  60.1398277  67.0753002
 116.7820930  59.0513992  67.8270817 106.2738895  33.3930612  65.8772516
 106.2607956  32.8821850  65.0678873 107.0720482  33.1122708  66.3248348
 118.2674217  58.5935354  52.9002666 118.0035305  57.6801491  52.7892780
 117.4497414  59.0595818  53.0746841  86.8036938  19.5741665  69.7235918
  86.7131996  19.2754865  70.6284857  87.3493862  18.9083791  69.3050480
  89.6901321  37.2651410  61.3137913  89.7629547  38.2188416  61.2765789
  88.9237976  37.1047473  61.8644667  12.7337956  79.2180490   7.0026219
  13.3334398  78.6795950   7.5190777  13.0009568  80.1184654   7.1872884
 104.1334057  63.9705181  67.8734684 103.2114315  63.7731647  67.7084208
 104.1389751  64.3843842  68.7365532  94.2221069  49.6965170  80.6543159
  93.5250282  49.0422964  80.6062698  94.6272945  49.5524263  81.5094757
 113.5409832  14.3209267  81.0337543 112.6985931  14.5299637  81.4373589
 114.0894222  14.0286255  81.7617702 112.8043842  49.3525553  85.1038742
 113.6970711  49.0118599  85.0466919 112.4405098  48.9405680  85.8875179
 103.2179642  39.0050912  71.9709873 102.7429390  38.4353995  72.5759935
 104.0845966  38.6055827  71.8963003  79.8949099  33.5920811  52.1768856
  80.7254410  33.8828516  51.8001747  79.8925209  33.9569306  53.0618191
  99.9528313  65.6729174  68.1450224 100.1927376  66.2160110  68.8958454
  99.1683388  65.2040195  68.4295082 102.4602604  45.1263428  81.9938755
 102.0105362  45.9712887  81.9999695 102.3859119  44.8089552  82.8938580
  12.1136355  26.9589233  78.6960125  13.0307209  27.2289848  78.6485624
  11.9655228  26.4706707  77.8861332 102.9196453  38.7127686  77.2460508
 103.7708378  39.1504359  77.2336483 102.2841072  39.4222736  77.1515417
  13.7876487  58.6248398  78.2339144  13.1846678  58.0219936  78.6689138
  13.7728620  58.3569288  77.3150921 106.1558533  26.5462828  84.0586662
 105.6918621  27.1524811  84.6361256 105.8670139  25.6783676  84.3406677
 102.9726219  23.0126023  43.5756063 102.7119064  23.2669187  42.6904058
 103.9260292  22.9390574  43.5326719 111.8345642  36.9321156  49.4704151
 111.9871140  36.0891747  49.8975086 111.5349483  37.5067854  50.1748419
  18.9187241  39.9465680  75.9695292  18.8084221  39.1578937  76.5006208
  18.2382679  39.8812294  75.2994967   5.4067492  17.7040660  77.6499224
   5.3322607  17.5752103  76.7043638   5.1827592  18.6249006  77.7845430
   3.6689934  52.6753521  75.8336782   3.3058637  53.3208990  76.4400148
   4.5023882  52.4184227  76.2282324 110.4999065  56.9324350  66.1053658
 111.0371971  56.9570255  65.3135729 111.1234570  57.0516777  66.8217468
 108.2900906  37.8912950  52.6095772 108.5223484  37.1405959  53.1561422
 108.5256481  37.6229572  51.7214680  94.1579342  37.5309753  54.4299603
  94.7733307  37.8708386  53.7803364  94.4809437  36.6522074  54.6291208
  90.2230740  45.2524900  46.0559654  90.7827282  45.1356316  46.8236685
  89.4045734  44.8133612  46.2871695 104.6133709  42.2236061  55.5864954
 105.2253723  41.5370464  55.3213024 104.0967560  41.8262386  56.2875223
   4.6001419  35.3539181  83.8604164   5.3125095  35.7378912  84.3716240
   3.8403973  35.3929162  84.4413662  27.0148849  45.0240707  42.8954220
  27.4302697  44.1762543  43.0531883  27.7335382  45.5966997  42.6273394
  83.6191940  13.8398683  60.3088856  83.7358093  12.9244244  60.0547266
  82.7470779  14.0684831  59.9873590   0.6259886  50.7039738  57.7819967
   1.1769719  50.6050587  57.0055532  -0.2600848  50.5161953  57.4724150
  99.2547417  11.0227883  54.2942524 100.0237179  10.8022225  53.7686396
  99.5817280  11.6379654  54.9506569 109.8354340  62.0624113  56.4051199
 109.3353176  62.6205587  57.0005894 110.0344467  61.2805080  56.9201517
  89.9594021  42.3698282  64.7460938  89.9836922  43.0616426  64.0850115
  90.3406715  42.7712297  65.5269575 119.2001057  60.7035589  72.2115612
 118.3360767  60.3023529  72.1181870 119.4575119  60.9287024  71.3175344
  11.5594220  20.0548124  68.5157204  11.6882443  19.8657978  69.4451904
  12.2381163  20.6962037  68.3054304  13.6435080  59.3016958   0.3971131
  14.5117009  59.7046661   0.4063197  13.4901237  59.0842390  -0.5223531
 110.3292561  27.6938367  54.5971966 109.5212173  27.8489971  54.1080809
 110.6325245  26.8382549  54.2934895 104.4996262  45.5812931  66.1011505
 103.8306141  45.6012869  65.4168558 104.0289211  45.3074837  66.8883657
   2.3981492  26.1162472  74.8928118   3.1541035  26.3550019  75.4292440
   2.7056760  26.2083817  73.9910507 104.4775772  73.2861853  71.6660881
 104.4130421  73.9798498  71.0096550 104.6310806  72.4894285  71.1582994
  38.3156133 109.8217678   3.4655029  38.9939022 109.2159081   3.1670278
  38.6905384 110.2373791   4.2419875  14.2105138  61.0197926  54.2293215
  13.3321583  61.0790300  53.8535357  14.2683864  61.7690134  54.8222399
  93.9843464  47.1735477  92.3102188  94.2269135  46.4975309  92.9429913
  93.3626556  46.7414188  91.7245579 112.3883820  53.0431318  89.2892170
 112.4985790  52.2166204  88.8191509 111.4426613  53.1241131  89.4128418
 118.6541176  35.4334307  72.2889137 119.5514488  35.2180839  72.0346451
 118.5272598  36.3313246  71.9824409   8.4353745  37.7765298  95.2234650
   7.8858501  38.3235073  95.7847786   9.3277234  37.9412675  95.5281067
  94.2185116  17.9565024  78.5960865  93.3188343  17.7094388  78.8100147
  94.2453003  17.9583812  77.6392603  99.1286469  34.3914318  83.1146622
  98.8283062  33.5018015  83.3006287  99.2222595  34.7976470  83.9763260
 110.1624298  11.2202060  52.4484444 110.8295345  10.7744062  51.9264603
 110.4924011  11.1773455  53.3459520   6.2402719  43.5010147  69.1720343
   6.9103658  42.8870821  69.4725275   6.4973432  43.7161970  68.2754612
   6.9353157  32.7423310  82.3628998   5.9959912  32.6226878  82.5028419
   6.9922018  33.3877110  81.6582775  37.1968961  45.7270765  93.4309769
  36.8570042  46.4892530  93.8997936  37.2682476  46.0174131  92.5216675
  22.1451545  60.9864330  89.7241688  21.9193077  61.8492794  90.0716114
  22.3029566  60.4493713  90.5006313  88.1171322  10.1252329  59.0600586
  88.3002472  10.3204727  58.1410456  88.0885887  10.9820354  59.4858599
 104.5180511  50.0836992  52.6965761 103.7493324  50.0279617  52.1289587
 104.2170048  49.7484636  53.5411024   9.7933137  55.7935381  30.8265948
  10.5470502  55.8754587  31.4108920   9.5673668  56.6954708  30.5992341
  75.4759789  48.7614536  65.0919580  74.5963573  48.8330221  64.7213221
  75.8717299  48.0231905  64.6287346 119.1906834  28.1327367  54.4222450
 118.3289433  27.9843330  54.0328789 119.0028858  28.4635568  55.3006077
 104.8818493  53.2259703  95.3932381 104.9324036  53.3814955  94.4501114
 103.9991570  53.5061979  95.6352139 103.0050087  45.6440639  88.6726189
 102.8706741  45.0816965  87.9097748 103.1691551  46.5121746  88.3042812
 100.1719570  27.0819426  90.3632736  99.5713329  26.8355298  89.6598816
 100.5989838  26.2621117  90.6117725 101.0846519  30.9653902  61.1582470
 101.2168980  31.3858199  60.3085518 100.4648781  30.2576876  60.9814262
 102.4219131  35.8982015  59.5153809 102.6907921  35.2702427  58.8448572
 102.4506760  35.4020739  60.3334618 115.9111309  35.4631853  79.6469259
 115.1843166  35.8999443  80.0910187 115.4900932  34.8449445  79.0496445
 104.8674011  63.8137674  46.7501068 105.2461243  64.1990232  45.9599304
 104.6396065  64.5652676  47.2974634  91.5321159  47.1506071  76.7050695
  91.4625072  47.2669792  75.7575226  90.8188915  47.6783752  77.0642328
   6.6216642  74.6050549  88.1703472   5.8734918  74.6984863  87.5806522
   7.2722489  75.2197742  87.8310871 106.6651630  58.5034657  71.7176008
 107.0645428  58.5147190  70.8477736 106.7548084  57.5966358  72.0106077
 115.4939938  56.7069006  63.6545086 115.2893448  55.9926701  63.0509901
 115.7467937  56.2687826  64.4671440 102.9186630  57.7715874  89.2930317
 103.7423611  58.1555414  89.5935726 102.3636246  57.7549410  90.0727081
  26.2553072  62.5293779  74.4235039  27.0243621  62.8758860  73.9710474
  26.0391212  63.1972456  75.0742292 101.5715981  50.1342297  79.5285606
 101.4776897  51.0862684  79.4964170 101.9791698  49.9054193  78.6932373
 105.8679771  39.9021983  62.4185324 106.0163307  39.0072727  62.1130323
 106.6970348  40.1577473  62.8229952  43.7063122 111.6964436   7.4348927
  44.0135765 112.0934391   6.6199011  43.1375599 112.3601437   7.8250766
  12.3998046  50.1070118  87.7673721  12.0903325  49.8987103  86.8858528
  12.4050236  49.2659616  88.2243538  11.5980947  55.3530502  63.6541605
  11.2917471  54.6759176  64.2573833  12.5145769  55.1308393  63.4900999
   9.1334158  33.0119371  73.7456322   8.2492179  32.7678943  74.0192556
   9.6310794  33.0632234  74.5616770 115.8604240  46.5940428  73.9249897
 116.1033916  46.4998627  73.0039406 116.5458584  46.1267185  74.4025040
 109.8668957  29.4917321  72.6716948 110.6541348  29.3656278  72.1419954
 110.1521301  29.3204141  73.5692072 116.6048336  26.3522458  73.1402445
 117.3157120  25.8817363  73.5755730 117.0204163  27.1372080  72.7833748
  99.1859245  34.1725349  46.6440439  98.9432621  34.5422125  47.4929762
 100.0898838  33.8798332  46.7598343 109.6201038  29.9467540  57.7889347
 108.7015152  30.2099895  57.7329540 109.8750401  29.7727895  56.8828583
  91.2667465  37.9885268  84.9684238  91.9518757  37.3638773  85.2064037
  91.4764309  38.7765336  85.4697227  86.0399437  68.4505749  85.3473282
  86.6850185  69.1566610  85.3866386  85.6960964  68.3903980  86.2386036
 107.4939346  33.5756874  84.6409702 107.9226398  33.4103608  83.8012600
 107.5767040  34.5205021  84.7702312 105.0321579  30.9780073  80.6148338
 104.8853302  30.2797246  81.2528515 104.3999004  30.8025050  79.9179220
  28.2178950  85.4200745  10.2232862  27.5114083  84.9149609   9.8208284
  28.2482576  85.1102734  11.1284566 103.0453682  35.9978175  66.6785097
 102.9043484  36.8910599  66.9922924 103.6219692  36.0982537  65.9210920
  98.6452198  18.2728875  70.3546524  98.4335423  17.9303288  69.4862747
  97.8029919  18.5517895  70.7139444 110.3839302  56.2302351  53.6414194
 109.8942184  55.4145050  53.5365725 110.1440144  56.7536020  52.8767252
 110.4102039  20.8276129  69.4241190 111.0828972  21.3352370  68.9702034
 109.7428226  21.4717722  69.6605253 106.9184780  55.8831930  79.0202999
 107.7828789  56.2749434  78.8955164 106.7001629  55.5079556  78.1672096
  11.6828895  94.8807907  12.5256503  11.7358732  94.0276432  12.9564202
  10.8259010  95.2240276  12.7786231  91.0493755  37.2706532  52.9563475
  90.8264732  37.9972863  52.3744965  91.6836548  37.6411533  53.5700703
 111.1647606  36.2397742  93.5003662 110.8031750  36.9665504  94.0076065
 110.4257393  35.6446433  93.3742905  89.3816090  28.3102322  59.2671347
  88.5933971  28.3665490  58.7269592  89.1916084  28.8614678  60.0262594
  18.1771743  44.6155405  76.0985088  17.5409842  44.2063189  75.5119658
  17.8343284  44.4499969  76.9767380 112.2020435  45.2196312  70.4619408
 111.6510010  46.0019875  70.4842997 112.6067448  45.1868677  71.3287640
 114.4389725  34.0033054  44.7579002 114.8905563  33.1594634  44.7730970
 114.8999023  34.5333743  45.4081345  85.8993053  43.4926414  63.0127525
  84.9625874  43.3267736  63.1188917  86.3242722  42.7561331  63.4522915
 100.5511951  32.3994660  71.6912842 101.3466835  32.2432637  72.2002363
 100.7427406  33.1878829  71.1834097 113.4687710  17.4608672  74.8848629
 113.5759735  18.2737255  74.3908978 114.2354202  16.9367623  74.6529198
  10.3113496  26.5032053  49.8533344  10.1296329  27.3352146  49.4163322
  10.8054519  26.7467332  50.6361437  87.9297352  39.3708801  65.7465649
  88.6240864  39.7234702  66.3031483  87.9874325  38.4225917  65.8634090
  96.5067482  29.1985369  64.7725677  95.8327675  29.8781967  64.7657394
  96.0527134  28.4080434  64.4806767  93.1468678  45.5581903  42.0598078
  92.7140808  45.0973749  42.7785444  92.8264713  46.4578390  42.1247149
  94.5642471  13.7251318  59.5309544  94.1205120  13.4069157  58.7447786
  94.1391659  14.5606935  59.7242832 112.5910187  26.4946723  85.5156422
 112.9467392  26.2650752  84.6571636 113.1316566  27.2273731  85.8107567
 108.6348057  28.9000058  85.6660271 109.3071365  28.3916306  85.2124310
 108.1735420  29.3642259  84.9674797 108.7317944  70.9077215  79.9213648
 108.2151794  71.6716814  80.1776886 108.0881214  70.2066898  79.8190308
  96.4077187  48.6448860  74.4869614  96.6559315  49.5672035  74.4241095
  96.3284969  48.4816790  75.4268122   4.1746882  43.5072851  52.8898096
   4.4917232  43.2387352  52.0274830   4.9455845  43.8700151  53.3261299
  90.9225368  50.9507942  57.1537161  91.3440514  50.6441641  57.9565430
  90.4637527  50.1818657  56.8153477  95.1646137  41.8065357  71.1383629
  95.5134201  42.5933504  70.7194519  95.9362221  41.3555431  71.4810705
 101.1926079  21.9436193  69.2432928 101.7886734  22.6371861  68.9606047
 100.5745602  21.8488312  68.5185480 102.3866177  28.7152004  62.1655941
 102.3334789  28.4549069  61.2459993 101.9479656  29.5652914  62.1996307
 104.9283791  35.0856519  91.0613537 105.0105095  35.6828570  90.3178310
 105.2021790  35.6051803  91.8172359  17.1201658  19.6052289  87.5230503
  16.3914883  19.6905887  86.9082546  16.7345309  19.1922402  88.2956791
 118.1991959  43.4078598  84.7324562 118.5848904  42.9950809  85.5051708
 118.0103207  42.6794195  84.1409111 115.1105595  46.2757969  83.1132698
 114.2860222  46.6906309  82.8597355 114.8653030  45.3821325  83.3529377
  96.8789101  44.7185421  72.5150394  96.9985008  44.2447710  71.6919518
  96.3138294  44.1503334  73.0385351 101.1474228  19.4385624  70.2532673
 100.9975529  20.3263807  69.9283791 100.2697563  19.0742850  70.3683281
 103.7286377  25.6199336  61.6457510 104.3049622  25.8005595  62.3883581
 104.2263031  25.9083605  60.8806515   6.8514860  47.3702955  81.2299252
   6.9319546  47.8480053  80.4043674   7.2134167  47.9648876  81.8869686
   0.2676562   9.2051172  50.9637070   0.6522444   8.8586879  51.7688847
   0.3047255   8.4741837  50.3467846 114.8379517  33.2815838  74.8099089
 115.0736141  34.1630697  74.5206308 114.0688992  33.0554414  74.2868042
 102.7827358  16.9453776  56.1410379 103.1239510  16.2028098  56.6394281
 103.1286716  16.8199956  55.2573872   5.7883412  42.3885441  57.3983145
   6.1131072  43.2654858  57.6026058   6.1210734  41.8386459  58.1076336
 114.2188931  74.8387718  69.4343710 113.9262867  75.6640577  69.0476990
 113.4174728  74.4299650  69.7612286 111.8057728  16.6557360  76.9560862
 112.2273922  16.7666531  76.1039352 112.4938107  16.8539381  77.5913477
  98.0069160  66.2360144  48.9389849  97.4062920  66.8858147  49.3040085
  97.4409580  65.6253624  48.4667253  98.8431015  44.1372737  97.2166266
  99.5967521  44.1317900  96.6265312  98.8390579  43.2637938  97.6080942
 108.6753082  45.5097675  82.1599865 109.0073872  45.2947998  83.0316257
 107.8585434  45.9810448  82.3243713 117.2486401  38.7229133  66.1066532
 117.7790928  39.4398880  66.4542055 117.3454380  38.0200601  66.7491913
  96.8046951  38.1750202  53.5660076  97.3080349  38.6409020  54.2337179
  97.1722031  38.4765816  52.7352047   9.8602736  31.4939690  64.9955416
   9.1752034  31.1821747  64.4041920  10.6438828  31.5455270  64.4482470
 111.6177082  43.7492275  52.6762438 111.5819073  43.3767653  51.7952108
 111.8939495  43.0212498  53.2329941  20.1579833  50.6052160  74.1709185
  20.4990363  50.5742073  75.0647640  19.6992552  49.7723722  74.0605736
 110.7990551  23.7270212  77.1763706 109.8981857  23.5651779  76.8962336
 110.9857178  23.0252123  77.7999496 107.7019024  42.6559258  65.1268005
 107.7727032  42.6223087  64.1728115 106.9129181  42.1520042  65.3263140
   5.9736365  46.5423393  74.8944235   5.7755810  46.6154671  73.9608002
   6.7412651  45.9717846  74.9324512  80.1322651  38.9512014  73.0177784
  80.4148006  39.1750860  73.9045048  79.9995995  39.7962141  72.5881481
  99.3674088  27.1736622  73.9825249  98.6980152  26.7612004  73.4366131
  98.8858414  27.8075600  74.5140362 106.8588257  40.6925440  41.9091272
 107.5526047  41.3517380  41.8899727 106.7213535  40.5164862  42.8398991
 102.0522118  15.9722281  52.9928112 102.4622059  15.9507155  52.1281338
 102.0514107  15.0592172  53.2802868   4.3349886  55.6996822  78.1847191
   5.2451360  55.9247828  77.9918623   4.1608119  56.1108494  79.0313864
 100.9540653  38.2505774  89.2766762 101.1611652  38.9354730  89.9124908
 100.4803562  38.7055063  88.5803509   1.6266231  33.7175179  84.3014908
   1.5878588  33.7416077  83.3453751   1.7842223  32.7970791  84.5116901
 117.3720360  20.7053781  59.1747189 117.6630878  20.3794456  58.3230782
 117.4013138  19.9388635  59.7472811 117.9759884  36.2994146  77.8701496
 117.6210403  36.0013103  77.0326662 117.2813892  36.1173677  78.5030937
  11.8599963  35.2423882  75.9033775  12.5668108  35.1235199  76.5378189
  11.3387215  34.4425964  75.9729052 101.4072609  53.5158396  78.7740421
 101.0872459  54.4131184  78.6807060 101.3788509  53.1579018  77.8867388
 107.4761105  64.6052504  74.4857311 106.6159916  64.5471621  74.9017429
 107.3878479  64.0947008  73.6808825 103.6419010  39.7619629  46.0329151
 103.0364323  39.6692061  45.2973652 103.0810642  39.7447705  46.8084192
   0.7214896  35.1821971  54.3386936   0.9849085  34.7603106  53.5208559
   1.4919922  35.6812906  54.6097326 102.1029949  51.6384840  68.0569553
 102.3760033  50.8327007  68.4956074 101.1653423  51.5219402  67.9037952
   3.4656346  28.1392622  69.7449350   3.2626432  29.0232110  70.0509691
   3.5189763  28.2217932  68.7927914  98.4022331  19.2722464  64.4716311
  97.5507927  19.5520890  64.1355324  98.9305878  20.0703764  64.4798136
  80.9056664  51.1254406  58.3598375  80.6841278  51.0199261  59.2850494
  80.3416824  51.8376017  58.0582142   9.8914868  25.7641244  84.2314625
   9.4297814  25.0018549  83.8821697  10.5795538  25.9419537  83.5902309
  15.8559132  35.1119471  59.7438288  16.8096995  35.1639390  59.8056507
  15.5547178  36.0001135  59.9353313  99.2179298  41.8389845  49.0032816
  99.1949368  41.2919188  49.7884083  98.6705112  41.3735104  48.3709097
 111.3784122  42.4663067  63.3431005 110.6995010  43.1246996  63.1953239
 112.1567249  42.8249598  62.9166937   5.6233376  17.2156930  74.8622036
   5.4127300  18.0474198  74.4378138   5.4522711  16.5545154  74.1915226
  70.8103561  26.3070416  80.1142979  70.1562595  26.0977721  80.7810783
  70.5165339  27.1390939  79.7433710   6.8942457  49.1652250  88.3347797
   7.4778247  49.1428995  89.0931797   7.2493023  49.8595381  87.7797127
  75.2419710  15.7761967  65.1638222  74.9675608  16.6635609  64.9324846
  74.4494724  15.2479100  65.0684929 113.6028576  70.9668064  74.2745113
 113.6775398  71.2797642  75.1760149 112.7701569  70.4952478  74.2528868
 101.1978054  49.2419386  90.7845974 100.5222702  48.8094521  90.2622509
 100.8096886  50.0817823  91.0300732  22.3038983  96.8093491   0.4398789
  23.0796504  96.2520790   0.5022131  21.9481158  96.6281700  -0.4300770
 115.6449795  50.6366444  79.6056890 115.3779984  49.7199440  79.5377588
 115.6557560  50.8138990  80.5462742  92.3167515  48.7191534  66.0262489
  93.1028748  48.5559464  65.5050945  91.6469193  48.1616306  65.6303596
  21.4538050  73.1652308  82.0562935  22.0606875  73.6721277  81.5168667
  20.5881071  73.4991169  81.8210983 108.2307625  14.4703531  60.1002693
 108.0670452  14.2908597  61.0261250 109.1668797  14.6651626  60.0559425
  69.5285988  21.9759870  33.4266615  69.5661354  22.2494149  32.5101137
  69.5446682  22.7950215  33.9217925 102.1393490  55.0299120  53.5468388
 101.6169357  55.3314686  54.2900658 102.1851444  54.0800524  53.6559629
   3.6164719  44.6235991  80.0734138   2.7427885  44.6343660  80.4643059
   4.1394386  44.0886354  80.6705379  90.0188255  47.8681660  91.5296364
  89.6054173  48.4054565  90.8538818  89.4407749  47.1106148  91.6202164
  30.0565743  51.0263443  91.7414379  30.3189445  51.4779758  92.5435734
  30.8316159  50.5276442  91.4829063 103.3815289  42.0027018  75.4203272
 103.7625599  42.7328396  75.9081221 103.7370968  42.0937538  74.5362949
  10.5398619  73.3096027  90.6670570  10.4287755  72.8942204  89.8118687
  11.1080587  74.0607882  90.4964638 101.7572498  54.7378206  60.5861473
 101.5254688  55.6520844  60.7493544 102.6377773  54.6453476  60.9499550
 105.0687027  68.2555437  74.4925690 105.7405758  67.9082632  75.0792646
 105.3711414  69.1379452  74.2777777  98.7497711  51.4217806  56.0333061
  98.1130314  51.6801071  56.6996908  98.8109398  52.1808958  55.4534435
 103.7717533  49.9837875  55.4356146 102.8925133  49.7370148  55.7224321
 104.0782738  50.5970573  56.1035776  95.6519794  66.1430073  72.1627235
  95.4931545  66.5631056  73.0080223  95.8655167  65.2361393  72.3823261
  10.2732325  51.9753408  73.0515671   9.5480424  52.4320507  72.6252460
  10.3081584  52.3502779  73.9315844  77.6677990  52.2217941  76.9768810
  78.6040974  52.0724630  77.1083260  77.4360561  52.8804111  77.6316690
  86.3048172  43.7809372  73.9443588  86.4523983  44.3516445  73.1902027
  85.4887581  44.0997410  74.3299103 107.5624657  61.8329382  46.3480282
 106.6482544  62.0132351  46.5669680 107.5199795  61.3435888  45.5264664
   3.5965490  74.0485334  48.8688612   4.4496459  73.6344004  48.7386656
   3.4431440  74.5398331  48.0618095  27.1489143  47.4024296  34.0090251
  27.4784279  48.1324577  34.5331526  26.7090011  46.8334579  34.6406722
 101.4596272  36.9331646  73.2927418 101.1675453  37.7228665  73.7480307
 100.6959629  36.3561130  73.3001757 102.2106552  60.4833412  57.2287893
 102.9661369  61.0707760  57.2087717 101.8521595  60.5841541  58.1105757
   6.7679560  41.9755173  36.7467332   6.7980647  41.4374352  37.5378036
   6.7896074  42.8765774  37.0689988 113.1443596  53.3163548  66.9593287
 113.3733845  53.4030581  67.8846741 113.9862633  53.2394934  66.5104055
 107.7369976  27.5163221  67.3568821 107.4958897  26.5928841  67.2836113
 107.0179653  27.9858661  66.9340754  17.9991162  74.4537354  61.3793087
  18.6839104  74.2833567  62.0260382  17.8595853  75.3997564  61.4217806
   0.7232285  17.1402204  89.2214584  -0.1783323  17.4418545  89.3329811
   0.6550398  16.3987160  88.6200047  93.4745884  61.4440727  47.1967649
  93.6511040  62.0532799  47.9136610  94.2969322  61.4040232  46.7085266
 105.4040909  62.4968290  52.1127605 105.4325581  63.0732346  51.3490963
 106.1406040  62.7803469  52.6544189   9.4665819  26.0158634  65.6181765
  10.4176521  25.9169745  65.6619835   9.2009932  25.4565334  64.8882103
 110.5010223  41.1083794  73.4635162 109.5680618  41.0213661  73.6591196
 110.8093071  40.2079630  73.3613062  87.4168682  66.8244791  76.0841751
  87.2305775  67.7427578  76.2798643  87.9521370  66.5266562  76.8197203
 112.6642227  76.1466455  77.2880220 112.4940014  75.2091646  77.1964359
 112.4625969  76.5119648  76.4265537 116.2124348  73.1249762  80.9602833
 115.5202675  73.4277391  81.5480423 116.8710899  73.8189650  80.9884071
   1.7448990  46.6309690  74.2981291   1.7291369  47.1982479  75.0689602
   1.5412258  47.2144365  73.5671568 114.8236179  54.3428659  56.6126585
 115.0805569  55.2107143  56.9241953 113.9152908  54.4490814  56.3299990
 117.2411060  47.4759960  68.1728554 116.5446758  47.6613140  67.5428772
 117.3384666  46.5240574  68.1491184  22.9990268  64.7987413  65.0257635
  22.8680253  64.7925091  64.0775919  23.2331634  65.7042837  65.2292538
 101.3779449  30.4536128  64.8409033 100.6189728  30.6119728  64.2795515
 101.0279465  30.4846573  65.7312822   2.1030410  59.0859652  76.5261078
   1.7174138  59.1253948  75.6509113   1.4282349  58.6755896  77.0669079
 114.2545605  48.4745789  56.2888288 114.8935127  48.8012314  55.6553650
 113.4046364  48.6794567  55.8991098  15.5940711  53.8670397  87.7698326
  16.3492048  53.6123943  87.2395897  15.9500778  54.4762754  88.4166145
 108.3921528  49.2581749  83.4988213 107.6944160  48.8799238  82.9637337
 108.0136490  50.0634909  83.8515663 109.0950680  82.6258373  41.4647436
 110.0066280  82.6123524  41.1729860 109.0011787  81.8336964  41.9938231
 107.8245163  63.7696505  48.9714336 107.7112198  63.4774733  48.0669880
 108.2425404  63.0295753  49.4116354 114.5827389  58.9665651  91.2044334
 115.0382900  59.1011715  90.3734112 114.8461914  58.0893993  91.4826488
 112.1335506  79.6951103  61.8548822 112.3498917  79.0049362  62.4818468
 112.9664898  80.1358604  61.6869974   1.7512999  21.5957880  80.3083515
   2.1948335  20.8048034  80.6147003   1.4791046  22.0432973  81.1095238
   1.8468566  48.8343859  83.2997513   2.2723514  48.5028267  84.0904808
   2.4939413  48.7033653  82.6066780 115.3152370  51.6088867  63.7220287
 115.8518505  51.3438272  62.9750204 114.4169235  51.5841007  63.3924294
  94.7554398  39.4965219  49.4900036  94.3301678  39.3205237  48.6507177
  94.5485401  38.7324882  50.0282192   9.9115384  46.2575340  71.9036913
  10.6851804  45.9011221  71.4670229   9.1722649  45.8812237  71.4260960
   0.7390117  51.9505978  68.8272429   0.3222602  51.0991478  68.6946440
   0.9385011  51.9764805  69.7630644 101.7689896  31.1208439  87.9572868
 101.4757252  31.2418604  87.0541954 101.2834835  30.3559804  88.2663250
 110.9025669  79.4987392  52.1856737 110.5879116  80.3401852  51.8552208
 110.8923244  79.5963764  53.1378269  18.6546266  86.2404633  64.1831064
  18.8741958  86.6249657  65.0317383  18.6134112  86.9869614  63.5853863
  13.1033981  28.4908056  84.8723888  13.1869054  27.9633117  85.6667519
  12.4730444  29.1731739  85.1031685  89.7127819  69.0020180  92.2881317
  90.4803371  69.5235443  92.0533752  89.1070938  69.6306229  92.6808548
  13.6094761  49.5660019  73.3816147  12.7380335  49.6870470  73.0045652
  13.4814811  48.9230251  74.0790606   7.8296876  62.0809793  67.3266077
   7.4172080  62.8871250  67.6367998   8.6944425  62.0811367  67.7370071
 106.1093521  50.2234411  40.8690643 105.4452705  50.2288771  41.5584135
 106.1182022  51.1214972  40.5379391  85.8767605  36.5118003  85.4780483
  86.7257595  36.8657589  85.7429123  85.7852936  35.7046294  85.9843445
 112.6723003  60.0259113  59.1160345 111.8879032  59.4863939  59.0166855
 112.3532772  60.8448553  59.4952297 115.7648277  34.3194270  86.2037277
 116.6145325  34.4745994  85.7912445 115.1705074  34.1520405  85.4722881
  98.5238266  62.6994896  65.3191853  97.6828384  62.2924042  65.1111937
  98.8249588  62.2400522  66.1030674 116.8756390  54.4432020  79.6404839
 117.1492195  54.9494886  78.8755894 117.4202728  53.6564922  79.6142912
 117.4790478  67.9021168  95.2888489 117.6775646  66.9914865  95.0707245
 116.5531731  68.0047607  95.0687599   5.4042882  37.8549957  68.2294846
   4.7175559  38.0159879  67.5824070   6.0671830  37.3529840  67.7553654
  90.8973789  56.3023138  82.0399570  91.7907715  56.1277294  81.7439842
  90.5702877  56.9678020  81.4346790 103.6983013  53.2782841  46.3104248
 103.8976192  53.5485220  47.2067881 104.0133762  52.3760319  46.2566090
 119.3064690  33.6602163  79.2726946 118.6626053  34.2600942  78.8960981
 118.7907982  32.9095817  79.5674181   7.4654639  76.4247561  64.2355871
   8.3428037  76.5182066  64.6067715   7.3848158  75.4904461  64.0437841
 115.8784962  54.8005486  71.5894985 116.3296318  54.0339231  71.2359524
 115.8866787  54.6673012  72.5373411 112.7300930  32.4420524  73.2744169
 112.0310879  32.6897597  72.6692152 113.0840588  31.6299081  72.9119873
 101.0043430  41.8741226  46.5524817 100.0639153  42.0181084  46.6578054
 101.0888386  41.4630842  45.6921673  81.5089512  41.7088366  73.0271912
  82.4516582  41.6910410  72.8622246  81.4310646  41.6431046  73.9789534
 110.9334564  63.0415535  49.8233891 111.3737297  62.9362917  48.9799976
 110.7868004  62.1468449  50.1303339 114.5148659  49.2166710  69.9479675
 113.9495087  48.5964251  70.4083014 115.1861477  48.6706734  69.5386934
 104.7894192  67.6846504  36.5095663 105.6819630  67.8142691  36.8301916
 104.7319317  66.7453909  36.3342786   3.1780890  26.3843751  72.3182583
   2.6638669  27.1841240  72.2077608   3.6742070  26.3041472  71.5036011
   6.8255174  57.9300737  93.5403633   7.1371490  58.8330364  93.6018276
   7.3395115  57.4543715  94.1928577 119.2621708   2.7570280  73.4413719
 118.5558510   2.1346025  73.6143827 119.5119667   2.5893113  72.5326920
  10.1876402 104.7804737   7.0309287   9.4866467 104.3512535   6.5404147
  10.6783295 105.2687359   6.3698226 100.3567791  34.9793220  56.4702845
 101.2512016  34.6543074  56.3673067 100.4562187  35.8122921  56.9312668
  11.0012627  77.5033283  80.3048801  11.3256192  76.6797733  79.9404764
  10.0650883  77.3542929  80.4375458 105.5985832  49.8980379  68.9321375
 106.2728024  50.2140141  68.3306217 105.2612114  49.1037893  68.5179138
   8.3330029  53.7212276  66.5574837   7.8309894  53.6634111  67.3704243
   7.8510660  54.3520975  66.0227251 115.7884884  26.6123462  62.8452206
 115.8809280  26.8600631  63.7651825 115.4691696  27.4053216  62.4145746
 111.2665176  32.4460959  75.6496954 111.4891720  33.1025386  76.3098001
 111.7714596  32.7018189  74.8777628   1.0238541  72.9829931  84.5411873
   0.1812452  72.7071095  84.1804504   1.4145824  73.5209846  83.8526154
  16.9970095  57.3974037  66.9620323  17.6198316  57.4189138  67.6885748
  17.3153853  58.0644321  66.3538074 106.5183163  66.0143042  70.0811195
 106.6104412  66.9664812  70.1143312 105.6404305  65.8465147  70.4237461
 114.3179703  68.4021997  50.9373188 115.1698017  68.4653234  51.3693285
 113.6949921  68.7266779  51.5875864  96.9901180  69.2034912  74.2147875
  96.6984177  68.5118341  74.8087168  97.9297543  69.0516663  74.1134548
  23.6714888  44.2690945  62.8087711  24.5362973  44.3028641  62.3998737
  23.8445044  44.3755722  63.7441635 100.3122520  52.9164362  65.2130508
  99.6688461  52.7020693  64.5375395 101.1446095  52.6032686  64.8590231
 107.8398895  37.2791362  82.4992466 107.3966694  36.6833830  83.1032848
 108.2644272  37.9229832  83.0662251 114.3433189  76.5782213  72.9288149
 114.1247940  75.7559395  73.3673716 113.8124847  77.2369385  73.3766270
  98.4791183  54.0129757  82.2165298  98.2383919  54.4978333  81.4271069
  98.3643532  54.6423674  82.9285240 112.3084736  80.4491520  58.5191441
 112.9698086  80.7023335  59.1631651 112.7658749  80.4856968  57.6790953
 117.4323177  46.5362549  33.3052874 118.3055687  46.7773008  32.9961586
 116.9262600  47.3468256  33.2494187  69.6012211   2.5281394   8.7225527
  68.9999676   1.7852516   8.7758815  69.2315340   3.0868733   8.0388993
  26.8297744  49.0311956  66.8140793  27.7525616  49.2349720  66.9663000
  26.5243363  49.7254562  66.2301779 108.3786583  33.7818694  59.5714951
 108.2073116  33.1420612  60.2625227 107.5276279  33.9184237  59.1551495
  96.9258213  67.3289871  79.9435616  97.0633507  67.6854944  80.8211803
  96.1838531  67.8247261  79.5972204 114.8196316  56.6564083  67.9779005
 115.2237129  57.4820614  67.7109861 115.2571297  55.9923744  67.4450874
  12.5791836  33.9894223  92.2462463  13.2835138  34.2831278  91.6684151
  12.6264954  33.0339026  92.2150040   2.1293943  68.8174915  41.8423128
   1.4054328  68.1933594  41.8930387   2.3088120  69.0507317  42.7531576
 107.5328732  49.8107338  86.3217926 107.5399590  49.1140032  85.6654835
 107.5629520  49.3501711  87.1603680 113.8912106  61.6711903  87.5532532
 113.9635944  62.4460793  86.9959927 114.2748070  61.9398499  88.3880615
  99.9407673  52.1145248  83.8958740 100.6839752  51.6558981  83.5040379
  99.4819641  52.5059700  83.1525707   8.9313483  58.4512615  78.6069679
   8.7370229  58.9336586  79.4105625   8.7414432  59.0717411  77.9032803
  95.5056190  54.3003607  97.1634960  94.9715710  53.9767790  96.4380074
  94.9301434  54.2477655  97.9265785  79.5834160  52.9728556  81.1156273
  79.9284220  52.0833874  81.0378838  79.7595406  53.3733320  80.2642536
 102.7193832  69.6754885  62.4239922 103.1424046  69.1866398  63.1299019
 103.2558060  69.4942093  61.6522264  10.1319861  41.9510555  63.9476824
  11.0568666  42.1957731  63.9170170   9.8933679  42.0317841  64.8711443
  19.2890203  19.6053934  79.4566154  19.3946254  18.6833930  79.2221022
  20.0289536  19.7918081  80.0345230 117.6411343  31.7070508  63.6912584
 118.2870102  31.3188052  63.1010580 118.1567478  32.2529912  64.2848253
 103.2827663  64.8068523  63.6735678 102.9528713  64.7988653  64.5720911
 103.0197906  63.9594889  63.3143330 107.5756168  56.1521482  93.7074852
 106.7229366  56.2560320  93.2851410 107.4687099  56.5605068  94.5665836
   8.2762283  63.2381916  75.4078293   9.0456444  63.1625891  75.9721994
   7.5761271  63.5245419  75.9944248  16.1231470  74.5155859  86.7424965
  15.9633589  75.3284407  86.2629414  16.8512881  74.7223377  87.3284054
 116.8968678  52.1464300  93.5862160 117.1887779  52.3315334  94.4788265
 115.9734535  51.9124269  93.6798763   4.5764583  68.2395935  74.5112610
   4.0306145  68.9872217  74.7548580   3.9624518  67.6050997  74.1416073
   3.6095110  51.8888330  71.2948608   3.4734949  52.3699474  70.4786110
   3.0238461  52.3119497  71.9227171 117.1526718  84.8243904  47.8154802
 117.4138451  85.1302242  46.9468689 117.6779461  84.0373993  47.9602671
  21.7077875  67.0118475  76.9703102  21.2216473  66.6318607  77.7020931
  21.0321307  67.3653507  76.3917303  86.4083481  16.4149272  57.7782249
  85.7613277  15.9098148  57.2858238  86.1425495  17.3265767  57.6578951
  70.2784538  19.9965811  31.0099912  71.2171078  19.8286712  30.9265113
  70.1951265  20.9450555  30.9115887  70.7008410  22.8473258  57.8175306
  71.1503315  23.2555652  57.0775747  71.2713575  22.1228576  58.0742264
  53.3774805 111.3343239  85.2915478  53.0042696 112.2145844  85.3372383
  53.6110258 111.2207127  84.3702602  94.8234177  20.6902909  38.4080672
  95.5821514  20.3639889  37.9242444  95.1500988  21.4588189  38.8759089
 112.8117561  18.3326101  35.3026199 113.0772781  19.1876948  35.6410909
 113.6322594  17.9105234  35.0479484  94.4021034  20.8585548  61.7437744
  94.5229435  20.4835606  62.6161289  95.2024937  20.6292391  61.2715197
  95.9802151   4.3661195  67.2682095  95.1242828   4.7811294  67.3748970
  95.8922195   3.8358137  66.4762115  88.0452728  21.5631771  40.8454657
  87.8205490  22.1406269  40.1158905  87.8566647  22.0813107  41.6278982
  10.4937220  31.9691658  47.6495695   9.6032047  31.6625595  47.8204584
  10.5533791  32.0116949  46.6951752 101.8780708  16.3223624  71.5320063
 102.4184322  15.5646586  71.7558861 101.6690445  16.7249203  72.3749113
  76.7038965  30.4020095  63.0810165  75.8119917  30.0676322  62.9865122
  76.9248390  30.7432342  62.2144222 105.6261063   7.0520163  58.8823414
 104.7104836   6.7729855  58.8801718 105.5850792   8.0083245  58.8775206
  82.2372055  17.6038337  42.2744703  81.4904118  17.5436676  42.8702068
  82.9998207  17.6544523  42.8507423  85.8456039  18.1069279  67.1831417
  85.2239227  18.4190154  66.5256071  85.4439354  18.3372760  68.0208969
   1.0151708  17.7077639  50.3427935   1.0223562  16.8719637  49.8762989
   0.4719126  18.2799053  49.8008013 115.3213882  21.0678530  65.5058479
 115.7212162  21.8390989  65.9077740 114.5878124  21.4152884  64.9985123
 110.6028748  38.0030394  58.7864828 109.6812248  38.2536077  58.7231255
 110.6135082  37.2881079  59.4228697 117.1735001  15.1243210  23.7308908
 117.1923542  16.0109448  24.0911317 116.2768459  15.0132275  23.4148335
  92.0207787  13.8958573  81.1089516  92.1525478  14.7459650  81.5286922
  91.4090919  13.4367800  81.6845512 105.3111458  28.1632686  61.1853981
 105.9746075  28.0986404  61.8723297 104.4947910  28.3317232  61.6559553
 106.6690350  17.6296020  86.4914989 106.7907429  18.4284079  87.0046520
 107.0750427  17.8234744  85.6466293 113.7341213   7.7323657  60.2555847
 114.3214035   7.8504771  59.5090103 113.1148624   8.4593660  60.1905489
  84.0270138  15.5063462  66.7667389  83.3238411  14.8998725  66.9990587
  84.2808628  15.2503705  65.8800220  84.1103172  17.7750587  59.8131084
  83.1581020  17.8283691  59.8948240  84.2642403  17.6615429  58.8752127
  13.0103445  12.8524411  80.3948593  12.6039469  13.6535168  80.7255459
  12.2862685  12.3567986  80.0123882  98.1491375   4.6327361  73.6634302
  97.8882599   4.8176154  72.7612162  98.6319065   5.4124367  73.9377165
  75.6927252  29.2580867  27.2556710  76.0877800  29.3928313  26.3942719
  75.1211691  28.4988809  27.1409345   2.0693181  11.1075151  77.9938602
   2.7269292  11.0388458  77.3017168   1.2315961  11.0370970  77.5361538
 113.0707645  33.9163136  24.9112058 113.1634045  34.8675227  24.8578048
 113.3936691  33.5965514  24.0687561  90.6915188   0.8703231  75.4487133
  90.3066635   0.7383400  76.3151407  90.9773254  -0.0022248  75.1781464
  93.6372280   4.8406947  65.3426313  93.9209747   3.9781985  65.0396109
  93.7895012   5.4191434  64.5953417  83.5388374 100.7673931  92.6632786
  83.3248615 101.2151337  93.4817982  83.6811543 101.4742470  92.0337296
  83.4215546  21.2550569  40.2711487  83.4349918  22.1206212  39.8626757
  83.5823250  21.4256549  41.1992025  95.3427410  23.4699535  63.7209463
  94.6875381  23.1106067  64.3191147  95.7199192  24.2105865  64.1957474
  30.4003954 109.8300362  81.3579273  29.8657560 109.2735958  80.7915688
  30.9435034 110.3356552  80.7532692 106.7021465  44.6124792  52.3703194
 107.5786591  44.6683073  52.7508974 106.8331623  44.7936583  51.4395952
  80.5951595  19.4023013  54.3302536  80.2231216  20.1035833  54.8650694
  79.8521948  19.0606475  53.8327503   8.8891512  36.3639998  70.2397156
   9.7347087  36.2177825  70.6638432   8.3242404  36.6931057  70.9388542
  58.4443188  32.8770757  59.6629667  58.2760906  32.5425172  58.7820530
  57.5745773  33.0469036  60.0248146  86.5419865  22.9861331  65.2813911
  87.2510910  23.4061289  64.7945595  86.1400318  22.3883057  64.6510935
  83.4555149  16.1083245  54.4318008  83.2771111  16.8652153  54.9899387
  83.7132645  16.4862168  53.5909700  32.2165537  80.4119396  11.4301920
  31.8802834  80.3462887  10.5364120  33.0022287  80.9529877  11.3513589
   0.8299331   2.2574431  38.0617642   0.1237114   2.7822176  37.6848102
   0.8513416   2.5120115  38.9842439 107.8337669  43.0668688  73.7250948
 106.9367599  42.7435255  73.6410379 108.1813145  43.0435228  72.8335238
 104.1432285  14.7289848  72.1623182 104.3607140  15.1431143  72.9974413
 104.5030403  13.8447738  72.2325611  98.4906960  19.1413212  36.1398745
  98.1539345  19.7155261  36.8277025  97.7773190  18.5258198  35.9711099
  24.9849367  29.1370344  43.7858200  25.8522916  28.7350368  43.8340378
  24.9568915  29.7362971  44.5316935 116.6584778  18.3549881  60.9008265
 116.9586945  18.2889295  61.8073225 115.7065105  18.2723403  60.9571695
  93.7399006  15.0830758  34.0172172  94.6671200  14.8914254  33.8765836
  93.6452579  15.1230967  34.9688840  86.3027287  11.1743450  45.8906794
  86.6480923  11.9908988  45.5298567  85.7067490  10.8477819  45.2165890
 114.0284538  22.6919746  53.9426470 113.9392281  22.9264379  53.0189037
 114.9545097  22.8353763  54.1377878  58.6646509 103.5944080  51.4542484
  59.3150187 104.1561317  51.0326767  57.8698921 103.7167549  50.9350014
  16.9618857  10.3700674  57.2891331  16.5589559   9.5018446  57.2808075
  16.9420993  10.6520796  56.3746357 110.8254719  12.3457623  57.9820967
 111.5589237  12.9583240  58.0373955 110.4209709  12.5323129  57.1348619
  66.8525887 110.7901001  75.7518387  67.6543188 110.8735275  75.2356052
  66.6756868 111.6772938  76.0646009  13.3065021  28.6651492  67.0305443
  12.5875270  28.5266638  66.4139986  12.8925347  29.0652108  67.7952766
 106.1380959  13.3533406  58.7630224 106.8625832  13.7785316  59.2219067
 106.0726070  13.8230705  57.9315805  19.7434664  18.1236649  41.7701387
  20.6407809  18.4490645  41.6982174  19.2737436  18.8169014  42.2338390
  74.1187286   7.5016254  56.4421082  73.8508892   7.0573461  55.6376791
  74.8368168   6.9681358  56.7826557 107.8690869  -0.1861882  70.2997351
 108.5042483  -0.1497770  71.0149097 107.9535443   0.6603694  69.8610640
  89.9809933  30.7847190  47.5668669  89.2468166  31.1043477  48.0913210
  90.2512169  31.5415025  47.0467758   2.2385381  28.6369967  61.9625759
   2.4900912  29.1478682  61.1931849   2.4034072  27.7282667  61.7110634
 105.8998108  29.4751644  65.7318401 105.2346706  29.9334478  66.2454557
 105.4119492  29.0710568  65.0142574  99.5915985  22.1288633  64.4207335
  98.9541245  22.4155283  63.7667561 100.3178501  22.7463412  64.3340397
  60.7288170 104.9124718  58.5051918  60.4325581 104.3078232  59.1855335
  61.4550257 105.3887272  58.9077234  91.1481953  28.7726450  46.4478445
  90.7482052  29.5657611  46.8044996  91.2799740  28.2076693  47.2092056
  98.2674408   2.0404050  80.3911209  99.0192890   1.4826217  80.5906963
  97.7517509   2.0448585  81.1975193   5.3193057   7.8623253  63.6180830
   6.2532353   7.6635975  63.6852646   5.2883542   8.7493062  63.2595587
  78.2153845  22.7350998  65.4152632  78.1725216  21.8258667  65.7113886
  77.4154377  23.1357765  65.7555199 104.2744255   5.3503543  74.3958187
 103.4780502   5.0000751  73.9966631 104.9514294   5.2229953  73.7312317
 102.9484653   7.7513969  69.3235207 103.8713551   7.4979383  69.3398714
 102.8380394   8.3037841  70.0974083  91.8250179  34.7513986  65.4114294
  92.0753098  34.1378379  64.7206831  91.7087555  35.5869079  64.9590540
  87.1412659  23.3947277  75.2039099  86.3031769  22.9337144  75.1676035
  87.5889301  23.0185318  75.9617376  91.0020733  40.5493259  88.5565376
  90.2635574  40.2603245  88.0205250  90.6763935  40.5072403  89.4556522
 101.4560032  19.8728168  77.3124504 100.8330345  19.6921134  76.6085386
 101.2053013  20.7372999  77.6380968 103.9756680  13.8526404  68.8773632
 103.5614109  13.7051916  69.7275877 104.7908306  14.3097675  69.0841675
 111.6297436  18.8138998  83.0462265 111.5382004  18.1495166  83.7292004
 111.7970848  18.3143735  82.2470379  14.8192918  20.1974583  53.7819719
  14.1060293  19.5753622  53.9250946  15.3435230  19.8043942  53.0841780
  97.1080017  22.6918578  61.5078449  96.4931107  22.9424953  60.8184052
  96.6556072  22.9092741  62.3228931 115.3183556  32.5231385  46.9965315
 116.2540150  32.5060439  47.1977472 115.0936127  31.6087294  46.8245554
 107.8852177  20.5530262  74.0224314 107.3820400  20.6417680  73.2130098
 107.3408604  20.0006771  74.5835161   5.8575892  37.8598762  61.5240383
   5.5301577  37.5829577  60.6682730   6.5757501  37.2557998  61.7126322
  90.0954511 112.3057781  75.5232668  91.0479214 112.3997119  75.5376816
  89.9166979 111.7992096  74.7310114 113.3024025  20.8900785  36.4282632
 113.3694935  21.1231828  37.3542166 112.3798847  21.0273361  36.2129641
  90.9725285  36.7603755  57.2433949  91.4430141  36.6038823  58.0621672
  91.5905666  36.5034056  56.5591288  64.7961092   0.6180771  52.6514578
  64.4356680   1.3350344  53.1732655  65.2955914   1.0525838  51.9601154
 102.7756023  13.1825399  52.9472065 102.5462055  12.6204884  52.2071314
 103.6767101  13.4535921  52.7718258 108.0030727  31.5523958  61.6135979
 108.9297581  31.4377952  61.4029789 107.5461102  30.9661174  61.0105276
  51.6979599 107.8329182  47.2177792  52.0549011 108.6195946  47.6300526
  52.3373413 107.6050854  46.5428591 100.7814407  36.0887241  34.5044684
 101.1359024  35.2036214  34.4197226 101.3296604  36.6223717  33.9292192
  70.5599546  87.3992348  45.0563622  70.5357885  86.9003105  45.8728981
  69.6510744  87.4117565  44.7563457 102.6003933  57.6608467  35.6211090
 101.8250084  57.8010559  35.0776386 102.2745609  57.1849775  36.3850570
  82.3691559  22.5894690  44.6279860  81.9867611  21.9321418  44.0466785
  82.5902653  22.1057963  45.4238510  97.9199314  39.5269036  31.1173749
  97.6620865  40.3454208  31.5413833  97.2102165  38.9177537  31.3210130
   5.8919716  34.9269414  34.2533898   5.9261191  35.8684564  34.0842247
   5.5354863  34.5516968  33.4481931  65.1560450  33.0254698  21.1500120
  64.5644379  32.7795362  20.4388499  65.0644016  33.9756989  21.2200165
  92.4786568 106.4557457  55.6461143  93.3787346 106.2000084  55.8478022
  92.1665287 105.7795048  55.0448656  99.2251587  16.4633286  53.1890869
  98.6379814  15.8950460  53.6876011 100.0838757  16.3321805  53.5911274
  18.7651134  21.6831017  59.4687510  19.1329956  22.2728539  58.8106585
  17.9986465  22.1475935  59.8049164  87.0500278   1.2731542  70.9553099
  86.9321632   0.3483854  70.7381868  87.5957394   1.2668820  71.7416906
 100.7349873   7.2153020  61.1155462 100.8058262   8.1422925  61.3433695
 101.4931870   6.8072736  61.5337229  99.8313332  34.0875602  78.2978249
  99.2565918  34.6120286  77.7403021 100.6673050  34.5536542  78.2857037
  99.9176979  18.3780003  38.7181926  99.4651222  19.2148840  38.6131310
  99.2405128  17.7187765  38.5662889 106.8576431   7.1438110  35.0233865
 106.6990566   7.9035413  34.4631267 106.7988110   7.4872255  35.9149241
 101.0509396  24.4382811  60.8255243 101.0842037  24.2093897  59.8966885
 101.4894295  25.2874684  60.8787918 106.1675835  24.0306377  36.4493942
 105.6675529  24.8212337  36.6522670 105.9302425  23.8224173  35.5457664
  98.1754017  23.7866640  49.7935772  99.0339375  24.2094231  49.7730875
  97.5762749  24.4439077  49.4395924   3.6785421  37.9009008  57.9961443
   2.9886395  38.2583189  58.5551786   3.9939797  37.1301818  58.4680843
 110.9396458  14.2564154  78.2943678 111.2983894  14.9125719  77.6968765
 110.8361435  14.7202206  79.1252708  95.8068180  27.9104686  42.0479679
  96.4341068  28.5009742  41.6307878  95.5624962  28.3551812  42.8596163
  56.3492823 108.7466621  75.0899363  55.9735489 108.6092949  74.2203474
  57.0324659 109.4033146  74.9546528 103.0482101   7.1713495  42.7604103
 103.5595798   7.5338393  42.0369911 103.3193874   6.2546891  42.8096914
  10.7334695   0.5539965  65.3498363  11.3043199   0.0876403  64.7391987
  10.1316343  -0.1159120  65.6742764  99.7131729  16.6900849  42.9760027
 100.1085854  16.9607508  42.1473789  99.3419933  15.8268487  42.7935839
  81.9454288 104.0176868  61.7408514  82.8934479 104.1253471  61.8175840
  81.5823650 104.6271801  62.3834610 105.7693386  19.1901493  71.7896891
 105.0230503  18.7157595  71.4233065 106.1624336  18.5760558  72.4098444
  94.5593548   9.9588335  54.4496775  95.0280952  10.7645798  54.2322302
  94.9959850   9.2810518  53.9337349  70.9740210 110.7027912  66.2140703
  71.8644381 110.7408714  65.8648634  70.9331560 111.4216518  66.8447828
  87.5065708   3.1034252  56.1821175  87.6365757   3.1896126  55.2377081
  88.1634808   2.4637586  56.4569235 105.8366871  21.9889235  78.6173725
 105.5171394  21.9507742  77.7158880 105.7864857  21.0848308  78.9277411
  95.6751442  20.2993035  78.4375954  95.9015751  20.5547857  79.3318510
  95.0349426  19.5957613  78.5443258 112.8821182  13.9672554  57.9679012
 113.4381962  13.9979291  57.1893930 113.1012917  14.7643995  58.4503508
  91.1472511   5.5935991  57.3641157  91.8258095   5.1291281  56.8741465
  91.0266876   5.0731879  58.1583881 107.7346897  19.6208835  60.9163713
 107.4277782  20.1211286  61.6725397 107.5293541  18.7111044  61.1317062
  72.2465038 111.9311714  54.4744635  73.0597591 112.0754623  53.9907026
  72.4697685 112.1314430  55.3834581 109.9757099  15.8921611  56.3637590
 110.5873394  15.3383732  55.8785152 110.0466824  15.5908668  57.2695255
  94.0206337   9.6233666  77.1258593  93.6339951  10.3139579  76.5875053
  94.0429688   8.8570726  76.5526867   3.9534065   5.5828929  74.1998243
   4.5792925   6.2592483  73.9408970   4.1622806   4.8359105  73.6389112
  84.0116978  31.0028887  54.5518637  84.5550919  31.7750502  54.3946123
  84.5130539  30.2773738  54.1797066  10.4990745  19.4270515  54.1859293
  11.1378181  19.2858613  54.8847198  10.4255462  18.5764277  53.7531900
  81.2161922  44.9368477  64.0036678  81.1235237  44.3552446  63.2490969
  81.0817909  44.3685102  64.7620630   3.6669654  24.8080993  81.8420315
   2.9338658  25.3690434  81.5887737   4.2934403  24.8936844  81.1233997
 109.8413467  73.9684486  43.9957094 110.2369308  74.6380568  43.4377003
 108.9374161  73.9033461  43.6876345 114.6035099  35.0004745  48.4957504
 115.1589966  35.3547168  47.8013563 114.3440342  34.1359019  48.1772852
 115.5537510  24.3868971  71.2324476 115.9452057  24.9524879  71.8981028
 114.6137333  24.4242525  71.4090967  98.5778522  46.6620016  58.3482313
  97.8492355  47.0401430  58.8405323  98.5699558  45.7342005  58.5835171
   7.6644754  55.9391546  52.7895880   8.5795778  55.6584549  52.7947807
   7.5322217  56.3406277  53.6484003  10.2707267  29.2290187  61.4939356
   9.7464317  29.0280294  62.2691441  10.1495445  30.1690173  61.3599539
 116.4385986  26.8391418  33.3708191 116.4272118  26.1868644  34.0712762
 116.1444569  27.6472092  33.7912226  95.3465557  22.3976111  47.0616817
  95.1894569  22.2086167  46.1365700  96.2997723  22.3923850  47.1486950
 112.1743679  17.9285419  57.2978687 112.5091839  17.6786208  56.4366627
 111.3205338  17.4998808  57.3565292  88.7609959  55.7681227  69.0006971
  88.5840702  55.4068136  69.8692513  89.4223499  55.1846218  68.6287260
 101.3873672  46.8023205  58.5749102 100.4897404  47.0931339  58.7359619
 101.4284801  45.9272575  58.9606571 109.8793411  41.2716103  65.4746389
 110.0828648  41.4880705  64.5647192 108.9886856  41.5971994  65.6048393
   5.5195785  36.2559938  53.6702490   5.7942051  37.1609116  53.5221481
   5.3940606  35.8969760  52.7918482   3.8366663  24.8584723  63.3969879
   4.0945858  25.0669432  62.4990702   3.0198839  25.3396797  63.5294199
   4.5878702  35.9156847  59.3573713   5.4459101  35.4967046  59.2906189
   4.2754829  35.6837893  60.2319384 105.0537395  34.7629309  43.0867958
 104.6428013  35.6154394  42.9432869 104.7817802  34.5114946  43.9694357
 109.4737053  57.8345871  51.4741087 110.1894569  57.6225901  50.8749628
 108.8645172  58.3508778  50.9463215  15.8098185  31.9255352  81.7723370
  15.2307570  31.2199950  81.4840126  15.7504475  31.9088435  82.7275562
 103.3718300  49.9791241  62.9410791 102.9521084  50.3036451  63.7377977
 104.2428684  49.7019148  63.2251072  95.6042862  13.2569706  71.7397928
  95.2218914  13.1830192  70.8654118  95.7069588  12.3517966  72.0336437
  90.5982018   6.0025263  47.9722738  89.9930859   5.3383619  48.3023596
  90.7639027   5.7458943  47.0651293 110.3491592  28.6550260  75.2496910
 111.2872314  28.7414098  75.4193449 110.0841045  27.8866100  75.7551813
 101.6122437  36.2180734  77.7096319 102.3919487  36.0568118  78.2409430
 101.6133499  37.1640754  77.5636435  18.4784389  57.9144859  49.4540787
  18.5141301  58.8006926  49.8140717  18.3166087  58.0420208  48.5193205
  79.1906595  29.9288392  64.1876745  78.2920933  30.1122475  63.9135075
  79.3696022  29.0511370  63.8502598  91.1998749  22.3742390  53.1447315
  90.8195496  22.1146297  52.3055744  90.8245564  21.7618752  53.7774849
  97.4110222  29.2181420  58.6434031  96.6607475  29.6864915  59.0094137
  97.0405579  28.6846328  57.9403019 114.0625191  32.2069955  79.8556376
 114.1243458  32.9769278  79.2902946 114.1031933  31.4639187  79.2536306
 112.3847961  41.4936018  53.8051510 111.5237427  41.2999487  54.1757107
 112.9191971  41.7436457  54.5588923  13.4843194  40.8199215  71.0572577
  13.4297085  41.7179871  70.7305670  14.3749464  40.7433033  71.3995218
 117.6576519  22.8388000  64.3811464 117.4255562  22.4478626  65.2234888
 118.0626297  23.6756563  64.6089506 104.9032688  35.6616020  55.4074383
 105.6702328  35.6088948  54.8371649 105.0195694  34.9456596  56.0320425
  97.6646137  15.2268946  49.6935701  97.9932308  14.6234441  49.0271664
  98.1719398  16.0279274  49.5623970  99.5045090  36.2315798  63.0618000
 100.1009560  35.6314230  63.5093403  99.5367146  37.0340037  63.5826731
 113.4914780  37.1783376  46.7003536 113.2661819  36.6759348  47.4833393
 113.2170486  38.0727935  46.9025135  29.5167637  33.8587475  76.0651445
  29.9111366  33.0379558  75.7701731  29.4782948  34.4023728  75.2782345
   3.9306408  29.6704268  35.6365347   4.1556543  30.4600763  35.1445484
   2.9785761  29.6050525  35.5621648 114.8151112  30.7607555  91.0274315
 115.7205105  30.6505489  91.3178444 114.2946625  30.6681514  91.8254280
   4.6259058  27.8019929  51.1381102   3.6789402  27.8995943  51.2379217
   4.9134484  27.4030685  51.9593334  99.3569088  47.6050186  61.1162233
  98.6237240  48.1756115  60.8858013  98.9452171  46.7887449  61.3998365
   3.0151790  27.3108840  54.3442202   2.9538250  26.4510322  53.9281416
   2.1067543  27.5988364  54.4341040 110.3550720  40.2931595  49.8633242
 109.3994808  40.3324699  49.9026108 110.6103134  39.8545027  50.6749010
 106.7366219  47.3462105  61.3871527 107.4402523  46.7054319  61.2844610
 105.9333515  46.8437624  61.2510061  89.0172958  19.5936513  63.5934925
  88.4377861  20.1810384  64.0786457  88.6417484  19.5595038  62.7137041
  76.7356682  20.6733775  37.3623657  76.2259388  21.1148262  36.6830039
  77.5777864  20.4873300  36.9470930  66.8939870 112.2390821  60.2203512
  66.7777436 112.7409261  61.0271168  67.8340715 112.0632138  60.1810312
  99.6505547  40.9930897  69.5284986  99.8478603  41.8557501  69.1636419
  98.9815807  41.1610413  70.1921892 105.2287579  37.5190234  42.6617670
 105.2170372  38.3729744  43.0940437 104.3513870  37.4264932  42.2904205
 103.5557938  30.4915023  67.0938921 103.3006382  31.3719869  67.3693514
 102.7765942  29.9572277  67.2476196 100.5548477  27.6042581  71.4993382
 100.0890541  27.5174069  72.3310375 101.3635540  27.1077704  71.6247511
 104.6600723  15.9404862  62.6491404 104.1030025  16.2166452  61.9213724
 104.2201328  16.2784958  63.4291649 107.4980164  30.7190394  69.4250345
 106.7631054  31.3313103  69.4606829 107.3927021  30.1728368  70.2040100
 112.2795010  77.8780651  54.5619535 111.3820648  78.1152868  54.7955465
 112.2142982  77.5470543  53.6661768  31.0311985  25.2291703  65.9774303
  31.5348625  25.4171371  66.7694044  30.4191065  24.5418239  66.2403536
 107.2956181  26.9406867  42.4312925 108.0723763  26.9684887  41.8726301
 107.5590324  27.3966646  43.2306194 104.5238304   8.6243868  66.3725233
 104.7043133   9.2082393  65.6357908 103.8110065   8.0643111  66.0652256
 115.8602619  29.8265553  67.5195789 115.7072544  30.5352736  68.1445074
 115.8935833  29.0356898  68.0577755  87.9601192   6.5294009  57.6973867
  88.3010769   5.6385899  57.6171875  88.6435223   7.0824277  57.3187733
  20.4109383  29.6301627  46.8632746  20.4271436  29.9151182  47.7769279
  19.5158136  29.3206501  46.7247534 113.4890079   3.4514093  47.6426363
 112.8959846   4.1916150  47.7716780 113.7800980   3.2210824  48.5249329
 109.1430855  16.0845947  37.9231668 109.9992085  16.3708413  37.6048136
 108.5240173  16.7021263  37.5337529 116.0433865  36.7783999  55.8994579
 115.7784939  36.9753194  56.7979527 116.3356590  37.6186919  55.5463028
 115.9901619  20.0828910  47.0917463 116.8469715  19.8803318  46.7161274
 115.8038139  19.3464768  47.6741552 105.1847744  43.5985518  42.1427393
 104.8555279  43.0349636  42.8428793 104.7797298  44.4495773  42.3098660
  20.0509620 109.8360538  11.9733524  19.3504596 109.2675400  12.2932243
  20.8560419 109.3548489  12.1644485  18.7001014  21.7893910  53.1400108
  18.2004035  21.1869073  53.6909580  18.1562281  22.5754929  53.0902433
 105.9485435  18.7879229  51.5298080 105.2428246  18.8633096  52.1720791
 105.7779121  19.4908202  50.9028673 109.1698551  23.5193968  48.9607906
 108.9219856  23.3439088  49.8685312 110.0745964  23.2136250  48.8961601
 106.9656849   9.8699403  75.4386997 107.9005146   9.6854788  75.5297232
 106.6115189   9.0991253  74.9952507  13.9234269  30.9624052  56.4887142
  13.7476349  31.7151332  55.9241486  14.2233992  31.3459754  57.3128033
   0.3876198  22.7808332  61.6417408   0.3492443  23.6488104  62.0434570
  -0.0613542  22.2087812  62.2641659 105.8186054  17.6904356  78.0536985
 106.0208797  18.0789447  78.9048004 106.0985756  16.7786252  78.1340122
 105.3488922  36.3148451  76.8158865 104.6222496  36.7459679  76.3660526
 104.9350739  35.8322144  77.5314617 110.0053215   1.6842942  63.5627460
 110.7233620   2.2907643  63.3815193 109.5601368   2.0602763  64.3221426
  33.6220288  76.8803215  10.2352905  34.1795135  77.5195885   9.7916877
  32.9563975  77.4082088  10.6763160   9.8976046  -0.1997796  87.7954769
  10.5419958   0.1180460  88.4279156  10.2159452   0.1161461  86.9498444
   0.9100543  26.9036555  43.9638710   0.8137362  26.3688421  44.7518635
   1.8302035  26.8057775  43.7189674  69.2718935 107.0841026  56.5611362
  69.6319246 107.5939369  57.2868633  68.4574223 107.5327969  56.3340855
  29.2542005  16.6198385  61.7217827  28.5325193  16.0723281  62.0310402
  29.3071008  16.4387774  60.7833529  12.7696216   1.1907187  48.9991713
  13.4833407   1.3841867  49.6069574  12.6721680   1.9902062  48.4819126
   1.9432449  40.7580853  51.1558676   1.9179556  40.9319019  50.2149248
   2.3444149  39.8920679  51.2287569   5.9884721  11.0819900  50.7880735
   5.3709763  10.8786285  51.4906216   5.5225301  11.7075706  50.2332926
 100.7064152  30.5523944  37.6194310 100.8400917  29.6318722  37.8452635
  99.7886467  30.7205892  37.8330970 103.8008118  31.1663866  56.2771606
 103.8538456  30.2814817  55.9160995 104.0269089  31.7383003  55.5436563
  14.2700112  54.2633057  59.8439169  13.6036146  54.6857214  59.3019629
  14.8574853  54.9746609  60.0990248 105.6779671  -0.1396240  38.3678985
 106.1872673  -0.0214690  39.1696978 105.0073624   0.5422531  38.4074521
   4.2833039  20.4577398  53.7367725   4.8275715  19.8189211  54.1971159
   3.6290348  19.9295819  53.2793760   2.2867911  45.9847450  61.6146708
   2.6816109  45.8160782  60.7591629   1.4491475  45.5223227  61.5872478
   1.3329531  44.8836994  68.7850094   0.4170351  45.1257086  68.9219666
   1.6852067  45.5818939  68.2330370 111.7150688  22.1861029  57.0444632
 111.5288544  23.1031704  56.8431091 111.4285755  22.0770288  57.9512453
   0.5890921  40.8676767  48.8352394  -0.2428838  41.2636423  49.0945864
   0.4474524  39.9262094  48.9343023 112.6769638  36.2931418  52.8328228
 112.0934963  36.9002485  52.3776150 113.5560036  36.6292095  52.6579523
  14.5153487  21.5579987  83.8062000  15.3351891  21.5667295  83.3122158
  13.8455176  21.3496423  83.1549263 107.3508072  29.4765830  36.4400578
 107.4139309  28.5943222  36.8059278 108.1201267  29.5577073  35.8763218
 118.3693600  19.5543540  56.8641615 119.1922951  19.8789394  56.4985800
 118.4794807  18.6040235  56.8954086  97.5596523  25.2609062  33.8271809
  96.7274094  25.1325846  33.3720708  98.2205677  25.2102733  33.1366229
  93.5366154   8.4055734  47.4785137  92.9739285   9.0197676  47.9500866
  94.3400383   8.8978213  47.3098803 108.4671879  17.7740514  58.3479166
 108.5764980  17.7968454  59.2985821 108.4894943  18.6933470  58.0821514
  14.1933954  67.8441334  48.1648684  14.5811462  67.3224735  47.4621916
  13.5519743  67.2606850  48.5703325   7.1333581  43.7686539  66.4889526
   7.4886179  44.6554852  66.4293146   6.7080182  43.6236906  65.6437874
   7.1728575  43.7356186  63.5039091   7.7934730  44.4379997  63.6981487
   6.9700444  43.8453293  62.5749016 112.6235962  37.2440934  55.7010794
 113.3882809  37.7340531  55.3987169 112.9368019  36.7581105  56.4639378
 111.6097355  23.9409852  37.4980426 110.9982204  23.2842517  37.1649075
 111.0498524  24.6273637  37.8608704  78.8555527  94.4430256  48.3928156
  78.9255047  95.1745415  47.7794456  78.1160641  94.6722984  48.9556885
 118.0206108   7.0351118  90.7432747 118.1841087   6.1023092  90.8824825
 118.8164902   7.4667472  91.0539246  96.6700268  11.2938595  61.2376308
  97.5924587  11.4547062  61.0389042  96.6852474  10.7744110  62.0414782
 107.0776653  28.4275031  63.1540489 107.8504467  27.8844142  62.9987955
 107.3596191  29.0626717  63.8122988  57.8729725 106.2106419  75.9175444
  57.0825768 106.1435795  76.4532804  57.6838350 106.9161224  75.2988720
 112.6958179  19.3518090  63.9957047 113.0917645  20.0944304  63.5396624
 111.7663383  19.4015837  63.7724781 103.8941765  32.9689622  49.4507933
 104.5582962  32.4503398  48.9966965 103.1529999  32.3720169  49.5534563
 107.7902412  23.2245755  57.7958965 108.0072880  22.5032997  57.2052383
 108.4718704  23.8775682  57.6371336  92.9637814  40.9703445  72.5979567
  92.2568321  40.6038380  72.0668077  93.5795975  41.3318253  71.9605160
  97.4960423  44.1483593  66.3456535  97.6904392  45.0856066  66.3436937
  98.2884693  43.7401152  66.6943979  94.6511269  10.8092344  34.0053606
  93.9445305  10.9880042  33.3848763  95.4395676  11.1341918  33.5706210
   1.8376040  12.7801859  66.9920206   1.3551372  13.1728148  67.7195501
   1.2057787  12.7511692  66.2735558  87.2268963  34.8230958  50.4914236
  87.1299458  35.7550597  50.6870604  87.0156479  34.3823552  51.3144398
   1.9913767  37.6862931  51.6348267   2.1928163  37.7664566  52.5671482
   2.7895850  37.9739690  51.1917257   9.3243629  34.5152497  86.6073132
   8.8216054  34.0008450  85.9757614   9.5239294  35.3306174  86.1473274
   8.0911183  15.8389318  71.8429565   8.7622875  15.5929637  71.2063551
   8.5797155  16.0356426  72.6422119 117.8402233  66.5359592  56.3861513
 117.0417023  66.8485546  56.8114424 118.1983185  65.8895540  56.9945621
 118.8467884  49.3477297  61.3487577 119.7649956  49.0797472  61.3849735
 118.5209942  48.9761400  60.5289936 118.8391972  48.7760448  54.0054321
 118.9065361  48.5223675  54.9259472 118.3173847  48.0816746  53.6031914
  92.3323631  30.8377814  57.5988531  93.1289482  31.1259818  57.1531820
  92.1815205  31.5008998  58.2724667 115.5322647  57.4716425  70.5800438
 115.3523827  57.1455812  69.6982527 115.9258652  56.7271423  71.0350418
 112.6676846  43.8305712  41.8217421 113.0095863  44.7104359  41.6631079
 113.2330894  43.4738064  42.5067711  19.5435011  21.2713075  50.3664303
  19.0864539  21.4163542  51.1948633  20.2223039  20.6299520  50.5764771
 110.6556416   9.3537939  44.6934843 111.5866089   9.3209112  44.9135876
 110.6379318   9.5372009  43.7541866 105.0388718  31.1301017  47.3723793
 105.4759884  31.7287469  46.7667532 104.1424942  31.0678601  47.0424461
   4.5432147  14.8935521  76.2525702   4.9704325  15.7457197  76.3393307
   4.3945938  14.6072769  77.1537876 117.3341751  17.1684754  30.0818777
 117.6355267  16.4761889  29.4935250 118.1004047  17.7288902  30.2045870
 116.8899155  30.8055091  37.3911595 117.3589516  31.6272497  37.2463155
 117.4018288  30.3524184  38.0611491 110.6340218   6.5740287  64.7713041
 110.8426285   7.1070254  65.5385303 109.7067642   6.3596326  64.8735476
  91.2042809  39.8406553  55.8920670  90.8959103  40.5373812  55.3126621
  90.4041195  39.4404411  56.2323618 118.9389420  20.0249314  48.9865780
 118.0935383  19.7446787  49.3372679 118.7234497  20.4622316  48.1628275
 110.6344509  24.8078752  40.7247400 110.3065205  24.0884590  40.1851702
 110.2762222  24.6366096  41.5957022 111.1244106   6.5146828  44.6950197
 110.9108448   7.3888111  44.3686438 110.7565975   5.9188652  44.0423727
 115.4851437  27.3087907  49.7618914 115.5073643  26.3954020  49.4764805
 114.7662735  27.6979256  49.2638636 116.2368011  22.7023602  62.0146704
 116.7950439  22.7894950  61.2420130 116.8478203  22.6892042  62.7513647
 110.6601143  35.3793955  60.3772020 109.9320221  35.1036572  59.8203564
 110.5943680  34.8206091  61.1515808   0.6460848   8.0840492  78.9852047
  -0.1461568   8.5670674  79.2203188   1.1844234   8.7210411  78.5154533
  56.6848755  99.7575474  42.5618219  56.7761946 100.6793785  42.8029108
  56.5557957  99.3038082  43.3947039  69.8409271  95.7490635  25.0189281
  70.0941706  96.6168594  24.7042418  70.5681133  95.4753971  25.5779767
  95.7141018 100.2575302  24.7034264  95.3321648 101.0950375  24.4408703
  95.5133724 100.1847744  25.6365108  71.1917019  99.1451550  19.9890137
  70.6470108  98.3619690  19.9105573  70.5662775  99.8684406  20.0330281
  69.5676613 106.5185642  20.4844046  68.8026905 105.9859180  20.7019663
  69.8779535 106.8478775  21.3279128  99.7512436  12.4705839  16.7577064
 100.3089619  12.0097923  16.1309266 100.2313519  12.4245667  17.5845158
  81.2781715  96.9694042  20.7462668  81.6334820  96.1038971  20.5440617
  81.1889172  96.9750023  21.6992807  94.1764069  11.6759622  21.6159320
  93.5197163  11.7343986  22.3098898  94.1621876  10.7566929  21.3495231
 106.3020134  25.2125430  22.6008105 106.3304806  25.9659290  23.1905818
 105.5400848  25.3728747  22.0440412 107.5494099 109.3508816  23.0827999
 107.1477890 110.1379871  22.7148414 108.4869289 109.4652367  22.9271936
  91.9102859  13.0758095  37.2061586  92.5085640  13.7186778  36.8253541
  91.0431194  13.4696996  37.1107507   7.9268318  35.0145721  17.3795140
   7.5303560  34.6312833  18.1619000   7.2156250  35.5035830  16.9656456
 110.7990456  24.8262525  17.5403917 110.9605885  25.7157421  17.8549421
 111.6508198  24.3933940  17.5981224 117.7421570  24.4926453  27.9592180
 117.5152779  24.7832823  27.0758796 117.1412468  23.7685704  28.1348634
  90.0145435  26.3743138   7.9613507  89.8054600  25.8128023   7.2148812
  89.2081261  26.8626380   8.1270343  90.9607410 108.5603237  17.0992303
  91.3588047 109.4040585  16.8849993  91.2294483 107.9808235  16.3863456
  85.4539394 111.9192982  32.5009966  85.3551388 111.0772610  32.0566416
  85.2190971 111.7387867  33.4112167  10.8963847  82.4004173  96.5787888
  11.3137472  81.6845226  96.0996914  11.5795159  83.0662918  96.6574383
  66.5237713  98.4630489  26.3139749  66.3347340  97.8302860  25.6210756
  66.7075253  97.9262638  27.0849061 108.4992504   4.4933698  16.5205646
 107.7692795   4.8913020  16.0462046 109.2812157   4.8645023  16.1118734
   1.7310917  10.0917625  32.7721500   2.0628554  10.5909038  32.0258093
   2.2451514   9.2843246  32.7678370  92.4404335   2.2669783   6.7676896
  93.0324936   1.6007993   7.1168351  92.6938629   2.3547822   5.8488345
 101.8075275   6.4148134  56.8747520 102.2667122   6.0866499  57.6478577
 101.0476685   6.8786901  57.2264242 114.4803143  10.0454879  30.0974727
 114.1750717   9.1614878  29.8934960 115.3562260   9.9182910  30.4619360
 118.5131359  20.1938725  19.1217220 119.0528202  19.5059538  19.5112622
 118.4020901  20.8366823  19.8222184 108.7907600   8.3279222  47.1498919
 108.5295391   7.4074852  47.1779823 109.2123032   8.4313321  46.2967539
 110.1316643  56.5259027  21.8773961 110.4311180  55.6293440  21.7265797
 110.4014015  56.7207336  22.7748990  25.9815931  27.2447705  29.2448997
  26.1641383  26.3412571  28.9868832  25.3704262  27.5645566  28.5812378
 115.9088421   2.3199417  12.4675083 116.0698605   3.1593189  12.0365191
 114.9551582   2.2562870  12.5191891 118.2605553  33.8479066  26.6475582
 118.4798622  34.7793913  26.6258192 118.1970787  33.6384749  27.5794077
  28.4386683  36.3128948   0.8941868  27.6403475  36.8066597   1.0815714
  29.1440964  36.8552423   1.2469780 109.6489525  27.4384713  34.5733500
 109.6990681  28.3226037  34.2099881 110.4481888  27.3470521  35.0920916
 109.4152451  36.3641477  39.3761420 109.9045658  35.9992123  40.1134491
 108.7790298  36.9545841  39.7796726   5.3788507  15.1294470  17.2487950
   5.0785273  14.4068670  16.6975093   4.5903215  15.6447673  17.4187875
 104.9423218  27.9760790  39.2681909 105.8196831  27.6650786  39.0451550
 105.0168514  28.9303255  39.2587233 105.8815098   2.7518412  35.6559896
 106.8074894   2.5306174  35.5567384 105.4364204   2.2217743  34.9948144
   9.3660885   2.8595969  55.0870371   9.7743994   2.4953474  54.3016481
  10.0981688   3.1978622  55.6026602 108.9251995  25.0600100  36.2681842
 108.6105347  25.8734131  35.8737373 108.1417561  24.5168447  36.3543224
 118.7024975  22.6391864  11.0290635 118.7378311  23.1690907  11.8254197
 118.0361366  23.0633974  10.4884672  78.6323071 112.6428795   9.9009705
  78.1268311 112.1267509  10.5289340  78.7518692 112.0588303   9.1520917
  74.0763235 105.9676647  42.7412987  74.5828009 105.7921696  41.9482565
  73.4841013 105.2195644  42.8177214  90.7378387  97.0741177  11.9473708
  90.8945751  98.0162716  11.8840611  91.5243626  96.6749477  11.5755212
  86.9646931  10.7730567  32.9201889  87.1355534  11.7085540  33.0291915
  87.8269672  10.3627801  32.9864264  57.8496408  90.0223064  30.7922530
  58.2966805  89.1877747  30.6510329  58.2024384  90.3457355  31.6212058
 111.6054440  19.8249972  12.7629948 112.0984745  19.0075433  12.6928616
 111.4601040  19.9371982  13.7024200 116.4336300  13.9207339  46.5284252
 115.8834648  14.1106439  47.2883463 116.8483162  14.7573555  46.3178825
   4.1204992  20.0985384   2.3547107   3.9075154  20.9832764   2.0578772
   3.6176804  19.5245016   1.7768817  67.7718306  94.9618149  40.2059412
  67.8230524  95.1073933  41.1506224  67.7571678  94.0094662  40.1108122
  69.7453785 101.1333179  28.7534928  69.0523338 100.4920197  28.9105272
  70.3098774 101.0694122  29.5238757   4.2797178   8.5097200  22.8453469
   4.6710071   8.0871987  23.6099386   3.3921951   8.1537151  22.8029680
 118.8574314  30.9619212   4.4431365 119.6163177  30.6648993   4.9452329
 118.7600040  30.3106070   3.7484932   0.7257672  14.3489826  39.0524507
   0.6768234  13.5625994  39.5959926   0.0802715  14.9441767  39.4336462
  75.0524998 106.0443497  19.0324855  75.4008818 106.8766975  18.7130249
  75.8270407 105.5411053  19.2836082   3.9928606  42.7644539  33.4955239
   4.4862342  42.0991182  33.0157948   3.6975577  42.3179245  34.2890191
   8.1654865  17.1223259  29.4323230   8.4737051  16.8967354  30.3100133
   8.8193458  16.7442369  28.8443184   3.2023299   5.3973389  54.9051619
   3.5718432   4.5321715  54.7285891   3.9232290   6.0043907  54.7377539
  75.8581161  14.9863636  44.5255327  76.5554762  14.7398090  43.9179659
  75.3981781  14.1668713  44.7075176   3.2243308  16.7046916  36.7629409
   3.2274708  15.9179997  37.3082280   2.7036193  17.3371696  37.2579789
  68.4558576 112.2785412  28.3965540  68.0222123 112.1028485  27.5615001
  67.7631276 112.6275547  28.9574027   2.4723071  31.1234117  27.0099473
   2.1138424  31.7919517  27.5937176   2.5019762  30.3297973  27.5442982
  71.2737560  95.3539944  42.3453760  70.4942513  94.8594475  42.5984192
  71.6595459  94.8447704  41.6325760  81.3261700   4.1824654  33.4931636
  81.8958664   3.4400246  33.6943316  80.9015274   4.3908879  34.3253088
 118.3087349  35.3747630   4.9589449 118.8587666  35.9486318   4.4256842
 118.1115341  34.6329045   4.3871143 110.6162643  12.2598195  25.3608584
 110.9603405  12.3835421  24.4762516 109.7588062  12.6850092  25.3459716
  93.9941311   3.5779724  22.7953649  93.4911060   2.9232463  22.3110819
  93.3364868   4.0692401  23.2876968   1.0385480  29.5093179  36.1303067
   0.3122035  29.8128319  35.5857587   0.9433729  28.5570145  36.1474848
 106.1675835  18.4649849  37.5594044 106.0161114  19.4055498  37.4665236
 106.6025734  18.3750153  38.4072924  13.4287214  40.6688643  68.3958817
  13.5189855  40.5499649  69.3413687  13.7833416  41.5422201  68.2293797
 105.5023575   5.7297766  18.9159882 105.6676960   6.4228952  18.2768631
 104.6294212   5.4044509  18.6960614 116.8152905  14.9965978  13.5593581
 117.1912479  14.5864272  12.7804792 115.9007549  14.7140217  13.5610831
  19.0441358   8.8342756  25.1777434  18.3584392   8.1735969  25.2754927
  19.1265380   9.2245024  26.0478973  25.4694676  29.9983430   7.2319448
  25.6359386  29.8886395   6.2957370  26.3352966  30.1420259   7.6139486
 100.3625965  18.2553422  29.3592048 101.1455727  18.2436824  29.9096966
 100.3658772  19.1236830  28.9564562  74.1896868  83.4494972  29.0455437
  74.5129442  84.3122196  28.7858462  73.5430861  83.6313152  29.7275090
  10.8256245  37.2941947  39.2329860  11.2675512  37.3211527  38.3843350
   9.8939896  37.3469687  39.0196681 114.8936367  18.1345451  49.0386105
 114.1637516  18.7059963  49.2772388 114.5180225  17.5147009  48.4133530
 102.3836994  13.9057469  41.6256523 101.4606380  13.8767350  41.3739538
 102.7744198  14.5449984  41.0298967  87.6526070  96.1591911  18.6825168
  87.2559166  95.6779957  17.9563582  88.4012413  96.6092300  18.2910359
  99.0126610  13.1068027  22.6998663  98.3878326  12.9160202  22.0002794
  99.8328400  12.7130318  22.4024200  10.7332790  45.1993656  20.8425617
  11.1699212  44.4533777  20.4313684  11.2597418  45.9564066  20.5857396
 113.4100723  11.4284861  15.5151570 113.0778790  11.2637377  14.6326935
 112.6245594  11.4971328  16.0578299 101.5272236  16.7387438   7.3135781
 102.2712708  17.0346558   6.7891192 100.9243679  16.3531423   6.6778815
 115.8001328  18.4953856  28.3183575 116.2490749  17.8199184  28.8267183
 116.4977264  19.0885079  28.0394197  91.9216156 108.9389038  25.0701499
  92.8567982 109.1222763  24.9804163  91.7772484 108.1611633  24.5311642
  73.1972361 104.1027927  18.4761894  72.3586798 104.4595432  18.1832933
  73.6466026 104.8463249  18.8780177  16.5402675  13.3537376  11.2152767
  15.9342349  13.9121914  10.7283640  17.3032022  13.2721722  10.6429935
  87.2842407 104.7556114  11.2756860  87.8714275 105.2581406  10.7109654
  86.8998528 105.4073524  11.8619478 114.8573303  23.8082790  51.2496710
 115.6012917  23.2201529  51.3795471 114.8929405  24.0380907  50.3211498
  84.1669464  12.1091783  13.0766141  84.7959137  12.8282976  13.1358087
  84.6515465  11.3415420  13.3801484 116.5743828  22.9663396  30.9318948
 116.6457558  22.3476648  31.6587925 115.9269428  22.5739884  30.3461361
 115.6985188  27.0851612  18.8951826 116.3787651  27.7451515  18.7613177
 116.0993481  26.2658048  18.6049628  81.9697380  11.3397145  24.1977501
  81.3266563  10.6410146  24.0773058  82.8065777  10.8829236  24.2830324
  95.4631901   6.0422570  37.8792214  95.3252792   5.1129371  37.6959801
  94.6380711   6.4600456  37.6325059  86.1688805  30.4078317  36.7275715
  85.8440495  31.1065292  36.1596489  86.7366123  29.8841095  36.1622095
  15.6878817  16.7659831  24.3230891  15.0017321  16.6639805  23.6635232
  16.4963853  16.5361154  23.8651419 106.7546082   8.9024943  19.4510305
 106.1403179   8.6698771  18.7547803 106.5193081   8.3282220  20.1797795
 116.0530567   5.8188051  63.4838486 116.2143040   6.3217896  62.6855755
 115.1055527   5.8678913  63.6105871  67.7322197 110.2317238  24.4784856
  67.9460859 109.3012905  24.4093633  67.4005985 110.4662895  23.6117435
  25.7337570  33.9841533  40.5365896  26.6812015  33.8747120  40.6178570
  25.4247856  33.1470084  40.1902437  78.3162778 111.8944434  16.2570620
  79.0772908 112.4175195  16.5090108  77.5869649 112.5143613  16.2629926
 105.8284092  11.1843324  13.2735205 105.2874088  10.4001200  13.1809413
 106.2201691  11.3084745  12.4090302   1.3311408  38.4223771   2.6997507
   1.3741069  39.3286633   2.3947430   1.9494888  38.3856893   3.4294981
  49.7624016  48.2928085  94.7618675  49.6141434  48.9089823  95.4792118
  49.1239834  47.5950861  94.9096489  10.2103126  17.2398925  37.7674294
   9.3080789  17.2807837  38.0844998  10.5537426  18.1222641  37.9078150
  86.8576145 103.3474922  23.0818272  86.8541622 104.2098999  23.4971166
  86.2722206 103.4411812  22.3303223  34.0250993   7.9326695  34.6682906
  33.7489128   8.7545037  34.2626548  34.9704766   8.0283993  34.7837472
  88.9121628  95.2219677  21.2519073  88.3090973  95.4664898  20.5499411
  89.7786140  95.2580261  20.8466935 106.8955612  11.7729306  19.9149048
 107.8187180  11.8470657  20.1568055 106.7940426  10.8637702  19.6332061
  99.3149376 106.4060211  10.3247058  99.2650795 107.2722530   9.9204797
  98.4135532 106.0841274  10.3132212 113.4445953  13.5302913  25.9487510
 113.6180210  13.8876164  25.0778461 112.6000786  13.0880678  25.8623886
  17.2360325  23.1440544  38.4284639  17.9051208  22.5178409  38.7048864
  16.7691374  23.3668065  39.2338347  23.5590291  19.4961154  30.6980109
  24.2294979  19.8726690  30.1279998  22.7393413  19.8851681  30.3930783
   5.1487488  14.6863151  33.7568474   4.7008452  14.7356200  34.6013498
   5.8235580  15.3635645  33.8037348   0.0876120  20.8757353  30.7820868
  -0.6151983  20.9832072  31.4229703   0.6217555  20.1616144  31.1298704
   3.1573132  18.5251343  31.5270805   3.9732093  18.1489754  31.1968541
   3.3029273  19.4709063  31.5037847 111.8644714  34.6507168  37.7909017
 112.3658752  34.9943066  38.5303402 111.3826084  35.4070210  37.4561739
 117.4006939  33.7380552  23.2645488 116.5241432  33.3971977  23.4426022
 117.9561424  32.9596949  23.2213187  96.1671162  13.1280613  27.2682810
  95.4851913  13.7378728  26.9866180  96.8964100  13.2914007  26.6702080
  12.3393035  30.6174636  52.0285702  12.6226175  31.1762714  52.7522421
  13.1144619  30.1016116  51.8066311  28.3033037  18.6410367  22.0779538
  28.2222533  19.2751610  21.3655305  27.5481796  18.0626380  21.9708395
  97.3951721 106.3367939   7.0381045  98.2823277 106.1813831   7.3622090
  96.8252373 105.9893894   7.7241904 115.7054138  11.8435395  10.2389586
 114.8182297  11.7096817   9.9054682 116.1094666  10.9766984  10.1994586
  58.1300545  63.8170099  86.1388588  57.8424406  63.0961800  85.5785751
  57.8120804  63.5839558  87.0110989 115.1015091  40.5737734  25.6881618
 114.2446995  40.4489660  25.2800870 114.9647999  41.2783337  26.3215160
  18.8381398  21.5967202   7.2219741  18.8470852  20.9497356   7.9273564
  19.6994376  22.0119119   7.2668523  94.7857189 101.7734528  17.1612179
  94.3438148 102.2948456  17.8313732  95.6314564 101.5505886  17.5501931
  10.2232611  30.1931095  31.4368558  10.7733607  29.5756650  30.9547925
  10.8174467  30.6030107  32.0654702  39.5092416  87.7197933  97.3126316
  39.4598436  88.5769939  97.7357197  38.7870383  87.7207947  96.6844177
  26.6970730  41.1397362  28.9462566  27.5670052  41.4722538  29.1673517
  26.8635702  40.4171085  28.3410144  11.6982865  27.3739958  19.8718750
  10.7510531  27.2816229  19.7696638  12.0578074  27.1043777  19.0267217
   4.4678393  19.1545308  38.8743424   3.6139232  19.2058349  38.4448910
   4.3421525  18.5231006  39.5826721  11.3450015  21.4998031   9.7595996
  11.1748195  22.2597694  10.3161252  10.5967283  20.9216905   9.9082780
  23.5038924  49.6990776  44.8713779  24.3263698  50.1874876  44.8364544
  23.2078314  49.6632004  43.9618254 101.9980621  28.6855984  31.3798213
 102.7814293  28.6516404  30.8308148 101.9857025  27.8420019  31.8319559
  83.7408733  17.4207795  44.6913862  84.4163799  17.8825629  45.1880550
  83.3427715  16.8245280  45.3256035 117.6107311  35.8457851  21.4013052
 117.2079659  35.5383611  20.5892086 117.5481796  35.0993180  21.9972157
 113.9273357  25.3939581  35.9779954 113.4219265  24.7867513  36.5184569
 114.1291332  26.1242390  36.5629721   1.2185879  37.9099941  25.1391459
   2.0059593  38.4309506  25.2968860   0.9092055  38.1975985  24.2801929
 110.2591419  11.9205189   6.9323045 110.1611328  12.7726436   7.3571676
 109.7393513  11.3234150   7.4703687 116.4301205  20.2434516  38.4075499
 117.0881748  19.7333193  37.9353571 116.0881424  19.6406198  39.0677595
  15.3180313  30.5773377  20.7884026  15.9981203  31.0036898  20.2669287
  15.0612068  31.2371469  21.4325500  88.0048180  90.0842285  14.5313144
  88.0425644  90.4407215  13.6437762  88.0596352  89.1361809  14.4111633
 109.9274158  25.9280872  25.1780772 110.7064247  25.4028726  25.3611803
 109.3287849  25.3237033  24.7392130  99.7521114  12.3803866  27.4075580
  99.3847275  11.8452060  26.7041063 100.4317570  12.9025054  26.9812942
  10.4539251  23.8644409  21.2505960  10.6530833  22.9293370  21.2042451
   9.5516443  23.9329171  20.9384513   7.7156740   4.5807508  49.9851036
   8.5182667   4.3885764  50.4700232   7.6978379   3.9295584  49.2837715
  13.8402402  29.2028975  12.9787302  13.6184525  29.4811654  13.8673294
  14.2542028  29.9702668  12.5837457  10.3839123  32.4612999  22.4649405
  10.2054131  31.8074489  21.7890334  11.0431433  32.0523405  23.0256510
 111.9482803  20.3361177  15.3196728 112.8914070  20.4995799  15.3237021
 111.7165470  20.2478313  16.2441921  30.6640291   5.9876037  42.0966959
  31.6154242   6.0709840  42.0324278  30.5225539   5.0946569  42.4111223
  92.6710987  17.1177602  32.5160313  92.9387093  16.3523090  33.0246615
  93.4850025  17.4504089  32.1376848 111.5390396   6.0143977  25.8858871
 111.6046715   6.9693345  25.8813286 110.9607601   5.8175784  26.6228294
  11.6045082  11.1331213   4.8297635  10.8264482  11.3974428   5.3206712
  12.2523463  11.8101954   5.0249743 116.0661602  34.9220133  35.6360888
 115.2925777  34.9188709  35.0723600 116.5890503  35.6593180  35.3211308
 117.0031071   8.7043929  29.6015787 117.7190876   8.6746389  28.9669728
 117.3841858   8.3592242  30.4089642  15.0136709  18.6129999   1.5930420
  15.2889788  17.9495454   0.9603763  14.1475785  18.8869405   1.2912580
  92.9542255  18.1639874  28.1446338  93.0522156  18.4503222  27.2365379
  92.0485973  18.3795702  28.3673501  23.2019448  13.7101042  27.3234081
  23.9635253  13.4402251  27.8366256  23.4862971  13.6305273  26.4128900
  12.5645053  15.5692041  26.7959499  13.3153403  15.0591016  27.0997167
  11.9922256  14.9266052  26.3766718   2.5822914  39.2774820  32.7674842
   3.4175444  39.7183442  32.6118422   2.7871969  38.3449960  32.6988053
 112.6189995  16.9326878  31.5379167 113.3261204  16.6498518  30.9580708
 112.3499680  17.7830422  31.1904287  28.3225036  26.8419790  31.9676328
  28.3606672  27.4482155  32.7073979  28.2016373  25.9814978  32.3691225
 106.1284447  20.6377172   5.6817442 106.0360813  20.3509355   6.5902913
 106.0709000  21.5922117   5.7248425  32.6202226  19.1324449   4.5421726
  33.4743428  18.7585437   4.7587553  32.8176260  20.0151896   4.2290851
  13.2079852  24.0847373  42.4901724  13.5086560  24.9645233  42.7177811
  12.2618473  24.1765618  42.3778200  19.1239059  40.8294106   5.5010509
  19.0736198  40.5001163   6.3984185  19.6786964  41.6070509   5.5620170
  49.1541894  97.7165111  96.9237379  49.0177847  96.8397364  97.2827491
  50.0217886  97.9715094  97.2375499 106.6009235  12.8294206  34.9002099
 106.0358620  12.0628572  34.9967337 107.4889374  12.4865746  35.0008082
  81.0229588  24.6170926  19.9003172  81.5047264  23.8648105  20.2441192
  80.2088547  24.6304941  20.4036021  16.2783265   5.3098971  16.7473817
  16.1561584   4.3662822  16.6429913  16.5197229   5.4198587  17.6670921
  79.4843102  96.9996071   1.3670172  79.5182276  96.6481113   0.4773391
  78.5528755  97.1473598   1.5308209 118.0564213  62.7594423  28.9150596
 118.9315987  62.6420069  29.2845225 117.6919174  63.5034513  29.3944526
  12.1008074  31.8554950  38.1757355  11.6070640  31.0358572  38.1503534
  11.4392090  32.5373578  38.0591917  23.8990092  36.3472724  44.6700811
  23.2994771  36.0234547  45.3423405  23.3911991  37.0028305  44.1919518
  33.5939193  13.0377686  49.1754961  33.5238504  12.0882952  49.0763950
  33.1677794  13.2233381  50.0122786  10.0893092   5.9088594  27.5691414
   9.6742404   6.2290090  26.7682338   9.4639581   6.1178726  28.2630301
   1.9350447  99.8521423  21.6707039   1.8043219 100.2480888  22.5323129
   2.8680968  99.6402264  21.6435671 113.7803650   5.5334002  42.2483730
 114.6183205   5.9011191  42.5291729 113.3284378   6.2632036  41.8248415
   4.2936495  58.2124424  14.0167558   3.5877356  58.7725210  13.6939085
   5.0954348  58.6863708  13.7959206 104.5859241  32.0824718  61.0482025
 104.5292664  31.9608641  61.9959545 104.0519524  31.3765550  60.6838036
   1.3825214  40.9008741  30.8044004   1.9713509  40.1833725  31.0382867
   1.6015831  41.1037159  29.8949504  95.6707191  16.9103432  23.6638975
  95.7599640  17.6268709  23.0355239  95.7434559  16.1165643  23.1339407
  90.8085918  14.0703809  14.7833276  90.5630207  14.5995891  14.0244699
  90.0595284  13.4912872  14.9239993  17.4586213  33.9703608  45.5017757
  16.8971646  34.5745420  45.0160170  18.3153522  34.3970799  45.5142450
 116.1634636  23.5645509  19.7320151 116.4121056  24.0904808  18.9718771
 116.9924736  23.2271719  20.0713563  20.1056123  25.9727478  55.5655956
  19.4176519  25.8792496  56.2245321  20.1660371  26.9160295  55.4146004
  68.9151144  90.5874825  93.8318825  68.0937958  90.2488613  93.4755039
  69.5098352  90.6110096  93.0822277  41.7977524   9.6308559  32.4212241
  41.6463137  10.1643038  33.2014370  42.4432468   8.9802796  32.6974821
  13.8308156   9.6522295  15.2735066  14.6136355  10.2024400  15.2998328
  14.0781081   8.8608289  15.7517982 115.8216667  38.5269690  32.4311924
 114.9865437  38.5164905  32.8988242 115.7230473  37.8618717  31.7499042
 118.7074757   7.3449922  20.4323697 118.9197636   7.1060979  19.5300972
 118.2193851   6.5941769  20.7704186  68.4039545 101.6533184  17.5434196
  68.7519360 100.7625484  17.5843954  67.8281212 101.7207718  18.3050597
 113.5494804   1.5676577  30.0949144 113.1043816   0.7219823  30.0405765
 113.2524681   1.9417834  30.9243989  17.6944840  50.5338001  21.6716099
  17.0009005  51.0157633  22.1220422  18.3866119  50.4421616  22.3264360
   6.1492491  43.4115601  16.5756011   6.2702656  43.9069557  15.7655585
   6.0034525  44.0796328  17.2454154   7.1411830  31.7702246  30.9877586
   7.9811341  32.2292542  30.9902525   7.2799015  31.0138488  31.5577459
 114.8174286  12.9266429  20.7824945 115.0175762  13.6925054  20.2443218
 115.6565857  12.4766266  20.8801651  99.5035362   7.9294276  56.7383289
  99.1697598   8.6207104  56.1665344  98.8044548   7.7883345  57.3767757
 106.9353485  24.1097474  39.3188763 107.3349380  23.2489514  39.1939998
 107.1781445  24.3594456  40.2104664  87.1116638 112.0057487  40.6431484
  86.7782116 111.1460781  40.3862429  88.0525303 111.8729496  40.7587671
 116.4439964  43.0159903  24.9290276 116.5426826  43.6783028  25.6130123
 116.3653088  42.1895266  25.4054737  20.8594608  18.2211387  16.9638622
  21.4117932  18.7229955  16.3644457  20.0756049  18.0175626  16.4536083
 104.9993134  45.5057001   4.4286817 104.3114853  46.1329412   4.6516019
 104.8987484  44.8020649   5.0697839  17.2353601  26.8243504  28.7028360
  16.8000090  26.1775327  28.1475616  17.4992859  26.3332200  29.4808888
 116.5208149   0.7217605  29.8784280 116.5922165   1.4099735  30.5398631
 115.5843067   0.5290093  29.8334646  18.5694551  11.4125323  13.8444281
  18.5916579  11.1270487  14.7577941  19.0557921  12.2369599  13.8392842
  13.2189918  30.1757669  15.5231619  12.8418612  29.7710419  16.3043177
  13.1793821  31.1160779  15.6977332 113.7415981  36.4433050   8.7445128
 113.1432343  37.1176195   9.0662211 113.6412239  36.4682412   7.7929169
 104.2236423   9.2842948  12.2342861 104.2967606   9.2680973  11.2800193
 104.4969940   8.4094739  12.5103271  11.7340267  39.2826629  23.6401200
  11.6102803  40.1600122  23.2779360  11.0569727  39.2032480  24.3120742
 112.5956440  20.0617194  21.2815785 112.1323776  19.2338169  21.1542964
 113.2032871  20.1120687  20.5436969  10.8469951  39.3697333  19.7180271
  11.7494237  39.0507627  19.7073805  10.9258175  40.3156233  19.5942926
 109.9116039   3.9695078  43.8249397 110.0269508   3.4215283  43.0486345
 109.1727352   3.5754439  44.2886400  29.1548896  22.6687479  19.7175789
  29.9522924  22.2835302  20.0808787  28.8470340  23.2679510  20.3975892
   2.7371058   7.2717738  26.5838909   3.4247762   6.8679863  26.0544610
   2.6716280   6.7128235  27.3581767 117.8408241  65.4657507  24.3150234
 117.2433949  66.1952353  24.1502237 117.5861645  65.1377439  25.1774573
   1.1744004  29.1894150  24.1632080   0.4696804  29.8371625  24.1582918
   0.9707094  28.6195016  24.9047875  28.9288163  13.1634438  31.6072941
  28.6851811  13.9517045  32.0925975  29.0258646  13.4597659  30.7023025
 107.7604961  11.3872099  30.9538269 108.1943989  10.6756651  31.4246416
 108.0158806  12.1786988  31.4277005  22.8744531  13.1639075  39.6773887
  22.0707488  13.2587504  39.1662145  23.0398273  12.2212005  39.6909642
 112.3382664  19.4517899  30.6056690 112.6232719  20.1774240  31.1610603
 112.8702831  19.5327687  29.8140693  22.4821401  41.6648340  23.1125307
  22.4681163  42.0445156  23.9910936  23.3146429  41.9547749  22.7395654
   1.5261626  54.7152805  47.3652697   0.9750556  54.4735384  48.1096315
   2.3886946  54.8758364  47.7480125  14.2182887  77.3084068  13.0216968
  14.5034623  76.5749979  12.4767065  14.9362075  77.4399662  13.6409831
  15.5206227  45.2506351  34.9255371  14.7529793  45.5362177  34.4301605
  16.1750889  45.9307289  34.7662377  17.2170508  40.9314585  15.6931126
  17.8046215  40.7156849  14.9689329  16.9344950  41.8281460  15.5132663
 106.9307327  32.2121501   7.6262033 106.2054825  31.8835735   7.0948923
 107.6967239  31.7349243   7.3072392  52.3990822 102.6985359  13.3066809
  52.3557568 102.8057575  14.2568684  52.5193977 101.7578220  13.1770408
  65.0328875  59.3436432  12.0781565  64.3746424  60.0123453  12.2673106
  65.8052778  59.6218920  12.5703180  76.7625952 103.7570667  23.0199599
  76.0381222 104.3762302  22.9304671  76.3609409 102.9700184  23.3880019
  64.4868231  79.3361425  25.9460163  64.2793798  78.4083557  26.0574245
  65.3193665  79.4520855  26.4038944  83.6029911  91.4034271  26.7838955
  83.8391590  91.3973522  27.7114820  83.4639740  90.4817581  26.5660977
  43.8600159  28.2067418  84.7904778  42.9750729  28.3782840  84.4684696
  44.3568754  28.9900470  84.5542622  72.9491282  66.2867451  12.4539924
  73.6215210  66.1642838  11.7838275  72.3226166  65.5803919  12.2965705
  99.6480465  89.8994350   1.8040845 100.2158642  89.2692947   2.2476375
  98.7648392  89.5492172   1.9203214 100.5864716   3.2826582   3.3872989
 100.5370235   3.3004653   2.4315430 101.4147186   2.8415361   3.5760993
  77.0165396 101.3105106   4.0480119  77.2823286 100.8839989   3.2333452
  76.0616398 101.2443924   4.0525055  80.5645657 100.0877380   3.5795856
  81.3074589 100.4323769   4.0751332  80.2384853  99.3613911   4.1109282
  31.6555619  34.4251347  93.3004475  32.0456076  33.7135124  93.8080883
  31.8728185  34.2180085  92.3915386   4.8726967   7.2043359  16.7857850
   4.0525776   7.4466324  16.3557518   5.0828755   7.9551256  17.3410976
  50.6526375  10.6712961  91.2137985  50.1661253  10.2816629  90.4873466
  50.1816607  10.3872013  91.9971848  95.9325123  92.6317406  30.9085441
  96.6679955  92.3556328  30.3616786  95.2581501  92.9010010  30.2848697
  79.7496271  99.5216370  10.2514374  79.3779516 100.1762009   9.6601450
  80.1394558 100.0331593  10.9603906  49.4312763  38.6434078  93.5710335
  49.7080135  38.1166053  92.8212738  50.0050592  39.4092917  93.5504627
  60.7639456 102.9493237  24.7525287  61.0726070 103.5719013  24.0942335
  60.2461529 102.3144054  24.2575431  90.6194592 101.8603039  30.7750773
  90.0406170 102.6198196  30.7093740  90.3177357 101.2688541  30.0856018
  79.3063211  84.6246529  11.3769245  79.2008972  83.6775303  11.4667368
  79.5269251  84.7546959  10.4546154  70.2135468  98.9249611   9.4942665
  70.2164936  98.1981277  10.1171076  70.9723616  99.4541168   9.7400922
  79.2727566  95.1296043  12.3170590  78.8990736  95.6628036  11.6154265
  80.0048923  94.6707344  11.9051743  55.6501007  99.0339947   2.4018572
  56.1140919  99.6692276   2.9472214  55.2202225  99.5636082   1.7303297
  80.8653069  89.5201302  13.6173356  80.7119083  90.1408577  14.3296528
  80.2208805  88.8270283  13.7607026  86.4036655  91.4534950   0.9262209
  87.1688938  92.0281124   0.9478799  85.8486938  91.8195438   0.2375658
 104.5177078  78.9305496   3.7870130 104.9151993  79.8012877   3.7940022
 104.1178131  78.8428640   4.6522456 101.6431427  97.1987534  24.2369652
 102.3265457  97.8657913  24.3020797 102.0812988  96.3825989  24.4781065
  51.7056847  98.7119865   2.2593974  50.9980106  98.2075310   2.6605892
  51.8027782  99.4790363   2.8237021 106.2890720   3.6224779  22.2671080
 105.8636189   3.3709672  21.4473724 106.2635517   2.8298998  22.8032064
  93.0849552 102.1704388  52.2733212  93.9359760 101.8752384  51.9495058
  93.0867100 101.9345474  53.2009983 101.2139320  71.3378572  10.7452774
 100.6308556  70.5838633  10.8332849 100.9260273  71.7707539   9.9415720
  85.6080246 110.0930786  19.3006086  84.9481773 110.6219673  19.7490728
  85.6706905 109.2940521  19.8239231  81.4548874 110.6391907   2.0558171
  82.2365856 110.9734154   2.4956581  81.0934544 109.9960041   2.6656699
 102.9852009   2.9959324  24.4888830 102.4203300   2.6448694  23.8004780
 103.5256577   2.2529209  24.7573543  55.9938383 105.8158684  43.5646677
  55.4841757 105.0337791  43.7763643  56.3163376 106.1277294  44.4102240
  98.3701992  95.7209778   7.3791891  97.6708317  95.8118629   8.0263782
  99.1430092  95.4864788   7.8930032  17.1875000  32.2739077  88.9797211
  16.8980193  31.3871622  88.7649822  16.7092645  32.8361535  88.3702946
  56.1271477 112.1657944  18.9746785  56.1841249 111.2167072  19.0851998
  56.9890356 112.4895859  19.2364836 114.5969582   4.4681922  11.3278615
 113.8376427   5.0225198  11.1478806 114.6155834   3.8444549  10.6020260
  18.0865800  52.4467039  90.2195740  17.9480815  53.0475283  90.9517384
  17.2045374  52.2296715  89.9176979  45.0706911  40.4151106  87.5545406
  45.6237936  39.7701645  87.1136856  44.2522955  39.9500275  87.7281952
  39.0026927  48.1888819  96.6662979  39.8157811  47.6839733  96.6800690
  39.2803788  49.0939760  96.8074512  71.7104340  92.3293877  29.9763942
  70.8216286  92.4316406  29.6360970  71.9541216  91.4332771  29.7443676
  46.6774130  64.7780323  86.4699268  46.2890148  64.6154976  87.3295593
  47.4693155  65.2823639  86.6563892  37.6542616  43.3646297  86.3932800
  36.8468595  43.1851864  85.9114742  37.6562500  44.3144321  86.5120411
   0.8145183  11.4864659  18.0628097   1.6699076  11.0972261  17.8810585
   0.8119837  12.3030710  17.5634289  97.0746136  82.7799702   8.9059067
  97.3169327  83.6968327   9.0358186  97.8973961  82.2994804   8.9974940
  99.7273731  79.1820812  10.3346360  99.7571945  79.3286419   9.3891931
  99.0442467  78.5221577  10.4532754  76.7749357 107.0647526  15.6483614
  76.9555569 107.1118259  14.7095370  77.6120996 106.8176842  16.0412335
  70.7776546 111.5666294  12.0535457  70.9732771 111.2796974  12.9455268
  70.6411266 112.5109386  12.1302330  75.6845522  88.1448555  10.5326879
  75.2067947  87.3174953  10.5914950  76.3672018  87.9815006   9.8818928
  76.6828728 101.0746193  18.3431733  77.3826027 100.5446243  17.9614365
  76.4021397 101.6494179  17.6311171  66.3370228 111.7810249  22.4102759
  66.3944244 111.5960979  21.4728642  65.4451895 111.5291691  22.6499224
  65.7216835  81.7228413  12.2635162  65.7876253  82.3143864  11.5138793
  65.0715971  82.1317482  12.8348398   9.5955241   3.7936765  18.5220623
   9.4636250   2.8465748  18.4792447  10.4790354   3.9281991  18.1792164
  35.5373597  52.0331192  89.4622135  35.3007960  51.5395498  90.2474880
  34.7269487  52.4704075  89.2009735   9.3362629  10.8903515  21.0867977
   8.6643237  11.2854016  20.5312228   9.8104012  10.2970910  20.5041623
  69.9767256 107.7120876  28.3591557  70.0071192 108.6581707  28.5014176
  70.8863211 107.4273014  28.4472275  74.8021889  93.9327240  10.1369536
  74.4487047  93.3433437  10.8032227  75.6570721  93.5617924   9.9182791
   2.2969976   3.5021895  18.2384741   1.8763439   4.0795916  17.6013803
   3.2296076   3.7055010  18.1668174  72.5698328   8.9276773  11.7664492
  72.2548723   8.0460709  11.5669453  71.9193506   9.5091939  11.3728273
  80.2796364  93.1382084  35.3801227  80.5224609  93.1524277  34.4543457
  79.3226480  93.1581116  35.3770542  35.4803872  63.6038971  80.0375843
  36.3417077  63.7019968  79.6317101  35.4136801  64.3447971  80.6399536
  74.9346542  95.1714802   0.4621454  75.1697350  95.4835510  -0.4116882
  74.4907570  94.3376923   0.3073223  49.9825382  34.2171669  93.3047199
  50.4208565  34.4029903  92.4743080  49.0665293  34.4470215  93.1487370
 118.0195808   4.5746142  22.0284772 117.2562313   5.0029904  22.4158025
 117.8507519   3.6388940  22.1387291  57.3777771 106.3538074  10.9535849
  57.1755171 105.4554653  11.2149239  56.8124151 106.5166569  10.1985478
  73.2731485  97.3564339  20.4047060  73.6321068  97.3736477  19.5175278
  72.5989962  98.0359554  20.4035449 100.0868511 109.0017509  20.9215999
 100.5681801 109.5826721  20.3324652 100.0489902 109.4790363  21.7504525
  87.5978279 107.7682018   3.9924055  88.3828735 108.0721378   3.5368201
  87.9185963 107.1108150   4.6098036  41.0675430  46.3430405  96.1366463
  41.0055351  45.6799030  96.8241310  41.9586611  46.6841698  96.2125874
  61.9190836  81.0944271   7.5595891  62.5835085  81.5743065   8.0540448
  62.1858788  80.1776409   7.6271772  85.2332211  88.3895493  11.2354076
  85.1797771  89.2901039  11.5553653  84.5335865  87.9288864  11.6985869
  77.4327135 101.2727833  35.4633665  77.7156067 101.0539532  36.3512397
  77.6958179 102.1856499  35.3463149  99.6874714  86.9594955  10.5450010
  99.1429901  86.2415695  10.8680308  99.3317127  87.1590042   9.6790516
   7.3072416   1.0358977   9.6750516   6.6971028   0.8288217  10.3829229
   7.0682025   1.9223961   9.4044727  66.5631104  82.8257656  15.4374194
  67.1051693  83.4041500  14.9008751  65.9518909  83.4138107  15.8810997
  66.3597202 100.5415154   6.0801005  66.3562346 101.4547920   5.7935160
  66.6301870 100.5793953   6.9975120  89.4364166 102.8736973  10.7833815
  89.3294334 103.4774876  11.5183783  89.4340229 103.4362793  10.0089586
  16.8512797  62.9023886  96.7883492  17.5877059  63.5045195  96.8948746
  17.2539508  62.0767784  96.5191650  83.8658619 106.8204403  11.7806578
  83.1065559 107.1530819  12.2592366  83.5001564 106.4562988  10.9744990
   3.5471007  22.6097441  34.0071177   4.0561765  22.2421837  33.2846403
   2.7865106  22.0334053  34.0817261  63.8869238  89.3238544  20.4879999
  63.5025263  89.0271187  19.6631289  64.4189262  90.0817108  20.2453828
  66.3393641 109.9039459  19.7238100  67.2827005 109.7494793  19.7736919
  66.1853409 110.1532555  18.8125718  54.0732193  39.1895747  95.6244755
  53.2393122  38.7609386  95.4318333  54.0777111  39.9667835  95.0657654
  52.8356552  44.8170853  87.6279831  53.1684208  44.3518019  86.8605137
  53.0062962  45.7402134  87.4410439  84.3351936  83.4308243  16.2622297
  83.8999176  83.6659336  17.0816720  85.1590633  83.9177990  16.2803590
  76.5666771  40.2324963  87.1697998  76.9665432  40.0466919  88.0193996
  77.1485901  40.8769941  86.7670250 101.7749691   0.5720718  26.8033695
 102.7164650   0.7373700  26.7535090 101.3857365   1.4382824  26.9234204
  77.0915079 109.2529297   9.1143137  77.1889019 108.5911465   8.4296286
  76.1747742 109.1876507   9.3818486  48.4901619  65.6461143  88.2010365
  48.5624027  66.4860106  88.6544609  47.8886986  65.1333761  88.7410164
  66.5048742 111.7485142  14.6275437  66.3844442 112.6779652  14.4330037
  65.6888914 111.3366413  14.3433440  46.1301374  45.6321764  95.2303314
  46.8315601  45.8793354  95.8329487  46.3644600  44.7511816  94.9384785
  76.1992693 104.2894459  28.4107876  76.4224625 104.0826225  29.3183327
  76.8895102 104.8877811  28.1247783  52.4846506  92.8170395  17.6193964
  52.7931452  93.4711552  18.2464421  52.0454454  92.1581650  18.1571829
 111.1905670 103.5627365  14.5463681 112.0134735 103.2587433  14.1634142
 111.4493656 103.9866257  15.3646457  87.4133682  91.1229992   8.7064052
  87.2231770  91.5618801   7.8772861  88.1756973  90.5755615   8.5182679
  67.7931976 100.5633163   8.7841493  67.8403664 100.9883022   9.6405333
  68.5856533 100.8502769   8.3303881  79.0520620 106.5662670  23.9138246
  78.6917400 107.4171925  24.1634750  78.7506104 105.9684849  24.5979404
   9.6298224   6.9096094  13.9877415   8.9778829   7.3578483  14.5265257
   9.2333990   6.8675935  13.1175029  78.3724260  88.6811924   9.4813323
  78.7570190  87.8071308   9.5471215  78.0992985  88.7544823   8.5668594
  54.0313244  73.3051872  14.8157501  54.7657537  72.8826427  15.2610600
  54.4392443  73.9616394  14.2510390  95.1397324  10.8512628  14.0138102
  94.3608284  11.3783681  14.1918385  95.7894230  11.1636853  14.6435189
  83.8504601 106.9227219  24.3935084  83.8314533 107.8064251  24.0261817
  83.0586815 106.5052700  24.0543175 103.4342861 109.0336990   7.7319795
 103.3965969 109.0656567   6.7760563 104.0278149 109.7452068   7.9722029
  83.2801819  82.0925426  34.9398041  83.6216068  82.3299980  35.8019376
  82.7876854  81.2858295  35.0911188  55.7678604 106.8482971   6.1640912
  55.4001760 106.2463284   5.5170387  55.6708956 107.7142429   5.7679015
 117.7168369   7.0162481   4.1579074 116.7711449   6.9155282   4.0495056
 117.8409767   7.1103817   5.1023436  61.5302038   8.0241394  91.6974258
  62.0930910   8.2282865  90.9506226  61.9469738   7.2687429  92.1120453
  85.4809952  85.0847244  34.5914030  84.5996189  85.2171707  34.2423105
  85.5746269  85.7566547  35.2666616  71.1103153 102.9624939  12.5869882
  71.1733723 103.6232662  11.8973243  71.2185717 103.4546185  13.4008217
  74.1116428  97.4823093  17.6171446  74.4694901  96.7796803  17.0744812
  73.8175917  98.1430912  16.9901419  77.0771646 103.8321209  20.0260139
  76.6157961 103.0872726  19.6405542  77.1201658 103.6296463  20.9605670
  29.7569752  49.8068619  96.1236000  30.1953363  48.9865637  95.8973598
  30.4373622  50.4743147  96.0352230   6.4010656  16.3054991   3.2736263
   6.1176634  16.5324402   2.3879553   6.4231831  17.1413422   3.7395772
  18.5702193   8.9903051  39.0852165  19.1095603   8.9291835  38.2967973
  19.1126800   8.6107326  39.7765160  38.8709378  41.6433191  92.9956150
  38.0842662  42.0330238  92.6141548  39.2898726  42.3628807  93.4677982
   2.7960673  63.1466436  94.9496365   1.8428373  63.2187033  94.9007320
   2.9652816  62.7973795  95.8246326  97.2890282   5.5486435  44.2681646
  96.8214989   5.1591271  45.0070381  96.8919373   6.4131391  44.1623592
  17.9620647  45.8995152  83.7013817  17.0824659  45.8033323  83.3362961
  17.9000092  46.6608047  84.2782879  31.6678095  22.8533578  89.5671368
  31.0454392  22.4256492  88.9789581  32.5226498  22.5193429  89.2952728
 114.4281578  14.2506135  13.2041645 113.7294769  13.8523483  13.7232590
 114.0942192  14.2429256  12.3071373  11.8179142   6.2147683  10.0735021
  12.4026322   6.9425750   9.8622340  11.7197454   6.2547821  11.0248137
  45.4614305  36.9442010  93.0473709  44.7655630  37.5679278  93.2546616
  45.4124165  36.8376684  92.0973778  76.3583183  96.1653137  15.2723002
  76.9802761  96.4535332  14.6042228  75.5083752  96.4721394  14.9565637
  62.6568747 112.2353077  17.2140646  61.9994974 112.8905487  17.4480283
  62.3245907 111.8397903  16.4082217  66.3025522  73.7625217  19.1263103
  66.8968964  73.1921816  19.6138585  65.4586172  73.3119535  19.1577971
  73.1463766 109.7154617  25.3893781  72.4992085 109.9586773  24.7273707
  73.5624266 108.9276028  25.0395155   7.7520239   6.8415076  22.7592468
   8.3108854   6.6070831  22.0183349   6.9165319   6.4126337  22.5741696
  33.0451775  58.6569643  95.4477024  33.0686331  59.0388107  94.5702744
  33.1578970  57.7174807  95.3031540 113.0203629  19.6031165  45.0779247
 112.3182392  19.6777797  45.7242012 113.2016945  20.5057240  44.8159075
 107.2234917  48.3809805  33.9596748 107.4488544  48.9242411  33.2044888
 106.5272808  48.8650608  34.4037318  91.0012150 100.8999443   7.1334040
  90.3835011 100.1712513   7.1939433  91.2133884 101.1102581   8.0427909
  73.2914114 101.4631367  19.3212807  72.3616695 101.3312054  19.5067680
  73.3522320 102.3758316  19.0392983  79.6537399 110.0911713  29.8647904
  78.9701319 109.4255638  29.7880888  79.4075727 110.7618427  29.2277479
  90.9896564 105.9418297  15.4668343  90.0484562 106.0743999  15.3536808
  91.0910225 104.9926567  15.5377471  35.4369140  38.8745427  92.5020504
  34.5769358  39.2489815  92.6930141  35.3274393  38.4429765  91.6547012
 100.9221077 100.5328083  47.5678778 100.9431839 101.3277531  48.1006432
 101.8224239 100.4263687  47.2607517  18.9093018  70.8028793  76.2885046
  18.0806947  71.2668514  76.4083815  19.1300023  70.9408951  75.3673792
  94.8994637 109.8437595   8.5525328  94.4734192 109.4961834   7.7690083
  95.0281715 110.7731152   8.3628893  97.1836472 108.0316448  16.8066072
  96.6150761 108.2922077  16.0819936  96.6058826 108.0126858  17.5695300
 106.3336086   4.7680396  38.0587316 106.4082813   4.2004547  37.2915912
 105.7163906   5.4497468  37.7931261  84.9473858 103.6819649  21.4409399
  84.8065662 103.8169193  20.5038214  84.0702343 103.7174225  21.8224955
  72.8859997  84.9990273  12.2193539  72.5485516  84.8584080  13.1039929
  73.3416843  84.1851044  12.0046377  82.3239803 109.6422577  30.5570483
  81.4224529 109.8440742  30.3065443  82.8582382 110.2306175  30.0235319
  58.2083082 107.6355934  13.0850255  58.1224966 108.5493088  12.8129911
  57.7926207 107.1363544  12.3820388  68.8228083  91.7290115  13.0173028
  68.2124901  92.2900581  13.4958136  69.6870279  92.0862389  13.2216167
  40.7276106  64.8394012  83.3235455  40.8369923  65.6014967  82.7548027
  41.4638090  64.2686224  83.1034184 114.6356869   4.4863340  23.1591463
 114.0902042   4.5704177  23.9411998 114.9481773   5.3748369  22.9884267
  30.0471592   7.0712930  39.2303586  29.0985179   7.1069348  39.3529963
  30.3995442   6.9740307  40.1150036  90.0106716   2.3491304  27.3803067
  89.6266270   2.6655513  28.1979966  90.3868771   3.1301212  26.9744015
  96.4211655  11.0434282  29.0304518  96.4048100  11.6913414  28.3260560
  96.5810204  11.5554905  29.8232126  89.6704102  97.8116417  17.6070201
  89.7412300  97.3167419  16.7907524  90.5702114  97.8755856  17.9271770
 103.6343384  19.9999547  39.6360970 103.6521053  19.2860293  40.2734566
 104.4025135  20.5299950  39.8486972  16.8036222  18.6824071  20.3557825
  17.2037327  18.7382352  21.2235546  15.8631182  18.7487221  20.5209684
 104.3519306  35.9654713  14.5978630 103.5226822  35.5481219  14.3646193
 104.8698235  35.2645350  14.9937272  19.6555471   3.5319924  16.9763219
  18.8568878   3.9592761  16.6668010  20.2975321   4.2393827  17.0370257
   0.2249411  33.5696173  20.2506781  -0.0486013  33.5661221  19.3334007
   0.8587149  34.2845798  20.3088903  65.0165653 103.3478737   5.4278260
  64.0729427 103.1873703   5.4213911  65.2252102 103.5127640   6.3473439
  80.6909752 101.5269661  11.9536591  81.2558842 101.4321518  12.7205503
  80.7182980 102.4618816  11.7501736  84.5774555  98.1456947  12.2825110
  84.5366192  98.6464882  11.4677930  83.9126682  98.5457134  12.8431165
  80.8849239 106.4551449  19.5227861  81.3549042 107.1497345  19.0613830
  81.2010288 105.6452084  19.1223943  27.7629852  76.5339136  87.2059727
  26.9915080  76.9444704  87.5964928  27.5852323  75.5946541  87.2552109
 103.5967827   4.0543127  28.0536461 104.3152428   3.5457677  27.6775718
 103.6286259   3.8577420  28.9899039  91.9123173  20.0342131  26.0372734
  91.0933685  19.5408309  25.9912324  91.9297600  20.5454302  25.2282119
   7.0446044   4.0155858  28.7158823   7.1189415   3.5113841  29.5261216
   7.4784207   3.4743088  28.0562973  87.7585983 106.9579887  26.4043832
  88.5623360 106.5888977  26.0383129  88.0408478 107.7628422  26.8388700
  70.3511429 110.7824707  29.3890166  69.7734785 111.4759636  29.0702438
  70.9613132 111.2297153  29.9754500  43.2642841  74.6412325  94.1357613
  43.7107229  75.2317715  94.7425461  43.5403061  74.9360371  93.2679272
  82.5860691  86.4175987  15.9459722  81.9942570  87.0880604  16.2872601
  83.2963562  86.3766479  16.5863192  82.6643562  38.6848044  92.4783134
  82.8458500  39.5854115  92.7470016  83.4573650  38.4072566  92.0196915
   7.9113352  64.1183472  83.0226421   7.2107923  64.0036774  83.6647606
   7.6443684  64.8818016  82.5106907  60.9747505 107.1922970  42.6313686
  60.9531546 106.9393730  43.5542917  61.5083933 107.9867363  42.6131582
 103.7281132   6.1456174  45.7588625 103.5061836   6.6656035  44.9864674
 103.7817478   6.7840242  46.4700508  35.9534907  51.6861773  96.1554623
  36.8449783  52.0344019  96.1702919  35.9126091  51.1666679  95.3525448
 100.8156967  14.7208178  31.6284847 101.5220833  15.3046715  31.3521338
 101.0381699  13.8749337  31.2396169  32.7724886  29.7893143  24.9708629
  33.0682540  29.4608402  24.1218281  32.5652122  29.0015006  25.4734707
   1.6719732   2.7520815  31.4395308   1.3502562   2.0254481  30.9059262
   2.0901453   2.3309448  32.1905351  68.3689880  83.5247231  87.5020313
  68.4777546  82.7895546  88.1052971  67.8625250  83.1643391  86.7741203
  13.8102221  16.6907489  21.9122171  14.0606558  16.1319077  21.1765480
  13.2202339  16.1480260  22.4352837 103.2626629 110.1810265  16.0706103
 103.7456226 109.3564987  16.0147226 102.3863411 109.9262047  16.3593423
  77.1537066 111.2055206  32.2623134  77.5985765 112.0468330  32.1597290
  76.5220928 111.1793613  31.5435529  76.5391016  96.0055447  33.0714250
  76.5494680  95.7568264  32.1471596  75.6114244  96.0124207  33.3072162
  42.1801424  49.1927195  89.5716286  42.4096298  48.2708597  89.4544029
  42.8150034  49.6676493  89.0353203  36.3635254  42.3713636  89.6205711
  36.4817309  42.6171303  90.5380917  35.8521676  43.0879021  89.2446423
  92.4501514  97.0426178  29.6117115  92.0538807  96.3574123  29.0734816
  91.8075085  97.2067547  30.3018594   1.8897013  17.1838939  15.5140519
   2.4776885  16.8782747  16.2047768   1.1875954  16.5336645  15.4921126
  20.2956796  15.4879558   4.6616489  20.3327799  14.6205866   4.2585039
  20.5234909  15.3357351   5.5787981 118.5700607   7.7406967  23.5263062
 118.4676647   6.9011533  23.9745402 117.7166080   8.1650281  23.6146402
  53.7619400  46.4696312  85.2713871  54.1414928  47.1131849  84.6730518
  53.9866543  45.6226826  84.8861408  33.0214691  51.2217188  95.6905842
  33.9660239  51.3679361  95.6389332  32.8827453  50.8589602  96.5654564
  23.2564163   2.1105146   7.6536930  22.6308656   2.0872979   8.3778346
  22.7127647   2.1918479   6.8700725  79.2835188  94.2185593   2.9403687
  80.1687527  94.4251633   2.6405334  78.7699366  94.1424084   2.1362127
  73.0012751  77.2500420  24.4520712  72.3714590  77.5322342  25.1153421
  72.9427004  76.2946510  24.4572759  23.5396791  60.8321047  86.6757774
  24.3450356  61.3290977  86.8194103  23.1794596  60.7010365  87.5528717
 107.1268463  17.3997080  40.0151396 106.5666199  16.7143047  39.6509886
 108.0015373  17.0112300  40.0302505  51.4389849  53.6730385  89.6281528
  51.9041586  53.3794212  90.4115009  50.7182789  53.0507660  89.5302105
  46.1279154  49.2553186  90.2165318  45.5006075  49.6207714  89.5927048
  45.5997801  49.0274858  90.9816456  89.8163223 102.9891300   3.3855361
  90.4712772 102.4945164   3.8781020  90.2162933 103.8482761   3.2509696
  37.8425956  85.7291031  92.1270275  37.8106880  86.6733932  92.2803783
  37.5920057  85.6269550  91.2088680  81.8581295  94.9594021  29.9181867
  81.6897678  94.3531609  29.1968274  82.2729492  95.7158184  29.5034790
  79.3660736 110.5248070   5.2681935  78.6850500 110.5649948   4.5967579
  79.9126577 109.7823620   5.0108129  96.1393642  99.5248795  12.6264012
  96.0094357  99.3794155  13.5635185  95.6033993 100.2923679  12.4265814
  73.6126947 109.9237537  32.8958583  74.3516064 110.3296566  33.3491611
  73.3873367 109.1661930  33.4358001  80.9893759 112.6269052  30.2939653
  80.2914553 112.2081612  30.7977414  81.1263879 112.0458667  29.5457315
  41.2108469  86.4936352  93.2694530  40.6291103  87.0628643  92.7656841
  42.0269489  86.9886303  93.3414650  76.6978073 100.6583881  25.9020209
  77.5385046 101.1101818  25.9751248  76.1983681 101.1817169  25.2751899
  68.5920334  64.1002655  95.0830078  67.8593874  63.5838747  95.4188633
  69.3582439  63.7553120  95.5414391  90.1566696  84.3662167  13.6269641
  89.9306011  84.2681789  14.5519054  90.8429909  85.0333786  13.6175597
   7.7855557   6.0751903   7.1805608   6.8640238   6.3340515   7.1792597
   8.1625468   6.5353775   7.9304522  84.0527534  99.8794365  20.0634837
  84.6736908 100.1241398  19.3773413  84.1851902  98.9388847  20.1820326
  53.3139038  33.4292054  93.4868145  53.5983038  34.2638636  93.8592339
  53.0768490  33.6384225  92.5833416   6.4154577  18.9969802  43.3911419
   6.2180012  18.4821188  44.1735506   5.5632186  19.1477489  42.9822588
   0.6744472  42.6939201  24.1501713   0.6977716  42.0428371  24.8514366
   0.6428797  42.1775103  23.3448410 104.1327572   0.2807520  19.2744732
 103.6377048   0.5336640  18.4952462 104.9566174   0.7626123  19.2016816
  74.3664122 112.6331997   1.1840747  74.9204588 112.3786259   1.9219473
  74.1041565 111.8040085   0.7842049   0.2257696  14.1633058  17.0744848
   0.7162209  14.8228955  17.5650251   0.2738456  14.4566536  16.1646128
 111.6221237  28.3450365  27.1255064 111.9902611  29.0064502  27.7113748
 111.6007519  27.5450850  27.6507211  79.9749422 108.3292389   9.4695574
  79.9456549 108.8586712  10.2664721  79.2643929 108.6724377   8.9277470
 106.0148907  28.6294365  26.3152742 106.1859512  28.1202340  25.5230117
 106.6546154  29.3408394  26.2855482  80.2467060 109.8275948  26.1603189
  79.7299528 109.3431854  25.5164671  80.8827400 109.1903687  26.4853382
   5.3373134   5.0760043  18.5038912   4.8157364   5.4432905  19.2175364
   5.3285724   5.7533741  17.8276324   7.3508447   6.5286744   4.1267863
   7.6910084   6.3734043   5.0079286   6.5329629   7.0059544   4.2664456
  80.6759930  97.6460361  18.1094849  80.9838676  97.3596096  18.9693725
  80.9185028  96.9331264  17.5185692  95.1142979  29.4643974  20.3785825
  94.8378468  28.7765312  19.7730708  94.3765926  30.0738931  20.4016232
  39.9723220  51.5103245  88.5609913  39.7609186  50.6500816  88.1983185
  40.0426149  51.3619947  89.5040035   1.6289935  14.8812473  27.2216654
   1.4089610  15.0162959  26.2999392   2.3921555  14.3037617  27.2036028
  20.4734182  27.6298952  26.0620093  21.0580564  28.3116913  26.3930440
  19.6150005  27.8557992  26.4202213  14.5067441   9.5418257  62.7361631
  14.4662797   8.6862493  63.1634617  14.7060275  10.1540911  63.4444332
  12.4964273   9.0663636  12.6707518  12.8415382   9.7563547  12.1041453
  12.5724173   9.4228899  13.5558200  24.7168422  65.1322889  92.2509098
  25.5503106  65.5983305  92.1847916  24.0899515  65.8007193  92.5273991
 113.2083797   1.8773188  13.1746566 113.2157230   1.1065051  13.7421286
 112.3039532   2.1891911  13.2059801  75.2442265 102.1468067   6.9688439
  76.1594915 102.4003124   7.0882571  75.2813196 101.3740063   6.4052474
  82.4569995  97.9054443   0.4246065  81.7620189  97.4403945  -0.0411967
  83.0124194  97.2118703   0.7805463   8.9554369  26.6147685  21.1200356
   8.5093987  27.3151922  21.5961552   9.3985564  26.1073804  21.8000603
 114.8705864  26.3151717  14.6383703 114.0747070  25.8623838  14.3594646
 114.6788025  26.6103196  15.5285037 107.0729446  23.4938645  29.9231148
 107.2454929  23.0866408  29.0742183 107.6537704  24.2543459  29.9464345
  91.7824936 101.5849113   4.7323713  91.5341091 100.7338619   4.3714631
  91.5046883 101.5472507   5.6475985  89.3353367 105.0759983   8.9501482
  90.0507069 105.5314350   8.5062408  88.5965729 105.6824398   8.8982666
  29.7239685  61.1469603  82.0384026  29.7987008  62.0597124  82.3168564
  30.5015802  60.9960556  81.5010166  26.2758660  67.6129770  96.4352989
  26.6181946  67.2385979  95.6235790  26.5422034  66.9943047  97.1154022
  83.8248539 107.6018238  14.9022210  83.3820915 107.5778770  15.7505286
  83.9132118 106.6821098  14.6521246   5.7888776   4.3351766  35.8215785
   5.4916549   5.1899433  36.1334515   4.9843639   3.8299078  35.7045627
 111.7993736   1.3477542   5.3783000 110.9688854   1.4791383   5.8357590
 111.5497780   0.9862928   4.5278400  12.8328550  19.9865496  27.6875401
  13.4382606  19.2952204  27.4196243  11.9954062  19.7359550  27.2975254
  57.0774078 101.0521698   3.6481223  58.0159569 101.1941051   3.5247701
  56.9479465 101.1153984   4.5944163  19.5249104  20.8235788   4.5195159
  18.9805889  20.8142495   3.7322047  19.0898371  21.4441776   5.1041526
  32.9374003  65.7148600  91.8398857  33.4408784  66.1461401  92.5303555
  33.3572698  65.9951258  91.0266304 106.5561104  22.2071671  48.2430935
 107.4662971  22.3871875  48.4784079 106.5993214  21.4147258  47.7079248
 103.1595898  14.6006370  12.2983217 102.4491978  14.6724391  11.6608179
 102.7427006  14.2429328  13.0822122   1.8328729  25.9220338  12.0637476
   1.7567365  26.2477636  11.1669004   2.4684274  25.2085900  12.0063043
  76.3155508  89.8197651  12.6062465  77.1188927  90.2535629  12.3186827
  76.2094879  89.0861893  12.0005643  22.1833563   8.3463258  38.2199287
  22.6578808   9.0001464  38.7333250  22.7856421   8.1133473  37.5133872
  97.5497341  22.9050827  17.8855431  96.9413280  22.6655197  18.5846007
  98.1292057  22.1477652  17.8023815  -0.0519201  14.7885704  42.7369213
   0.6859664  14.4988894  43.2734346  -0.2044507  14.0652430  42.1288395
 110.4231644  21.5134549  36.8166018 109.6037579  21.5408397  36.3225770
 110.1669884  21.2141728  37.6889753   3.3062032  33.6494684  93.4967709
   3.9627886  33.5927033  92.8025723   3.0279782  34.5653081  93.4889793
 111.6057205   4.9049112   5.8077025 111.8856716   4.2079663   6.4011037
 111.5364170   4.4786823   4.9534437  90.4284286  15.6827056  31.6379929
  90.9223270  14.9202430  31.9395518  90.8532619  16.4271271  32.0641136
  10.4042184   4.0032196   9.1083592  10.9223080   4.6956053   9.5187443
   9.8210180   3.6968812   9.8028135  58.8344336  85.4247952   6.5040338
  58.3111286  86.0113811   7.0502019  58.3987284  85.4387093   5.6518602
  63.3314323 106.4675903  14.4892120  62.5943232 106.7561054  13.9510059
  63.6319590 105.6607056  14.0710592  16.5200841  13.1838572  17.2347140
  15.8058596  13.7932718  17.0483613  16.7356408  13.3413756  18.1539285
  71.7873383  88.7542057  12.6746643  71.7050648  88.0754185  12.0048058
  72.5863600  88.5261726  13.1498492  52.8382969  44.2797232  92.0893669
  52.5209999  45.1731873  91.9579220  52.5615406  43.8091612  91.3031101
  45.7807112  43.9974117  86.9100380  45.6909990  43.2451534  86.3249779
  46.6385508  44.3651056  86.6975784  87.0346737  90.6059074   5.7805806
  86.5180302  89.8112869   5.9143370  86.4152336  91.2348747   5.4105335
  64.0420341  51.9175148  82.1734047  64.9730778  51.8490934  81.9619560
  63.7101603  51.0240030  82.0855045  94.3141460 105.2082062  16.9146919
  93.9905071 104.5368767  17.5153637  94.6613312 105.8933735  17.4858558
 109.2520142   8.8964331   3.0085236 110.1733303   8.7114757   2.8262958
 109.1678238   9.8414630   2.8817874  24.5929193  13.0357468   7.8902292
  25.4402471  13.3892059   7.6194310  24.8037028  12.1985471   8.3036286
  42.9732752 110.3838825  11.2914538  43.3169127 111.2425613  11.5380573
  42.0361519 110.4381180  11.4787960 105.3261089  35.3233194   2.4023558
 106.2390518  35.2420831   2.6783419 105.3169918  34.9920940   1.5043370
  68.5418510  86.6436195  11.5250123  67.6210737  86.5002537  11.7437613
  68.6659622  87.5881386  11.6183996  33.1724501   3.4368750  25.1598167
  33.9657187   2.9017976  25.1853156  33.4616375   4.3071380  25.4341245
  86.5605927 108.4426403  15.4184246  87.2556496 108.4633636  16.0762274
  85.7544231 108.5735512  15.9176016  79.0664053 110.8249283   7.7839005
  79.2628002 110.6830502   6.8578714  78.1425428 110.5903244   7.8714865
  37.7953291  66.6660929  88.7398529  38.3253431  66.3755035  87.9976463
  37.5140667  67.5495768  88.5019970 117.5294209  31.1250901  33.3593059
 116.7746067  31.6213846  33.6758256 117.2198296  30.7035875  32.5576067
  31.3462043  88.2712936  96.3049126  31.3825464  88.0855942  95.3666019
  30.9230709  87.5015068  96.6851997 113.5644245   3.9425039  15.1684797
 114.4750023   4.1737479  14.9851584 113.4959126   3.0214837  14.9169648
   4.7707438  38.9809060   8.1440669   4.2751077  38.2716656   8.5533988
   5.3905332  39.2599916   8.8180143 107.4577904  24.3349600   7.1380222
 106.7480564  23.8522625   6.7143220 107.1932983  24.3929219   8.0561262
  10.9507823   8.4546864  46.6004562  11.7851567   8.8624686  46.3685846
  10.7995915   7.8092164  45.9099913  85.5885983 109.6249771  12.9099548
  84.6415043 109.6117973  13.0480087  85.9595966 109.4835758  13.7809336
  15.8587742   2.4049027  25.2007008  15.5029726   3.2265985  25.5390120
  15.1320052   2.0093161  24.7195053  10.4321694  27.9168510  25.7420182
   9.6767360  27.5854778  25.2564836  11.1893785  27.6324582  25.2301693
  73.8493681 107.4336052   4.8836666  74.7042704 107.8639793   4.8711807
  73.4084368 107.7539539   4.0967813  31.1353683  62.4988270  77.8744173
  31.3749194  62.4857759  78.8010645  31.8197584  61.9873381  77.4428797
  87.0643711  91.6621017  42.3547411  87.8929806  92.0368767  42.6533651
  86.7916107  91.0850430  43.0680656  10.6601393  15.7444477  30.0496793
  10.4489970  14.8223042  29.9037218  10.6176865  15.8523965  30.9998250
   8.0833894  23.7305355  10.7149386   8.5645562  23.3080602  11.4264333
   7.7150404  24.5203662  11.1108100  48.5581970  67.6110315  96.1363888
  48.3828688  66.9894552  96.8428802  49.1882467  68.2270765  96.5102386
  14.2803729   5.8101839  24.9005890  13.5882175   6.2739241  25.3718615
  15.0913346   6.2192571  25.2026367  70.2266550 110.5790043   4.0085196
  70.6060600 111.4434910   3.8505679  69.6973991 110.4039192   3.2304046
  93.7310219 100.5734634  21.5495038  94.1574764  99.7246933  21.6676116
  94.4015026 101.2136364  21.7879868  14.7206247  11.9832146  13.1123781
  15.1522362  11.2894273  13.6109781  15.3913021  12.2937572  12.5041115
  12.8037715   0.8776874  20.0993681  12.8165781   1.8342575  20.1316404
  13.0341053   0.6654516  19.1948605   2.2243534  24.8513293   0.7830827
   2.3238659  25.7271123   1.1563592   2.5970653  24.9217796  -0.0957543
  57.5471830  51.6120577  96.5665913  56.7469215  51.3128138  96.9981861
  57.4629211  52.5651741  96.5399933  89.6808243  86.7638779  35.8193135
  90.6280899  86.6267490  35.8301616  89.5149612  87.2250175  34.9970770
  65.0545549 110.8702469  17.0697892  65.4388189 111.0993195  16.2235630
  64.2061043 111.3133430  17.0753825 114.5289803  22.3090816  14.4236541
 114.7350788  23.0227757  13.8200068 115.3337955  21.7928028  14.4678402
  11.8911397   1.7150556  37.9214907  11.2518644   1.5508193  38.6147332
  12.3017049   2.5444773  38.1658840 117.5287437  13.6605620  11.4863205
 117.9102612  13.9657211  10.6631863 116.8881512  12.9998553  11.2229872
  20.8558273   5.0732380  35.3043962  21.2043667   4.5135698  34.6104789
  20.1182556   5.5279201  34.8975992  29.4446421  48.0616665  91.7715168
  29.5157433  49.0096188  91.8836117  30.0691772  47.6987076  92.3995686
  71.4244413  76.2502193  94.8357868  70.8815432  75.5684853  94.4398975
  72.0849514  75.7703447  95.3354645  14.5279658   1.3452455  35.0475550
  13.6948764   0.9483125  34.7933102  15.1687777   0.9611611  34.4491649
  14.2912006  27.6724029  21.0150170  13.3715308  27.6497006  20.7505870
  14.5028400  28.6045218  21.0659313  91.3244629 110.7266045  15.3100753
  91.9413471 110.8868599  14.5959270  90.4767704 111.0012436  14.9604905
  54.8389912 105.9755421  34.7836900  54.0985203 105.8737183  34.1857266
  54.8968792 106.9189739  34.9347520   1.8568009  12.2300065  23.8709331
   1.5617961  11.7094803  23.1237674   2.0589200  11.5841758  24.5478988
  73.2415771  46.6570663  90.9215641  72.4986029  47.0193100  90.4388523
  73.2567453  45.7313681  90.6784916  91.4197063  88.3075142  16.2010479
  90.7445240  87.6385689  16.3144517  90.9771729  89.1314507  16.4048374
 109.9614620   1.8457147   7.1888494 110.3616142   2.4672866   7.7969271
 109.2847061   1.4076652   7.7049410 118.7385178  -0.0102576   2.2357121
 119.1714859   0.8182140   2.0297854 119.3987465  -0.6780858   2.0504111
  25.7719040  74.3438959  92.9237461  25.8129573  73.4478855  93.2579803
  25.2882457  74.8274231  93.5934544  57.6563311  93.8860416  44.1146708
  58.3568239  93.7910938  43.4692764  57.0858335  93.1328392  43.9614964
  78.7215376 101.7383194  13.8452280  79.6222925 101.8961143  14.1280222
  78.6533689 100.7855606  13.7832737  85.7630157  97.4934006   3.9029363
  86.3591576  97.4880219   4.6518126  85.1584816  96.7709732   4.0728444
  13.8121903  18.4986806  44.5587015  13.8600302  19.1298580  45.2767277
  14.6315050  18.0071807  44.6168709  99.6719456  13.0260730  47.1252871
 100.2509975  13.7405431  46.8598366  99.5186615  12.5305378  46.3208103
  96.6019249 101.4039993  10.0481915  96.3918018 101.4531326  10.9807503
  95.8368397 101.7770195   9.6103108  92.7829170  96.8330860  18.1948388
  92.6804161  96.6185284  17.2676456  93.4285069  97.5397015  18.2072163
  50.7497692  31.9515562  94.3898106  50.5189133  32.8452682  94.1364002
  51.6415405  31.8326974  94.0629292   3.1260386  10.9826863  30.4607749
   2.3402733  11.2979901  30.0142455   3.6292085  11.7750812  30.6482935
  53.2729912  66.6540384  79.3550968  53.2334518  66.2967920  78.4679461
  52.3599529  66.6882181  79.6404505  87.5343227 105.4049683  17.0007074
  87.5591087 106.3456631  17.1759558  86.7870712 105.0865936  17.5071394
  12.9148042   2.7078682   4.6820113  11.9622409   2.6313803   4.7368360
  13.1455517   3.3275825   5.3740674  67.9377270  41.3248968  85.6396866
  67.6958895  40.9349108  86.4797211  67.9189205  42.2684860  85.7994175
  17.2392094  16.7517900   7.8083211  16.3954985  16.3565040   7.5889271
  17.3170888  17.4965060   7.2120285 101.3592148 111.6177464  10.9213495
 102.2571278 111.4449596  10.6382716 101.3805580 111.4996815  11.8710005
  90.8586884   1.3659433   3.9987636  91.3539124   1.7507859   3.2756582
  90.6231308   2.1113136   4.5511836  86.2830830   5.4497486  37.9185176
  87.1235561   5.9078312  37.9199958  86.0534000   5.3677005  38.8441229
  15.8837974   2.4929014  16.8181801  15.0783575   2.3006947  16.3380182
  16.4625561   1.7568460  16.6194534  81.8616199 105.3219318  51.2275648
  82.4649048 105.5126286  51.9458389  81.0519505 105.7718182  51.4689875
  20.3380203  12.3037314  25.5487776  19.4790292  12.2227180  25.1342845
  20.8163238  12.9170048  24.9907875  99.9492931  32.5019193  22.3922324
  99.1547585  32.8691125  22.0047784 100.3407574  31.9831038  21.6895080
  42.7705956  54.5019531  94.3602943  41.9532204  54.7249842  93.9148998
  42.6703596  54.8644829  95.2404976   8.0537575   5.9852153  18.6898327
   8.5016739   5.2137220  18.3428442   7.1235251   5.8006781  18.5600388
  24.0476990  44.2071390   8.1150413  24.7714067  43.5814476   8.0835897
  23.2677865  43.6654091   8.2354379   6.4719898  35.2271843  14.5170057
   7.1844125  35.6326985  14.0227950   6.2660360  35.8610153  15.2040827
  19.4741213  17.6907146  24.7749996  19.0630364  18.4632111  24.3870687
  19.2393458  17.7344811  25.7019281  17.6266587  35.0494528  28.0081391
  17.4124074  35.0760269  28.9406753  18.4566164  35.5213571  27.9395294
  35.7000709 102.7187824  73.9351797  35.4672050 101.9609070  74.4714928
  35.0367188 103.3753777  74.1475201 101.2208366  23.3555055  15.4187179
 101.5119362  23.8725400  16.1698282 100.9894562  22.5038648  15.7893980
  26.1008453  34.9047780  30.7881212  26.4910150  34.3058825  30.1514721
  26.6032147  35.7141781  30.6946993 117.9611206  17.9347014   7.3359090
 117.4917698  18.7014425   7.0072007 117.9214191  17.3034048   6.6174936
  98.2762146 110.7865143   4.8379457  98.7666130 110.7547855   4.0165198
  97.6958275 110.0263023   4.7999170  60.5610514  53.2811546  84.3825722
  60.0562859  52.6433277  84.8871803  59.9051905  53.8877821  84.0389442
  27.5618696  11.0723829   6.6592968  27.1740198  11.8918967   6.3523728
  28.4992218  11.1745155   6.4944619  14.3704867  14.8821247  10.2274168
  13.7864137  15.2701557  10.8789694  14.3420804  15.4896533   9.4882721
   5.2785116   2.2616084  18.3360052   5.6976748   1.9787557  17.5232756
   5.6331527   3.1360507  18.4966671  47.0272732  80.6985760  90.3882694
  46.3840389  81.4034367  90.3131199  47.6780462  81.0330009  91.0054302
  70.3168726 108.9933300   6.2180984  70.1840353 109.7255325   5.6160384
  70.0902128 108.2174778   5.7053488  57.2297525  81.6542721  94.3169594
  57.0430326  82.0482159  93.4648037  57.1398973  80.7126427  94.1703796
  82.7706051  98.6630344  14.2618275  82.0060730  98.0964565  14.1583610
  82.6745224  99.0373993  15.1375306  75.1966381 107.5717735   2.3588887
  74.6975756 106.7978191   2.0978132  76.1096048 107.3337555   2.1974248
  13.1743300  11.2609959  11.0512888  13.4302318  11.9033396  10.3893673
  13.6837161  11.4993262  11.8258572  24.4745851  32.9269123  26.7525601
  24.8865485  32.1445513  27.1192074  25.0579715  33.1943059  26.0423541
  31.6772795  72.7776003  92.0268822  30.8026409  72.6993179  92.4078178
  32.2599077  72.3982573  92.6848125  60.5692816  83.8662529  81.6286755
  60.9040499  84.7629642  81.6194916  60.5193949  83.6197567  80.7050991
  39.6164560  80.6071568  91.2140560  39.1567540  80.5608273  90.3757477
  38.9313936  80.4794216  91.8702602  24.7886348   3.6237097   4.6800649
  24.2633295   4.3858996   4.4364429  24.3890309   2.8954783   4.2044312
  35.6227684  57.4513721  90.1888752  35.1527619  57.5330114  91.0187340
  36.4674902  57.8718758  90.3496647  21.9012976  33.2043028  25.1544833
  22.1465588  32.3965812  24.7031951  22.6583791  33.4120512  25.7021165
  43.5718536  12.8928053  31.3880992  44.3932772  12.5077176  31.6933918
  43.4389734  12.5153530  30.5185556 100.9501934  94.2230225  26.4621186
 100.1337910  93.9289570  26.0580802 101.1856174  95.0144100  25.9778500
  13.3803093  24.1149759  28.9356446  13.2580280  23.7611389  29.8165989
  12.5029480  24.3809295  28.6604428  27.9926872  26.4145613  14.0747464
  27.8705907  25.4657626  14.0414929  27.1784544  26.7733431  13.7218583
  40.8682442  14.7225654  40.4399586  41.3448000  13.9188433  40.2322102
  41.4056349  15.4223728  40.0688601  49.8137045  14.4230616  29.9451804
  48.9746761  14.8729694  29.8459482  49.9353552  13.9578104  29.1175485
  29.5800567  12.1527159   5.4013675  29.1986990  12.2079432   4.5251560
  29.5829630  13.0557871   5.7186747 101.9425774  19.8422647   0.6181620
 101.5752220  18.9660132   0.5021380 102.7916431  19.8062670   0.1776721
  17.0604444  21.9147897  16.3728380  17.9523122  22.0850921  16.0698521
  17.1148813  21.0665178  16.8129528  42.6527262  64.9049139  90.7729626
  41.7127705  65.0005436  90.6194496  42.8795528  64.0722799  90.3588295
  18.9054811   5.2952021  40.4810095  18.1533265   5.0212312  41.0058260
  19.4068086   4.4915304  40.3431177 110.5825138   6.7984754  15.8608317
 110.9237480   7.4447066  16.4790392 109.6823978   7.0782924  15.6943142
   8.5775405  38.7945795  32.4425364   8.7826163  38.1515050  31.7638373
   9.4246829  39.0088868  32.8332448  83.4908009 110.5607700  40.9391737
  82.6080418 110.6531906  41.2975264  83.5375404 109.6496391  40.6495237
 114.3815613  41.1574650  34.0048504 113.6977768  40.5203772  33.7979913
 114.0865517  41.9684315  33.5906887  22.5712252  21.9715691  29.4818950
  22.3951769  21.8059111  28.5557222  21.7485809  22.3224330  29.8230457
  47.9419422  35.5642056  19.2719007  47.1787357  36.0614872  18.9778566
  48.6244249  35.7735705  18.6342382  15.8670795   0.0347645  47.2165203
  16.0284591  -0.3043928  46.3360882  15.2803540   0.7791163  47.0826340
  12.8050768   3.4996197  19.3984008  12.3701239   3.7746167  18.5912919
  13.1488502   4.3104172  19.7734463  35.8700609  96.8359852  78.6603403
  36.1496425  96.2392902  77.9660559  36.6841960  97.2112846  78.9958525
  34.0079641  21.1948991   3.1500781  33.7269402  21.2637591   2.2376552
  33.9411688  22.0874858   3.4892809  29.9079442  13.8357818  24.8768234
  30.2025056  14.0339363  25.7657552  30.6307054  14.1183019  24.3164420
  27.4704957  66.1213589  94.7320747  27.1758771  65.2640915  94.4246387
  28.1568933  66.3742924  94.1147327 109.3623829  15.4477215  16.0781562
 108.4681320  15.4539812  16.4194894 109.5705032  16.3709605  15.9348130
  19.9813259  15.6694496   8.3503491  20.5158138  16.4523315   8.4832078
  19.0788352  15.9856999   8.3919251   8.7255031  37.0106268   6.0191256
   7.8608578  37.4208164   6.0382074   8.8172686  36.6050410   6.8812811
  16.4965141  30.5176497  15.1686645  15.9393978  29.8756361  15.6087458
  16.4915621  31.2777901  15.7503772  47.4577427  42.9878187  90.0584221
  48.1102371  43.6632252  89.8732185  47.7529573  42.5874233  90.8762074
  10.5602574  19.2493749  18.6225760  11.4712572  19.2663968  18.3292782
  10.1979518  20.0847340  18.3273768  19.3107498  33.2617784  13.1384087
  19.6692681  33.5362124  12.2943807  19.9811304  32.6870847  13.5079336
  26.5848136  22.4084544   8.2619965  26.4120960  22.8778577   7.4458712
  26.8959141  23.0833769   8.8652605  16.3218391   9.4380033  10.0124860
  16.1164200  10.2464938   9.5430416  16.4292729   9.7108096  10.9236753
   7.2603947  22.2285819  25.3104806   7.8356582  22.7685189  25.8524895
   7.1898967  21.4011741  25.7865667  19.2375755   5.5100292  13.2925320
  19.5131600   6.3416684  12.9069662  18.3294964   5.6577593  13.5567319
  20.3744650  26.8491125  16.2085927  20.7598901  26.7188525  15.3421569
  19.4300306  26.8509555  16.0527945 113.7256527  25.2167344  31.0817814
 114.0344810  24.4049382  30.6794858 114.0280342  25.1648545  31.9884825
  72.0241976  52.8619623  77.5005817  71.3857651  53.3240795  76.9573641
  72.8723145  53.2010555  77.2143126  45.6837511  69.4041443  92.3693466
  45.2417755  68.5560751  92.3284912  46.5890360  69.1917372  92.5964546
  13.0109477  19.3455923   9.0852344  13.5731494  19.7433901   8.4204656
  12.4320376  20.0547433   9.3648738   9.4671744  20.9536576  15.7210803
   9.2905951  21.2599778  16.6105855   9.2477173  20.0221586  15.7405591
   7.8934574  11.2252784  18.6558962   8.5263151  10.5095947  18.7152207
   8.4282970  12.0071995  18.5188651  42.7148390  71.7394161  92.3557186
  42.1834087  72.1711016  93.0246449  43.6186028  71.9149256  92.6177216
  73.4972239  52.4587488  96.9146156  72.8815985  52.2891092  97.6276779
  74.3521547  52.5061607  97.3424911  77.1890354 111.6984844  25.6509089
  77.4527073 112.1794891  24.8664713  76.2932110 111.9898510  25.8207178
  37.5217772  53.2717991  92.9854202  37.1021461  52.4316502  93.1705856
  36.8958497  53.7345362  92.4283600  18.6709166  12.5057828  23.2742071
  18.4736049  13.4020841  23.5461330  19.3306756  12.6035380  22.5876260
  42.5177336  42.1829939   4.6406633  42.2674465  41.7778206   5.4709780
  43.3543062  41.7748260   4.4175491 100.7460976 111.7937279  17.8411996
 100.6818962 110.8394337  17.8033936 101.5851021 111.9939709  17.4262130
  25.0880837  26.8702745  32.1522117  25.2089238  26.8033552  31.2050319
  25.9035134  27.2572017  32.4709535  93.7942886 108.1155109   5.1920819
  93.7911129 107.3635006   5.7842845  94.6953678 108.1653214   4.8730204
   7.8059959  12.4985552  13.5553944   8.2360613  11.7413914  13.9528596
   7.8149199  12.3134470  12.6163054   2.0567350   9.7865540  25.4585290
   2.1040866   8.9165199  25.8547997   2.2379865   9.6372765  24.5305753
  12.8033316  29.4098186  18.2906723  12.6884103  29.0571523  19.1730857
  12.4696982  30.3053260  18.3453095  17.3408163  24.2899179   4.2129749
  17.3123980  23.9198422   3.3306655  16.9408059  23.6195374   4.7668830
  58.1382370  98.1317043  83.6468220  58.2440090  99.0089989  84.0147781
  58.9863157  97.7100277  83.7853527  22.1698642  28.0539727   1.7470250
  21.9785261  27.3038483   1.1840587  22.2041059  28.8001180   1.1484206
  34.5048952  30.1349664  17.4659455  34.0957665  30.0904059  16.6017342
  34.7865438  31.0458374  17.5509262  92.1507645   6.7016482  29.3483472
  91.8854427   6.0301101  29.9767399  93.0993652   6.5979910  29.2732477
  26.9284511   8.4055030  42.0048666  27.0451188   7.4971926  42.2834158
  25.9852266   8.4949780  41.8686438 117.9664421  14.5368195   7.1783823
 117.5452995  15.1405466   6.5665138 117.9030895  13.6817074   6.7529392
   1.9785549   6.1954045   6.2210977   2.4064527   5.3391767   6.2241888
   1.1882314   6.0700953   6.7463773 114.9621868  22.2641659  24.2285132
 115.2455616  21.5672350  23.6367249 115.7164001  22.8507304  24.2862916
 115.1743984   9.4299877   7.9789412 114.3377018   9.8154247   8.2389551
 115.8335590  10.0251281   8.3360893 112.0710182   7.4904966  21.5740323
 111.9970512   6.5870118  21.8813992 111.3396072   7.5972301  20.9658599
   4.5863146  23.2903147  25.9807634   5.5284816  23.1359649  26.0495377
   4.2847031  23.3387780  26.8879080  29.2531371   2.9918927  11.6167700
  29.0151930   2.0831591  11.4328754  28.4319353   3.4763390  11.5321004
  83.1553268  83.1561661  92.8494263  83.8349056  82.5382042  93.1187534
  82.3420048  82.7788544  93.1846619  48.7010574  78.7104893  95.2380371
  48.4621191  79.5434237  94.8313904  49.5176029  78.4588385  94.8065853
  11.5058935   3.6029807  28.5401368  10.8988714   3.1483504  29.1241455
  11.0176086   4.3678150  28.2354426  26.8120575  15.5414045   2.4431029
  25.9157300  15.7772613   2.2039364  27.0453000  14.8395681   1.8354377
  13.8238263  15.6472778  35.4439259  14.0930068  15.6710696  36.3621879
  13.1328356  16.3065529  35.3797340   1.2088303   7.8583640  55.9757519
   0.5861502   8.1227452  56.6529560   1.4162898   6.9473332  56.1836386
  29.7358847   6.7943388  29.4175839  28.9291549   7.2348964  29.6846581
  30.2208757   6.6676992  30.2330470  17.7610624  12.6216817  19.8550332
  18.1434214  13.2082951  20.5076575  18.5053730  12.1268272  19.5124662
  18.7150204  35.8392358  20.2295065  19.2140019  36.5603113  20.6133032
  18.4455276  36.1648893  19.3706965  14.5578659  14.0058970  28.0143404
  14.9729764  13.2095492  28.3456206  14.9583280  14.7129750  28.5202098
  13.8855588  30.6496286   8.4454316  13.3153760  30.1682281   7.8459519
  14.4611371  29.9812269   8.8171601  51.0249758  76.5199280  84.2087746
  51.3045454  76.9139862  85.0350857  50.0845194  76.6931868  84.1668892
  12.1206617  22.5568175  24.3613005  12.7119911  22.7753830  25.0815725
  12.4426949  21.7171669  24.0334105 101.5155602  15.2002132  26.9059443
 102.3439407  15.6753194  26.8404913 101.2706947  15.0195813  25.9983945
   7.6498115   9.7666317  23.1752396   7.4774039   8.8946378  23.5303950
   8.1535906   9.6050453  22.3775387 118.2847786  22.3965096   6.8744665
 117.7615833  22.6677203   7.6287502 118.7818241  23.1784439   6.6341329
  49.1890192  72.4168682  89.9665642  49.1337633  71.4612627  89.9669266
  48.5030890  72.6962090  89.3601799  26.6576481   7.3921728  27.2893620
  26.5250683   7.2544706  28.2272816  27.4794793   6.9415915  27.0949435
   2.9199675   2.5675592  26.7718124   2.1321544   3.0692616  26.9812799
   2.8320166   1.7606586  27.2791648  36.5437460  40.1088810  28.4145069
  36.2297750  39.6384406  29.1867375  36.4767408  39.4724512  27.7026772
   6.5357846  40.9422636  15.9781075   5.9260845  40.2493000  16.2316740
   6.1134112  41.7508221  16.2680542  36.8268538  74.1126680  82.8824043
  36.6383791  74.0933657  81.9441414  36.7286348  75.0327158  83.1275558
   8.8079005  13.9251554   1.3874333   8.7838191  14.5901489   2.0755002
   8.8995528  14.4237947   0.5755278  36.7030621  33.7510991  23.3588147
  36.6376424  33.1899762  22.5860977  36.7974401  34.6355796  23.0052352
  13.1332064  21.6005993   4.1459131  14.0005887  21.2028384   4.0706488
  13.1799304  22.3828673   3.5962689  15.6442845  22.1846342  12.5953722
  15.2678180  23.0109739  12.2926104  14.8883832  21.6147804  12.7371967
   6.0988778   2.0918459  15.5322933   6.9059861   2.5700900  15.3423166
   5.4043937   2.6385197  15.1647735  23.9755774  31.2028408  19.9415553
  24.7733164  31.6943765  19.7460127  23.2998347  31.6207719  19.4077611
  58.0172348  89.9596310  87.8040028  58.4956694  90.7770729  87.6657581
  58.2590771  89.4113922  87.0575523 110.0636196  14.1238737  20.4285979
 109.8374271  13.5404587  19.7042394 109.2225647  14.3494463  20.8260560
  95.3651905 110.8758545  18.8134098  95.0111198 110.2668667  19.4614911
  94.6700573 110.9622383  18.1610596 114.0468407   9.3317711  20.7505345
 113.3879185   8.6541742  20.9019279 113.9142895   9.5955783  19.8400033
 107.6755524  12.5654900   4.7020498 108.6268616  12.4656904   4.7379944
 107.5339031  13.2953501   4.0991631  37.7334833  41.1571789  12.9316103
  37.4326086  40.9751940  12.0413363  37.4949956  40.3752565  13.4295619
  21.6156363   4.4096854   3.2225835  21.0050416   4.2012388   2.5155067
  21.1490417   4.1652325   4.0218112  17.4672055   7.8493124  21.7230129
  17.4613988   8.3534831  20.9093738  17.1135271   8.4496576  22.3793125
  33.2727647  60.5818224  82.1346569  33.2425737  60.7420683  83.0778599
  33.0367279  59.6589375  82.0408249  18.3261967  26.6265273   9.7900182
  17.4606037  26.2675214   9.5948339  18.9343917  26.0505915   9.3267369
 117.4826717  20.1125479  25.4954219 117.7282238  20.9639359  25.1333833
 117.6351070  20.1994395  26.4364028  23.5677767  12.0235789  16.8243861
  23.2730222  11.1805737  17.1689045  23.3455753  11.9929302  15.8938372
 109.0544128 107.9881668  20.8080339 108.5214329 108.6215115  20.3273702
 109.9256039 108.0638981  20.4187727  86.1018276  80.4786682  18.8933134
  86.7498875  80.3428364  19.5845509  86.6026211  80.8439732  18.1639314
  24.4031954  21.3186741   9.7236949  23.9049315  22.0950055   9.4682097
  25.2194262  21.3840985   9.2279929  23.0202556   5.1544356  30.8660150
  23.1978440   5.1897246  29.9260950  22.8919387   6.0683608  31.1199999
  40.0406981  39.6775603  14.9572790  39.1007304  39.5932770  14.7973120
  40.4198122  38.8830757  14.5813835 101.7818165  19.7740543   6.6756195
 102.7033234  19.6262252   6.8882316 101.3906860  20.0693297   7.4978507
  22.1669984  13.5337543  12.7691567  22.4771094  13.7202585  11.8829966
  22.6210809  12.7284789  13.0172944  27.7421951  22.6998639  10.9001243
  28.6843896  22.7843189  10.7539475  27.5828624  21.7560267  10.8961976
  47.0318985  90.8519745  93.1154251  47.1847439  90.2516556  92.3857117
  46.7031145  91.6509628  92.7034187  12.0184505  13.2406509  43.3340359
  11.4253795  13.6578584  42.7091885  12.8513145  13.6972356  43.2152939
   9.1327840  15.0565362  24.9877596   8.8713181  15.1068676  24.0683389
   9.2337912  14.1198683  25.1571131 118.1468582  28.4784913  19.2698598
 118.0966663  28.7345004  18.3488965 118.9131641  27.9069352  19.3181503
  18.1262517  44.6784925  17.0366287  18.9263725  44.2026711  17.2594166
  18.0439889  45.3424931  17.7211499  12.9354703  32.9904580  15.1831377
  12.7727723  33.8439155  15.5848467  12.5398040  33.0555081  14.3139720
 105.5093861  19.6848762  19.5702672 105.4112720  19.4429159  18.6493647
 104.6228790  19.9061418  19.8555326  69.3662119  52.2576618  96.1681366
  69.8498058  51.6930771  95.5651379  68.4630346  51.9448042  96.1169338
  83.7809181  85.1794243  89.0081501  84.4482040  85.6846142  88.5436726
  83.1160450  85.8247375  89.2484379  41.7133141 110.8952332  84.2260742
  41.4758205 111.6119194  83.6376953  40.9570026 110.8000088  84.8050117
  84.4839191 105.5871296   1.5041724  84.1061020 105.5408096   0.6259147
  83.8080788 105.2219200   2.0752175  13.5249341  31.7562079   4.3481013
  12.8301227  31.3219190   3.8532677  13.0625248  32.2655916   5.0136369
  14.0625715  27.5120354   8.9813262  14.4195616  27.0378900   8.2303441
  13.1587029  27.2047758   9.0509355   8.4833974  37.5042844  21.3853288
   7.7495784  36.8896794  21.3862014   9.1568720  37.0739484  21.9120860
  14.5696366   5.3173107  12.6113653  13.6406481   5.4402936  12.4162042
  14.9132550   4.8451856  11.8529093  21.0086393  10.7631242  11.9480586
  20.4400516  11.2807715  12.5181293  20.5743647   9.9124259  11.8852186
   4.3998712  23.3838224  13.4296262   4.3300045  23.0477357  12.5360966
   4.1148913  22.6560521  13.9822268  12.5228274  11.6677797  30.0566816
  12.3052168  10.9884262  29.4184375  12.8165305  11.1852098  30.8294034
  34.9996185   1.1812418  17.5645447  34.6025252   2.0512712  17.6045251
  34.3357348   0.5978362  17.9321432 117.9612160  54.5727873  17.5668395
 117.4462795  55.3678942  17.7042234 118.8300610  54.8897696  17.3201275
  21.3585401   9.1085035  17.8682828  21.1272764   8.8438570  18.7586260
  20.5258274   9.1145164  17.3962796 116.4241028  20.6200933  22.2732782
 115.8984089  20.6498003  21.4739084 116.6080475  19.6899509  22.4045444
  12.5854576  20.0199509  23.6009765  12.2389531  19.5252740  22.8583717
  13.5359180  19.9438870  23.5168791  70.9261751  82.1222115  85.4729748
  71.4374256  81.6722679  86.1455917  70.0532770  81.7345619  85.5362892
  38.9898276  74.6849585  91.8144226  39.1541648  75.6065655  92.0140839
  38.6336184  74.6921873  90.9259987  59.0386009  71.7899227  79.1061974
  59.1676903  72.6628065  78.7351990  59.9028921  71.3808727  79.0624809
 113.8719177  16.9564569   4.0657422 113.9327526  16.0552347   4.3824905
 113.8934517  16.8771195   3.1120789 113.8676071  16.2848341   1.3283412
 114.7120476  16.3455653   0.8817381 113.9354992  15.4934025   1.8624362
  77.4440956 101.0874081  29.9249744  77.3262119 100.8619499  30.8477426
  76.5545797 101.1363220  29.5748353  43.6155987 100.3229046  71.8132734
  44.1616583 100.9123993  71.2931299  42.7593517 100.7499981  71.8391562
  48.6861134  19.1933763  25.7981277  48.2083464  19.1252184  26.6247630
  49.3660736  19.8454380  25.9675431   6.8825984  12.4274278   2.9233894
   6.9984555  11.4866829   3.0568370   7.6605946  12.6977575   2.4356639
  39.6762466  85.5885220  79.7135067  39.6899128  86.4768314  80.0698090
  39.2919993  85.6858253  78.8422298  93.0117798  98.6293507  84.3061543
  92.9106426  99.1441154  85.1067924  92.4687099  99.0814972  83.6604977
  74.9562311  47.2206974  94.8096371  75.2726603  46.3267183  94.9396515
  75.4670286  47.7473593  95.4244137  18.5869777  51.1637211   7.7398014
  19.4108498  50.7608414   7.4656624  18.4120095  51.8283319   7.0735335
  54.7874451  59.8370600  94.0066433  55.3458357  59.2243004  93.5281467
  54.8237133  60.6445837  93.4939861  23.3209801  16.6002202  17.2015655
  22.7714276  16.7302382  17.9744303  22.7072549  16.3516080  16.5103590
  78.2455301 106.3149071  20.2694082  79.1984844 106.2784195  20.3517413
  77.9912472 105.4229450  20.0327921  30.1144266  25.5588245  43.7663698
  30.4452801  26.1990047  43.1363392  30.1620102  26.0071182  44.6107626
   1.4664352  17.3122835   8.4930557   0.6798515  17.6314080   8.0507016
   1.8175527  18.0814016   8.9418393  43.2287455  41.2019634  11.3647819
  42.3214912  41.0511303  11.6300631  43.6819315  41.4257193  12.1776700
  14.6905351  19.8962748   7.0593613  15.4713619  19.3502975   6.9674355
  14.3316066  19.9519742   6.1737537   6.5520293  25.2692389  21.5357137
   7.1945429  25.9046936  21.2201118   7.0761657  24.5864511  21.9544196
   7.2183746   9.7597003   4.0707368   6.4937317   9.1345209   4.0873304
   7.8867680   9.3373591   3.5311908  16.5250158   1.1354057  11.9448006
  16.6805804   0.3565660  11.4105344  16.6340733   0.8330578  12.8464234
  10.3658032   4.0509665  50.3565693  11.2738717   4.2556044  50.5796528
  10.4253793   3.5590863  49.5375824  51.0887623  87.6664639  76.1437559
  51.3353920  86.9474316  76.7254734  51.7266083  87.6275349  75.4311085
   6.2518996  13.8764703  10.2988291   5.9933949  13.6170673   9.4144553
   7.1136791  13.4787369  10.4228270  18.0060196   5.3304547  19.2010784
  17.8557491   4.3851429  19.2071044  18.2492614   5.5400610  20.1028156
  73.0167627  55.0202799  96.5190506  73.1084108  54.0687799  96.4693069
  72.2376680  55.2134466  95.9975815   6.7219722  11.3354540  57.7342653
   6.5688854  11.3193965  58.6790037   5.9373462  11.7464888  57.3714352
 116.8581200   9.4132590  10.2036333 117.5666142   9.0297991   9.6866894
 117.0703983   9.1837120  11.1083317  17.7635992   5.4313785   7.5978613
  16.9143605   5.4255331   8.0394405  18.0909371   4.5372999   7.6963741
  18.1774580   8.3003634  15.3664804  18.6297631   7.9355901  16.1271334
  17.8108299   7.5384969  14.9177325  15.6683421  33.6054134  38.2185221
  15.7812715  34.4424629  37.7681613  14.9734497  33.1629968  37.7310562
  68.4852505  95.3202724   8.9325851  67.7186632  95.7276249   8.5292935
  69.0754700  95.1430511   8.2001483  39.4181085  23.7563515  15.6057990
  39.9367929  23.0541801  15.9984255  39.3993497  23.5468507  14.6719956
  16.7180467   9.7385091  12.6441503  16.5735543   9.0497255  13.2929420
  17.3427653  10.3323889  13.0604017  87.2940063 109.6343708   7.9083532
  87.6518726 110.4738140   7.6193798  86.7001247 109.8608208   8.6240733
  58.6417866  92.3035812  90.8227825  58.5059929  93.2197857  90.5811977
  59.4349766  92.0468998  90.3524590  47.1122980  12.0233238  20.3134322
  47.4349737  11.5326667  19.5575440  46.4624786  12.6243925  19.9491751
   9.2356348  25.6337452  15.0303733   9.3331110  26.5724659  15.1901722
   8.3679628  25.4211020  15.3741181  57.4651051  93.0776119  95.5022335
  58.2215452  93.5914135  95.7851505  57.8350878  92.3948479  94.9426174
 109.6784496 109.1885948  12.5568604 110.3407955 108.7078190  13.0532277
 108.9325333 108.5904884  12.5110090  48.6618185  29.7556639  13.6955273
  47.8262615  29.7131729  14.1605711  49.2377377  29.1671085  14.1835368
   3.3429244  11.7172360   8.7225229   2.3979056  11.6432524   8.8555574
   3.5345882  12.6425278   8.8752705 102.9832458 106.3466835   7.4901402
 103.3105659 107.2382450   7.6093930 103.0534458 106.1897182   6.5485108
   9.9134582  37.4541569  34.9845028   9.4734782  36.6190028  35.1431465
  10.3164423  37.3525715  34.1222286  30.4647207  17.5527692   3.7975731
  29.7639918  17.9047871   4.3464750  31.2680817  17.9088426   4.1771185
 100.6389427  96.9697571  10.9987664  99.7433281  97.2851181  11.1197662
 100.6045437  96.4542580  10.1929677  79.1359091 109.0742779  19.1424930
  78.8575172 108.1945229  19.3969584  78.8068962 109.6408367  19.8403454
  26.4746666  28.9625621  17.9159045  26.7768312  29.8158288  18.2271326
  27.2770548  28.4923363  17.6894271  22.7769804  24.3474817  20.3983641
  22.4003005  23.8581157  19.6670187  22.7791023  25.2575707  20.1017809
  29.6143007   4.9980646   6.0602152  29.2525434   5.2553695   6.9082469
  28.8502502   4.7529683   5.5383062  60.5230999  62.7630568  16.4179265
  60.1386166  63.0738354  17.2375727  60.5945730  61.8152618  16.5311158
  14.4104528  57.9306889  33.6767578  14.9249732  58.0531836  32.8789496
  15.0469804  58.0115986  34.3870521   8.5574907  49.6128798  18.8051486
   7.8068221  49.4397831  18.2370245   8.1889009  49.6375608  19.6881914
  50.6710863  76.1103964  95.8679008  50.4344845  76.1349583  94.9407291
  50.0886106  76.7480087  96.2806988  29.4623566  45.6686687  22.5669718
  29.3370104  46.4439154  23.1142545  30.2545094  45.8564377  22.0635128
  32.6269054  22.1204257   6.5121907  32.1390247  21.3346672   6.2656397
  31.9587111  22.8005886   6.5966171 102.2807026  13.8198352  87.5566864
 101.6046524  14.4970441  87.5805569 101.8608856  13.0487549  87.9380322
  43.2987499  37.8886509  20.2534556  43.8028717  37.2755671  20.7884526
  43.1917048  38.6601281  20.8098722  25.0397587   4.3981582  17.2132170
  25.9570551   4.1254666  17.2341108  24.6909881   4.1308326  18.0635870
  53.7307644  29.6524715  19.4581437  54.1421080  28.8462496  19.1466367
  52.8588772  29.6445870  19.0631986   9.2249656  41.5998888  14.0802491
   9.4001734  42.3857689  13.5626340   8.8279229  41.9280624  14.8870277
  39.7354484 100.8849239  87.6648140  38.8379788 100.8673763  87.9971981
  40.1886129 101.5091133  88.2316208  17.9577243  37.0860505   7.5064373
  18.0806422  37.5858092   8.3135074  17.0386481  36.8194199   7.5274527
  17.9472303  48.8897085   8.9710838  18.0430245  49.6591949   8.4098852
  18.2042968  49.1944313   9.8413086  43.1364059  35.9951329  30.0429392
  42.3783398  35.7260180  29.5241475  43.3067656  35.2518368  30.6214905
  37.7523589  54.9879646  13.0943537  38.3455110  55.7290077  12.9708421
  37.3035526  55.1752424  13.9188123   2.0512070  67.8046417  14.0438533
   1.4361900  67.1020269  14.2543805   1.9072379  67.9782248  13.1135988
  26.6367674  40.8760118  40.3146124  26.0491395  41.6087294  40.4991245
  27.4773502  41.1437035  40.6860876  36.7025614  32.3689389  11.7128336
  37.1500087  33.2137108  11.6640234  37.0814085  31.9412637  12.4808204
   6.6888535  30.6188440   5.8918941   7.5264513  30.1665640   5.7913756
   6.9247061  31.5418601   5.9848994  43.6683927   0.5106139  17.1736062
  42.9636002   0.7105422  17.7896655  43.2647429  -0.0693345  16.5278852
 107.9729366  16.9925606  19.5125794 108.0128765  16.9398201  20.4674911
 108.8390350  17.3073077  19.2536509  23.7244749  41.1551571   5.1427436
  23.3849120  40.6813431   5.9019756  23.1487656  41.9151115   5.0575572
  56.2487650 104.6292400  82.6139259  57.1600533 104.9053383  82.7116489
  55.8647919 105.2758121  82.0216942  39.5574021  51.7553282   9.3870878
  39.0306497  51.5060377   8.6277354  40.2735329  51.1203432   9.4006938
  26.8190789  16.8766832  25.9110808  27.3008657  16.8246698  26.7365551
  27.4589992  17.2073650  25.2806973  23.2311511  18.5850275  13.0873013
  22.9686403  17.9211664  12.4496424  23.9572930  18.1842530  13.5651410
  15.6789660  36.4359212  15.4196739  16.2659073  35.7735109  15.0550580
  14.8045075  36.1562586  15.1488566  13.5973752  24.5327878   1.9374169
  13.3284163  25.2041173   1.3103519  13.8303220  23.7787151   1.3958083
  46.2883902  34.8676276  13.5750186  47.0804548  34.4193840  13.2784677
  46.6102171  35.6002402  14.1003180  51.9287443  77.2367239  89.0798092
  52.2315931  76.4155102  88.6923599  51.2219286  77.5271988  88.5033894
  19.4008446  39.0833473  19.7917366  18.5488486  39.2374039  20.1999044
  19.3116879  39.4417787  18.9086688  69.5985889  92.0302773  86.1524963
  70.1615715  91.3058949  85.8794403  70.1733589  92.6013660  86.6621208
  16.2098670  20.8249116   0.3030676  15.8576429  20.0308490   0.7051062
  15.7324815  20.9074044  -0.5224809  17.1657944  10.3135729   4.2257610
  16.4174807  10.2966237   3.6291283  17.9186332  10.1076269   3.6716381
  17.7956319  36.9208097   2.1387359  18.4455466  36.3163161   2.4971077
  18.1069183  37.7881861   2.3975554  57.0006657  82.5990677  91.5401173
  56.5665436  83.4208870  91.3112640  56.4009476  81.9183159  91.2349224
  22.9424620  46.6375732   8.3162308  23.4325886  45.8153868   8.3124727
  23.6131716  47.3158789   8.3954817  58.4151983 108.3055592  89.2442417
  57.9367447 107.5200653  89.5094204  57.8285456 109.0291309  89.4645119
  94.5266628 108.2664871  91.7531490  93.8756275 108.1117058  92.4375629
  94.0102386 108.4338760  90.9647942  16.9484389  33.4851861   8.5300177
  17.8551614  33.5413146   8.8315749  16.8347704  32.5676036   8.2823265
  26.3989449  41.2303591  16.3376629  27.1364355  41.0277367  15.7620907
  26.2345839  40.4155064  16.8122435  43.4217119  38.5808611  28.8377881
  42.9116583  39.1681051  29.3956566  43.0698109  37.7099371  29.0218687
   8.4513223  39.1458917   0.7731740   7.5210989  38.9727831   0.6284340
   8.5732424  39.0274906   1.7151657  26.6057539  29.7741914  49.1588211
  25.7653880  29.5087814  49.5324183  27.2162700  29.7416377  49.8953247
 116.6224575  22.8864527   9.3303806 116.1112404  23.5508895   8.8684106
 116.0846424  22.6538682  10.0872755  23.8708425  33.7381124  13.2220364
  24.3777442  33.5224581  14.0048373  24.1823745  33.1230998  12.5580037
  23.9152288  40.6333351   2.1822758  24.5085406  41.3467264   1.9471388
  23.9739585  40.5774927   3.1360388  11.9416058  26.9931531   1.1750434
  12.4526310  27.3690724   1.8918207  12.5748444  26.8712354   0.4676693
   6.8790376  45.0105572  28.3187699   6.0276067  44.8336697  27.9187584
   6.6686231  45.3854656  29.1739893  56.6837263  57.9665089  88.3620644
  56.6490746  57.2506285  88.9965343  55.7738638  58.2491827  88.2699680
  16.1948752  35.8067346   0.2398236  16.7163646  36.1516762  -0.4849486
  16.7518961  35.9186029   1.0101768  69.1677999  87.4981976  93.7463665
  69.0407181  87.6212692  94.6870708  69.4899511  88.3442497  93.4354877
  14.4020367  34.2999244   1.7585893  14.8095572  33.4530830   1.9402981
  14.9243081  34.6691751   1.0464671 117.9336166   9.5271170  36.8497801
 118.8262653   9.7477043  36.5838003 117.4381351  10.3356516  36.7193961
   4.4207039  47.1444750  19.2644393   4.6821216  47.1968365  20.1837587
   3.6156818  47.6599264  19.2146170  20.6239223  70.9189558   5.1549774
  21.4688301  71.0803318   5.5748826  19.9797904  71.2683916   5.7707864
  72.0958424  88.0729961  94.7434616  71.3044739  87.8132725  94.2717457
  72.2685623  88.9667892  94.4475842 104.3031120  39.2838717  36.2944627
 103.6457348  39.6587896  36.8805718 104.1115570  38.3460546  36.2883544
  45.9899044  21.6416907   0.2897544  45.6871367  21.4179492   1.1698128
  45.4300594  22.3704362   0.0219160  31.4813638  49.7816801  14.3742037
  31.2678099  50.7103300  14.4649160  31.3711309  49.6006346  13.4407675
  41.3136959  44.3196297  26.0821223  41.8163681  44.9098015  26.6435957
  41.2654209  44.7730017  25.2404833  31.1454296  40.7410145   2.5677893
  30.4888535  41.1824322   2.0290010  31.8737078  40.5744791   1.9693696
  25.2673078  61.7208338   8.9873743  24.3292785  61.8976736   9.0585130
  25.4078102  61.5438652   8.0572271  44.5568991  17.9046261  28.5925746
  44.0265369  17.9477906  29.3882442  44.2555475  18.6432064  28.0635023
  26.3310957  49.0806961   0.2785848  27.1912122  49.3200970  -0.0665525
  26.2473750  49.5879078   1.0860241  11.4771593  24.1231513  14.6567869
  11.5022898  23.7715077  15.5466998  10.6926382  24.6712399  14.6378946
  50.6130409  50.0623560  22.2065187  50.0803757  50.2280807  21.4286780
  50.5783939  49.1128635  22.3226905  27.3315954  23.9373398  13.4134543
  26.5292549  23.7623477  13.9052474  27.0756292  23.8426423  12.4959874
  37.8284144  22.0470166  42.7444839  37.3595929  22.7301121  42.2650909
  37.1815252  21.3518119  42.8647327  34.6225452  38.1444669  23.7891436
  33.6988497  38.3177805  23.9707494  34.8960233  38.8688731  23.2264018
  23.2194686  31.0677958  30.0323319  23.9170694  30.9156394  29.3948102
  23.3369827  31.9783115  30.3032231  29.5284867  29.7255826  26.1865950
  30.1164412  28.9817357  26.3178778  28.9419889  29.7036672  26.9427514
  68.9920378  87.9479599  96.2897491  69.8925495  88.1407547  96.5507793
  68.4909439  88.7115669  96.5761566   9.7101325  16.2998831  27.3763561
  10.6577945  16.3967550  27.4700809   9.5845425  16.0466492  26.4618444
   3.3426848  20.2293587   6.9083315   3.7711850  20.5669618   7.6948708
   2.7246708  20.9163523   6.6586661  56.6256332  67.0569944  90.0263977
  57.0491409  66.2223148  90.2268314  57.3402119  67.6251173  89.7385597
  32.7191496  40.3592062  41.5849447  33.5080981  40.8859777  41.7126417
  32.0447087  40.8112001  42.0919609  29.8727965  27.1902323  22.7045727
  28.9803743  27.5355172  22.6802659  29.9456692  26.7751050  23.5639858
 107.9991341   7.4121398  15.1337874 107.1303177   7.0380223  14.9873793
 108.0081272   8.2106167  14.6059752  14.3066931  32.9433775  18.8872159
  13.4828269  32.4854231  19.0538204  14.0458655  33.8451314  18.7000322
  44.4248962  52.8642035  20.9046435  44.8008299  53.6291885  20.4690957
  45.1446581  52.2345734  20.9463954  31.6838980  28.0893588   4.4326800
  31.2712789  27.2506380   4.6388945  31.5300846  28.6290336   5.2081317
 110.2447701  99.2835045   8.8370496 109.7901440  99.0735054   8.0212986
 111.0461998  99.7260094   8.5575342  40.4718494  19.8525012   5.8014303
  40.0844860  20.6899476   5.5467457  41.3928032  20.0548339   5.9661829
  22.7991080  27.8754520  12.1325088  22.2314548  28.4723258  12.6200986
  22.5117970  27.9607320  11.2234366  61.3468266  79.8758888  82.5736904
  61.0112143  79.0636587  82.1943760  60.6865740  80.5333424  82.3544693
  34.6219468  78.5404587  79.8880148  35.3374267  77.9125452  79.9882555
  34.0146756  78.1167746  79.2814302  40.6312895 102.4302864  89.7320271
  40.1872635 102.1582317  90.5351830  41.3483906 102.9887581  90.0322056
  31.5059161  31.9054770  23.6316276  31.9432735  31.1772490  24.0728021
  30.7835054  31.4973116  23.1543875  34.3162632  14.6434712  16.8213260
  33.5681295  14.6551549  16.2243390  34.2951560  13.7711084  17.2147322
  45.9036303  74.4343901  89.4221592  46.2266922  73.6116505  89.0547943
  46.6604900  75.0199890  89.4003201 116.1240482   5.1423550  15.4156184
 116.8420219   5.7456839  15.6072915 116.5490246   4.3837547  15.0154376
  78.2050514  99.3762207  93.9516544  78.2516098  99.0833092  93.0415630
  78.5858822 100.2543259  93.9404297  44.5070934  56.3598347   7.2242659
  45.2161503  56.7349386   7.7465379  43.9579535  57.1089125   6.9928384
  39.1389680  59.6775246  17.7152634  38.9764094  58.7421274  17.5934553
  40.0290632  59.8103952  17.3892093  34.4423866  13.8633561   4.0792778
  33.8877439  14.6423960   4.0380403  34.0111828  13.2958949   4.7182482
  28.2770920  17.0239604   9.2159677  28.7002087  16.1735106   9.0979117
  28.4412026  17.4890625   8.3956146  58.1102133  88.1297016  85.7428837
  58.3232880  87.6628876  84.9348545  57.1799994  88.3396339  85.6600380
  11.4532804  31.7066550  18.8241279  11.2228119  32.6204801  18.6566830
  10.6386125  31.3058686  19.1273093   5.4497117  59.7728968  42.3801041
   4.5228359  59.9096823  42.1840858   5.4871714  58.8951206  42.7600288
  81.1697769  92.5031376  92.9171371  80.8668900  93.3744049  92.6614571
  81.4852238  92.1107578  92.1030235  47.7424097  30.9967852   8.7561589
  48.0387545  30.1208544   8.5088569  48.0809450  31.5677571   8.0665094
  17.7777970  19.5659316  17.8007770  17.5533736  18.9856863  18.5282254
  18.6490011  19.8972392  18.0186594  22.1764660  36.7598772  24.0032721
  22.7976322  36.0339713  23.9445710  21.4206076  36.3918948  24.4609833
  56.9155073  85.1285744  97.5964832  56.1805630  85.6842136  97.3369598
  57.5044107  85.1425076  96.8420124  51.5460682  25.0199223  36.2744093
  51.0122728  24.2342401  36.1560893  50.9652185  25.6399488  36.7153358
  41.7897606  85.2691078  89.0773773  41.8569088  84.6456909  88.3541393
  41.2960005  84.8018837  89.7512627  26.6080952  32.6518655  19.5441997
  27.2714663  32.0705748  19.1723478  26.6542101  32.4955130  20.4874182
  52.9445696  86.6439724  93.3428669  53.1380987  87.2994614  94.0130329
  52.9638767  87.1308613  92.5189781  74.1571569  85.8415890  84.9877167
  73.5496330  85.8870220  84.2494202  74.8222017  85.2107048  84.7121620
  51.0384846  46.7603493  35.7919693  51.5983295  47.2412825  35.1824570
  50.4168081  47.4137402  36.1126447  73.4973097 102.4047184  84.8898506
  73.1218958 101.9200516  85.6249619  73.0786896 103.2645416  84.9310875
  83.2499409  70.7364893  84.2103195  83.4748650  71.5108156  83.6945057
  83.9978790  70.6123972  84.7946358  51.5217304  51.6976643   5.7341009
  50.9213257  51.9499493   5.0326079  51.6713476  52.5064373   6.2237298
  76.6079092  83.7279797  87.2447300  77.1019316  84.4619465  86.8794060
  76.9676590  83.6111450  88.1240273  16.5870559  34.4180775  30.8162117
  17.4036384  34.0698671  31.1742258  16.2439716  34.9834275  31.5082407
  20.7794897  33.1453816   0.0108453  21.0810797  32.6421848   0.7671854
  19.8956148  32.8186527  -0.1572112  60.4554892  20.0182700   4.7259834
  61.3490915  19.6875799   4.6346167  60.0186110  19.7547770   3.9160809
 112.7177715   4.2124510  87.9187679 112.9648018   5.0851011  88.2248592
 112.0809555   4.3741623  87.2226715  88.4187603  94.5545197  74.8781347
  88.4241295  94.1934967  73.9916468  88.3483505  93.7887955  75.4481697
  34.9333286  54.1122580   4.7300339  34.6098113  53.7024927   5.5323172
  35.8864832  54.0762997   4.8102620  35.0511885  50.5626774   5.6386387
  35.5189013  49.7505903   5.8335626  35.5570269  51.2429953   6.0830760
  85.3767490 111.2663269  90.9363651  85.8868504 110.9469318  91.6806889
  85.9352303 111.9290543  90.5299950  43.7352753  48.5111094  11.0353327
  43.4121466  48.2679844  11.9029200  44.6662426  48.6898661  11.1679125
  17.3872256   8.4347463  78.3256960  16.4436889   8.5919303  78.3612347
  17.7527428   9.0203947  78.9887524 104.5630264 103.1413460  79.6330452
 105.0995159 102.4710369  79.2098475 105.1797104 103.6365318  80.1722240
 107.4497414 103.4530067  93.6976910 107.3398972 103.4918118  92.7476025
 107.9311848 104.2510128  93.9159298  63.8835764  81.2093925   3.0643070
  64.8075199  80.9599400   3.0826077  63.4330797  80.4926300   3.5109988
  74.8739481  75.3223467   3.3130538  73.9427137  75.2514982   3.1032532
  75.0048304  76.2494946   3.5118002  18.0468249  33.4160709  84.8037338
  17.3591602  32.7518678  84.7570133  17.7181149  34.1391325  84.2695332
  30.9679270   3.9318717  80.0516891  31.6158605   4.5032126  79.6394014
  30.2777719   4.5260161  80.3464985  55.4703903  76.4158201   0.8519227
  54.5755959  76.3068438   1.1739329  55.9697676  75.7302475   1.2956005
  57.8409767  26.7837501  87.3759651  57.4946976  27.4868917  87.9254341
  57.6851845  27.0813942  86.4796543  82.2884560  79.5065832   4.6571574
  82.6715565  80.3445435   4.3977585  83.0134392  79.0247679   5.0552613
  75.6861019  74.3111801  29.7081017  75.5413532  73.4829617  29.2505670
  75.8468771  74.0577650  30.6170368  31.6574597  25.1393199  68.6439133
  32.3613214  25.3808904  69.2459536  31.6652083  24.1821694  68.6381054
  22.9178095   7.9514402  70.2345514  23.4013629   8.4549886  69.5796871
  22.0134735   7.9566675  69.9208927  37.0105028  26.3126016  80.7795906
  36.9417095  26.2279677  81.7305565  37.6547050  25.6514931  80.5262756
  26.0610151  50.1764488  80.6666374  26.0531354  49.2744350  80.9868526
  25.7191658  50.6927299  81.3965893   8.7715077  15.2946854  90.3828716
   8.2812542  15.5147791  89.5907593   8.1927705  14.7055161  90.8667850
  48.5585928  19.8616600  92.2501183  47.6599073  20.1904631  92.2720623
  48.9559603  20.1968598  93.0538464  31.9609618  56.9091845  90.7957458
  31.9310713  56.0014439  90.4934978  31.4548516  56.9078922  91.6082001
  43.5101032  38.6254978  94.1561413  42.8776407  38.2498598  93.5436726
  43.2497597  38.2811761  95.0104809  21.7956805  17.1327841  90.4561710
  21.0650206  17.4119079  89.9043941  21.8191504  17.7750742  91.1654949
  67.2182274  80.7613564   1.8906987  68.0540609  81.1184597   1.5905383
  67.4480534  79.9295759   2.3048884  17.4700856  61.3832188  91.0330391
  17.5659108  61.8331003  90.1935959  17.5883722  62.0709419  91.6882229
  23.4084225  13.6877477  78.4453154  22.6869583  13.1702495  78.0876637
  23.3220100  14.5426893  78.0236053  59.2621756  77.9636192  25.4526687
  59.9988842  78.4094572  25.8706617  58.4939003  78.4679174  25.7203722
  36.8792844  34.2424726  86.8730831  36.0430765  33.7833095  86.9515514
  36.6491318  35.0996590  86.5146255 114.0629196 111.7166710  87.4007416
 114.7706509 111.1467552  87.7016354 113.5498619 111.8976116  88.1883049
  42.8030539  30.5762005  88.1296349  43.5165119  31.1456561  88.4176159
  42.0373631  30.8894134  88.6111450  34.5493746  13.4191298  94.0505219
  34.4946361  14.1458857  94.6710587  34.9003077  13.8123500  93.2514954
  22.5144124  19.7349679  66.1790752  22.1821976  19.7570336  65.2816439
  22.3201704  18.8488984  66.4846611  96.3569546 104.1857052   8.6744690
  95.5460835 103.6859512   8.7691778  96.6570187 104.3277264   9.5722568
  68.1738424 108.4390736  11.2834799  68.3362579 107.4981594  11.2161911
  68.2765102 108.7644100  10.3891373  40.4369020  28.7428880  93.2594109
  41.3221025  29.0224552  93.0259705  39.9377298  28.8248253  92.4468040
  20.7979751  36.1238432  74.8014832  21.7405033  36.1927652  74.6494389
  20.7202578  35.5632782  75.5734682  25.5568194  34.0599394  95.8426952
  26.2648177  33.4448504  95.6512833  24.9516892  33.5644126  96.3945103
  67.1315861  83.2156563   4.1148525  67.7597046  83.9168644   3.9416280
  66.5052462  83.2714748   3.3931774  68.3261538  79.8999166  19.0365386
  68.6327362  80.3069592  18.2262611  67.4610281  79.5534182  18.8180792
  84.3402290  72.8544712   2.3924498  84.1256237  72.0286369   2.8262344
  83.4909248  73.2372952   2.1725753  26.7097306  22.5195694  75.4054213
  26.7900252  23.1802201  76.0934067  25.7989168  22.5826597  75.1179028
  72.4046564  39.2216706  82.5453281  73.2248163  39.5896363  82.8742218
  71.7603874  39.9173188  82.6765823  47.8716803  25.3357816  79.9807453
  48.0598450  24.7451091  79.2514038  48.7314272  25.6437588  80.2674675
  41.7082405  23.1253147  78.1495094  41.8660545  22.3627758  77.5928545
  41.1461258  23.6938548  77.6231813  74.9326086  82.9866600   1.2265984
  75.3834486  82.7048779   0.4306252  74.7483015  83.9147091   1.0816991
  29.7098255  59.2327356  95.2651405  30.5808091  59.4666386  95.5859280
  29.1643691  59.9895048  95.4796505  77.6646805  59.5958042   6.4528680
  77.5935316  59.5875263   7.4073839  78.5242653  59.2148066   6.2734544
  36.3051295  19.0040612  88.3162498  36.3409495  18.0742562  88.0917263
  36.8696642  19.4283986  87.6701260  38.4104133  31.6508532  95.5291176
  37.9604578  31.5601230  96.3690758  37.9076123  32.3157477  95.0586510
  83.4404278  81.2103367  11.5891743  83.7122536  81.7813873  12.3076797
  83.2015705  80.3869534  12.0148623  36.5151000  30.7137060  82.9222488
  35.8635855  30.6852889  82.2215652  36.0969186  30.2640390  83.6565208
  14.6805727  26.0473680  92.0127869  14.1679108  25.2719426  92.2410965
  15.5562758  25.7090497  91.8259239  49.6286726  23.1367397  96.3765144
  48.7495995  23.5050440  96.4649200  49.7802019  22.6776457  97.2026539
  52.5443459  30.6622791  87.5579357  53.2081509  31.1826110  87.1053410
  52.8845263  30.5609250  88.4468937  88.9036179 101.2888145  19.8633993
  89.0199661 102.2388554  19.8747230  88.3868694 101.1014462  20.6470442
  28.1738567  19.3948352  90.3307152  28.9744973  19.7441435  90.7221127
  28.4344745  19.1293573  89.4487762  43.2473660  32.5900745  83.4838867
  43.9501429  32.1204329  83.9330864  42.5186729  32.5814009  84.1044998
  17.1647143  29.4149232  88.1961918  17.0887375  28.4712768  88.0548000
  18.0111921  29.6469474  87.8142548  52.3155880  28.6130643  91.7398739
  52.3186493  29.0202570  92.6061344  52.6581335  27.7316689  91.8883133
  29.4395709  20.7836032  84.9266148  28.6562014  20.6406856  84.3954468
  29.2932820  21.6315985  85.3458214  62.1343660 104.2813110   2.7204010
  61.1787128 104.3355560   2.7246520  62.4222851 105.1494694   2.4381985
  87.3700905  82.2830772  14.1201770  88.1843948  82.6043224  13.7329626
  87.1239376  81.5359688  13.5747683  25.3480983  18.1986725  67.7715206
  25.1264644  19.0911901  67.5059605  24.7781444  18.0230331  68.5202074
  62.3768806  38.2621193  73.0177879  61.9834042  37.3994637  72.8865099
  63.0064821  38.1327629  73.7270880  33.1842232  46.7370892  90.7382679
  34.0264964  46.3071871  90.8865643  32.7728629  46.2243986  90.0424480
  63.8853168  89.1038513   8.1407648  63.0796432  89.5091438   8.4614724
  64.5873070  89.6154213   8.5429293  72.1115589  75.3134680   5.9904432
  72.7538776  75.7803965   6.5248919  71.6024113  74.8025846   6.6197276
  51.2503290  26.3100219  89.1894054  52.0802069  26.2316585  88.7188816
  50.7675838  26.9852972  88.7127495  65.0628090 101.0272598  13.7074554
  65.9337091 101.4175129  13.6334419  65.2231741 100.1458454  14.0445352
  98.4996986 101.6595268  91.0324669  98.0242920 100.8302784  91.0832119
  98.2711506 102.0144463  90.1733780  14.8186696  27.3875165  78.0810261
  15.2502203  27.4136996  78.9350224  15.4747498  27.0141506  77.4924755
  21.7604518  23.9343143  90.9023666  20.9622622  23.9375257  91.4306831
  21.5242934  23.4445453  90.1145935  88.0574799  89.2361164   2.0220004
  88.6949062  88.8493633   1.4217153  87.7110577  89.9925613   1.5487035
  58.1415987  15.6272376  87.2535324  58.8767910  15.9943163  86.7626286
  57.5352144  16.3601089  87.3604202  75.0278742  85.7436363   0.1941988
  75.8781344  85.3300706   0.3433630  74.6441919  85.2481929  -0.5293730
  70.1691532  82.4760151  11.2769783  69.6332788  82.7132607  10.5201542
  69.5382166  82.3385811  11.9835615  85.0944424  75.3376293  29.5641232
  84.3185139  74.9468994  29.9659920  85.6884098  75.4988575  30.2972221
  24.0603471   9.3411803  85.3643227  23.6945796   8.6614746  84.7982407
  24.2738605  10.0595272  84.7688198  27.9585719  20.3632498  74.4370794
  27.5902843  21.2068439  74.6996546  27.4954319  20.1406598  73.6294985
  85.6141186  88.3066654   6.3709581  85.2849865  88.2706165   7.2690701
  86.1994267  87.5526142   6.2999189  23.9760327  42.8657389  96.9468784
  24.3997359  42.1993971  97.4878979  24.5848918  43.6042786  96.9559097
  76.5142775  56.9833088   6.9083327  76.7278004  57.9163027   6.8955904
  76.0734844  56.8499231   7.7474642  64.7089291  68.3527517  10.4692268
  64.3495560  67.5788498  10.0354493  63.9660501  68.7297010  10.9406853
  91.0735226 100.5090618  15.6503403  91.7422390 100.0738716  16.1791730
  90.7801914  99.8372269  15.0348580  19.1014457  29.4521236  90.2906895
  19.0945160  30.1939654  90.8955479  18.3114219  29.5663977  89.7624493
  17.6048267  15.7192075  92.6770115  18.1293428  16.5196288  92.6560020
  17.9356301  15.2358806  93.4341049  93.8872814  53.1159735  14.3838847
  93.2246208  53.8031673  14.3140614  94.7118855  53.5889196  14.4960272
  43.9084435  23.4969783  84.5693398  44.2904472  22.6193643  84.5792103
  42.9771280  23.3547378  84.7385883  42.1339369  48.8092470  92.9686546
  41.3163042  49.2803383  93.1292152  41.8617630  47.9066181  92.8030872
  66.5989065  78.0158710  22.2190189  67.3994684  77.6009226  22.5401902
  66.8936634  78.8443136  21.8408132  48.6175919 100.1381016  13.0258536
  48.5510588  99.7505856  13.8985717  47.7149153 100.3505993  12.7886963
  39.5461178  42.7399063  84.6601772  38.9546967  42.9618454  85.3793430
  39.4452405  41.7944050  84.5502186  28.4086776  35.6118894  87.8734684
  27.4557090  35.5516171  87.9401779  28.6821222  34.7486687  87.5631332
  62.1068001  13.9178383  89.3885708  61.3306713  14.4496131  89.5648384
  62.1330309  13.8411415  88.4348106  83.2847309  88.2646751   4.8047656
  84.0318394  87.8750610   5.2589196  82.5410748  88.1042194   5.3856808
  42.7442455  24.8846269  87.7431774  43.4317112  25.1039696  87.1142769
  43.1836939  24.3439460  88.3995152  62.9681253 103.7395287  16.6102731
  62.5127363 104.3846893  17.1512222  62.9533625 104.1127205  15.7289457
  81.1976337  83.9982319   9.2944306  81.7104244  83.4457684   8.7044638
  81.8518162  84.4677925   9.8119229  43.2397270  45.4604244  86.6108894
  43.2028008  45.9245920  85.7745838  44.1748762  45.3468800  86.7807198
  50.1856995  74.5499611  25.7891488  49.7474957  75.2863932  26.2156200
  49.5985413  73.8073492  25.9306073  53.2351446   4.7127604  88.3862877
  53.3598948   4.0153414  87.7426529  52.5450420   4.3855420  88.9632797
  92.6726151  83.1503487  29.2053962  92.7124882  82.3625278  28.6631942
  92.2354698  83.7989616  28.6536479  89.2952728  69.2258501  11.2720144
  88.4553719  69.4029808  11.6955924  89.5281792  68.3436918  11.5614760
  85.0204468 111.8849277  72.9470348  85.6112385 111.7479897  73.6876059
  84.7814178 111.0020351  72.6648951  21.8772483  41.1508560  64.4631672
  21.2590504  40.4696894  64.1984463  22.3831916  41.3357544  63.6719227
  20.8136153  34.2164421  95.7131386  20.4298759  33.4023881  96.0391617
  20.9537792  34.7462893  96.4978981  41.1722422  35.7234168  82.2062016
  41.1215019  36.0718322  83.0962849  41.4741039  34.8220491  82.3186684
  32.7500844  32.7707219  81.6500664  33.5007882  32.2004247  81.4844227
  32.9062438  33.1238914  82.5259209  21.1584878 105.9170532  87.3938847
  20.2864027 105.5375767  87.2857380  21.7578840 105.2187729  87.1305084
  32.1216393  29.4234467  80.0788498  31.5458083  29.8326588  79.4329405
  32.6955247  28.8568664  79.5632124  96.4091778  91.6715813   8.5338348
  95.8268166  91.1531258   7.9785961  96.7773342  91.0392857   9.1510034
  94.9511814  69.2486143  33.1050491  95.8902645  69.4322205  33.0798507
  94.6010303  69.6842051  32.3279500  41.9992065  12.4967182  88.9071655
  41.7274332  12.0857382  89.7278118  41.1797667  12.6747608  88.4455872
  22.9011798  18.2720613  81.5096664  22.3087120  17.7313685  80.9873009
  23.2579041  18.9061379  80.8876324  18.1124496  23.7525845  87.9044247
  18.8932657  23.3600140  88.2948685  17.9958975  23.2832122  87.0783901
 100.5806923  72.3529863  19.5068312  99.7006702  72.7295065  19.5014000
 101.1627769  73.1060410  19.6084285  55.9647083  34.1911864  88.0756855
  56.7341471  33.7190223  88.3938885  55.4996729  33.5537314  87.5338173
  49.3423414  23.1961989  75.8079576  49.9953318  22.4965835  75.7885408
  49.0698004  23.2948327  74.8956919  52.4660730  15.2211976  77.7730846
  52.1982098  14.6946514  78.5262346  52.6885223  16.0748482  78.1446075
  35.1904535  36.0077882  91.5739822  35.9665298  36.2851620  91.0871601
  34.5723343  35.7266545  90.8993626  46.5903664  26.6964388  76.8179131
  47.5417948  26.6132355  76.7539358  46.2983561  25.8508801  77.1584892
  50.9220457  34.9129415  96.0466576  50.3598118  35.6531954  96.2750053
  50.8754063  34.8623204  95.0919342  62.0683146  10.3568268  83.9233685
  62.4467707   9.9314916  83.1538963  62.2652102  11.2859905  83.8045502
  53.8381004  36.1922216  94.2804813  53.3883381  36.8888855  93.8023472
  54.6423960  36.0415459  93.7838554  25.9157348  42.5116777  91.9062614
  25.1652312  42.1678209  92.3907566  26.5798569  42.6731396  92.5764179
  27.2058797  30.4822159  83.5739613  26.7928791  29.6234012  83.6639690
  26.5950179  30.9866238  83.0366993  34.0748382   3.3687285  56.5386200
  33.3490872   3.6255065  57.1074629  33.6920905   3.3363774  55.6618738
  53.0870628  63.9709759   4.1386899  54.0204430  63.7595034   4.1209301
  52.9863405  64.5468998   4.8965803  55.0394964 110.4882431  11.4396608
  54.3213558 110.4387569  12.0705819  55.2256966 111.4239025  11.3616097
  28.1730962  42.0271492  96.1234474  28.2339668  41.0860443  96.2873173
  27.7549434  42.3804379  96.9086647  55.2190685  65.9264755   9.1900021
  55.3111458  66.5715837   9.8911333  54.4591141  65.4030514   9.4444162
  99.2267609  81.2061501  33.3556414  99.0671349  81.9608974  32.7889729
  99.4678783  81.5872860  34.1999340  46.8097544  54.2215443  92.7987099
  47.3460054  53.7081337  93.4029198  46.9309521  53.7958574  91.9499874
  82.2760773 107.9962063  27.2321081  82.7149677 107.2687149  26.7912436
  82.0384884 107.6473808  28.0912375  40.4703379  34.1501617  91.1017704
  41.3625813  34.2213392  91.4409828  40.1344776  35.0462914  91.1212921
  67.4589205  38.2620382  92.6000786  68.3149576  37.8834176  92.3998737
  67.3006344  38.8848209  91.8906307  61.0266447  79.5213270  32.0873165
  61.1046171  80.4610634  32.2517800  61.7258358  79.1279697  32.6094604
  83.8269997  82.8258801  13.8594627  83.0548286  83.3914852  13.8679039
  84.2045498  82.9229164  14.7336900   6.1116976   5.6515390   1.6318482
   5.3476012   6.1282468   1.9560981   6.8364704   5.9639192   2.1734709
  49.7210407  29.1017270  94.2252159  49.5356512  30.0135303  94.0005398
  49.0625334  28.5984159  93.7463856  23.9105296  63.6508179  89.6413994
  22.9755354  63.8542461  89.6162319  24.1856813  63.8977051  90.5243301
  58.7194729 108.2443714   7.3544633  59.2171335 107.7487183   8.0047691
  58.4898996 109.0601826   7.7994019  91.5469646 104.5879364   2.0648412
  91.6935444 104.0925121   1.2590525  91.9948673 105.4211330   1.9185556
  48.8916922  31.3197374  90.3520966  49.5463943  30.6221747  90.3204632
  48.7079763  31.4336896  91.2845612  85.1723480  94.4842911   9.1154510
  85.3113174  95.2301311   9.6990943  84.5555878  93.9235783   9.5860314
  53.6410809  41.4444876  94.2295933  53.3837557  42.3288488  94.4902039
  54.4221258  41.5712452  93.6909485  81.4260578 108.3510685   7.2596264
  80.9848213 108.4263611   8.1057143  80.8210754 107.8439522   6.7182815
  51.3669252  22.6565838  93.3491516  52.2763205  22.4954700  93.0976200
  50.8758974  22.5860167  92.5305271  66.7779112  90.0553131  15.1531363
  66.5644455  90.8121014  15.6989658  67.5592184  89.6799088  15.5591643
 100.6785011  98.5705471   2.3394664 100.3321171  98.9495564   3.1473005
 101.2150288  97.8335857   2.6314825  42.0214033  21.8343425  91.7656422
  41.7754221  20.9131956  91.8505859  42.3737431  22.0683217  92.6243305
  59.3995905 103.6256027  14.3939424  59.3766022 102.6754761  14.2800820
  59.7907495 103.7538719  15.2581024  38.5221934  50.4350519  83.0960274
  37.7075028  50.9048843  83.2742596  38.6303997  50.4947996  82.1468449
  83.8590431 108.9594936   8.2214218  82.9165936 108.9298439   8.0566692
  84.0360165 109.8754406   8.4357578  68.4189844  30.3602123  86.1030006
  68.9616013  29.7228909  86.5673447  68.3565140  31.1036658  86.7026711
  75.5532360  86.0063076  13.0841017  75.8172178  85.7788658  12.1925771
  74.6055794  86.1294651  13.0292380  70.9135008  86.3663101   7.6442462
  70.3741884  86.8669128   7.0320600  70.8094692  86.8194580   8.4809440
  39.3740320  53.2719755  90.8245659  39.9578238  52.6630497  91.2769222
  38.7342620  53.5285044  91.4887333 118.6717987   5.7164454  11.4462292
 117.9928398   5.2184892  10.9909391 118.2666397   6.5648067  11.6261172
  59.2424870  29.1812563  75.3832722  58.5361862  28.5855222  75.6332159
  59.7125101  28.7179565  74.6899748  55.5984116  28.7379813  88.1402111
  55.7518148  28.7660146  89.0846252  55.0627375  27.9558539  88.0076790
  75.6644964  91.3200760  22.4722457  74.8330832  91.7309380  22.7092600
  75.9836149  91.8352604  21.7313170 103.5511208  91.0161781   1.6100007
 103.7066460  91.1801338   2.5401410 103.3932495  91.8834782   1.2370399
  48.2640743  28.1807733  92.2710609  48.5534906  28.7152576  91.5316010
  48.7158680  27.3450780  92.1538734  35.0859475  24.2109370  93.4536839
  35.5401945  23.5337257  92.9524136  34.6289325  24.7317529  92.7932930
  22.9696822  36.2044454  93.8305855  23.4940314  36.9121408  93.4558010
  22.2880578  36.6513276  94.3324947  49.5188713  23.9973712  88.3074474
  49.8639441  24.4718719  89.0637589  49.1861486  23.1767726  88.6709690
  71.2058163  86.5484333  10.4305804  70.3498363  86.4345741  10.8435786
  71.8238401  86.1586475  11.0489202 102.0540142  88.7752628   3.0947798
 102.6222515  89.3961143   2.6388323 102.4083328  87.9153824   2.8683177
  41.7426825  12.1680272  93.9025402  41.0564947  11.6119444  94.2715263
  42.4210024  12.1911490  94.5775032  32.4438214  44.1129971  95.2179527
  31.6984391  44.1399002  95.8178806  33.0507612  43.4901381  95.6178284
  54.9445724  47.5787783  90.4865074  54.0924740  47.9770660  90.6640720
  55.0406599  47.6326418  89.5356655   8.2643992  -0.0528047   7.2570115
   7.8533465   0.3434850   8.0252707   7.9469323   0.4686419   6.5197599
  45.8260298   3.9045858   5.6219923  45.8470345   3.9376363   4.6655941
  45.0858450   3.3328626   5.8256906  48.6027670  17.8954542  95.2947330
  48.8507891  18.8068366  95.1394939  49.3558884  17.3875451  94.9929619
  53.3323717  70.3740454  91.2172508  54.1150236  70.0129509  91.6335487
  53.2540178  69.8908329  90.3946972  79.8349380  96.4035702  27.4502850
  79.0187597  96.8979740  27.3751092  80.4401875  96.8488598  26.8573046
  62.8201151  83.6779499  19.7988236  63.7260389  83.3803272  19.8822463
  62.2956896  82.9372692  20.1031327  46.8552351  22.4842477  91.7135811
  47.1176863  23.1481981  91.0759926  46.8754148  22.9393792  92.5554180
  88.8913536  92.6841068   1.7026225  89.1263485  92.5038242   2.6128492
  89.7157764  92.9390049   1.2883991  82.3779297  85.2040005  19.1902769
  82.3221779  85.6701756  20.0244284  82.9831600  84.4819736  19.3593943
 106.2416649  73.0644274   6.2618554 105.9686089  73.9791107   6.1909997
 105.6218338  72.6766014   6.8796259  98.5783577  79.8070002  30.2417159
  98.7485027  79.7854471  31.1834240  98.0779457  80.6118011  30.1071000
  94.5938683  88.7994576  11.2912023  94.0022564  88.6151314  12.0207608
  94.1190910  88.4993362  10.5161262  21.7796516   7.7295101  89.0384483
  22.5328994   8.2997680  89.1922569  21.8692923   7.0334971  89.6894169
  92.9165459 103.9964485  11.0953784  93.1940937 104.7237206  10.5383563
  92.2415924 104.3718719  11.6608274  41.8438625  37.0289826  85.0006390
  42.3709583  37.6820707  84.5403385  42.4750757  36.3665080  85.2815723
  65.0094318  47.3776054  79.1880608  65.6739664  47.9937506  78.8798571
  65.4153538  46.9428635  79.9380350  66.2517786  14.6146107  81.7588139
  65.5809498  14.6121538  81.0760117  66.3157320  15.5308187  82.0284557
  40.5513954  53.5397768  78.7527275  40.7584810  52.9667902  78.0144644
  40.5696869  52.9627562  79.5162392  94.2219257 102.8959656   1.7364092
  94.6179104 102.0649147   1.9986774  93.4026623 102.6465225   1.3088258
  64.2442083  38.1204748  89.3591213  63.7400723  38.6396885  88.7326241
  63.6422825  37.9752493  90.0890732  46.5161514  50.9124374  82.1602726
  46.2538624  50.1591396  81.6311455  46.7528629  50.5382586  83.0089188
  75.4564285  71.3076544  13.5204303  76.1222267  71.3106871  14.2081308
  74.7871351  70.7013464  13.8377118  34.0237236  46.2600517  94.3896580
  34.9046421  45.9106731  94.2549324  33.5071969  45.5051279  94.6716690
  66.0050917  96.5674400   7.9036874  65.5885315  95.7163906   8.0394423
  66.0466766  96.9558620   8.7775457  59.4952011  28.3735132  80.8162403
  59.9162722  28.8128400  80.0773716  60.0103998  28.6390448  81.5780067
  44.8796844  55.5437899  86.6996765  44.8675156  54.9701834  85.9334850
  45.7336521  55.9746075  86.6628075  36.1418676  55.4910421  87.4242687
  37.0593071  55.2186060  87.4419689  36.1378527  56.2842369  86.8884945
  89.9904060  89.9123859   8.8144922  90.9312630  90.0060463   8.9636689
  89.8666000  88.9785004   8.6448938  95.2147579  84.1288853   1.0565224
  96.1049461  84.4262886   0.8685130  94.8249340  84.8433399   1.5603335
  75.6535006  91.2025452   2.0097549  75.3106499  90.5951881   1.3541651
  75.5280495  92.0688725   1.6224733  52.5899744 100.0105762  13.4502733
  53.2199955  99.6991920  14.1001546  51.8040752  99.4876385  13.6088216
  57.8179359  88.8499737  -0.1282912  57.0188284  88.5063171   0.2711576
  58.4977674  88.6998177   0.5286037  70.7665396 105.9007931  15.3072119
  71.6326094 105.9621906  14.9042380  70.2362299 105.4295826  14.6645904
   7.3835707 104.0019703  91.8692684   8.2461470 104.3223858  91.6055965
   7.2185600 104.4243431  92.7122402  84.7677231  75.4362440  12.3019981
  85.6617260  75.4102421  12.6430511  84.5922947  76.3665438  12.1605575
  96.4801979  73.5965490  24.9870944  97.3340988  73.4673786  25.3998899
  95.9262085  73.9436293  25.6862855  28.6608052  23.5691714  80.8467770
  29.0593910  24.0362287  81.5810871  29.3243814  23.5958099  80.1574326
  82.1189404  93.3770752   1.6807979  82.7031422  93.9285851   2.2011515
  82.1484852  92.5230885   2.1121633  33.8586426  35.1377368  88.9471912
  33.8447142  36.0560846  88.6775970  32.9860353  34.9807644  89.3079472
  96.7473125  68.0835676  13.7823045  96.1822033  68.2402706  13.0257821
  97.4091530  67.4697542  13.4638238  41.4312887  11.0132396  91.1774921
  41.7460966  11.3983583  91.9952965  40.7416010  10.4071426  91.4480686
  53.7497234  80.2035141  26.5561295  53.4647322  80.7541561  25.8268809
  54.2579794  79.5047474  26.1442566  34.1419530  56.1817837  66.9648933
  34.8080873  56.8687153  66.9898653  34.4626379  55.5149841  67.5721598
  51.6480637  59.0197420  80.8548260  51.9832802  59.0251255  79.9582624
  52.1762514  59.6741819  81.3119507  41.4510918  51.2876463  91.3413811
  41.1286783  51.0550356  92.2121143  41.5914059  50.4470825  90.9054947
  69.0187693  16.3276255  84.1329956  69.8956776  16.5548933  84.4422054
  69.0031147  16.6194320  83.2214928  68.5798454  81.8856907  30.0908446
  68.5974026  81.2392902  30.7966042  67.6724911  81.8828773  29.7859979
  93.2564926   0.7399456  13.8322568  92.6489735   0.0499584  14.0988421
  93.0007267   1.4995745  14.3554938  90.4906654  94.7529125   6.3578761
  90.5000591  93.8002777   6.2649453  90.5184746  94.9016380   7.3030412
  87.2897625  81.7650890   3.0500486  86.9949436  82.6754856   3.0281803
  88.1484413  81.7811775   2.6273760  92.0116391 112.1521554  11.0170007
  92.3789074 112.6174454  10.2654350  91.0660185 112.1673179  10.8693337
  74.3339539  75.4284716   9.8341715  74.5993757  74.5099068   9.8791301
  75.1226330  75.9174395  10.0689566  81.5602779 108.5637474   0.1881270
  81.0537148 109.0950584   0.8024067  82.4643517 108.8537788   0.3095843
  56.9789791  41.4249039  87.2744942  57.7255917  40.9781694  86.8754578
  56.6511917  42.0045042  86.5868568  83.8063812  82.1833229   4.0769851
  84.3506622  82.7754593   4.5959982  83.6301804  82.6659775   3.2693815
  37.9964781  29.0352368  94.6064758  38.7655306  28.8134861  94.0814877
  38.1345057  29.9479103  94.8598671  70.4305601  23.3141732  73.3921766
  70.7551289  22.5349975  73.8435888  69.4830656  23.2913661  73.5262012
  83.2285404  87.2548580  13.1422353  83.7031841  87.5334835  13.9253819
  82.3104286  87.4395466  13.3402276 102.2223186 111.1200142  13.6401010
 102.1316433 110.1763153  13.5080647 102.9139805 111.2046719  14.2963552
  97.0016384 106.2204170  23.2257867  97.3760414 105.6706333  22.5374651
  97.5510311 107.0042324  23.2316327  43.3590508  62.7743816  88.9429188
  42.8207541  62.4607849  89.6696377  43.8792801  62.0135927  88.6844921
  74.2123175  87.4826622   2.1408263  73.9024544  86.8936634   2.8287888
  74.5904636  86.9018364   1.4806187   1.2172551   9.9858600  22.7083349
   0.4268207   9.4520950  22.7892089   1.5166782   9.8361003  21.8115926
  73.6206532  72.0097017   5.8001018  73.2686329  72.3364353   6.6280872
  74.2853165  72.6523495   5.5521935  84.2131042 104.6294785  13.8877881
  84.1842747 105.1000118  13.0547237  84.8965549 103.9702797  13.7670076
  36.3771844  57.9980516  86.2756062  36.4046240  58.9296436  86.0574055
  37.2612047  57.7980042  86.5833664  45.1932335  42.3842144  84.7069550
  45.5361128  41.7773056  84.0509605  45.3792095  43.2527304  84.3501186
  38.1335926  39.0165281  93.2183647  38.4974408  39.8992753  93.1505108
  37.2367883  39.1015816  92.8947353  87.5980091  77.5574064  30.2231717
  87.3995209  76.8815708  30.8713102  87.2744465  78.3681965  30.6157970
  91.8285656 110.8309841  21.3996625  91.9510269 111.6093159  20.8561277
  92.6829052 110.3993416  21.3958430   8.6847728  41.5189219  95.3210640
   8.3025336  41.1413908  94.5288563   9.6020997  41.2465334  95.2976513
  84.2910099 105.7362270  29.4021463  84.7229767 106.4912033  29.0025830
  83.6130428 105.4878712  28.7737226  26.9901800  52.5634146  94.8296738
  27.2022653  51.6306114  94.7960758  27.7757215  52.9748154  95.1901054
  90.6736851 103.1832409  16.0804296  90.8001709 102.2347546  16.1048877
  89.9079418 103.3083820  15.5198848  48.5878849  31.3800883  84.5826054
  48.6403894  30.4968739  84.2173576  49.4967699  31.6178679  84.7659588
  90.8095074  72.8408241   2.7291185  90.4484844  72.1658802   2.1543604
  90.7821178  73.6413813   2.2051021  93.0884266  93.7870979  20.5561042
  93.7682819  94.2683983  20.0845361  92.2661877  94.1548157  20.2321649
  58.5244560  26.3571620  94.5435143  58.1447554  27.0356083  93.9851570
  59.4625759  26.5472889  94.5471859  21.8643618  48.4044933  71.9829321
  22.6758242  48.8500690  71.7395687  21.9114661  48.3245277  72.9356241
  70.0687504  37.3428988  86.4273357  69.1375875  37.2489429  86.2265015
  70.4043865  37.9210377  85.7422543  97.8603077  90.9518051   5.2342838
  98.0055523  91.0993671   6.1688215  97.9652691  91.8159485   4.8362046
  10.9119380  13.7975478  20.8457303  11.4077020  13.0374050  21.1500859
  10.6738734  13.5827720  19.9438286   0.4275779  12.1421015   4.5172098
   0.7656270  12.7823234   3.8910544   1.0252067  12.1977043   5.2628505
   8.0383623   7.5865149  15.9682596   7.1056217   7.3799503  16.0279119
   8.2897174   7.8194922  16.8620014  61.3729906  82.5236034  23.3079147
  61.6236401  82.6199341  24.2266774  60.4206944  82.4289608  23.3281016
  58.7891912  42.5388384  93.3812714  58.9301348  42.4711132  94.3256092
  59.2025757  41.7544746  93.0205536  36.1476898  37.1426630  89.1026592
  35.2959061  37.3525786  88.7197304  36.7618728  37.7234578  88.6535549
  87.1066475  81.7254066  24.7091293  86.8791962  80.8434391  24.4148135
  86.6206455  81.8380928  25.5260301  80.4814148  96.9695377  23.3797407
  80.5068111  97.8460503  23.7635350  81.2002754  96.5012646  23.8042426
  52.6462030  28.5366654  84.6546555  51.7490435  28.2150626  84.7435665
  52.5481272  29.4666576  84.4503880  45.5974340  29.0631151  87.2003460
  45.5298615  29.4056344  88.0916119  44.6916914  28.9002538  86.9370365
 105.1045895  63.8834476  16.0636818 105.9743977  63.4847164  16.0897708
 105.2160835  64.7299576  16.4963722  28.4683871  56.8012333  95.5820942
  28.9465046  57.6261854  95.4979038  27.7549362  56.9987440  96.1888885
  12.6849318  35.7967663  85.1700878  12.3583984  36.2258482  85.9609699
  12.9899681  36.5154123  84.6162605  57.7255297  25.3112650  72.8645468
  58.4869862  25.3803492  73.4404325  58.0267906  24.7728658  72.1327019
  94.3281937 102.2841454   8.5975051  93.4176159 101.9890404   8.5977864
  94.7000122 101.9129753   7.7973700  45.4780197  30.5816984  84.7946835
  46.3568354  30.9481215  84.6964836  45.3849697  30.4313040  85.7353973
 112.3450661  95.4034996   6.1643374 112.7979374  94.7511864   6.6987836
 111.8411732  95.9202480   6.7930597  31.2525916  40.2553463  97.6346684
  31.3831949  40.8824301  96.9233704  30.9385586  39.4623423  97.2001934
  52.1720934  21.3306308  88.7199116  52.1943760  20.6552434  88.0419827
  51.2661219  21.6395831  88.7205219  86.4703655 106.7830753  13.0826390
  85.6340885 106.9910431  12.6659667  86.4644527 107.2871590  13.8963306
  47.6789665  31.6186905  92.8963375  48.1446218  31.9192815  93.6767483
  47.0998049  30.9263253  93.2148266  62.1502066 106.9052696  11.7919230
  61.6091490 107.6929760  11.8468404  61.9147444 106.5110397  10.9520566
 102.1327114  92.3783112   6.1219782 101.7052937  92.5762939   5.2887011
 101.4113903  92.2764683   6.7429054  66.8183804  63.8376284   1.6477899
  67.3009443  64.6588993   1.7419846  65.8996487  64.0867805   1.7482337
  44.8639250  42.6645231  89.5824432  44.6436882  42.7288008  88.6531448
  45.8090353  42.8125525  89.6154022 110.6235981  85.8539772   2.6387283
 110.1220512  86.6242504   2.9058456 111.1599731  86.1593151   1.9070828
 108.3707237  86.1273670   9.2366582 108.9607811  86.1401844   8.4830695
 108.0995750  85.2125549   9.3130124  77.0078754 108.4214020  21.7604041
  77.5777149 107.8425217  21.2540269  76.7347908 107.8927422  22.5101876
  65.5162239 107.7045536  29.4959068  64.7126579 107.6805115  28.9763522
  66.1796808 107.3108959  28.9292550  48.7921333  37.6110196  89.9300861
  49.7311735  37.7959871  89.9451065  48.3884335  38.4415293  89.6780682
  49.9180651  60.7489920  96.5814400  50.2994442  60.6542492  97.4542522
  49.6950197  61.6776133  96.5170288  43.7420177  60.6474304  77.8784895
  44.5272923  60.1119184  77.7653360  43.4347010  60.4385042  78.7606144
  58.3887815  61.3374472  82.3876190  57.7270412  61.9980478  82.1828270
  57.9016972  60.5143356  82.4259090  13.6673725   1.5711196  15.3918123
  13.4978819   0.8832891  14.7480786  13.4172094   2.3814614  14.9479699
  94.2149448   4.2263672  13.4252548  94.6760178   4.2819229  12.5882638
  93.4005356   3.7671736  13.2200503  55.5449152  99.8103142  13.1338310
  54.6551037  99.8842812  12.7888680  55.4777098 100.1179695  14.0377450
  76.5487051 108.3773422   5.4017884  77.1844053 108.6573696   6.0603499
  76.8189859 108.8274097   4.6014002 118.7277031   4.3787754   3.0432615
 117.9988098   4.9600288   2.8262463 118.4790802   3.9847708   3.8794312
  50.8150005  41.0736752  92.9659939  51.7608070  40.9331512  93.0099773
  50.7033014  41.7415857  92.2894955  55.6106091  74.5961571  91.4474869
  56.1004162  75.2284861  90.9216690  55.6531191  73.7826729  90.9448338
  54.0211248  56.6384506  92.9731560  53.1343842  56.5069818  92.6375484
  53.8941622  56.9611025  93.8653564  57.5473928  53.3977509  79.8529482
  56.8911839  53.8150454  79.2948389  57.3465824  52.4632883  79.8011494
  10.7584333   0.4424932  26.2930679  11.3697386   0.1758081  26.9796658
  10.9420896  -0.1512055  25.5650401  97.1762466  88.2002354   9.0714085
  97.7288342  88.6729527   8.4489840  97.1048546  88.7884903   9.8231316
   6.0236728   0.9294902   2.6233506   5.2339643   1.0517785   2.0964366
   6.2584889   0.0106994   2.4932861  86.4590168  75.6648445   8.9840651
  86.0205555  76.5033960   9.1283357  87.2362614  75.7019377   9.5415115
  47.1769381  32.2633600  87.4645710  47.5662851  31.9820046  86.6366291
  47.6448393  31.7615747  88.1320286  44.1727686  35.1719618  96.9724178
  43.7407351  34.5793104  97.5875092  43.5616875  35.2431941  96.2391090
 112.4851131   6.1749279  13.7735665 111.8733597   6.5496165  14.4072831
 112.8330326   5.3962171  14.2080712  28.1120133  26.4199615  89.1048336
  27.4073911  26.8659472  88.6349010  27.7655911  25.5454493  89.2821693
  69.1160965  17.2603118  92.8773117  69.2961264  17.6905465  92.0414162
  68.1640768  17.1627140  92.8963089  88.7266064 105.5484104   4.9014777
  88.7751389 104.5941734   4.9590281  89.6384430 105.8372593   4.9383375
  90.3545856   8.7175977  82.8254509  91.0362434   9.3868363  82.8862858
  89.5726681   9.1964388  82.5506020  43.0885649  34.8806143  86.8736553
  42.4026442  34.3734765  86.4394283  43.9057255  34.4724059  86.5875626
 114.3803310  90.9355450   4.9031404 114.9493313  90.3983879   4.3518379
 114.9534798  91.2535381   5.6007159  47.0800114  23.4016776  86.8643284
  47.5810575  22.5918531  86.7675591  47.7077150  24.0306163  87.2202206
  62.2214890  45.1388502  71.7240143  62.9254007  45.1502419  72.3725557
  62.0852327  44.2105055  71.5347052 109.6123695  96.9129276   0.7322115
 108.7625694  96.4741230   0.6931902 110.1061821  96.4207554   1.3880667
  23.5907722   3.6279371  12.3851669  23.2517385   4.4489446  12.0284677
  23.1876469   3.5581943  13.2505322  43.6817122  38.7808156  83.8353920
  44.1451740  38.8997293  83.0063629  44.3325186  38.9892030  84.5056534
  64.9365330 109.4899654   4.6822765  64.2068100 108.9620113   5.0063133
  64.8685741 109.4331741   3.7291828  27.2825527  32.1407485  91.9790363
  26.5036607  32.2966218  91.4449310  27.8930879  32.8306770  91.7192745
  16.5451896   2.6647183  36.6584229  15.7324028   2.4729878  36.1906099
  17.2367370   2.3520443  36.0751319  29.2134738  18.5283744  81.3448906
  29.0997243  19.3477297  80.8632755  28.9861155  17.8458536  80.7134533
  19.4692981   0.5125683   6.6362613  19.7139239   0.0361066   7.4295926
  19.0775311  -0.1516306   6.0691714  11.8900669  36.9982481  87.4750900
  11.0816991  37.5061464  87.4057293  11.7930710  36.5036035  88.2888222
  90.2625942  87.0462132   8.3173519  90.4124260  86.8869495   7.3854631
  89.3980026  86.6726780   8.4881973  52.3059559  19.2956913  90.6355953
  52.8472328  18.7649989  90.0511169  52.3190689  20.1699877  90.2461529
  61.8974781  50.7356930  93.7014675  62.3308229  50.3400135  94.4576931
  60.9644032  50.6931591  93.9107323  63.0498362  99.6785355   5.4441273
  62.6901770  98.8392162   5.1570433  63.4768867 100.0351143   4.6652108
  61.7850161  48.9016247  88.5746384  62.1687031  48.8572121  89.4504452
  60.8886385  48.5861444  88.6895657  99.3966579  98.5708523  25.2121162
  98.7126732  98.2918644  24.6033740 100.1904678  98.1409931  24.8938131
  93.6477566  87.6853561   2.5103414  93.0106831  88.1916809   3.0143338
  93.1510258  87.3508644   1.7636052  61.8304443  59.3518448  82.0583916
  62.0619726  58.4563208  82.3046970  61.1053753  59.2507839  81.4417076
  65.3153276  22.0448422  82.9366398  65.8752346  21.8997693  83.6993313
  64.9067259  21.1945987  82.7742863  51.1706114  59.5392084  94.6850491
  50.9387827  60.2373028  95.2975464  51.6115427  58.8833714  95.2251339
  93.6663914   7.2062624  16.2391710  92.8295040   6.9847059  16.6475475
  94.2304230   6.4559489  16.4265847  69.9486399 100.9193039   3.8136855
  69.0641022 101.2756824   3.8962874  70.0985479 100.4569435   4.6382970
  20.0194645   3.7079796   0.4284788  19.6928692   3.9781559  -0.4297590
  20.9687710   3.6551964   0.3177416  48.4797525  66.6011477  84.0246391
  48.6044979  65.6978846  84.3158340  47.5572777  66.6465139  83.7732220
  62.4584770   8.4255242  85.8289719  62.1338844   9.0614480  85.1914215
  63.3731556   8.6711019  85.9678364   1.3199021   1.6695967  14.0502262
   0.4330318   1.3243380  13.9478076   1.3843152   2.3629802  13.3934903
  55.9885406  88.4853172  15.0396252  55.2747583  88.7150574  14.4446814
  56.3416433  89.3274689  15.3265512  94.6318150  14.9412894  12.2892296
  94.3760204  14.9713695  13.2111275  93.8616562  15.2570009  11.8165541
  47.8248692  29.8415613  96.6028690  47.5275898  30.0421596  97.4903393
  48.7738705  29.9623561  96.6351223   9.6256864  20.0844860  11.1878169
   9.0077126  19.4668412  11.5787828  10.3446412  20.1350594  11.8177199
  74.0756559 104.2936325  21.7304420  73.8761091 103.9674282  20.8529425
  73.2372570 104.2687225  22.1916270  46.3737965  13.2533741  85.9019184
  45.4645443  13.5496581  85.9432888  46.3674259  12.3996103  86.3346767
  53.6724806  65.1752424  84.0097618  53.4123087  65.6263685  84.8128986
  53.5562515  65.8284092  83.3197689  72.1996927  40.2118731  75.0318575
  72.8879309  40.0764418  74.3805361  72.1877432  39.4007063  75.5398941
  92.3953247  86.3274097   0.3670205  92.9205513  86.6430283  -0.3683407
  92.1773243  85.4245567   0.1355728  54.9147272  67.1871662  81.5648937
  55.5816793  66.6024256  81.2050438  54.2091608  67.1724367  80.9182167
   5.7311493  36.8307662   2.2923848   5.1850170  37.5697303   2.0242377
   5.9416425  36.3794541   1.4749242  38.1270051  77.4807882  95.7160187
  37.8187370  77.0898533  96.5335560  38.1793928  78.4179878  95.9035015
  22.8093529  53.0128050  81.9715500  23.0397415  53.5971403  81.2492561
  23.6078596  52.5120831  82.1385670  44.0574598  51.9550514  91.8924332
  43.1848431  51.6219521  91.6831207  44.1352844  51.8440056  92.8399849
  62.7320004  87.6748085   1.2307087  62.9948330  87.2087860   0.4370011
  61.7864895  87.7915382   1.1379199  42.6944017  42.0657396  86.2227535
  43.5082769  42.2263813  85.7452297  42.9745102  41.6636753  87.0450115
  45.6990194  64.3504333  89.0715790  45.9628677  64.5782232  89.9630547
  44.8713017  63.8818645  89.1791153  44.6804094  70.1267576  76.7261410
  43.9592075  69.6771860  76.2857008  44.8580027  69.5930529  77.5006437
  87.4712944 111.0578537   2.8888378  86.6889095 110.6458950   3.2554406
  88.1345558 110.9630585   3.5724533  35.7456994  45.5288172  90.7688046
  36.6770029  45.3077364  90.7631493  35.4572606  45.3737545  89.8693657
  61.6760063  93.6296844   7.8192437  62.4650192  93.3495235   8.2831419
  61.8686342  94.5239735   7.5375003  67.3797655  49.4225121  82.8648567
  67.3967075  48.8264656  82.1160698  67.4305534  48.8484716  83.6291313
  70.8940840  26.4245558  60.8574915  71.7745686  26.1533523  61.1171675
  70.4761839  25.6197596  60.5510712  18.7722790   7.7573645   2.2237048
  17.8164220   7.7076483   2.2335203  19.0585458   6.9487709   2.6485100
  44.3047285  51.8251562  94.6417046  43.7510777  51.1707735  95.0677109
  44.0093088  52.6607895  95.0031948  50.9271526  69.0595245  91.7541599
  50.5433464  69.3899345  92.5664139  51.7999840  69.4513798  91.7249393
  60.8630943  35.7517219  93.9109325  60.6915903  35.5401874  94.8285770
  61.1375093  34.9217105  93.5210514  95.8170128 100.5100918   2.3316744
  96.7435455 100.7385254   2.2569761  95.7887650  99.5674515   2.1677287
  38.2544708  63.5440350  67.6928520  38.9553642  63.6115885  68.3412504
  38.7087798  63.5201120  66.8506765  68.8485765  35.5742836  68.4586859
  67.9603577  35.5249739  68.1053257  69.1671610  34.6720314  68.4325886
  92.7392864 108.7046051  33.4273219  93.2726955 108.8201141  34.2136812
  93.2979679 108.2075214  32.8298187  54.1455889  67.8088093  96.7176628
  53.3157349  68.1756496  97.0226288  53.9926815  67.6049948  95.7950020
  64.8533583  29.6480131  95.0660324  65.5832481  29.6813869  94.4476604
  65.2425814  29.3252707  95.8787823  97.7998543 102.4724865  17.4936819
  97.9809761 101.5839767  17.1871197  98.3519650 103.0316448  16.9471025
  93.0194092  95.6234646  10.6380844  93.2027245  96.2019539   9.8978353
  93.7636471  95.7455635  11.2275159  52.9870653  60.6561804  88.3851719
  52.1156836  60.2811050  88.5126209  52.8217936  61.5380812  88.0517387
  85.9708977  28.1608319  74.4730616  86.0984039  27.2122097  74.4826031
  86.3132095  28.4399796  73.6238670  87.2869015 106.6731548   8.2714510
  87.4755192 107.5579071   7.9586154  86.4490032 106.7537880   8.7271577
  51.8484163  71.2660074  96.7767334  51.9183731  71.7987251  95.9845543
  52.5453568  71.5913916  97.3464966  87.6547050 103.7629414   7.0183384
  87.7589703 104.5779419   6.5272796  87.9042816 103.9895058   7.9142231
   2.1693881   3.3927226   8.5968041   1.3622531   3.0626541   8.2020640
   2.8500158   2.7966139   8.2843423   4.4664693   4.3073529   5.7445049
   5.1032019   4.7408763   5.1762968   4.5709640   4.7374472   6.5932286
  21.2151742  36.0546947  84.1511440  21.8900633  36.7287707  84.0712738
  20.3994846  36.5053558  83.9325428 115.3482246  96.5322113  17.5001729
 116.0372066  95.8752728  17.5999796 115.5430317  97.1873283  18.1703210
  20.8661890  58.5325575  86.8412590  20.2489352  59.0814066  87.3249912
  21.6087461  58.4259510  87.4357986  94.9958134 106.8776321  11.8627942
  94.3728733 106.5718555  12.5221026  94.5128536 106.8320751  11.0376227
 115.3764248   1.7479290  16.1612821 116.0365772   2.2972696  16.5839648
 114.9057865   1.3378353  16.8869185  22.2830725  24.9574089  94.5005798
  21.6663432  25.5749774  94.1075325  21.7836380  24.5304108  95.1966190
  27.7626753  61.3759041  94.8337650  27.1525741  62.0111942  94.4590569
  28.2141137  61.0021782  94.0769577   2.1715453  93.4091949  11.0461962
   2.0546068  92.8024864  10.3151274   1.4001468  93.2729053  11.5962887
  45.2759790  62.9898500  84.7086620  45.4548216  63.0443764  83.7699032
  45.8852434  63.6126232  85.1051235  52.9936361  52.9289293  94.4513512
  52.7453852  53.6358786  95.0470257  52.8894949  52.1311331  94.9699116
  14.2487776   1.4606738   9.0050679  14.7491658   0.9001429   8.4120679
  13.3628595   1.4622726   8.6426079  74.8982906 110.7151699  15.6293678
  75.3859329 111.5145874  15.8277667  74.5260859 110.4469299  16.4694560
 102.6301098  95.3520012  12.0128834 101.8060207  95.8386803  12.0290732
 103.2656097  95.9690762  11.6501212  40.8966780  73.3901215  93.5851669
  41.6591883  73.7969255  93.9966488  40.3501558  74.1270351  93.3122158
  43.8084126  50.9076786  85.0940800  43.2130671  50.1978827  84.8532772
  43.2359838  51.6602468  85.2431011  47.0368814  72.3368740  88.0552101
  47.1246767  72.4075317  87.1046734  47.3186779  71.4444256  88.2560921
  85.2672577  95.6055450   0.6989131  86.1187458  95.9720421   0.9374013
  84.8958302  95.3035545   1.5278146  61.5531540  63.1447172  91.9882107
  61.0312128  63.0496454  91.1914825  62.2831011  62.5368500  91.8702984
  60.2719355  62.9310036  89.5050526  59.5365620  62.3541880  89.2983150
  61.0463810  62.4387026  89.2328167  47.6579189 111.9316959   7.5263649
  47.5354815 111.1357880   7.0088929  48.5123062 111.8176842   7.9426056
  72.6903772  94.1383934   7.4351424  72.6373100  94.2707539   6.4886236
  73.1439686  94.9159145   7.7606499  69.8088932  95.0104904   2.5164858
  70.2850676  95.3304672   1.7502615  70.0317574  94.0809155   2.5659981
  67.6353168  43.6864519  72.6968288  67.7519035  44.6303844  72.8046703
  67.0509100  43.4340858  73.4116793  70.0638008  96.7417622  11.2032902
  69.7270250  96.0206413  10.6714976  69.2984533  97.0681095  11.6765511
  46.1438990  62.6069307  61.6205645  47.0366430  62.2851801  61.4951801
  46.1427450  62.9713488  62.5056839  70.5287027  54.2141724  91.1050510
  69.8532677  53.7043762  90.6577015  70.1449537  55.0854826  91.2040138
 118.3741951  90.5653095  18.4318352 117.6185322  90.6169415  17.8465724
 118.5739040  89.6305943  18.4832549  60.9667349  50.3215837  77.7588654
  61.7320061  50.5349255  78.2927895  60.5117226  49.6402836  78.2538700
  66.5743208 101.2973309  19.4318497  66.2022638 100.4193878  19.5156181
  66.5930414 101.6359329  20.3269625 103.6200142  90.9735966   4.3686238
 103.2320786  91.3999367   5.1328081 104.1664028  90.2778435   4.7341499
  69.9865389  48.6415005  74.5148659  70.4446602  49.3272114  75.0008297
  70.6494761  47.9661751  74.3710518  65.5681229 110.6453609   1.8616432
  64.9859333 110.4828835   1.1194219  65.0182676 111.0947990   2.5034380
  57.4487066  45.2024984  77.8183985  57.7305555  45.5691957  78.6564445
  57.9365778  44.3827581  77.7394390  51.5473604  66.0273981  88.8103580
  52.3315954  65.8656216  89.3347931  50.9532595  65.3133059  89.0413380
  57.6439857  61.2603188  79.4002914  57.7796555  60.3481293  79.6566820
  58.2021809  61.3786554  78.6317539 114.4415092  24.4610667   8.2980376
 113.6834431  24.5447540   8.8764602 114.0674114  24.2568278   7.4409634
  84.4045448 109.2064476  -0.1263312  84.7272205 108.7464333   0.6485883
  85.1585865 109.7059441  -0.4396391  75.9386969  75.2300835   0.6471015
  76.6097021  75.8598375   0.3836707  75.7811022  75.4207563   1.5717849
  68.2341957  40.9506369  80.9940147  67.6884842  41.5022707  80.4335403
  68.4971523  40.2228069  80.4306793  11.5073347  14.2239058   2.4015956
  12.1099782  14.8942578   2.0796013  10.6838131  14.6905935   2.5438851
  63.1925631  38.6879325  78.9944315  63.7896824  39.1239643  78.3865166
  62.8281403  37.9597282  78.4912968  58.1843185 107.6403522  18.1110013
  58.3577204 107.3925591  19.0191650  59.0488243 107.8248978  17.7438474
  66.5940332  39.5289731  90.2034950  67.1205759  39.6450496  89.4126034
  65.8182907  39.0529752  89.9070549  54.0175247  66.3229656  90.6884289
  53.5576582  67.1525574  90.5598354  54.8405552  66.4288855  90.2113152
  98.1673717  87.2562981   0.2645407  98.5824299  86.8407249   1.0203559
  97.4064159  87.7091122   0.6280622  57.7360487  57.6700926  72.7574301
  57.7890348  56.8645811  72.2430611  57.8049994  58.3722878  72.1105909
  91.6142845  99.5424175   2.8101790  92.2702122  99.2048836   2.2002120
  91.3436317  98.7776375   3.3181942  33.7489176  71.9566631  78.5427284
  34.2266226  71.1673260  78.7976456  34.1333485  72.2086143  77.7031088
  85.2810287  42.4040222  83.6347389  84.8404026  42.9817820  84.2578506
  86.0703468  42.8825331  83.3812809  70.7070160  47.4562693  79.0103292
  71.3088655  47.2203588  78.3043861  71.0810947  47.0472336  79.7907019
  65.3784323  42.0790577  80.1068020  64.9355221  42.5568914  79.4055605
  65.6121159  41.2383652  79.7132778  88.9047432 111.2696457  14.1706705
  88.4726238 111.5449047  14.9792123  88.5698986 111.8693638  13.5039997
 115.6435966   0.0722916   3.2315215 115.3754330   0.7051309   3.8977313
 116.5937233   0.1732353   3.1739482  97.1955013  47.0922613  92.7254105
  96.6168594  46.8848753  91.9916534  96.6952419  46.8435383  93.5026646
  67.2043991  87.6577187   0.9788275  66.5711784  88.3629131   0.8447594
  67.3406076  87.6349926   1.9260144  59.2877197  61.2945557  95.3382969
  59.5848179  60.6664085  94.6799660  58.6435175  61.8346214  94.8805046
   2.4236587 101.4388943  14.9145007   2.2302772 100.7849789  14.2427683
   1.9617242 101.1268044  15.6926036  17.7351689  63.4365511  93.0077457
  17.3621726  63.7185383  93.8429642  18.6224556  63.1512547  93.2258224
 103.7448692  78.0010939   1.4149147 103.0608273  78.6550093   1.2709913
 103.9904404  78.1096029   2.3336920  62.9804611  36.0986876  85.7341290
  62.8169441  36.3413024  84.8227406  62.4257708  35.3325915  85.8812714
  21.0916376  63.0230808  91.2390518  20.8015466  62.6613855  92.0764637
  20.8030319  63.9355087  91.2593937   8.6385816  17.5136387  20.0941563
   8.2752287  17.0534062  19.3375897   9.2353851  18.1601739  19.7172618
  84.1300678  87.2967911   2.2068661  84.0620804  87.6430702   3.0966407
  85.0654221  87.1350956   2.0836018  67.2250843  31.7901993  91.5270042
  67.7434254  32.2312450  92.2000790  66.4535952  32.3458910  91.4163876
 104.0201092   2.5829422  -0.0039919 104.7077084   2.0062116   0.3288910
 103.2126713   2.2376132   0.3768403  72.2987413  47.0209980  76.7558622
  72.5061560  47.6639032  76.0777187  72.3242569  46.1782217  76.3027525
 105.8690548  95.8043957  17.5305784 105.5002022  96.3682365  18.2104802
 106.2933922  96.4092255  16.9220090  47.6077509  35.5944443  91.5911961
  48.3529758  36.1099005  91.2826920  47.1783161  36.1565089  92.2360992
  38.6412263  52.8564358  95.3521252  38.3689070  53.0278444  94.4506359
  38.7934947  53.7245560  95.7255077  70.6826496  93.4744835   9.8791575
  70.9325218  92.5651836   9.7149229  71.2172365  93.9835739   9.2698342
  98.2063007  98.3293152  11.2271047  97.4522209  98.5930252  11.7544174
  98.2686138  98.9993477  10.5463684  75.0246239 104.0977573   5.1189578
  74.9774885 103.4297180   5.8028615  74.7761631 104.9100971   5.5601096
   1.3863429   5.3006738  31.8115950   1.7048335   5.2152354  32.7102017
   1.6633409   4.4917148  31.3813734  91.5298843  93.9014339  12.2878027
  90.6582546  93.7283230  11.9321001  91.9690037  94.4122219  11.6077244
  61.8393564  38.0726194  94.8918724  61.7466545  37.2118378  94.4835949
  62.7103233  38.0569792  95.2886105  38.0336857  26.0470438  77.0228052
  37.2037768  26.0467100  76.5458488  37.9767609  26.8069935  77.6020002
  23.4538960   6.0371810   4.3933615  23.2915163   6.6414022   5.1177800
  22.5853992   5.8538496   4.0351236  92.8538704  90.2979088   8.6590338
  93.6552334  89.8449707   8.9215279  93.1310368  90.8885384   7.9586267
  46.4585495  75.5385780  82.5415707  46.1713314  76.3918066  82.8667545
  46.9375372  75.7377100  81.7371178  40.1004839  61.2042904  79.7192717
  40.7987690  60.8491182  80.2692509  39.9706674  60.5425835  79.0399170
  10.5405092  31.7442107  11.0006166   9.7275645  32.1026134  10.6443858
  10.6100845  30.8734226  10.6093144  53.0752373  80.9598732  91.7130661
  53.1562853  80.4064941  90.9362507  52.9187918  81.8381882  91.3661957
  73.7733412  51.1575603  81.0798264  73.6761951  50.9749222  82.0143986
  72.9601431  51.5999413  80.8364391  39.0309477  47.7669239  91.8093395
  38.4379029  48.4094620  91.4198875  39.2189217  47.1532059  91.0992241
 108.2508659   9.5341545  13.2834518 109.0439224   9.1942722  12.8690112
 107.8823280  10.1366162  12.6373422  43.2551527  58.2118320  95.6742382
  43.8588285  58.9150381  95.4348564  42.4190807  58.4718800  95.2874660
 111.5885162 110.1283550  14.6078837 111.8991661 111.0247993  14.4809878
 112.3119831 109.5791531  14.3058801  76.7985582 103.7211227  14.6200907
  76.9578028 103.9726734  15.5298126  77.5168180 103.1253338  14.4070888
  31.5026188  67.2826767  85.3012562  31.1346316  66.7487717  86.0053635
  31.1562037  66.8925238  84.4987583  12.3305035  16.9780147  16.0052359
  12.2064090  17.8512883  16.3770235  12.0097888  17.0525587  15.1064491
   3.2908800  31.2538075  20.8506489   4.0423381  31.8467164  20.8515882
   2.5377515  31.8213987  21.0145688   4.1033179   3.7872136  14.6677029
   3.5744157   3.8830456  13.8756740   3.6367506   4.2965630  15.3303576
  84.0569687 107.4914074  18.3964503  84.9092960 107.8882694  18.5760760
  83.4430313 107.9869461  18.9384317  32.8091478  64.2548180  96.3900089
  33.3807516  64.8613691  96.8607521  33.4002852  63.5821342  96.0519505
  79.7592545  86.6810799  13.1454980  78.9288235  87.0195484  13.4802473
  79.5073271  86.0729408  12.4505699  48.4718895  70.8512211  83.7202454
  48.8741970  70.4034328  82.9760265  47.6350307  71.1712408  83.3833694
  85.3943729  98.1444550   7.5427479  84.7642231  98.8452339   7.3752785
  85.8075333  98.3868694   8.3714616  41.6365425  33.9755360   0.5127451
  41.8871872  34.6612183  -0.1063231  40.6877701  33.8977066   0.4127428
 104.2870331 107.5186825  25.8244324 103.6039734 108.0563259  26.2251759
 105.0818634 107.7405453  26.3094568  86.7442608 104.1864491   1.5574309
  85.9506226 104.6847725   1.3623782  86.8305874 104.2364979   2.5094146
  63.3832121  64.3741894  88.3663654  62.4346495  64.4987917  88.3968067
  63.7447119  65.2292347  88.5997105 117.2753525   3.6944810   5.5732554
 116.3553715   3.7852484   5.8214921 117.3789120   2.7640569   5.3737098
  10.5087066  11.5243840  10.2758789  10.4145765  10.8381987   9.6151817
  11.1721730  11.1876428  10.8780837  27.1280122  10.5956364  18.1721640
  26.4463353   9.9247319  18.2100654  26.7813396  11.3190937  18.6943305
 114.8957348 106.5942955  14.6328902 115.3285599 106.2756634  15.4249585
 114.7735786 107.5310707  14.7870433  98.3895779  93.6186314   2.7562323
  97.7616024  93.5002041   2.0435989  99.1265202  94.0769386   2.3523749
 116.2379265  96.5180683   6.8538523 116.5294266  96.3849926   5.9518826
 116.6155243  95.7839680   7.3383683  60.0958061  50.9843302  96.9287014
  59.1934109  51.2360525  96.7323494  60.6184769  51.7416716  96.6651058
  78.8812447  42.6177740  91.8438911  78.6902046  41.6801214  91.8671894
  79.6929264  42.6844072  91.3409328  50.0558615  57.0804691  75.2560234
  50.5993843  57.2726631  76.0201406  50.6777906  57.0067883  74.5321417
 105.6265354 110.8839512   8.0246335 106.5334606 111.1537933   8.1692535
 105.2116966 111.6456413   7.6196933 113.6518383   0.4960706   7.8464210
 114.1004944  -0.2920812   7.5402218 112.8717327   0.1688725   8.2943147
  63.8086653  86.1854935   3.2492548  64.2713022  85.4343033   2.8779006
  63.7246943  86.7995834   2.5198129  60.5651045  39.0634966  84.6747208
  59.7488832  39.5243192  84.8687649  61.2121820  39.4691300  85.2517700
  58.3345985  60.1224136  88.7491035  57.6265860  60.6119394  89.1678143
  58.0770588  59.2048836  88.8387966  86.1829090  54.5306826  83.4673214
  85.9888840  55.4333401  83.2147217  87.0655155  54.5695066  83.8357353
   1.2620318   5.8799785   9.2894363   1.7268579   5.0844193   9.0301037
   0.6974639   5.6030458  10.0111032  54.2879772  55.9335136  85.5494022
  54.1298199  56.8284464  85.2488804  53.4408903  55.4971361  85.4585934
 110.4482937 109.8430347   4.9181694 109.5683479 110.2078724   5.0121129
 110.6995487 110.0522804   4.0185454  51.7669916  55.0006390  76.1832237
  52.0112944  54.4675159  76.9397449  51.8425083  55.9035015  76.4920425
 118.5501289   5.6747007  29.0960407 118.3638287   5.8799213  30.0122333
 117.7567673   5.9326309  28.6267066  40.1947641  56.0399628  82.0288372
  40.3761959  56.9313240  82.3268127  39.3704581  56.1114407  81.5475464
  18.2471001  15.5372024  23.5932088  18.3802104  15.4533410  22.6490259
  18.7375784  16.3226986  23.8354039  67.5683975 107.5373840   3.7593853
  66.7183781 107.7667713   4.1349873  67.3900557 107.4005699   2.8289503
  26.0417318  12.7066267  11.1095953  26.0525632  12.2834873  10.2510691
  25.1471496  13.0337703  11.2041116  56.0475206  52.0654869  92.1592903
  55.8309174  52.9967403  92.2049809  55.2887344  51.6635656  91.7362881
  49.2616940  55.7035589  94.5358562  48.7850237  54.8883200  94.6920776
  49.7638130  55.8449793  95.3384209  66.8475778  62.9913851  96.8744561
  67.4214132  62.6898089  97.5787261  66.3244446  63.6868903  97.2729965
  72.0429659  75.5202723   3.2623416  71.9980526  76.4737272   3.3340716
  71.8737936  75.2050591   4.1501769  30.5004287  19.9721146   8.2741922
  31.4269924  19.7402239   8.3369517  30.4058075  20.7365060   8.8425094
  86.2898350  99.7995090   2.6311895  86.0376549  98.9815140   3.0595940
  85.4803181 100.1218128   2.2349176  12.9507256   4.3238729  14.8586380
  13.7662292   4.7728771  14.6359682  12.3221231   4.6310019  14.2053676
  22.2379875  77.5985670  81.5709496  21.7164040  78.3531618  81.2975121
  23.0412388  77.6627588  81.0543251  50.2155495  48.6509943  79.8766613
  49.4884109  48.0328846  79.8029423  50.1492596  49.1936016  79.0909004
  36.9569850  37.0406938  85.6510544  36.0754418  37.4116278  85.6900597
  37.4660039  37.5675464  86.2671375  90.0445652  73.8873482  11.6495585
  90.5941105  74.6561575  11.8017459  89.7719097  73.6108541  12.5244534
  18.3015990  68.6187029  91.2219143  17.9816139  69.4068289  91.6608906
  19.2470002  68.6283684  91.3714314  25.9082341  69.5429897  88.8541222
  26.7868948  69.2737627  89.1218948  25.5188394  69.9120998  89.6468163
  58.8754320  70.3965759  84.7987366  59.5262384  71.0648632  85.0133896
  58.3654833  70.2921104  85.6020260  95.3478622 100.9336758   6.5473843
  94.9019814 100.4536533   5.8495313  95.9627438 100.3007984   6.9183588
  60.2186871  54.4272184  79.4148350  60.8242941  53.9429617  79.9760532
  59.3615675  54.0435171  79.6001625  63.6649752  27.1059155  95.2345562
  63.6514044  28.0517554  95.0881481  64.1508102  26.7549706  94.4882011
  77.5372124  52.8331852  91.6834164  78.2142162  53.0613089  91.0463428
  76.8019772  52.5271511  91.1523724  39.5593929  59.1438770  87.1846390
  39.4839501  58.6674356  88.0113983  39.4262958  58.4770679  86.5109253
 112.4389744  86.5413475   0.4435396 112.7287674  85.6487942   0.2548558
 113.2493305  87.0333958   0.5756401  50.0340557   3.9058781  28.7479973
  49.8154259   4.0842634  27.8333330  49.3280077   4.3161261  29.2474222
  17.4686849  93.7555408   5.6645769  17.2766781  92.8910065   5.3013390
  18.0046558  93.5770321   6.4372993 106.3602734   0.7296564   0.6511398
 106.8868542   0.9049232   1.4310293 105.9821892  -0.1357944   0.8069521
  47.8548002  67.9396772  93.1921864  48.6052561  67.4891806  92.8047657
  48.1586933  68.2095051  94.0588379  51.2110710  63.5422373  80.4501724
  51.3534355  63.2745218  81.3580799  51.2298012  64.4988823  80.4768085
  22.9264069   9.3586463   9.5335317  22.0303059   9.0450484   9.4115096
  23.4576917   8.7873918   8.9788800  60.2508831  23.6630583  88.3294964
  59.5327520  24.0509224  88.8295746  61.0255575  24.1547751  88.6021233
  53.8508368  26.0631013  88.0977154  53.9170313  25.1082683  88.1097031
  53.5972500  26.2743425  87.1992111  77.4849272 109.8390007   3.2732454
  77.7539158 110.4320908   2.5717273  77.4297857 108.9806461   2.8532267
  41.3536358  71.7767715  70.8399725  42.2996759  71.6360283  70.8778715
  41.0972452  71.9273138  71.7498255  77.5149727 104.2891026   4.0006292
  76.6735220 104.2194271   4.4515547  77.3999596 103.7791443   3.1987861
  81.0871410  98.9199543   7.8526855  80.7936287  99.0545559   8.7537760
  81.9207191  99.3874931   7.7999365  52.5325918 105.4591465  33.4615397
  51.6401339 105.6448364  33.1695437  52.6870394 104.5520592  33.1977820
  47.6931572  37.2839379  84.1302586  47.6495647  37.6433086  83.2441521
  47.9241180  36.3635898  84.0043640  85.6925106  75.4250002  21.5808988
  85.9595490  74.5764780  21.2274384  84.7369003  75.4171467  21.5264106
 113.8345153   0.3113723  17.8625596 113.6090571  -0.4714608  18.3651340
 113.0963380   0.9050441  17.9999602  95.8880520  97.6688671  18.8543367
  96.0819340  97.9829979  17.9711807  96.4943695  98.1494427  19.4179642
   6.1169982  92.5382710   3.0376589   6.4389402  91.8410969   2.4662256
   5.7931077  92.0813179   3.8138825 112.9041672  91.9257259  13.9308262
 112.3481083  92.5788307  13.5059750 112.7724934  92.0719624  14.8675811
  33.8044405  76.6072416  69.2882824  34.0317369  76.4054108  68.3806276
  33.0007911  76.1128950  69.4495392  53.8442230  50.0583792  85.8260059
  54.0937138  49.5952988  85.0262928  52.9353142  49.7999620  85.9787655
  49.7823620  25.9508944  91.7694855  50.1328087  26.2043858  90.9155750
  50.5518389  25.8892512  92.3354626  48.2989120  45.2305698  86.4368439
  48.9949989  44.9158716  87.0136070  48.7607718  45.6460667  85.7086372
  14.6716857  37.7962780  67.8482962  14.6320212  38.7245560  68.0784273
  14.3797755  37.3410296  68.6380863  49.9207973  46.0131025  84.0349197
  50.3958225  45.6016636  83.3129120  49.9321318  46.9474792  83.8274574
  45.6188393  41.6523886  96.2858295  45.6125259  40.8996534  96.8770790
  46.4408541  42.1026897  96.4801311   1.3155088   8.7679291   6.5207326
   1.6910712   9.2909575   5.8124769   1.6881576   7.8949237   6.3973403
 106.7589760   0.9736005  18.6529505 107.2001553   0.2031835  18.2951117
 107.3933220   1.3515320  19.2620492  57.0486546  68.6874008  97.1676350
  57.6380062  67.9987144  97.4752045  56.2904644  68.2168102  96.8213272
  52.1065760  37.1454120  83.7642670  52.1757746  37.9725957  83.2876015
  52.4040556  37.3537135  84.6499062   1.1548274  26.7236304  19.3806589
   1.4535853  25.9844851  19.9104118   0.6943079  26.3202786  18.6448193
 104.4606876  16.3104010   2.0622103 103.5707855  16.2468672   1.7154169
 104.4602108  17.1176136   2.5766414  68.9453173  97.9104424   1.5950736
  69.0244341  98.1698418   2.5130516  69.6319723  97.2551346   1.4713277
  67.3940134  94.1043377  24.9414134  68.1279564  94.7180271  24.9107099
  67.5073338  93.6366272  25.7688451  25.9616709  15.4073799  17.7067804
  25.1814103  15.7557046  17.2753954  26.3846207  16.1744905  18.0926383
  11.7774785   1.4481251   8.3336473  11.3392603   2.2987688   8.3581835
  11.1439538   0.8412021   8.7164289  54.7296715  72.1415281  82.1884823
  55.4061031  72.0556688  81.5166950  54.5442629  71.2419748  82.4580383
  23.6344314  12.0603836  35.8815455  24.5766807  11.8993354  35.8319378
  23.3202028  11.9206262  34.9882579  82.4190140 103.9353466   2.4758269
  82.5251770 103.1933308   1.8805259  81.8396759 103.6090183   3.1643805
  44.1024065  79.9017000  82.8833961  44.0432262  80.0851727  81.9458103
  44.1984463  80.7627392  83.2903481  13.9907324   4.8831496   6.3300133
  14.7026455   5.1367778   6.9174522  13.1962299   5.1769572   6.7757410
  46.8676901  76.7395782  95.4455757  46.8173647  76.8105555  94.4923401
  47.4838448  77.4247837  95.7045746  13.8995719   5.1792198   1.5470181
  13.0482650   4.9631467   1.9275713  13.7250936   5.9314281   0.9813578
  30.7034802  10.0275254  16.9998205  30.1469111   9.6434647  16.3223541
  30.1622462  10.0163090  17.7892339  73.1957197  61.2722349  91.7528439
  73.7160540  60.4710436  91.6930389  73.4166098  61.7610264  90.9600544
  73.9312410  65.0045252  80.6715202  74.5135117  64.4915485  80.1111221
  73.0901384  64.9957943  80.2146912  31.0109179  11.2672678  -0.0226191
  30.9173386  11.4636007   0.9095403  30.6395285  10.3905788  -0.1212004
  20.2367687  10.4455447   3.1428629  19.9490237   9.7734994   3.7607551
  20.9374499  10.9087384   3.6019140  35.8402610  29.2224669   9.8576522
  35.1990938  29.9254751   9.7531748  36.4618015  29.3568945   9.1422158
 107.8227139  68.2177830  86.6551685 108.3909607  67.5470829  86.2763691
 108.4183788  68.7933207  87.1349335  60.4357195  59.4619894  78.9295769
  60.7061529  60.2852726  79.3361568  60.9158373  58.7881279  79.4108582
  58.3965254  74.4031620  93.2456589  57.5145531  74.5490456  92.9035091
  58.4495592  74.9652195  94.0186501  68.1815290  85.5331898  84.5862961
  68.4006453  85.8194160  83.6995602  69.0284967  85.3719521  85.0020885
  64.5654583  46.2344742  92.8015041  63.8716316  46.3507271  92.1524048
  64.7227478  45.2904224  92.8175068  96.1763477  56.9507265  81.9332981
  96.8935490  56.3927650  81.6324043  96.1752796  57.6888752  81.3239002
  94.4850349  65.7854080  81.2730980  93.8083267  66.4350653  81.0827255
  95.2578068  66.3034439  81.4982510  55.1410198  58.6350727  91.3005161
  54.5777082  58.1343603  91.8905926  56.0171747  58.2778025  91.4452362
  25.4632950   6.5855795  11.5900254  24.5901060   6.4613742  11.9619763
  25.9670377   6.9955766  12.2931457  50.1252365   5.2488279  19.3764603
  50.2953577   4.5884663  20.0481844  50.5486965   6.0411477  19.7068298
  53.9916897  58.1588936  87.9920578  53.4245920  58.9235067  88.0920982
  53.3928204  57.4124193  88.0109310  52.8947496  77.3228788  91.6585159
  52.4261284  77.4247599  90.8301163  53.6475992  77.9089785  91.5814686
  51.2107563   2.4057536   2.0474014  50.4958010   3.0157545   2.2289747
  51.3885021   1.9874859   2.8898326  38.1213427  11.5254605  15.4593527
  37.6215458  10.9803641  14.8516488  37.6873183  11.4027596  16.3036263
  64.9779797  61.3218069  86.4897442  64.5653629  61.7854404  85.7610321
  65.4199076  60.5777407  86.0807228  17.7276552  15.0098801  28.8227963
  17.7191377  15.0954628  27.8694701  16.9121909  15.4223609  29.1075969
  95.7016182 111.6547871  14.1326499  96.2084961 111.9893074  14.8725140
  95.5078506 110.7469177  14.3660176 107.9546833  35.8281183   3.5987189
 108.3666039  35.3284883   4.3036503 107.8588009  36.7111850   3.9554101
  10.9086549   8.0398506  23.5738349  11.7924011   8.3421499  23.3644557
  10.7736862   7.2819912  23.0049205   5.5404663  21.2374425   5.6122786
   5.6621444  21.8466163   6.3405186   4.7893828  20.7029676   5.8700466
  61.8346310  50.1961708  83.6898422  61.1317253  50.2989674  83.0482864
  61.5201998  50.6598139  84.4659805 108.1845379   6.5181941   1.5126763
 107.5398445   6.8795085   0.9043585 108.5139751   7.2784436   1.9919753
   6.0081422 108.3265305  12.5752151   6.4581740 108.9391804  13.1569052
   6.3813263 108.4989357  11.7107832  44.2877197  76.3775063  95.8976364
  45.2364922  76.2521076  95.8792019  44.1571760  77.1340466  96.4693260
  30.1892304  17.0351040  18.4123671  30.1231289  17.2451568  17.4808407
  29.4057584  16.5172207  18.5972977  54.9697161  84.5683575  92.0957279
  55.2124834  85.1482964  91.3739586  54.7297764  85.1605225  92.8084660
  27.8574777  31.0507154  10.6736028  27.0457101  30.5435514  10.6666255
  28.3820343  30.6535888  11.3688469 112.7856636  10.7055891   3.2145151
 113.5831547  10.6115222   3.7354726 112.2750473  11.3706815   3.6761972
  75.2055311  91.3526821  77.8040600  74.8568773  92.2305870  77.6493073
  75.5166292  91.0638523  76.9461393  37.3768735  84.2543507  94.2673397
  37.6793313  84.8237705  93.5598660  37.9640961  84.4477367  94.9980927
  23.2769156  14.9245954   9.2737526  24.1606236  15.2426767   9.4584566
  23.4115887  14.0859473   8.8324320  53.5678482  58.0476284  95.7048035
  53.8352251  58.2384777  96.6038704  53.9002419  58.7859154  95.1942348
  65.3638601  77.8611183  96.0643959  64.6886158  77.4265623  96.5853977
  64.9535036  78.6746073  95.7710171  30.0373340  15.1513183   5.5616188
  30.3455138  15.7856774   6.2088007  29.1083384  15.3538430   5.4512382
 102.0555019 108.6754513   1.8281560 101.8141747 109.1045380   1.0072538
 102.2108078 107.7628326   1.5847552  91.5199757 106.0362053   5.1095217
  91.9776058 105.2408791   4.8370084  91.6699600 106.6555119   4.3952352
  45.8536816   4.8872679  18.2649910  46.2282467   5.6380600  18.7256908
  46.2507010   4.1251314  18.6866009  75.4185002  55.2554759  97.5143267
  74.4712728  55.2223738  97.3805101  75.7452672  55.7815417  96.7844593
  35.1520467   6.9596267   7.5351930  35.3412080   7.8953964   7.4660146
  34.3555164   6.8374550   7.0186228  55.4070377  45.2522993  91.9521904
  55.1080847  46.1205530  91.6820145  54.6183729  44.7102547  91.9314671
  29.0609002  29.5557451   4.2213044  29.0934563  28.7607908   3.6891186
  29.9778366  29.8062706   4.3339673  56.6514587  71.8969631  77.0692205
  56.2807512  71.2690401  77.6893187  56.0374117  71.8994522  76.3349342
  63.0941296  46.5074396  97.0536137  62.3101997  46.3301468  96.5337563
  62.7605152  46.7195892  97.9253578  41.5564346  83.1448460  71.7565298
  41.7655611  83.8958073  72.3120070  40.9947205  82.5932407  72.3009968
  50.8075714  58.3531857  88.4836388  50.9067822  57.4299765  88.2510948
  50.1596451  58.3544159  89.1882133 117.1175671  10.4202986  88.5511780
 117.1504784  10.1493478  89.4686413 117.3562145   9.6338576  88.0604744
 114.4921875  82.1261787  11.5809703 115.0605965  81.7287731  10.9212625
 114.2571354  81.4025974  12.1618438  55.5449343  78.3897686  91.2764168
  55.5791283  79.1049623  90.6411552  56.1790276  77.7504635  90.9516907
  23.8500452   9.5246977  22.5791860  24.6297789   9.6325904  23.1237984
  23.1200552   9.7338974  23.1619239 110.4951859 111.3103008  10.9676313
 110.3001118 110.6272411  11.6091967 110.6935883 112.0843124  11.4946795
  71.8416929  54.2842579  82.9482841  72.4195719  54.2298222  83.7094212
  72.3261929  53.8471746  82.2479630  58.0827188  61.8807983  91.4434528
  58.4576225  62.2322321  92.2510242  57.3893642  61.2904358  91.7383575
  71.1590147  76.4053202  83.2210255  70.6510019  77.1961308  83.4020519
  70.5352116  75.6884241  83.3357525  23.6714387   5.8756298   1.3713197
  23.2490444   5.3163576   2.0232630  23.4743953   6.7676347   1.6572085
  25.6911874   8.6781090   0.7735801  26.0481262   9.3060255   0.1454509
  25.1722479   9.2108160   1.3762049  61.7444420  72.7268982  90.9101009
  62.4193907  72.0661211  91.0651779  61.4664030  72.9953718  91.7857933
  42.0308733  31.8163228  22.2664165  41.9222546  31.0020685  22.7577639
  42.8740406  32.1621013  22.5592303  12.9682648  41.6164207  13.2000291
  12.3846781  40.8578539  13.1847155  13.8223600  41.2666941  12.9461706
   5.7439530  19.0799677   9.8607516   6.3979375  18.7550902   9.2418897
   5.2899611  18.2937956  10.1641595  80.0357342 105.9912777   5.6272215
  79.5664454 105.7132626   4.8406440  80.6949425 105.3112125   5.7657588
  44.2796755  70.5529928  94.7246170  44.7340536  69.9931717  95.3542042
  44.3301249  70.0735092  93.8977051  46.4477205  65.7806730  91.4773369
  47.1291637  66.4411354  91.3521957  45.6264591  66.2662745  91.4001274
  67.0528126  57.2188377  92.5686169  67.0049286  58.1649351  92.7058887
  66.1721945  56.9730663  92.2851944  26.9299912   4.7507784   9.9551368
  26.2568212   4.0764630  10.0466359  26.4729881   5.5717736  10.1377535
  45.4982090   2.6057148  19.9869752  45.7140970   2.0734537  20.7526922
  45.3377724   3.4804982  20.3408766  14.2249966  36.5195608   9.3885458
  14.4740176  36.0765028   8.5774219  13.2719660  36.5933275   9.3383104
  60.3875494  74.7906065  88.1149864  59.6874619  74.5182514  87.5217533
  60.5785608  75.6936359  87.8614426  68.3982277  81.1167145  85.5051613
  68.0924988  81.7453957  84.8513031  67.9183388  80.3125572  85.3069782
  26.0999298  25.6920981   5.5436492  25.9720683  25.7898712   6.4872181
  25.5731988  26.3914943   5.1568282  39.7733736  50.9767437  97.0195484
  39.2995262  51.3348675  96.2689114  40.5952930  51.4669037  97.0399761
 103.8416958 107.7253532  16.4777100 103.2587814 106.9724846  16.5758502
 104.7137928 107.3423004  16.3830721  35.3287578  31.3030863   2.6602736
  35.1305771  31.0009813   3.5466644  34.9831676  32.1951532   2.6283994
  60.0325918  48.8874578  79.6832609  59.8897266  47.9860306  79.9717855
  59.6958113  49.4246817  80.4003334   8.4747875  22.5617218   4.3021348
   7.6687121  22.7034116   3.8057485   8.1812900  22.1934462   5.1354802
  65.4721928  48.9064646  94.0414715  65.1687241  48.0491447  93.7429047
  65.4063511  49.4665432  93.2680321  24.7431231  10.4979444  27.6366162
  24.4391441   9.9632949  28.3700871  25.0989652   9.8665941  27.0113111
  30.2774882   5.8223993  13.3749008  30.3147745   6.7096233  13.0175841
  31.1724973   5.4931742  13.2924390  94.8566532 102.9391479  25.1124001
  94.4421482 102.8255844  25.9676909  95.4891300 103.6453533  25.2446365
  36.5202045  19.9363363   3.8374540  36.4431405  18.9832151   3.7944075
  35.6651998  20.2588701   3.5525480  10.2295625   1.5019020   4.8785987
   9.8863560   2.2038287   5.4315370   9.8922288   1.6987509   4.0047058
  88.6702633  54.7132874  90.2151299  88.5552120  55.6631422  90.1872730
  89.5711327  54.5898199  90.5141830  44.3868208  18.5457313   2.1035646
  45.3192425  18.6138058   1.8981591  44.3481970  18.5897696   3.0589709
   1.8619260   8.3790129  20.4020405   2.6172620   8.0047095  20.8554673
   1.1214662   7.8443468  20.6885409  98.2071400 100.6507492   1.0862639
  98.7012100 101.4700413   1.0563541  98.5434055 100.1412201   0.3490140
  69.5197201  61.2798452  90.0739765  69.8527861  60.8944559  90.8843899
  70.0493240  60.8808184  89.3836689  32.5091100   8.5036486  18.6216319
  31.8718934   8.4898835  17.9074907  32.0989895   7.9913640  19.3184805
  91.3399982 109.2793274   0.3785930  91.1558342 110.2136707   0.2820727
  92.1692181 109.1498470  -0.0816962   1.8038622   8.5820746  10.0613737
   2.0159087   7.6489180  10.0834370   1.1030822   8.6531907   9.4132364
  59.1644812  66.8725014  84.1855526  59.8857117  66.4814997  84.6786785
  58.6662674  66.1244774  83.8562012  74.1602755  56.6869020  88.1500912
  74.0878963  55.7404852  88.2737446  73.4044790  56.9163036  87.6093769
 106.7779732 109.7788906  29.9013972 106.1518669 109.3859005  29.2933106
 107.4970055 109.1485882  29.9454284   4.6581781  40.2016497  28.5642409
   5.5320930  40.4450178  28.8696527   4.4177034  39.4475842  29.1025615
  53.5487700  69.2903852  88.6232662  52.7455235  69.7847652  88.4601021
  53.8457298  69.0221596  87.7537251   6.5817446  25.1742792   0.7303841
   6.1283100  24.3541932   0.5352262   7.4279922  24.9015594   1.0849550
  27.0320702  14.4298875  24.9699020  26.6424775  15.2793479  25.1769423
  27.9751086  14.5938396  24.9644470  17.1327853   0.0705487  24.5530295
  17.9992437   0.3366318  24.8607349  16.6174364   0.8771303  24.5616412
  74.3910456  28.3884335  90.1118851  73.6167955  28.9207172  89.9289894
  74.3287563  27.6563287  89.4983864  43.7738323  31.3584042  33.3704591
  43.2294941  30.6713700  32.9858637  43.7600660  31.1769438  34.3102002
  45.0975704  57.8346634  83.4150887  44.3998766  57.7586746  82.7641773
  45.4753876  58.7005854  83.2612514  36.1325169   8.8953668  26.1488986
  36.1980844   8.6030149  25.2397966  36.0246158   8.0886745  26.6527200
  14.5517159   7.4779701   4.8255673  15.2368987   6.9005871   4.4888413
  14.0761256   6.9410157   5.4593855  20.8717942  13.1622076   2.3600045
  20.5034924  12.2844338   2.2595099  20.4360127  13.6834359   1.6857296
   1.1363494  14.7262776   3.0910632   1.2672603  15.2699769   3.8679063
   0.8919584  15.3458011   2.4035349  91.3574982 106.8423080   7.8810215
  91.4524174 107.7912140   7.9634821  91.2828922 106.6900349   6.9389611
   7.3348600  28.9077663   2.3920466   6.5075207  29.2946219   2.6785487
   7.3607272  28.0525851   2.8212664  29.7940254   6.0250080  32.2022891
  29.2482591   6.7910182  32.3800492  29.3860006   5.3187561  32.7032447
  34.2747784  33.8854718  28.0143547  35.0576925  33.8223386  27.4672794
  34.0927386  32.9832006  28.2770276  60.7977009  56.6942596  93.8119221
  60.7735825  56.0551977  94.5241356  61.0260630  56.1808062  93.0370331
 117.3608303   4.7178951   9.2974550 117.0201492   3.8326037   9.4256335
 116.5800190   5.2650225   9.2124474   2.0605481 105.5368137   4.4650739
   1.1937492 105.7357693   4.1110817   2.5070846 105.0714588   3.7577707
  25.6826639   5.2141130   7.1607691  25.3595901   4.5491743   6.5527296
  26.3746071   4.7724831   7.6531190  50.6504917  71.5927410  85.1130009
  50.2893209  71.0998344  85.8497620  49.9794197  71.5332174  84.4330311
  69.3700647  77.0172691  89.7420597  69.2394543  76.1306906  89.4056797
  70.1742029  76.9615269  90.2582836  68.4272861  46.3695669  92.0530128
  69.0225363  47.0548582  92.3567867  68.8923836  45.5521202  92.2310448
  80.9676075  84.0760422  88.0441093  80.3459835  83.5112858  88.5033131
  81.5642452  84.3810654  88.7276363   5.4708874  19.8611426  17.0183516
   5.3852898  19.8103619  16.0663390   6.3832414  20.1115274  17.1637809
  49.4928169  89.3991852  95.4281139  48.7667608  88.8743401  95.0910568
  49.0758657  90.0506496  95.9920120  29.1841865  13.6903608   8.8053411
  28.6098099  12.9343426   8.6838561  30.0611615  13.3147895   8.8834071
  82.4913986  75.1309093  96.8913537  83.2259519  75.3082510  97.4789058
  81.7554815  74.9495086  97.4759466   3.2395574 110.6137466  15.0948608
   2.7321345 110.7402039  14.2931366   3.4307671 109.6759892  15.1118851
   1.0133162  18.1694365  20.5876160   1.3583973  18.9126706  21.0823417
   1.6293117  17.4581230  20.7631540  27.9092669  38.7244129   5.2793926
  27.0729017  39.1545153   5.1012456  27.6813841  37.8048301   5.4160243
  52.4583435  46.6307926  97.2761822  52.5349522  46.6735077  96.3230133
  52.0040131  45.8050060  97.4431801  53.3882475  51.5799904  88.1154442
  52.4682522  51.5352917  88.3759212  53.4203243  51.1297846  87.2713375
  43.8212013  81.2133884  80.2402973  43.3204222  81.4857578  81.0092354
  44.2087793  82.0229912  79.9077892   8.4082830  22.8128886  13.2933319
   8.7477052  23.5275626  13.8320947   8.1505817  22.1397090  13.9231336
  29.7602487   8.2674038  25.4230094  29.8628902   7.6527333  26.1495614
  30.6463909   8.5864961  25.2522326  62.8378439  68.1643438  94.6785069
  62.4604797  68.5116482  93.8702965  63.7719250  68.3622789  94.6110916
  45.3577280  82.7105618  83.1108665  44.7220898  83.3868980  83.3448792
  45.8325624  82.5366402  83.9235878  54.9199152  64.4848967  86.6380215
  55.2895451  64.2999935  85.7746410  55.2319288  63.7682915  87.1906090
  28.0978298  11.2632978   3.0013841  28.3686590  10.5321860   2.4460831
  27.4138021  10.8975136   3.5622224  63.5831118  38.7694550  81.8663692
  63.5478449  38.7007689  80.9122849  64.1820288  39.4975066  82.0321083
  41.1157274   6.2759072   8.6659867  41.9423580   5.9858459   9.0517110
  41.0936642   7.2190171   8.8281226  51.1860514  21.2312913   7.4749708
  51.8609762  21.8718004   7.6995963  50.9150887  20.8638358   8.3162719
  54.1264582  52.6876068  83.1774139  54.5793819  53.4480429  82.8129578
  54.2485237  52.7668428  84.1234875  73.8120890  68.0900192  92.6070023
  73.0272245  68.5710096  92.8694153  74.4581366  68.7706041  92.4181557
  34.4793272  71.4908600  64.2893219  34.2888021  70.5901289  64.5512724
  34.9036431  71.8782806  65.0548935  69.8495722  49.8219347  87.4552631
  70.0515652  50.5656052  88.0230522  68.9229822  49.9293137  87.2404766
   9.6660328  17.7189922   1.1855830   9.1068524  18.4733248   0.9997570
   9.2526060  16.9933712   0.7178399 114.0149784 111.8436050   5.1103526
 114.3893337 112.5557232   5.6289852 113.4138489 112.2782421   4.5054105
  72.7449703  52.9365206  91.2978649  72.8074217  52.8042746  92.2438240
  71.9026423  53.3734608  91.1721992  15.3518689  27.1552825  18.5817647
  14.4977522  26.7571640  18.4137762  15.3108597  27.4329853  19.4968772
  48.5755205  52.7318430  94.4925022  49.4797516  52.4337101  94.3939114
  48.2625723  52.2905445  95.2821541  61.5651798  48.8257647  91.4156532
  60.6257057  48.6895609  91.5384197  61.8596745  49.2183828  92.2374535
  48.3325338  18.2024050  48.3822107  47.7317238  17.4578619  48.4124136
  48.1461239  18.6932123  49.1825819  85.4669857  73.9280081  84.4903946
  86.1523151  74.2060614  83.8827419  84.7189808  74.4869089  84.2798042
  46.0241604  27.1050501   6.4334416  46.6152382  27.7548456   6.0531443
  45.3350306  26.9955993   5.7781923  60.3089285  55.3146124  96.0427284
  60.8303165  55.8276176  96.6601467  59.5818615  54.9770594  96.5658569
  40.8903933   7.3089015  20.5229950  41.5767670   6.9211668  19.9800503
  41.2240982   7.2385037  21.4173770  54.7910738  60.3956223  86.1974525
  54.5678425  59.4881296  86.4044762  54.3626881  60.9097576  86.8818378
 114.4755363  14.4753599   5.0421125 114.5705605  13.7902570   5.7038051
 115.0669575  14.2113161   4.3373206   0.3163135  37.0830870   0.7290965
   0.3192575  37.5145602  -0.1253354   0.8415982  37.6554751   1.2882730
  67.7238321  98.4265900  89.7444916  67.2827816  99.1341305  90.2146912
  67.5978470  98.6386490  88.8196182  68.4425402  44.8803616  82.4393559
  68.4634161  44.4324398  83.2850266  69.1581583  44.4852734  81.9413280
  41.5489244  35.8105230  16.5014613  41.5700865  35.7290769  17.4549556
  40.8720064  35.1935482  16.2233388  65.4557657  55.3645849  84.4274902
  64.5795250  55.0112295  84.2739391  66.0431814  54.6256542  84.2688847
  16.0318892   4.3374077  -0.0171545  15.7495444   4.7947708   0.7748815
  16.2443058   5.0370518  -0.6349066  59.1528749  44.1869974  87.0579624
  60.0804138  44.3190861  86.8618679  59.1380787  43.9194012  87.9768753
  81.0441875  69.1483498  85.0042248  81.4468765  68.2799864  85.0087357
  81.4338589  69.5891523  84.2491913 118.9342880 107.4315643   0.7666704
 118.1896687 108.0276489   0.6863040 118.7496185 106.7318058   0.1401989
  46.2892580  63.4301376  82.1842575  47.0802498  62.9878473  81.8761349
  46.4255476  64.3500900  81.9576645  18.8422501  29.6945000   9.2783958
  18.6878991  28.7576914   9.4000340  18.1512558  30.1190901   9.7868067
  63.6674833  54.3741751  87.9430866  62.8696775  54.3450880  87.4149895
  64.2885685  53.8208961  87.4694157 117.9624557  96.3182545   1.5821423
 118.3967590  97.0171928   1.0931652 117.0305061  96.5289021   1.5243579
  81.1681652  42.9268026  90.6152630  81.7406654  43.6928368  90.6561184
  81.6680813  42.2805023  90.1166534  18.1851292 101.6636372   6.8460053
  18.0989814 102.5963974   6.6490698  17.6046693 101.5221310   7.5938511
  13.4377360  16.1403346   2.0165186  13.5192251  16.6725373   2.8079420
  14.3392205  15.9192562   1.7826810  34.6340346  13.1966174   1.4936273
  35.2900743  12.4995947   1.4949194  34.6270752  13.5206521   2.3942851
  19.8824382  12.5581396   6.4811671  19.7781479  11.6371703   6.7202735
  20.8026361  12.6376295   6.2298745  68.8558483  86.7403030  90.9699154
  68.3537769  85.9391022  91.1190319  69.2248344  86.9546890  91.8267250
  11.3058531  18.5118544   3.6616457  11.0354543  18.4620643   2.7447832
  10.5632782  18.9180744   4.1086340  99.1162300 106.4645672  15.5701017
  99.3649673 107.1668720  14.9691617  98.4376240 106.8516827  16.1231458
  78.0117607  75.9850836  86.0454273  78.4688807  76.6095209  85.4820824
  77.0939732  76.0521221  85.7819748  25.3516912  16.5773237  10.0380814
  26.2420893  16.3637149   9.7591674  25.1874328  17.4457669   9.6705800
  76.5987110  60.9912491  80.4834652  77.3036337  60.7023048  81.0629654
  76.8511343  60.6668139  79.6190214  75.4427433  45.2037859  88.8745499
  76.1649227  45.5801582  89.3775749  74.8656750  44.8197079  89.5346355
  61.9645119  31.0687256  74.7850990  62.1338606  30.6472993  75.6276846
  61.1377001  31.5340567  74.9119234  26.5899587  33.4158349   7.1774662
  26.6424990  33.1917906   6.2483400  26.5025592  34.3689609   7.1894419
  31.1934209  17.0086396  21.5522814  30.2607107  17.1870422  21.6725063
  31.2767076  16.7834282  20.6256890  46.1111546  37.4460196  11.6572857
  45.6066656  38.1142926  11.1934578  46.7833900  37.9378080  12.1289563
  75.8043051  84.4911575  91.4648247  76.2404633  85.2360630  91.8784809
  75.0567484  84.8754025  91.0068607  76.1187983  76.2967300  89.0424538
  75.5943346  76.9652271  89.4832230  75.9232044  76.4133310  88.1127357
  69.2825747  78.3519125  87.5747108  69.1578579  77.9738808  88.4452152
  68.8884306  79.2222595  87.6328468  80.2561092  86.1201382  97.0898628
  80.7014465  85.2885723  96.9273663  80.1232719  86.4948559  96.2191296
  42.5388098  18.5376346  15.9334481  41.6753197  18.2197440  16.1971974
  42.4206209  18.8300323  15.0296962  36.2165213  19.7804570   0.5199647
  35.4744792  19.1863596   0.4074826  36.9765258  19.2699850   0.2405985
  62.9469633  78.7421417  86.2961674  63.9000320  78.7123346  86.3798809
  62.7471495  78.1087255  85.6068993  30.8143520  20.0116897   1.9572596
  31.5892386  20.2869821   1.4673662  31.1592746  19.4668138   2.6646289
  49.9087191  70.0090694  94.4719410  49.6102238  70.8923864  94.6884632
  50.5331945  69.7909546  95.1638126  51.1334801  24.3431830   4.5256105
  52.0803499  24.2216682   4.4555521  50.7998896  23.4831476   4.7811210
  79.5811939  85.6825066  85.0364494  80.2159786  86.1434269  84.4879532
  79.6131182  86.1405849  85.8763123  64.7020674  56.4081430  91.8801498
  64.8034191  56.3081980  90.9335899  64.0178680  55.7813931  92.1152782
  49.4185925  12.7744257  27.3781633  48.7845373  12.2515690  26.8874240
  49.9616480  13.1855631  26.7056417  28.9895773   1.5472488   3.3758304
  28.9919019   2.2644363   2.7418995  28.6093354   0.8085851   2.9004103
  87.2452068 108.3864880  80.8369446  87.2475147 109.3369198  80.9505844
  87.6284885 108.2479000  79.9708557  40.5171251  41.4546967  24.3507147
  39.9048018  42.0673704  23.9433765  40.0230598  41.0669804  25.0730729
  78.5966349  79.9283457  90.0274944  78.1527901  79.6797085  89.2166805
  78.8076210  80.8546734  89.9106884  49.0243578  78.8453770  90.3581047
  48.2560396  79.3429565  90.0782204  49.6101761  78.8635015  89.6013260
  37.6108623  34.3794250   8.4583187  37.8843951  34.4575214   9.3722737
  36.6596198  34.2815256   8.5005307  67.8131151  80.5346394  96.8577003
  67.8540039  79.6596336  96.4717865  67.5934649  81.1096764  96.1246777
  77.5138092  83.0279732  89.7305298  78.4039736  82.8975677  90.0573921
  77.0472908  83.4334564  90.4613972  31.3861680   3.8681120  23.1491208
  31.7285967   4.6100485  23.6476231  30.4391432   3.9062366  23.2830071
  72.8303576  70.2864885  89.8132515  72.0734739  70.0190592  90.3346348
  72.8408289  71.2414026  89.8785305  66.5088463  89.1486740  89.7773933
  67.3533630  89.3034267  89.3542290  66.1522007  90.0241566  89.9275875
 102.7247524  77.4757004  88.6860371 101.8000031  77.3011732  88.8609791
 102.7466393  78.3899450  88.4033394  73.6119127  71.7606592  92.9328537
  72.9073715  71.3014078  93.3899498  73.9236403  72.4095535  93.5637188
  23.0403662  34.9917459  28.5188055  23.5033631  35.8050036  28.3176255
  23.3584499  34.3674302  27.8666663  60.7320833  32.2375631   0.0460463
  61.6405582  32.1930599  -0.2521508  60.7376146  31.7994952   0.8971027
  35.0570130  31.4989519   6.1297095  35.4797125  32.1153665   6.7276978
  34.5105076  30.9532261   6.6951716  31.8719196  17.0227170   0.3784227
  31.5839744  16.1185837   0.2524783  31.0610962  17.5307047   0.4057656
  49.4606018  17.2038937   9.1663939  48.7466097  17.0131230   8.5580689
  50.2257442  16.7793989   8.7783378  67.5776434  96.3720703  93.3655262
  68.3907127  96.6058064  93.8133144  66.8908167  96.7983818  93.8781166
  65.4046869  98.4019184  84.1721153  65.4114485  98.8990307  84.9900818
  66.3208485  98.3834743  83.8954735  65.4837799  73.4795666  95.4687500
  66.4350748  73.5055590  95.5716896  65.2812290  74.2385435  94.9217987
  42.4609327  25.4271102  16.8250823  42.5606060  24.4770145  16.8852091
  42.3331022  25.7122612  17.7298367  35.2695370   7.1899658   3.5106665
  36.0855699   7.4564582   3.9341119  34.6012974   7.3014396   4.1868764
 109.3799686  88.8479424  68.4693193 108.4982204  88.8233471  68.8410139
 109.2417336  88.8180733  67.5226212  59.0227032  32.8957391  21.3717580
  58.2453012  32.4342442  21.6862488  59.6211243  32.1996331  21.1005449
  22.4941516  17.4748731   4.5200604  21.7397308  17.0332479   4.1301298
  22.7830911  16.8853676   5.2166450  81.3149261  75.6785488  85.6194687
  80.3626633  75.7748699  85.6317711  81.5565205  75.5693817  86.5392208
  61.1754179   7.9221970   2.2347409  61.5648365   8.6382848   2.7365410
  60.4934740   8.3409327   1.7095312  91.6888618 103.8001442  95.9905529
  90.8017254 104.1485882  96.0789108  91.9318676 103.5358620  96.8778706
  21.2106609  29.0357471  17.6995683  20.7320070  28.3393788  17.2499096
  21.7262220  28.5806584  18.3653939  75.4001474  77.3389339  86.4258957
  74.5532227  77.7323532  86.6360760  75.4526281  77.3793173  85.4709911
  76.3397121  85.4484272  94.4223404  75.9134197  85.9773254  95.0967121
  75.8776808  84.6105003  94.4474888  60.5636835   6.0300255  20.3824091
  59.6467161   6.1363459  20.1292372  60.5352259   5.4625583  21.1527371
  70.9223986  95.8240509  86.9134045  71.0954571  96.4506054  87.6160526
  70.8809996  94.9753475  87.3541069  31.8515491  35.2762938  14.5823884
  32.1344757  35.8186054  15.3186500  32.5884151  35.2980447  13.9718246
  38.7625051  18.8937247   7.9435575  39.1222858  19.6792793   8.3554959
  39.1895795  18.8550413   7.0877868  49.0972185  49.4368458  28.6455917
  49.0470934  50.2731514  28.1826496  49.7069550  49.5978689  29.3656802
  40.3876877  23.4664512  20.2213645  40.7188559  24.2359138  19.7582364
  39.4929671  23.7015486  20.4672050 110.2458382 110.9894371   2.2170848
 110.2027702 110.2238274   1.6441804 109.6372604 111.6160393   1.8256453
  56.1171627  64.8652458  77.0247507  55.7198429  64.1661501  76.5054846
  55.5052280  65.5973673  76.9488192  46.8686914  85.4773617  96.9545650
  47.7535343  85.8205414  96.8299961  46.8218660  85.2687359  97.8875828
  94.5670414  73.8715458  84.5353031  95.0039005  74.1947556  85.3232861
  95.1798058  74.0641737  83.8256264  97.8543472  60.0025415  95.7897568
  97.5213337  59.5185280  95.0340652  97.0995808  60.4972267  96.1088943
  25.3836393   2.9980105  23.1295729  25.6292725   3.4992445  23.9071703
  25.4689336   2.0830595  23.3975673  46.2908316  25.4327869  26.3952184
  46.4602470  24.7509170  25.7451534  45.3782511  25.2984834  26.6509366
  54.7189522  77.2753716  95.2811146  54.5271206  76.6979122  94.5422077
  55.0084448  78.0933523  94.8769665  47.1309042  73.8152122  94.3764782
  46.9643593  74.4340992  93.6655140  46.6885471  74.1967964  95.1347351
  49.9570847  27.3565555   1.7573890  50.3236723  26.9684505   0.9628944
  50.2758074  28.2591176   1.7521204  15.7975817  10.8312798   2.1082851
  15.9648049  11.7703724   2.0284501  15.0072598  10.6837201   1.5888150
  29.9787974  21.1489582  15.8010197  29.6403074  21.8072534  15.1941383
  30.1893640  20.3977203  15.2464616  65.3510475  84.9384117  96.6512108
  65.9964895  85.2722740  97.2742367  65.8738661  84.5512676  95.9490585
  70.6024599  84.2343521  94.0968037  70.3844595  84.3945026  93.1786251
  70.3376532  83.3275604  94.2512035  23.3307981  24.4134188   4.8546800
  23.0679989  24.3975067   5.7749599  23.9348793  25.1531792   4.7908553
   2.3840177  39.1919374  19.2427468   2.5803638  38.9930487  20.1582384
   1.4308363  39.1279793  19.1828573  68.1929350  72.9508877  95.8345890
  68.3498430  72.1309090  96.3028240  68.7028360  73.6027145  96.3155842
  71.5242529  92.6153755  97.5773811  72.4206734  92.6992416  97.2523689
  70.9963369  92.4769688  96.7910099  72.6507616  81.5196514  87.8923225
  73.1337404  82.3100758  87.6510715  73.0366850  81.2479591  88.7250710
  21.8324852   4.9959141  14.0828943  20.8857250   4.9143338  13.9679170
  22.1273136   5.4756045  13.3088112  37.9083467  10.6479573   3.7841889
  37.8071237  11.4974833   4.2134804  37.4830723  10.7572234   2.9336402
  57.0593500  24.1323400  13.9711988  56.4817905  24.1497231  13.2080781
  56.6241169  23.5434079  14.5876110  11.7615724  12.5071144  -0.2141172
  11.2771010  12.4669576   0.6104477  11.9980633  13.4298491  -0.3082683
  58.2626915  72.3171520  88.6964417  58.1486559  71.4748001  88.2563591
  57.7275753  72.2486734  89.4871330  31.7696142  26.4391732  20.8103538
  32.1676731  27.3095775  20.7970357  30.9488821  26.5584326  21.2882710
  88.0708408  69.6651316  86.4737606  87.7353382  69.1661978  87.2185612
  88.4901524  70.4302883  86.8673897  43.9810705  27.2925901  15.4986966
  44.1374350  27.9405212  16.1856937  43.4757280  26.6034651  15.9299409
  88.3001900  98.7362289  82.7960968  88.1261635  98.6515141  81.8586636
  87.8444195  97.9936314  83.1923866  47.4063921   6.1292309   0.5640058
  47.5935173   6.5509009   1.4027013  48.0172348   6.5363175  -0.0503078
 110.7477951  75.7499313  63.6155558 109.8990536  75.4287863  63.9200878
 110.6247330  75.9002590  62.6782799  66.0824823  97.8971767  95.4298306
  65.1491261  98.0081463  95.6108475  66.5075111  98.5967636  95.9259701
  61.7216015  10.6750870   8.8950771  61.6045904   9.9813336   9.5441127
  61.2873554  10.3435028   8.1091279  69.5926237  92.3320293  95.7184601
  69.3600988  91.8473530  94.9264717  68.8679314  92.1670628  96.3216496
  58.7746239  48.5118914   1.2376045  58.4155226  49.2889118   0.8092110
  58.1669188  47.8090811   1.0074238 113.5532665 110.4672527   2.6132351
 112.7961349 111.0525703   2.6330113 114.1789341 110.9043980   2.0355906
 105.9159756 107.7632046   4.4532892 105.1466084 107.2573185   4.1917902
 106.5108299 107.1159363   4.8320282   9.1066003  21.8131876  18.2885313
   8.5833997  22.1275997  19.0258491   9.6287286  22.5709176  18.0249786
  37.5823760  27.1652746  31.5008855  37.9349065  28.0436182  31.6439462
  37.2204328  27.1937799  30.6152129  34.5209241  43.1998253   8.6921692
  33.9098740  43.1946707   7.9554051  34.0244269  43.5883856   9.4124067
  73.7753534  76.5204048  82.3047256  73.0385876  76.6577816  82.9001617
  73.4677315  76.8542480  81.4620304  95.5532932  80.2703571  81.8782711
  95.9289742  79.3999481  81.7460632  94.9088764  80.1496887  82.5756931
  19.2601049  10.4758179  72.1898842  19.9176240  10.3275526  72.8695297
  19.4225872  11.3703620  71.8905163  69.4996881 110.8376122  92.8273296
  68.8761377 111.0961723  92.1486855  70.3585911 111.0111427  92.4421024
  62.5701380  53.1353140  92.2140980  63.0518866  53.3436251  93.0145741
  62.0630407  52.3544168  92.4361038  15.5779397  33.3698678   5.3755301
  15.6877124  32.6500678   5.9968770  15.0836408  32.9872322   4.6506220
  89.3514538  95.3501511  82.0867634  88.5098553  95.7168579  81.8157291
  89.9930096  95.7784557  81.5200329  31.2528205  27.5103331  27.1239424
  32.1427560  27.1838903  27.2569156  30.7262015  27.0403481  27.7704883
  20.0594544  37.7630258   0.0861141  20.3123474  36.9557500  -0.3617493
  19.4417238  37.4795723   0.7601281  87.5172424  12.4426603  69.8508072
  87.4840641  13.2589018  70.3496838  87.6950359  12.7185738  68.9516401
  17.6496625  64.1181707  19.7715855  17.4234259  63.3548212  19.2402232
  17.1071100  64.8240423  19.4199967  58.7104416  74.8843622  96.9356346
  58.5200214  74.1806936  97.5559807  59.5391893  74.6287918  96.5305614
  25.3002214  18.0406356   4.6231037  24.3531632  17.9401529   4.5271033
  25.4026771  18.7424576   5.2658957   2.4524653  19.6977854   9.9218768
   2.1117634  20.3391099  10.5454600   2.9719701  20.2148676   9.3062699
  87.6183033  77.4902487  88.2623672  87.5234890  77.6508665  89.2012215
  87.6410580  76.5365648  88.1836224  16.5078187  39.1289806  17.6171649
  16.6259229  39.8549676  17.0046067  15.5860853  38.8870835  17.5270271
  95.2441311 107.4308109  81.9746113  95.3043365 108.0983543  81.2912369
  95.4166126 107.9046917  82.7881908  46.0482264  24.2383480   6.2112582
  46.3487196  25.1470733   6.1987746  46.6939878  23.7799096   6.7488992
 109.7277164  60.8762312  79.7527218 109.7828293  61.6900635  80.2536011
 109.4949341  61.1552954  78.8671875  50.2037334  91.2402916  83.7394238
  51.0076380  91.6478539  83.4171391  49.5430040  91.9298458  83.6746788
  72.3810244 105.8600426  94.5571709  72.3376846 106.5164566  95.2525043
  71.4766693 105.5656433  94.4490147  26.5857673  23.2647276   4.3727568
  26.3074517  24.1360927   4.6547088  26.4411139  23.2615876   3.4265551
  82.2070026  88.0856895  77.3046970  83.0545712  88.0528927  76.8610859
  81.9590855  89.0098858  77.2795248  36.9683290  23.3154297  16.5888882
  37.8065848  23.4695292  16.1532140  37.0711946  22.4627185  17.0114195
  74.1790342  80.0073814  81.3287640  73.4350443  79.6200037  80.8676243
  73.9936543  79.8526478  82.2550106  33.3202386  20.6111741  19.3954432
  33.2720971  20.9126949  18.4882510  34.1582918  20.1520419  19.4510865
  32.1423769  15.2325785   3.6043158  31.6557837  14.8016489   4.3069962
  31.5552998  15.9221685   3.2944128  96.1293983  12.0455396  67.5082254
  97.0184135  11.6938221  67.5548697  96.1608982  12.8464043  68.0315399
  84.2361355 103.1681061  82.2718716  84.9513817 103.4564209  82.8389072
  83.5275745 103.7875652  82.4463463  35.0466275  22.2989011   7.7217716
  34.2223644  22.1050906   7.2753853  35.7239389  22.0120764   7.1092260
  82.6020908  97.5272274  95.1147938  81.8822765  97.3360443  94.5135117
  82.3658562  97.0727158  95.9234047  97.2572899  85.7689381  81.7341900
  97.0313168  85.4149914  82.5943661  96.7709255  86.5914726  81.6783619
  44.0469933  15.9357202   3.8551775  43.5852909  15.1203966   4.0509057
  43.9424992  16.0493016   2.9105020  22.1194386  35.6527066   5.7298106
  21.2140274  35.8737183   5.5116010  22.0550537  34.8292756   6.2135971
  16.0591376  25.7277250  22.0559883  15.5683696  26.5400195  22.1807027
  16.7284787  25.7448602  22.7400351  27.9369926   7.6406163   2.8863189
  27.5760031   8.2715082   3.5091296  27.6855206   6.7864823   3.2376716
   0.3854231  21.8892360  14.7104752   0.7983840  22.7228260  14.9359202
   0.7474945  21.2648129  15.3391480  71.6787434  97.3257637  89.1411877
  71.2125397  97.3163414  89.9771309  72.0626211  98.2011700  89.0908909
  75.5142164 100.0267792  92.1148682  75.0327063 100.8141994  91.8611717
  75.1805973  99.8122883  92.9860306  11.9848776  40.4117250   0.1489900
  12.7557790  40.7256985  -0.3236230  12.2251427  40.4822683   1.0728557
  49.2195892  98.1997108  90.7585526  49.6196795  98.6730576  91.4880085
  48.4323406  98.7025738  90.5497360  29.5458627  16.4717042   1.6026537
  28.6655951  16.3491559   1.9580978  29.9914551  17.0185173   2.2497046
  85.8207989  91.1097717  78.1220484  86.3735676  90.4384327  77.7220631
  85.3028202  91.4573383  77.3960161  75.1782465  80.8929062  89.1465664
  76.0706282  80.8516407  88.8027859  75.2613688  81.3705730  89.9718952
  85.0290775  90.5191326  80.6581116  85.4985142  90.5340290  79.8240566
  85.4056740  91.2434578  81.1578751  47.9190254  85.3307438  93.8562775
  48.8408375  85.3958225  93.6067486  47.7623224  84.3912315  93.9510918
  46.8694592  46.0291576   3.5456723  46.7585945  46.4804602   4.3824917
  47.5174809  45.3478718   3.7249798  81.2318237  57.5268583  96.8650241
  81.1009367  56.8478094  97.5268349  82.1822365  57.5873592  96.7686486
  65.3608942  75.6671286  94.1060925  64.8720503  76.0230398  94.8481083
  64.9913788  76.1091280  93.3416843  81.1706638  86.6870308  83.1737709
  82.0343781  86.3047695  83.3290386  81.2911510  87.2477245  82.4073887
  71.6293621  70.2869940  96.7752361  71.6513824  70.1449490  95.8288956
  71.9299507  69.4585609  97.1488380 118.1456375  11.2986398   2.2929451
 118.5629654  11.4650404   3.1381553 118.1384850  10.3448105   2.2130129
  89.1818523  87.9563046  83.1309700  89.7854900  87.2155857  83.0746078
  89.3302441  88.4482098  82.3233509  75.1948786  90.8605671  83.6916924
  75.9475803  91.1831760  83.1961155  74.5223188  91.5305138  83.5689068
  52.7981472  67.3751354  94.3292713  52.7107859  67.3485374  93.3764362
  51.9071770  67.5205135  94.6475124  88.0493546  72.2100830  87.8413773
  88.5594082  72.0793676  88.6407471  88.2588291  73.1028414  87.5669098
  37.7793121  27.6133180   7.2267640  37.7462244  26.6566944   7.2236550
  37.8247285  27.8544092   6.3015378  64.2117882  79.9766350  82.8967476
  63.3062077  79.7369385  82.7000141  64.2139482  80.9337711  82.8859901
  57.6741171 102.3170567  96.5729904  56.8211699 102.1291256  96.9646358
  57.8714991 101.5427876  96.0459423 105.0176620 105.8493900  78.0611849
 105.3677750 105.6506634  78.9296103 105.1082325 106.7986488  77.9779053
  67.9141521  81.4776134  92.3074913  67.2320652  80.8185101  92.1787739
  68.7037611  80.9711361  92.4978447  29.8285818  48.5090399   7.8262198
  29.6506000  48.5069370   6.8857145  28.9631605  48.5444450   8.2336783
  69.2067909  78.0720472  84.0731525  68.2659912  78.0175734  84.2409515
  69.3455887  78.9716721  83.7771130  95.5773163   1.8682969  92.2148418
  95.3057671   2.5294799  92.8514957  95.5809975   2.3302869  91.3765144
  22.8444338  42.0092916  12.7912962  22.4870658  41.9335747  11.9065440
  23.6477304  42.5182962  12.6823938  40.3987789  21.2199664  42.1583223
  40.4495621  20.3263497  42.4975920  39.4897413  21.4809060  42.3059464
  52.1989679  57.0085096  18.1270337  52.3281097  56.9860315  19.0752149
  51.6950941  57.8076124  17.9728174  41.1667156  83.7933064  97.3817444
  41.6782236  83.7115192  96.5768242  41.6371775  84.4469261  97.8991222
  42.9096889   6.4380985  12.3301280  43.4268188   7.1801436  12.6434612
  43.5601282   5.7939410  12.0504558  41.0939074  24.8035622  13.1151676
  40.9983301  25.6569123  13.5381198  41.9559240  24.4937587  13.3929801
  47.1678638  23.6659241  10.8762741  47.4007130  23.1178069  10.1268876
  47.3111868  23.1039572  11.6377735  60.8300495  31.7460799   8.7836289
  61.3953304  31.6350245   9.5480627  60.8468533  32.6868749   8.6079735
  11.4178109   2.4707074  93.8886070  11.8937302   2.0902820  93.1503677
  10.9586596   1.7301297  94.2847824  64.1208124  86.6460514  81.7889023
  63.1748724  86.5177536  81.7183590  64.4024086  86.8474197  80.8964920
  40.0414133  17.5675213  17.0437145  39.2043567  17.3832285  16.6175628
  40.2169466  16.7897117  17.5732732  27.0328999  44.6180677  17.7805042
  27.9691672  44.7612190  17.6421499  26.9671845  43.6998463  18.0427825
  51.9657373   4.1013849   8.2599872  52.1651316   5.0345510   8.3353221
  52.8206253   3.6713231   8.2812256 100.0011063  97.3258400  90.8227253
 100.1324368  97.0704174  89.9096298 100.5283451  98.1177711  90.9281158
  67.2276068  59.4896698  86.8264866  67.8823376  58.8136673  86.6515923
  67.7066422  60.3142214  86.7435932 112.6970863  14.9769342   7.2141707
 113.5109138  14.7589612   7.6684737 112.8412724  14.6886158   6.3128865
  79.4641590  89.1581154  87.1507645  79.6890211  88.2277012  87.1500969
  79.1202831  89.3220425  86.2726307  27.0842695  38.1074309  16.5846145
  26.2645125  38.2864523  17.0452464  26.9216847  37.2889709  16.1156559
  48.1273603  35.6692243   6.1233181  47.3066378  35.4170442   6.5464592
  48.5710001  34.8394656   5.9474838  66.7261219  82.6395130  80.7928658
  65.9687042  83.0011845  81.2530231  66.8417263  83.2122993  80.0347328
  72.2553253  81.5085506  93.3286762  72.9067707  81.6560555  92.6430416
  72.7019787  80.9536457  93.9680576  26.6842198  18.0506241  18.4750724
  26.0021162  18.6291683  18.8160276  27.0402575  18.5190678  17.7200699
 102.0786190  93.3178616  80.6001472 101.3697624  93.0666542  81.1923027
 102.5253010  94.0340710  81.0515404  32.5906777  22.8307199  16.3723099
  31.7969561  22.4461412  16.0003698  33.1906939  22.0916748  16.4724243
  47.4399424  29.4705033   1.0326704  47.5456095  30.2975655   1.5028107
  48.3259106  29.2381620   0.7546255  92.5335503  87.6968002  82.8480244
  92.1516132  86.9292927  83.2738113  93.3057594  87.3593903  82.3940659
  47.4208593  69.3896008  86.8036938  47.1784973  69.8276186  85.9878349
  48.1395769  68.8069391  86.5583801  85.2006435  97.0453835  93.7939930
  84.2789173  97.3035431  93.7948704  85.5453682  97.3909187  92.9705811
  79.3230677  78.6775064  85.5558968  79.9960136  78.9631081  86.1738110
  78.4985638  78.7987423  86.0267830  67.7241755  93.6087132  92.0355034
  68.0082369  94.5195770  92.1120739  68.1544638  93.2894993  91.2422943
  34.8284364   9.1524696  17.1793973  34.1750503   8.6985028  17.7115941
  34.3538666   9.4164455  16.3911510 106.2184334   6.7404056  88.3601952
 106.1424541   7.2727370  87.5683117 105.6315422   5.9996939  88.2080841
  76.8770313  93.7400532  93.5857677  76.3679600  94.1764450  92.9026604
  77.4752808  94.4148636  93.9066410  82.1976852  84.5403099  75.8261776
  81.7001152  83.8144493  75.4496384  82.1478844  85.2323627  75.1667738
  28.0881095  13.7256014  16.5203762  28.5141182  14.4792926  16.9286633
  27.1804094  13.7718022  16.8206704  92.3400116 109.5355415  93.4134579
  91.7991734 108.7696362  93.2207870  92.0475578 110.1986790  92.7882004
  29.3436337  72.8977299  93.9091587  28.9131927  72.0727348  93.6847878
  29.2514539  72.9652548  94.8595142  29.6922350  34.0362310   5.2865636
  30.0960660  34.1595364   4.4275242  29.4475102  33.1110406   5.3056002
  44.3093061  22.3072338   8.3234274  43.8056421  23.0766726   8.0578780
  44.0884876  22.1833110   9.2465281  53.6169434  24.3786502   3.2570180
  53.8182163  25.0556278   2.6109391  53.6006594  23.5645723   2.7537829
  56.8405342  35.2015090  14.3623102  57.4805641  35.3972960  15.0466037
  56.7431641  36.0242796  13.8829374  19.7460890  29.4818258   3.2568792
  20.3202891  30.2405882   3.3608210  20.0885129  29.0258598   2.4880663
  46.5785027  77.2381210  87.5638008  46.7699289  77.0380259  86.6475296
  47.3275042  76.8888712  88.0467606  62.4583721  83.7625599  85.0526428
  63.0704117  83.6608982  85.7815456  62.2937632  82.8689384  84.7516918
  28.0448103  24.2930794  21.6509938  28.2048368  25.2144814  21.8550563
  27.9885006  23.8648582  22.5052118  84.5816898  14.9292135   3.1932470
  85.1654625  14.2423081   3.5151210  84.9693871  15.7431543   3.5148376
   3.6527959  42.0554209   9.3446541   3.5036689  42.8661633   8.8581473
   3.2537365  42.2127295  10.2003634  31.8486166  24.1798663  12.6877141
  31.0765052  23.9133954  13.1867838  31.5516424  24.1967583  11.7779052
  41.1194563  18.2039976   1.7475784  40.7707787  18.0525517   2.6260549
  41.0024405  17.3681331   1.2960592  71.5224600 104.0881824  91.7528343
  71.4661360 103.8302612  92.6729107  70.6140423 104.2347240  91.4891338
  83.7893391  82.0760441  96.6236305  84.3324280  81.8258095  95.8761883
  83.2072544  81.3281155  96.7578125  41.3164902  90.0542831  86.1287498
  41.8088722  90.4784966  86.8314743  41.6808462  89.1704369  86.0807610
  79.7975922  86.8567657  94.4708252  79.1425991  87.5465679  94.3640518
  80.2614784  86.8353271  93.6338139  48.3018160  29.9068141  23.2363462
  47.8081179  29.8810482  22.4166942  48.0409384  29.1100454  23.6982298
 100.8508682 103.7033272  91.6148853 100.0903225 103.3069992  91.1897850
 100.9368801 103.2294559  92.4421024   5.0520742  13.3047009  71.7104578
   4.9913177  12.4324512  71.3209438   5.5836266  13.1794596  72.4965858
  42.5402641  28.0555701  -0.0694422  43.0294418  27.2663021  -0.3018104
  43.1348419  28.5479331   0.4964976  53.9436388  79.8335361  10.5805373
  54.4804239  80.3718853  11.1621523  53.3880854  80.4611015  10.1182055
  50.2626848  69.9403763  10.5565560  51.0487843  69.4734478  10.2732551
  50.3360844  69.9762964  11.5102613  73.3410549 100.4473305  82.6899242
  73.3059978 101.1485958  83.3404827  74.2022896 100.5411053  82.2828388
  80.7091618  89.2155838  69.2202139  80.6680775  90.1253700  68.9255333
  81.6220379  88.9611626  69.0854311  63.4887600  52.6977491  12.2097087
  63.2982349  52.3932552  11.3224566  63.0487680  52.0666075  12.7791822
  84.9034405 100.0923920  79.5968723  85.4982948 100.5566978  80.1857662
  84.0895367 100.5948257  79.6335745  37.4467254  37.0412612   7.0477998
  38.1668234  36.6633177   7.5526255  36.9093728  36.2897062   6.7974973
  48.7440252  63.6842394   5.6523687  49.0900135  63.0459261   5.0286049
  49.4944715  63.9151764   6.1998433  86.9395161  89.8102856  83.6021805
  87.5323582  90.5615616  83.6209011  87.4012375  89.1537762  83.0805969
  93.9987659 102.1924496  88.6808205  94.2033291 102.7102375  89.4594574
  94.5511150 101.4145660  88.7585449 107.8701401 100.4661846  94.7970581
 108.0085659 101.4121819  94.7506618 108.4155655 100.1799583  95.5297279
  92.1014214  93.3903027  74.3754005  91.9309235  93.7127399  75.2603865
  92.0679283  94.1726112  73.8248587 114.7144604   2.4795702  95.5517483
 114.0162086   3.1200892  95.4160786 114.4157887   1.9531234  96.2932968
 113.4902191   7.2129852  96.8360710 114.2207336   6.6052055  96.7212486
 113.4178352   7.6622862  95.9939766  55.4822254  36.9700503   3.9183232
  55.3701639  37.0483494   2.9709354  54.8710537  36.2797332   4.1755533
  61.4503622  91.6182041  83.1147385  62.3879337  91.8091965  83.0879879
  61.3620901  90.7860565  82.6500130  89.6188545  89.6359539  96.9366550
  88.7484360  89.9082088  96.6459846  90.2140999  89.9935341  96.2778282
  90.1871395  96.2624264  95.8408642  90.1450062  95.4388618  95.3548622
  89.3006229  96.6191006  95.7850266  72.9175806 104.6861553  86.7278957
  72.7999544 104.4406796  87.6455688  73.7629843 105.1345539  86.7063713
  55.0106049 107.2516060  95.1492596  55.5632496 106.8868923  95.8404827
  54.7074842 106.4885044  94.6572971  58.7677479 104.4741917  69.8353148
  58.1170559 104.1022110  70.4306793  58.2509565 104.8889160  69.1445446
 112.5373936  13.4361267  94.0966988 112.8960609  13.8282347  93.3005524
 112.1317387  12.6212704  93.8005829  80.6508923 101.8865108  70.4922771
  81.1728764 101.5389156  69.7691298  80.2475166 101.1145306  70.8892155
  72.7023077  98.2558346  84.5838070  72.8771210  98.7525177  83.7844467
  73.2267761  97.4604893  84.4911289  32.3691273  51.1925697   6.8976003
  32.0080209  50.5101395   7.4633950  33.1316280  50.7847214   6.4871264
  55.8746243  35.8304310  27.6336503  56.0488844  36.3807654  28.3971930
  55.1645279  35.2521753  27.9122376  81.1901569  91.2444782  87.0868111
  80.6479931  90.4607201  87.1763134  81.3880348  91.2933064  86.1515617
  82.2231388 105.4042912  96.1069679  82.4308777 104.4732571  96.0279655
  81.7237091 105.4700375  96.9209003  77.6849604 104.7632694  76.9835234
  77.8200245 103.9295387  76.5330791  76.7337847 104.8632526  77.0222187
  51.1242437  54.8254967   5.9871900  50.6788588  54.3359280   5.2956796
  50.8380222  54.4072294   6.7991984  32.7826476  39.4615722  18.3391941
  33.3439136  40.2298117  18.2342124  32.1993542  39.6882725  19.0634930
  96.2631893  89.2857742  71.7857075  96.9896698  89.6188831  71.2589216
  96.6716290  88.9978313  72.6021004 100.3902912  75.7973242  87.8073978
 101.0703373  75.2931786  87.3606205  99.9849701  75.1724863  88.4086609
  32.8527832  25.9913087   0.1860121  31.8993044  25.9966445   0.2701608
  33.1470704  26.7059278   0.7507668  66.2060165  83.5888958  85.0828075
  65.7172060  83.6087322  84.2600632  66.8866014  84.2529774  84.9731255
  38.1036782  30.8527184  13.5880506  37.9667926  30.1804233  12.9205835
  38.8594389  30.5438066  14.0876830  82.3830128  89.4957066  80.2286339
  81.7430019  90.2029228  80.3091145  83.2270908  89.9426174  80.1651669
  35.0388408  35.4674149  15.9461522  35.6408310  35.4463911  16.6900575
  34.4897771  36.2354302  16.1039925  77.0403814  98.0083561  72.2831059
  76.6834879  97.2597980  72.7611303  77.6846123  97.6267052  71.6868353
  76.0500193 106.5373993  83.6524105  76.1562777 107.2031498  82.9729271
  75.9659290 105.7146263  83.1705284  57.7407830  14.8578373   0.0556585
  57.0445244  15.3365961  -0.3940562  58.1048481  15.4902855   0.6750890
 110.4050064   1.6756576  86.4518738 109.8906517   2.4826679  86.4318371
 110.7470989   1.5875159  85.5622482  30.2784204  43.4914541   7.1401012
  31.1843395  43.5395050   6.8347603  29.9523258  42.6612282   6.7927957
  87.5307178  75.2222061  82.9615211  88.1826401  75.5181265  83.5968590
  87.0426559  76.0132885  82.7330112  29.7930360  41.0939884   9.3118733
  28.9367318  41.1149263   8.8846290  30.3949308  40.8008146   8.6277652
  84.8627663 103.9139938  90.9317207  84.2896461 104.0196705  91.6910553
  85.5527020 103.3227634  91.2328148  68.2542753  54.1577482   7.6234221
  68.1092596  54.6453047   6.8125641  69.0894365  53.7101889   7.4876893
  78.9568853 102.0376778  93.8847828  78.9698219 102.9176331  94.2612648
  78.0446386 101.8996048  93.6298847  36.7676616  38.1460929   3.8832480
  36.9839120  37.4218321   4.4705415  37.5916386  38.6211061   3.7752759
  99.2846584  81.7608166  93.5645294  99.0205956  82.5851059  93.9732170
  98.6840439  81.6561413  92.8266048  52.7864647  21.4489675  14.3453217
  53.4265280  20.7517481  14.2023587  53.0652332  22.1536160  13.7605214
  93.7248421 112.0269203  96.4153957  94.0592766 111.6867924  97.2452736
  93.1053162 111.3614655  96.1160660  74.7502470  88.4420681  85.9593296
  74.7390604  88.8314152  85.0849628  74.7033596  87.4990177  85.8022022
  76.2645531  96.8231583  87.7837658  76.0860729  97.3574734  88.5576534
  76.8038893  96.1025429  88.1094456  91.6422367  97.3199654  93.5710526
  91.0984612  96.9134521  94.2457962  91.4508724  96.8213844  92.7766705
 104.8019218 103.4659672  94.5095539 105.7133102 103.5596657  94.2323875
 104.3176079 104.0722656  93.9491367  49.1857481  42.9978132  17.2562921
  50.0228643  43.1957293  16.8364179  48.5268736  43.2984924  16.6304243
  57.7593565  32.8135419   0.1400719  58.5749817  32.3173475   0.0709255
  57.1479225  32.2114348   0.5641528  88.1112862  95.8305359  86.7042923
  87.8411484  96.2083721  87.5412560  87.3007584  95.7618809  86.1997604
  49.4981670  45.7939243  10.5027127  49.6399832  46.7128038  10.7302666
  50.3789377  45.4361248  10.3911233  14.2157125  17.6596189  26.7342281
  13.4706545  17.0625627  26.6660762  14.7663856  17.4422824  25.9820604
  83.6815834  98.4282017  91.3876820  82.7816200  98.4569263  91.0629082
  83.7773895  99.2316055  91.8991566  54.0534115  56.2397480   4.4509378
  54.8467731  55.9685373   4.9127293  53.3384132  55.9907055   5.0365889
 108.4989357  79.5111752  70.1968336 108.4273148  79.8474646  71.0901499
 107.8953075  80.0524616  69.6880341  95.0697136  94.9148369  85.4712677
  94.1399670  94.9689960  85.6923199  95.0986099  95.0460052  84.5235348
  50.6329393  43.2769537   0.6279395  51.2221003  42.6379824   0.2268904
  49.7574329  42.9944277   0.3635544  97.4812984  86.1185074  75.0127077
  96.8340778  85.4240799  75.1356077  98.1374645  85.9570789  75.6906605
   3.9934251 108.4187698  81.9226742   3.3097783 108.1395626  81.3136578
   4.7047317 107.7926254  81.7877102  12.8855443  33.0961847   9.1255605
  12.9604685  32.1564817   8.9594901  13.5297883  33.2702518   9.8117697
  84.8242950  93.0671501  81.8542290  85.2217102  93.3971310  81.0483742
  83.9756393  93.5074711  81.9005108  32.3697853  54.4407368   7.0753741
  32.5775051  53.5340452   7.3012066  31.4553761  54.4139338   6.7936492
  88.4227467  72.4897099  93.8784218  87.8881931  73.0082846  93.2771206
  87.8048992  71.8820286  94.2848873  52.4318457  18.3690488   6.2197495
  52.1447706  19.2696965   6.3702589  52.3248196  18.2378209   5.2776474
  63.6425924  96.8448448  90.5629444  63.2849455  96.8954182  91.4493752
  64.3647766  96.2203407  90.6313133  86.1248589  79.5134640  92.8712177
  86.4029408  78.9566135  92.1440125  86.9420624  79.8155499  93.2676506
   8.5053784  32.9490948  10.0537968   9.0530711  33.7248206   9.9333215
   7.9035848  32.9628563   9.3095613   2.0529535  28.7055850  10.0066435
   1.2823132  28.9865804   9.5133007   1.8203545  28.8594341  10.9223187
 105.1278400 101.8923187  87.5353718 104.5966053 102.3488617  86.8830013
 105.9827232 102.3205566  87.4903297  17.5071490   5.8737731  85.8369923
  18.1291592   6.5872747  85.9792995  17.6290083   5.2959681  86.5903282
  61.3822365  74.1788387  96.4323616  61.7360497  75.0343323  96.6756153
  61.6460705  73.5986710  97.1465302  60.4425716  50.3462362   2.1032242
  59.8007584  49.6479273   1.9740871  60.8001137  50.5074024   1.2300570
  26.9781375  74.1829920   2.0422755  27.1510625  74.4444370   1.1378559
  27.8408551  73.9735556   2.4001719  84.4616222  99.9251270  71.0901546
  85.2279091  99.5038223  71.4794397  83.8004398  99.2338943  71.0546160
  57.7088881  19.5923090   6.9835120  58.4714651  19.9624884   6.5389061
  58.0693293  18.9084458   7.5479978  45.4209995   1.1371502  85.2592278
  46.3166237   1.4465374  85.3947639  45.2655506   1.2565680  84.3223190
  53.9184952  57.8576565   9.9220955  54.8254585  57.9179239   9.6220762
  53.6362648  56.9822121   9.6571934   9.8803616  16.5411031  96.2824440
  10.3820491  16.1855662  95.5488682   9.3022376  15.8253610  96.5464783
   3.8641798   5.8190393  67.0143890   3.3832702   6.0695833  66.2256050
   3.3021832   6.0994124  67.7367353  72.0577812  28.4881091   9.9899787
  71.2129545  28.0807066  10.1810944  72.3877239  28.0098152   9.2293179
  77.4872684  88.5440159  81.3782310  77.0010853  88.0396461  82.0305061
  76.8277454  89.1030598  80.9674454  34.6049809  15.8645451   0.8624195
  34.6152425  14.9266636   1.0534795  33.6800432  16.0716701   0.7289064
  99.8037434 107.3437309  94.8190784  98.9350700 107.7370262  94.9025059
  99.6585083 106.5488911  94.3058872  87.4102116  86.6585922  78.2026720
  88.2380104  86.6601086  77.7220678  86.7837811  86.2586498  77.5994635
 101.8190098 102.3219776  88.1805897 102.0978546 101.6965008  88.8493538
 102.5563240 102.3662949  87.5717926  90.1854420  94.1115284  94.4026756
  90.9089756  94.0558147  93.7784672  89.8070145  93.2323456  94.4097805
  40.3163576   5.2646279  91.1667728  40.8291769   4.7262061  91.7695618
  39.4071698   5.0243396  91.3453007  34.8001623  50.2106762   1.4593333
  35.6655431  50.5512428   1.6859616  34.1902089  50.7589912   1.9528261
 105.4195881  94.3958187  87.6285458 104.7044086  93.8640881  87.9778481
 105.0388336  94.8422909  86.8722916   1.4517432   0.7559918  91.8118858
   1.2269691   0.2197715  92.5722599   1.9769686   0.1782334  91.2582016
  66.2618780  25.4744720   9.6496630  66.1828041  25.1855016   8.7405562
  65.4060268  25.2879000  10.0355911  84.0218544  72.4044228  81.9857883
  84.7305107  72.9494953  81.6438484  83.2640743  72.6307249  81.4465332
  75.9042835 100.3123188  86.1401176  75.5596066  99.5158863  85.7362366
  75.4410458 101.0243702  85.6989574  40.3592014  63.1805372   1.4116900
  40.3982544  62.2441626   1.2169974  41.2672424  63.4765244   1.3478222
 103.1944561  72.4309778  93.1601238 102.6363850  72.8414679  93.8206482
 103.3071518  71.5314293  93.4672832  26.5008163  48.0965042  17.6320481
  26.9436026  47.9227924  18.4627080  27.1557283  47.8927994  16.9643462
  74.7830677 107.1120071  91.1146259  74.6564102 108.0323029  90.8838558
  74.8154068 106.6564083  90.2734280 114.9951935  78.2894039  90.5776882
 114.8490334  78.3871603  89.6367741 115.3632736  79.1295242  90.8514404
  43.1742620  39.2942190  17.8198898  43.4880781  38.6201358  17.2170925
  43.1446409  38.8587379  18.6717761  97.0156479  97.6136971  74.7785091
  96.2852383  97.4720192  75.3807306  97.2019577  96.7460823  74.4196701
  75.7715225  87.2829819  92.4447727  76.6218615  87.2620106  92.8837776
  75.1787281  86.8366909  93.0494595  83.6362934  78.1509733  87.5721169
  83.2277489  77.3396063  87.8737831  83.6245537  78.7243748  88.3384800
  71.1200857  53.0612040  15.3511381  70.5158567  53.5993004  14.8396742
  71.4277887  52.3957348  14.7357512  98.0355644  94.6239185  93.8012409
  97.9217720  93.6776447  93.8898945  98.9700985  94.7677708  93.9502144
  84.6103382  82.5144291  87.0938015  84.0022755  82.9933739  87.6569271
  84.4016647  82.8119850  86.2082863 103.7391567  99.0908432  86.6920948
 104.2666245  99.8290253  86.9972229 103.4435177  98.6600018  87.4940968
  89.5267773  36.0434008  84.9362469  89.9146366  35.5628061  85.6675625
  90.0859451  36.8132854  84.8321342  21.7222857  31.2864876   2.0488778
  22.3196340  30.7988358   1.4817789  22.2877622  31.8924308   2.5277331
  34.2515135  42.9475403   1.6993612  34.7112107  43.7772131   1.5707251
  34.8883533  42.3870993   2.1427296  87.4228191  93.7220860  92.9003239
  86.4957333  93.9367580  93.0035782  87.8851509  94.4957066  93.2227898
 115.8930779  99.9926949  89.8769188 116.5393257  99.3857670  90.2377892
 115.3439522 100.2300358  90.6241512  91.1338425 103.6177349  92.6076889
  90.5607891 103.5593319  93.3721638  90.7268429 103.0436420  91.9588470
  81.5759659  87.3028278  92.1299171  81.2783146  88.1211281  91.7323971
  82.4723339  87.4855709  92.4116421  28.2595921   4.0091619  73.7960720
  27.8497696   3.1466806  73.7297153  29.1276002   3.8922366  73.4099054
 111.7574215   7.0510262  87.8276825 111.6656017   6.4559042  87.0836258
 112.3771763   7.7158922  87.5275421  68.0780554  65.0038338  15.5756927
  68.8437462  64.6632671  16.0382593  67.5884628  64.2234182  15.3159094
   7.8848600  14.2501569  65.6974077   7.3051113  14.9060762  66.0845661
   8.5256398  14.0622067  66.3831949  98.7491989 107.5166798  54.3473721
  99.0245056 107.3755646  55.2531958  99.0413094 106.7321301  53.8832712
  36.7783809   4.5789051  71.1113644  36.0116029   5.1454353  71.1969662
  36.7428637   4.2625606  70.2086449  98.6980343 103.4889889  77.4417496
  99.5186424 103.2510662  77.0102167  98.3070564 104.1468906  76.8668175
  45.9011984   4.8581910  71.1192083  45.8355665   4.1524670  71.7625427
  45.6346035   5.6435204  71.5971375 113.0632591 111.3772488  71.9925356
 114.0161133 111.4229393  72.0714712 112.8503609 112.0001411  71.2976170
  40.1460075   4.8839739  59.5830345  40.7890272   4.8832342  58.8739824
  40.3519201   4.1011399  60.0939226  52.4475384   8.9687884  83.0273819
  52.8033161   9.0106261  82.1397495  53.2117128   8.8230413  83.5850906
 105.0018024  58.3623600   6.0949630 104.0706825  58.5738564   6.1621398
 105.4473209  59.2004824   6.2186325  81.4337635 108.2780743  74.3921757
  81.0839558 109.1623306  74.5014954  81.7811775 108.0496502  75.2543592
  37.9772568   2.6234016  50.3325844  37.6718521   3.4192753  50.7679510
  37.2770238   1.9871642  50.4778576 116.2324810 104.6410084  84.7704411
 116.4519882 103.7101364  84.8095512 115.9188271 104.7757626  83.8761806
  32.1157241  20.5909586  83.2346058  31.6944003  20.4904413  84.0882015
  32.1271586  19.7069967  82.8675747 109.8186207  70.4626513  65.4089737
 110.7559872  70.5867577  65.5578518 109.6427345  70.9261179  64.5901394
  44.0665388   2.9650742  68.0994654  43.4276581   2.3944172  68.5265636
  43.6432695   3.2293513  67.2826242  25.9392285  21.0103345  91.0050201
  26.3531733  21.6736698  91.5571690  26.6703939  20.5096650  90.6431389
  10.2506149 103.9290047  75.2821589  10.8172810 103.2765198  74.8706007
   9.3634874 103.5972118  75.1437759  84.7983932  51.9570160   4.1917750
  84.8233795  51.0660648   3.8427484  84.6734619  51.8418074   5.1337677
  32.0965338  11.9430709  94.4681263  32.2007084  11.0662687  94.0985394
  32.7861595  12.4613273  94.0533352  14.6889138   9.0630215  79.5839691
  14.3515956   8.3085185  80.0668526  14.8176110   9.7366810  80.2516937
  26.2949371   9.4070059  86.9513607  27.0606470   9.7974026  86.5300369
  25.7068372   9.1919315  86.2273979  70.3848076   5.5862659  86.2693882
  70.4831505   6.3439596  85.6927967  70.3072214   5.9613240  87.1466255
  94.6760559  49.0994644   7.5549358  94.2525005  48.4875202   6.9529706
  95.6030369  49.0647221   7.3188800  43.3845901   8.1024188  90.3774643
  43.6347723   8.2411480  89.4640160  43.9207077   7.3626018  90.6629181
  25.6321454  15.9356129  54.5897961  25.2706122  16.7983592  54.3868303
  25.8059359  15.9640467  55.5306578  45.0621510  10.2954865  85.0098419
  44.1893482   9.9324036  84.8594570  45.1662064  10.9591973  84.3280125
  81.0813999  83.9627552   1.2162643  81.3709068  84.8675919   1.3332343
  80.2174473  83.9326763   1.6272578  32.5018001   4.8084328  82.5292969
  32.7810740   4.9337688  81.6223621  31.9110990   5.5416727  82.7015114
  16.8432367   1.9266602  67.3854065  17.7877796   1.8472001  67.5186634
  16.7020190   2.8591752  67.2219896  49.7697306   6.7098767  71.7897940
  49.1679573   6.4367777  71.0973215  50.3890991   7.2939849  71.3522625
  71.9247675  80.2349758   7.3853850  72.2221565  79.6710014   6.6714334
  70.9993362  80.0158978   7.4940801  25.8006954 103.9192009  75.9440136
  25.5648613 103.1079388  76.3939667  26.7559171 103.9527225  75.9955931
  17.8327572   8.4642571  92.8612804  16.8851888   8.5332507  92.7447224
  18.1790972   8.3949703  91.9716263  27.5878096   1.2730634  81.0022068
  27.2779250   1.9354174  81.6198540  27.3732281   1.6301569  80.1404190
  62.3567772  62.3697233   7.8969866  62.6465082  62.6717758   7.0361412
  62.6387930  61.4559126   7.9375863  83.8611412  52.3979044  -0.0934146
  83.4351921  51.8534088   0.5686470  84.2840385  53.0960512   0.4065577
  69.0438557  46.4299536  22.1132374  69.0336275  47.1206617  21.4506292
  69.5418978  46.8031073  22.8405237  12.2429621  16.7224777  88.0006313
  12.5008762  15.8508229  88.3005142  12.8003812  17.3213637  88.4974670
  15.8941066 109.3678284  80.7342148  16.0685241 109.2891026  79.7963381
  15.9262943 110.3090096  80.9056377  74.2441177  10.2687800  94.5320225
  74.2488003  11.0381246  93.9625359  75.1312780   9.9156862  94.4648933
  44.7341299  18.0809832  68.4434414  43.8402891  18.3796895  68.6109447
  44.9651670  17.5698662  69.2190790  29.3250060   5.6679285  71.0613966
  28.5033274   5.1842558  70.9769011  29.0991807   6.4331889  71.5901804
  92.8380680  42.6251125   8.9359373  93.7837410  42.5962162   9.0811944
  92.4587822  42.5461578   9.8112291 111.5381145  97.6359081  67.8347874
 111.9143772  98.1879425  67.1492863 111.1191463  96.9175625  67.3607826
   7.5237125 103.8034439  77.4328041   7.2301918 104.5947075  76.9811678
   6.8744028 103.1398582  77.1998167  23.1912112  21.3953161  88.5592937
  23.8923979  21.0164022  88.0292034  23.3196092  21.0195470  89.4302368
  31.5252662   8.5413355  71.7280722  31.0539913   9.0468925  72.3902988
  31.4167094   7.6300991  72.0002747  33.5387366   0.0844868  97.0932724
  34.3326371   0.4979046  96.7541045  33.8381713  -0.4302732  97.8426660
 107.7776909  62.5099754  14.0612030 107.2947979  63.1798792  13.5771775
 108.1176090  62.9681301  14.8298264 101.0122204 107.4468136  92.3034763
 100.1618958 107.1208858  92.0086098 100.8243275 107.8937626  93.1288052
  19.6803820   3.1944612  68.1374788  19.5409501   4.1414398  68.1422424
  20.2046442   3.0256173  68.9203405  44.5362186  11.9695294  92.2368336
  45.1398802  12.2829843  91.5633583  44.7074747  11.0294616  92.2932148
  35.9495721  -0.2851701  75.5510664  35.5077062   0.5501532  75.3986692
  36.4086900  -0.1651025  76.3823462  74.0713358  97.0578861  14.3523312
  73.8464260  96.6318226  13.5252202  73.2489252  97.4431992  14.6546614
  34.5536256  21.2176108  87.8052521  35.2761531  20.7763171  88.2518482
  33.8161683  20.6129456  87.8875160  18.3924413  16.5149629  86.3420105
  17.5847435  16.8432927  86.7370510  18.6505222  15.7808793  86.8994617
  17.9126823  15.8197629  70.7255936  17.7621102  14.9244142  70.4224253
  18.1744850  15.7218099  71.6410685  37.6263332  15.5855238  60.9122944
  37.1457195  15.1231527  60.2256727  38.5318661  15.6002653  60.6024218
  65.2383471  81.3939476   0.1618992  65.8795643  81.1002636   0.8090666
  64.6597528  80.6413174   0.0393813  15.2946484  96.1013508  96.6887760
  15.2459157  96.9595051  96.2675476  15.3789485  95.4828072  95.9631538
  64.8654890  13.3027804  74.4511414  63.9452267  13.5644615  74.4215059
  65.0342703  12.9225862  73.5890532  62.4988174   4.2987546  83.8569832
  63.0223274   3.5618660  84.1718864  62.2277164   4.7571653  84.6523476
  27.8619671  10.6306493  72.8352594  27.1357346  10.6959462  73.4553814
  28.5719490  11.1249042  73.2449770  22.9139280  21.9530511  72.4253845
  23.4680986  21.6598749  71.7020798  22.5163436  22.7642345  72.1089411
  29.3156767  38.6068773  96.0356140  28.4880352  38.4505558  96.4903736
  29.4929314  37.7880740  95.5726051  61.5088749  15.0669026  69.0736866
  62.1294737  14.3779719  69.3113184  61.3620472  14.9439287  68.1358433
  48.0953598  12.0581067  89.6741104  48.6164618  11.2715316  89.8352909
  47.8191423  11.9794714  88.7610054  19.1007626   8.4142917  65.0720739
  18.9361548   8.2045627  64.1527510  18.3822393   7.9952210  65.5457115
  49.3849993  18.9736509  84.6225834  48.7416124  18.5740268  85.2078915
  49.6484804  18.2643962  84.0362740 108.4165001 101.5840626  87.2203636
 108.0962563 100.6919193  87.3536205 109.1482449 101.6696453  87.8314781
  37.4412322  23.9795399  86.6863441  36.5150309  24.2143297  86.7434025
  37.7467704  24.4032741  85.8842659  51.5960789  20.5405116  81.9176483
  51.9171190  20.9168577  82.7371120  51.5644884  19.5982325  82.0830059
 117.3072433 107.4602032  83.2967091 118.0833817 106.9000053  83.3014011
 116.5782070 106.8607330  83.4560108  30.2619243  26.2807918  80.0936031
  30.0322390  27.0103574  79.5180988  30.6731081  25.6391335  79.5144367
  32.6765680   0.5280454  77.4154854  33.0091238  -0.2200464  77.9114676
  32.0791745   0.1436100  76.7739582  58.8043880  20.9350157  61.4971876
  58.9322662  21.6043949  62.1693563  58.7681484  20.1112604  61.9833422
  72.6445770 100.5689621  86.3954449  72.7553177 100.4318428  87.3362827
  72.8643656  99.7241306  86.0027695  96.9355202  99.4987774  71.7454052
  96.9597244  99.8169804  70.8429670  97.3015690 100.2164364  72.2623205
  23.9692211   3.3094177  74.1592646  23.9044976   2.7704373  73.3708811
  23.1616354   3.1283516  74.6401501   2.0793462  17.5171244  86.5119743
   1.5619576  16.9808757  87.1127892   2.9791129  17.4287844  86.8263721
  26.1759138  13.7409401  87.5683308  25.4173446  13.4036279  87.0918655
  26.0909629  14.6926367  87.5110054   3.3881477 110.1458836  74.3250656
   2.8285396 110.9222603  74.3426323   2.8888929 109.5020962  73.8225555
   0.5537188  98.0565834  84.9618244  -0.0401670  98.5537529  84.3993759
   1.2068482  97.6967144  84.3616962  33.4441829  14.2229867  77.1969271
  33.1539369  14.8285103  77.8790808  34.0987873  14.7157025  76.7019987
 114.7369003 105.8466816  90.8225632 114.9680519 106.5906429  90.2663994
 114.2365074 106.2317944  91.5419579  56.4931965   9.9539518  67.9658175
  56.2614298  10.2311707  68.8521957  56.5074444  10.7647800  67.4573040
  36.8788290  20.5830002  90.6339645  37.1399641  21.3365650  90.1046371
  36.4273024  20.0039291  90.0199318 102.1862507  85.6073475  69.6475840
 102.3735905  85.9303474  70.5289507 102.5972748  86.2467194  69.0657806
   5.7294559 106.7074585  89.4360542   5.5568892 106.1873722  90.2208805
   5.7635826 106.0660267  88.7263775  41.9154119  31.6834664  92.8692913
  42.4549818  32.4730659  92.8289509  41.5923309  31.5682364  91.9756603
  36.4179397  13.3415389  68.5263205  37.0150065  13.5496950  67.8076982
  36.9263387  12.7706516  69.1023874  89.1399860  97.3830891  70.5332375
  89.4455719  96.5210629  70.2508354  89.8556519  97.7277946  71.0672998
   7.6143306 107.7775002  94.2221451   8.4815127 108.1023502  93.9798737
   7.4280816 108.1958294  95.0627041  24.1244984  12.1228302  75.8961678
  23.2071328  12.3960733  75.8930922  24.6185184  12.9419982  75.8623791
  13.0410779 109.3902111  81.3854122  12.6971686 109.7899914  82.1842480
  13.9815485 109.3089390  81.5439796  46.2732220  18.0101037  89.3086243
  47.1050024  18.2751071  88.9160061  46.3557577  17.0640814  89.4288826
  18.5034335  26.8980193  79.9537849  19.2121160  26.7620182  80.5826759
  18.9409339  27.2210693  79.1660929  42.1353483  15.6748533  83.2289505
  42.9521799  15.3167999  83.5765362  41.5277767  15.6466007  83.9680672
  12.9792619 100.5967045  61.6224384  13.2492781 100.8167839  62.5139999
  12.7176833  99.6772480  61.6714764  61.6782522   5.0824040  74.1547585
  62.2362566   4.5565662  74.7277784  61.0355854   4.4618604  73.8110447
  94.1518497 110.8804798  87.5048733  94.9091816 111.2782001  87.0753479
  93.4166050 111.0771751  86.9243908  63.2531977   0.8564990  66.1581421
  62.4613953   0.9561975  66.6866684  63.5549116  -0.0326694  66.3440990
  72.7160025  17.8606319  58.7572765  73.6520004  18.0301797  58.8640499
  72.4183846  17.6021492  59.6295357  44.4299746  41.3224649  93.7944889
  44.2422581  40.4186726  93.5412025  44.6392536  41.2712955  94.7271252
  21.4570165  20.0088644  76.8503666  20.8837891  20.7637739  76.9836044
  21.6745591  20.0348163  75.9185791  45.7065153  16.2846625  84.0744877
  45.1943874  16.8988156  84.6005726  45.2969456  15.4341388  84.2328930
  30.5570102   1.0552251  88.7182808  30.7223248   1.8191487  88.1657219
  29.6324158   1.1267353  88.9554310  58.1209946   5.4654348  72.4405670
  57.1847296   5.5944884  72.5921917  58.5389900   6.2067938  72.8786278
 118.9742279  88.3131886  20.1660824 118.2522869  88.7383461  20.6289959
 118.6383057  87.4446487  19.9446499  53.1409025  30.9241152  90.2818489
  53.9933395  31.0923600  90.6834316  52.8130436  30.1460814  90.7328510
  33.4585023  24.1521549  81.0723972  33.7567306  23.2809901  81.3338566
  33.8029957  24.7360587  81.7481327  31.2363815 105.7801533  86.2983990
  30.8963823 105.7357311  85.4047203  30.7810140 106.5248775  86.6911507
  69.7048140  28.9865041  80.1513767  68.8358212  28.7929082  80.5029488
  69.7842598  29.9379611  80.2195740  31.2328053   5.1411152  77.2180223
  30.3592443   5.4814953  77.4110603  31.2366557   5.0156188  76.2690926
  48.0168772  16.1008763  86.9765091  48.1690550  15.4449034  86.2962341
  47.5017023  15.6424415  87.6403332  20.8173037  18.6286402  57.7920675
  20.2067232  17.9400063  58.0551434  20.8855820  18.5379303  56.8416262
  39.5317483  32.1335649  86.3243866  39.2385817  31.6108775  85.5780029
  38.7361455  32.2936416  86.8319511  50.0208664  27.1466851  96.0353565
  50.6583977  26.5333629  95.6698227  49.8835564  27.7914119  95.3413105
  40.3948975  24.8335314  76.6050196  40.1380825  24.4928694  75.7481480
  39.5903897  25.2065301  76.9654036   8.5965270  23.4050679  89.4656277
   8.1150079  23.0041647  90.1892567   7.9181284  23.7889099  88.9100361
  67.4241543  32.1426845  82.5702286  66.6052914  32.2687364  82.0908451
  67.4342775  32.8484631  83.2167625  34.0331650  11.4085650  76.8795252
  33.8388968  12.3446310  76.9272137  34.9598575  11.3680053  76.6432524
  83.3436203  18.1936407  96.4874363  84.0743256  17.6325798  96.2275982
  83.2504654  18.0451453  97.4284458  45.6473970  33.4161496  91.4601994
  46.2799549  32.8273296  91.8717766  46.1825895  34.1049600  91.0660648
 111.0900116  56.5015888   4.7304872 110.6794262  57.3185062   4.4471180
 110.4100227  56.0537672   5.2337837  60.1221228   1.7345588  54.2389536
  60.9946489   1.3600266  54.1178894  60.2633095   2.6811340  54.2218447
  96.7743875  46.0959068   0.1359865  97.1017529  45.3958050  -0.4287508
  95.8661009  45.8533875   0.3160783  27.7581096  15.1431477  81.5450764
  28.4225202  14.5640087  81.1717224  26.9584680  14.9324107  81.0629940
  86.5591431  85.7617283   1.7980005  85.9722900  85.0094128   1.7215373
  87.1065617  85.5622578   2.5574586  94.7920990  63.1767654   0.5995822
  95.5721378  62.6392126   0.7367512  94.5030499  62.9577732  -0.2862640
  43.0757761  18.5756052  76.4448595  42.4816847  19.2922199  76.6679001
  43.7747240  18.9920712  75.9406185  87.7052689  77.8178549   1.4352062
  88.5504723  77.9004669   1.8768293  87.4062538  76.9351387   1.6534574
  43.0866289  34.2039180  92.2729015  43.3255339  34.9800730  92.7795887
  43.9148998  33.8910818  91.9091129  25.9397016   0.5388045  69.9967909
  25.1104436   0.1763606  70.3085518  26.5323434  -0.2121854  69.9647427
  29.1153002  13.7568581  70.6428814  28.1949544  13.9414942  70.4555130
  29.2245340  12.8326070  70.4191399  73.5725307  28.9370155  59.3295479
  73.6411333  28.1557584  58.7807655  72.6379061  29.0135455  59.5215225
  92.7227020  83.5098457  -0.2623046  93.4983253  83.8696957   0.1679862
  92.2657299  83.0309582   0.4291165  48.0063868  41.5920305  92.7190399
  47.2055769  41.0679817  92.7365017  48.5853481  41.1658335  93.3510208
  44.7277594  15.0964236  56.9855118  44.4087029  14.3038595  56.5539122
  43.9348412  15.5869341  57.2021103  43.1352234  14.4609523  69.5038033
  42.3863792  13.9822412  69.8591900  42.9842472  15.3695261  69.7644424
  79.1536713  95.7444096   5.1237774  78.2557011  95.7871532   5.4524964
  79.1400003  95.0350380   4.4812566  37.1738935  12.4711263  74.6124840
  36.4042592  12.0632672  75.0094032  37.8814602  12.3039508  75.2350903
  34.2483139   2.0428982  78.9960814  33.4915280   1.6010249  78.6110401
  34.0210247   2.9723972  78.9715385  29.5188403  30.9062815  96.3992405
  28.7137318  31.3036442  96.7311096  29.3416834  30.7442474  95.4726410
  81.4585686  17.2382712  82.8574657  81.0158920  17.7565420  82.1854019
  82.2949696  17.6840496  82.9914379   4.7121274 111.4651585  61.5688944
   4.9298143 111.0860252  60.7173634   4.1723529 112.2277164  61.3606215
  53.1091547  25.5201244  75.0099754  52.7707577  25.7666349  75.8707571
  52.3348236  25.4890251  74.4481277 113.9677811  97.2145271  78.5817528
 114.3368912  97.1721172  79.4639063 113.7051010  98.1288528  78.4757280
  58.5303926  31.2925696  90.8756065  59.1395092  30.5710030  90.7189369
  58.3498859  31.2539935  91.8148422  22.1473026  31.5717530  71.3378668
  22.6072240  32.4012136  71.2086582  21.3749623  31.6360950  70.7761002
  48.1162024  13.1095779  73.8917208  47.9921532  12.7121866  73.0297899
  47.8086376  12.4451530  74.5083046 110.1622200 110.6406021  90.9015083
 110.7392025 111.1099243  91.5040588 109.3515205 111.1495113  90.9009361
  82.5268364  62.4715471  10.5180907  82.3409653  61.5593767  10.7408500
  81.6710567  62.8464317  10.3099322 106.0293674 109.9993134  89.3961525
 106.5537071 109.8569965  88.6080933 106.5129185 109.5506954  90.0898075
  19.7479022  27.3984218  68.4306097  19.1254687  27.2977972  67.7104139
  19.2141378  27.6908898  69.1693830  30.7615709  35.4963851  86.0095596
  30.6443977  35.5219984  86.9592094  30.7301068  36.4141607  85.7395077
  72.2106838 102.9201221   3.6564177  72.2384930 102.6665783   2.7338254
  71.3916206 102.5473881   3.9826590  54.7069693  11.6808331  82.4055767
  54.7589159  11.9450748  81.4870358  55.5760002  11.8708742  82.7589798
  47.7811909   4.9051103  97.2417355  48.0900574   4.1264337  96.7786026
  46.8974972   5.0500906  96.9036579  43.3574820  21.5273976  89.2739105
  42.9248905  21.7964363  90.0842953  44.1394472  22.0773554  89.2258453
  59.4896173  28.5492826  90.5465031  59.7128391  27.6916957  90.1846409
  60.0649023  28.6461449  91.3053799  21.7407084  22.2260952  80.1801777
  22.1847796  23.0739617  80.1677990  20.8348083  22.4267292  79.9449682
  19.8366868  31.6079974  69.7961807  19.1927421  31.1455441  69.2598009
  19.5814908  32.5286031  69.7362518  27.6677799   9.0816456  61.9877577
  28.5739684   9.3068171  62.1983528  27.3576069   8.5965711  62.7524328
  39.6193719  17.9723299  84.6893692  39.7386909  17.0798206  85.0140572
  40.2542257  18.4930515  85.1813412  89.1141129  69.5923328   4.3439507
  88.7769794  69.9223900   3.5111061  88.3431244  69.2482758   4.7949788
  37.2372770  33.7732244  93.9935589  36.4408469  33.3199286  94.2700672
  37.1597791  33.8343835  93.0414677  48.6362505  15.7334685  64.4777441
  48.5923147  15.0773299  65.1732922  49.2572403  16.3855124  64.8024607
  54.1711330  28.1539917  67.8303289  54.5907784  28.9773488  67.5809050
  53.8233185  28.3183455  68.7068272  16.5983284 111.8243217  78.0308914
  16.2917089 112.0039654  78.9196777  16.2725306 110.9451294  77.8382587
  14.3095517 105.1424789  62.7607489  14.5782959 106.0583496  62.6887131
  15.1160312 104.6721172  62.9719067  94.5987892  80.8831120   8.9714897
  94.4737625  81.4320278   8.1973505  95.0920391  81.4344501   9.5789093
  50.1879549   3.3900848  95.3012180  49.7171497   2.6540139  95.6920815
  49.8508596   3.4422359  94.4068527  87.6780605   0.3593116  83.6850548
  87.1112251  -0.3949626  83.5237980  87.1092892   1.1182959  83.5559177
  48.3082342  10.2703166  73.8471937  47.3647213  10.3857982  73.9597845
  48.5438871   9.5926505  74.4808102  49.8364449   2.6984674  62.4104643
  50.7349014   2.9491952  62.1956635  49.4219398   3.5130510  62.6948452
 101.5763187  55.2778482  18.4227645 101.7045879  56.0494423  17.8710198
 102.4614143  55.0114727  18.6715221  62.1778345   4.2887026  97.1881199
  62.7662563   4.2611310  97.9425907  62.7613974   4.2971724  96.4294243
  30.5202508  31.7443967  89.1780758  30.2500629  32.3327494  88.4730434
  29.8183799  31.0956883  89.2308807  50.3159571   6.4012295  88.1899071
  50.5282402   5.6156081  88.6938572  49.9091530   6.9905639  88.8250637
   7.4110913   4.5945019  61.3396549   7.0276970   4.3833390  60.4883909
   7.9488331   5.3689975  61.1746597  90.4763412  78.5233021   1.4153659
  90.6147003  77.8680038   2.0992306  91.3134003  78.9831781   1.3514362
  45.7924032  10.3926456  62.9018164  45.6617975  10.4621375  61.9561195
  45.0490332  10.8612537  63.2813406 114.1790295 104.5919800  71.3726902
 114.3226719 105.0375271  70.5377722 114.2983437 103.6636066  71.1723948
  44.9182653  32.3977613  88.9531040  44.9860573  32.9836321  89.7070217
  45.4623556  32.8083038  88.2810497  42.3212671   3.3344567  81.0275269
  41.7999935   3.9751402  81.5112877  43.0484962   3.8411835  80.6661415
  39.1464520  10.0219584  79.1892576  38.7236404  10.1326251  80.0408554
  39.2667031   9.0763009  79.1026354  73.3300829  87.3108196  14.5626473
  73.8094568  87.8125954  15.2219319  73.2738304  86.4278126  14.9278474
  59.5728016  24.8770356  74.6223450  60.4507971  24.5280313  74.4688749
  59.5613861  25.0954533  75.5542183  66.2883902  75.1147890   6.7084378
  66.2722301  74.1731501   6.5372825  66.5885258  75.5025291   5.8863646
 100.0535393  72.7432251   8.5522795  99.3423080  72.1026230   8.5536921
 100.1403427  73.0027103   7.6350206 106.9296074 108.7213898  68.6438990
 106.4110088 108.3210468  67.9460287 106.6447926 108.2739639  69.4407272
  26.6993952  27.0409918  65.9416008  26.4978051  26.1543703  65.6424427
  26.1109972  27.6033354  65.4378223  33.1910801  11.3167143  64.2817259
  33.4182000  11.3535726  65.2108574  33.8899517  10.7968736  63.8847637
  21.3031530  25.0836706  85.2293396  20.4039836  25.4073071  85.1747036
  21.7505169  25.7135987  85.7944012  39.7360802  13.0548513  77.9577351
  39.2804742  13.8789558  78.1295109  39.2707634  12.4086833  78.4889412
 105.6483936  75.9304047  17.6115847 104.8576164  75.9373713  18.1508958
 106.3683891  75.9227800  18.2422864  75.3950167  25.2269626  85.0245762
  74.6740580  25.5129409  84.4636345  75.7808352  26.0395932  85.3516960
  33.8251066  25.1383734  70.2983856  33.4356666  24.6727061  71.0384703
  34.7689462  25.0706077  70.4426289  58.1284571  23.2404733  82.9394436
  58.4804773  22.7297020  82.2104549  57.5292397  23.8633728  82.5281429
  73.3844948  85.2661133   3.9937139  73.0126381  85.2723122   4.8757082
  72.7054358  84.8663521   3.4502938  44.3556213  10.8992231  66.8985128
  43.7464666  10.1640368  66.8302155  45.0444651  10.6991863  66.2647057
  44.3946505  46.1047363  93.2593536  45.1630878  46.1835384  93.8246250
  44.5257616  45.2806330  92.7904320  28.3887362  39.1152072  85.9921360
  29.0606785  38.5563827  85.6016922  27.5726533  38.6304402  85.8686829
   6.7113554  97.2780323  76.3388157   6.1392498  96.7959785  75.7416964
   6.8046933  98.1414509  75.9362841  98.6847687  85.9258366   2.9837731
  97.9730606  86.3003635   3.5028341  99.3846703  85.7662201   3.6169338
 115.8207512 100.2595997  70.6705189 116.0486412 100.9465790  70.0441217
 115.1759815  99.7212410  70.2115202  64.9347544  25.9283590  78.4997606
  64.7960615  26.1532950  79.4197607  65.8725691  26.0594273  78.3598948
  24.8905826  19.9685490  74.4068146  25.1231337  20.8451724  74.7128963
  23.9558148  19.8886907  74.5967150  59.0113831  57.0565414   6.3185698
  59.0859890  56.6421413   7.1781868  59.2698717  57.9660034   6.4678615
  42.8329039  24.8109341  81.4463806  42.2228336  25.4491305  81.8161774
  42.5750113  24.7376132  80.5274963  32.8541708  23.3077359  72.0974541
  32.3184395  22.9258204  71.4022064  32.2498488  23.4199619  72.8312302
  79.1261148  81.5845108  24.3804622  79.6307373  81.2172318  25.1062036
  78.2823992  81.8163681  24.7685528   8.7356513 111.8711600  95.0199413
   8.7945979 111.5183956  95.9078121   8.7037509 112.8201514  95.1408958
  25.3172588  15.4173887  71.7587042  25.2141857  16.2489223  72.2214794
  26.2220287  15.4276240  71.4464235  52.9348469  13.5468292  70.9689617
  52.6977491  14.1081512  71.7071581  52.3002052  12.8308916  70.9989548
  38.1310105  11.5632486  62.1641254  38.7253666  10.8129835  62.1726561
  37.9029226  11.6776431  61.2415600  63.8186312  20.0481033  61.5382767
  64.3227100  20.3159785  62.3066378  63.5109758  19.1665459  61.7490768
  66.9753790  88.5753536   7.0462853  67.1988821  88.9602470   6.1988586
  67.7460337  88.7330151   7.5916886  49.9629736  28.1984043  84.7958660
  49.7339296  28.6402726  83.9782333  49.2309046  27.6039815  84.9600983
  54.2873001  23.4806681  88.5287952  54.3954134  23.5881758  89.4737720
  53.5552073  22.8705287  88.4393501  45.0930214  23.4770036  88.9581013
  45.7940960  23.7863207  89.5317364  45.4209328  23.6345458  88.0727291
  46.6172218   1.2471990  76.0318470  46.9061327   0.3366840  76.0928869
  45.9902430   1.2515624  75.3085804  49.2184114  21.4239621  89.5429230
  48.9372492  21.1632133  88.6658859  48.8030577  20.7888436  90.1263046
  35.4934120  21.3260031  92.9693890  36.1336637  21.0134697  93.6086369
  35.9923339  21.4225054  92.1582222  71.6414833  18.0852902  80.3197956
  70.8522129  18.1076944  80.8608913  71.3146877  18.0349624  79.4215155
  59.2283010  24.7268391  67.6279354  58.5497475  24.0698171  67.7832556
  59.8179674  24.6439552  68.3773756  35.5435944  20.9930182  78.3454037
  34.8494887  21.2576842  77.7417469  35.9008408  21.8172979  78.6758089
  53.0906296  20.9678006  79.5114756  52.5176096  20.7800388  80.2548695
  53.2594585  21.9081283  79.5707178  74.4434118  77.4862432   4.7458556
  74.8175049  77.6843643   5.6043619  73.5482836  77.8222799   4.7913140
  54.6450758  77.7148867  25.6700087  53.7956858  77.2990322  25.8177733
  54.9171734  77.4036551  24.8066854  50.4727173  26.9048285  80.5704498
  50.3104162  26.5394473  81.4401531  51.3917828  27.1715665  80.5904102
  30.8200312  19.9701846  72.2555399  30.6988382  19.0265107  72.1505451
  30.2340150  20.3605342  71.6071272  47.3715639  24.8518491  90.0771999
  47.6593590  25.4020596  89.3487263  47.2214365  25.4656386  90.7961941
   9.3643099   7.7963507  69.1345358   8.4384257   7.7062303  68.9090443
   9.4514686   8.7021887  69.4313383   5.4513156 111.1481285  86.6571140
   6.4054078 111.1060238  86.5925503   5.1944286 111.7888737  85.9940147
  10.9077501  97.1668434  62.4666309  10.9866655  97.4141502  61.5453053
  11.7874813  97.2888851  62.8235817  38.3104849  18.8430476  92.2487354
  38.0113769  19.4143713  91.5413761  38.2097507  17.9573238  91.9000530
  61.3930035  29.0661597  82.6047230  61.5522623  29.9939084  82.7783680
  62.1856785  28.7662506  82.1597958  43.2144022   1.4061067  71.3868666
  43.9523411   1.6441812  70.8256149  43.4574986   0.5564340  71.7545557
  84.1872597  67.8643608  11.0513663  84.9021053  68.4870481  10.9191191
  84.4762421  67.0693064  10.6034732  26.2490940  13.0313134  64.9728966
  25.3814435  12.7247250  64.7094250  26.7737961  12.2338259  65.0431252
  55.1097441  38.5827231   6.2914473  55.9706259  38.9960265   6.3569593
  55.0376558  38.3237958   5.3727567  13.9866889  17.7996242  68.4870911
  13.9831114  18.7409675  68.6605644  14.5486438  17.4324656  69.1694641
  74.7954416  46.0003567  68.0649900  74.0850925  46.5226507  67.6923656
  75.0118494  45.3673172  67.3803997  40.2412128  28.8522100  81.3075161
  39.9383783  29.6195412  81.7930317  40.4879856  29.1944599  80.4483318
  59.6627188  88.9253998   1.7352475  60.0190115  89.7709846   1.4626972
  59.7330332  88.9323330   2.6898360  35.7119894  13.8904512  82.7619171
  35.0838304  14.1763914  82.0986748  36.0856843  13.0842483  82.4060822
  63.9046240  15.3223038  60.4032946  64.4476938  14.6624124  60.8343935
  63.0110884  15.1111937  60.6739616  52.2725105  11.9752669  83.6108208
  52.0584917  11.1878014  84.1111469  53.1419706  11.8010807  83.2503700
  30.6644583  32.5519681  79.9052048  31.4608121  32.5701499  80.4359818
  29.9684119  32.3339367  80.5250549  81.8691826  30.3010488  64.5958662
  80.9513187  30.2311206  64.3334532  82.3477077  30.3910756  63.7717676
  53.9714956  11.0579240  72.3778486  53.1405544  11.2371826  71.9378090
  54.6260118  11.5136695  71.8485641  45.4101324   7.8488076  83.5976124
  44.4763327   7.6384765  83.5951138  45.5005741   8.5293734  84.2646027
  52.7988100   8.5508454  80.4364395  52.9177094   8.8954175  79.5513630
  52.5364351   7.6396674  80.3054905  21.5543580   6.8493557  62.0224714
  20.9889579   7.4004447  61.4813089  21.8621802   6.1652869  61.4278889
 103.2201385  82.7115631  15.1826847 102.9344463  81.9086075  15.6184351
 104.1323757  82.5440884  14.9460292  92.1726704  88.5910416  37.2502947
  92.2494507  89.5145893  37.0107245  92.0373917  88.1381416  36.4179420
  38.1752706  16.3732278  94.2964649  37.6691914  16.9115722  94.9049950
  38.7650347  16.9907260  93.8639069  83.5057735  79.1762066  25.1998973
  83.0480003  79.2437935  24.3619776  83.0157948  78.5143185  25.6878042
  38.7857175  30.3067231  84.3501663  38.3990502  29.7301054  85.0091267
  38.0545425  30.5417538  83.7788773  12.5596452 112.3361492  91.0683823
  12.9556096 111.6249466  90.5647659  11.8556678 111.9164276  91.5628433
 103.0211830  75.8302546  18.9214873 102.5819206  75.6670332  19.7561359
 102.6520157  75.1788616  18.3251357  52.7141047   9.7536433  77.8200674
  52.0602655  10.4514563  77.8623199  52.6404715   9.4100219  76.9297123
  45.4471111  14.3451333  62.8059864  46.2323666  13.8982642  63.1220722
  44.7521687  13.6913931  62.8828955  46.7815828  14.9716175  79.5733881
  46.7875099  14.8378825  80.5211830  45.8544254  14.9603260  79.3357086
  37.9800797  28.0734658  97.2436237  38.7844706  27.5553513  97.2164059
  37.8269029  28.3259797  96.3331318  77.2301572  36.3558158  96.9106266
  77.3568051  35.4894789  96.5237628  77.8721803  36.3978251  97.6193410
  27.1837497   9.6281743  95.4416561  26.2341905   9.6710640  95.3288364
  27.5313520  10.2172863  94.7720623  92.8525257 111.9544411  13.5430956
  93.7815762 111.7476654  13.4414351  92.5610161 112.1868515  12.6614857
  45.0173521  13.5503542  67.7947092  44.7879362  12.6762474  67.4792147
  44.4038677  13.7152135  68.5107327  16.7108953  85.1422596  81.1820316
  16.0278785  84.6468163  81.6339684  16.2674034  85.5265999  80.4258347
  20.6645370  10.8449781  84.3219662  20.9650159   9.9792445  84.0454674
  21.1555147  11.4557517  83.7723064  82.7132893  69.6540976   8.1196237
  82.0630836  70.3471375   8.2343858  83.5534763  70.0860405   8.2736725
  17.9721689 107.0767498  86.8058681  18.8688517 107.3967361  86.7068672
  17.9619646 106.6546726  87.6649284  85.1425648  77.5788641   3.7490436
  85.6473351  76.9041252   3.2949913  85.0932980  78.3022833   3.1241688
  41.6000032  26.8712521  82.4830627  41.5729475  26.7373729  83.4304714
  40.6857777  27.0071840  82.2341728  65.2863026  19.6971822  78.7731600
  64.7527313  18.9415526  78.5270786  65.8118296  19.8829186  77.9949903
  78.5904551  12.7220058  83.8571167  77.6486683  12.8493702  83.9713383
  78.9894915  13.2578301  84.5425987  65.1648808  65.9119272   0.7419065
  65.6811333  66.7006779   0.9079937  64.6722031  66.1113548  -0.0541660
  53.6866617  18.5714066  87.5233173  53.6565590  17.9521787  88.2526207
  54.4461346  19.1235864  87.7091503  45.1482248  31.6878510  80.2730370
  45.0748348  32.3248148  79.5623207  45.8734703  32.0092154  80.8087349
  52.2359848  16.8158603  75.4287004  52.0527649  17.7102888  75.7161999
  51.9829464  16.2687087  76.1722231  86.4020061  53.4906387  12.8454363
  86.0276604  53.9189005  12.0755732  86.4755821  52.5696754  12.5951362
  56.0213184  20.9458399  92.2200775  56.7557240  21.0772729  91.6204071
  55.8235025  20.0115442  92.1553516  71.1543894  38.7656069  79.4660902
  71.5586805  38.8624859  80.3282928  71.8270063  38.3426213  78.9323282
  49.8922157   9.7717673  64.3783808  50.4401255   9.1510534  64.8587370
  50.4593229  10.5290079  64.2327499  29.1804075  32.0295715  82.8346252
  29.9120569  31.6297674  83.3048153  28.4116650  31.5397477  83.1267548
  46.6639471  75.4991341   6.5402579  46.4307833  75.6612444   5.6261533
  46.5080929  74.5629549   6.6647887  34.4009924  10.7858908  83.1656361
  35.0203347  10.4702854  83.8236904  33.6477947  10.2006066  83.2454205
  71.8988466  91.8557453  13.7967789  72.7971840  91.9480896  14.1141069
  71.5641117  91.0804939  14.2475116  37.9891610 109.5550632  66.9991684
  38.8444352 109.4447422  67.4145842  37.3911357 109.7316074  67.7254152
  13.2625711   3.1669012  80.2554226  13.7667406   3.1206146  81.0677719
  13.8840175   3.4965503  79.6062946  71.1360073  19.1466367  90.7080555
  71.7642260  19.6507227  91.2252235  71.6543531  18.4390819  90.3247643
  11.9032037  96.3491249  76.9572258  12.7927327  96.1645985  77.2587490
  11.9457591  97.2434330  76.6186380  59.8030424  45.0742483  92.7930737
  60.2023268  45.2127457  93.6519241  59.4570017  44.1825867  92.8308010
  29.2104149  37.7501798  91.9729996  28.6387014  38.4725094  92.2330284
  29.6981335  38.0890536  91.2223148  36.2332916  16.1174297  88.1751633
  35.5922198  16.0066032  87.4730396  36.0825157  15.3724277  88.7569427
  43.7469101  27.4940419  95.6623554  43.3590460  28.1028605  95.0337601
  43.0615616  26.8450069  95.8213520  12.2061431 110.2484035  93.0210018
  13.0955195 109.9679470  92.8051662  12.2241640 110.3952122  93.9667034
 109.3999863  76.1572695   2.6528081 109.2245197  77.0557880   2.9322881
 108.8175678  76.0208130   1.9055444  42.1230268  20.7086635  82.8761864
  42.4644804  21.5377164  82.5410557  42.0778131  20.1400328  82.1075153
  64.3335533  83.7299633   5.6183833  64.8713350  83.1711960   5.0573158
  64.7285032  84.5984173   5.5406702  51.1587715  19.4418752  86.9086266
  51.0464954  19.2744315  85.9729004  52.0811605  19.2496157  87.0773602
  25.4295135  26.4266706  86.8742657  24.7645926  26.4278483  86.1857033
  25.2008677  25.6791973  87.4267387  79.0847111  14.9151886  89.0519714
  78.9809179  14.0164435  89.3645668  78.7244177  15.4562628  89.7545815
  23.5803747  22.9250550  78.0278015  23.5233116  23.6628199  78.6349869
  22.9164243  23.1096888  77.3634863  60.4934311  27.9450321  73.4362125
  60.1773548  27.1019530  73.1113386  60.9654284  28.3254600  72.6954508
  63.0708885  42.2454882  77.3297262  63.0821848  41.7051554  76.5396976
  63.6724234  42.9646015  77.1366882  30.4347062   9.5636857  73.9190245
  30.1957512   8.8790327  74.5438290  31.0613465  10.1113665  74.3918896
  66.2082863   1.1469438  83.3967018  65.9318924   1.9775140  83.0094147
  66.4718056   0.6101071  82.6493073  71.4727736  91.2660027  18.2845914
  71.7881393  92.1315384  18.5446215  71.9443464  90.6581879  18.8541627
  75.8337307   5.4502696  56.8710613  75.4977083   4.5544261  56.8430328
  76.6793251   5.4029655  56.4250088  78.1804371 104.1586399  16.9010961
  78.3356619 103.6487961  17.6962066  78.7984133 104.8872948  16.9593465
  51.4114094  18.6543620  69.8686743  50.6481123  18.3252287  69.3940401
  51.9860649  17.8937364  69.9550056  37.4181128  19.9343300  82.8234100
  37.4695969  20.8870268  82.9005527  38.3270407  19.6398640  82.8814602
  59.3622398  13.3006299  91.6311264  59.6529245  13.1704175  90.7284737
  58.4071779  13.2576525  91.5837479  88.3465958  45.2713394  80.2058887
  87.4067020  45.1853609  80.0463867  88.6777306  45.7396030  79.4395256
  61.5302706  32.8884792  88.2884884  62.4170208  33.2443023  88.2310677
  61.6522694  31.9391060  88.2820797  68.1649113  38.0736089  79.9890423
  67.5307608  37.4821281  79.5837784  68.9743185  37.9292488  79.4988871
 110.0701332  90.9934616  12.7166784 110.5889893  90.7668877  13.4884822
 110.0406170  91.9501972  12.7203333  60.3420448  31.7756152  64.0547371
  60.9153700  32.4181294  63.6367559  59.8590517  32.2770929  64.7115993
  73.7081194  35.1651525  92.7077961  74.2148638  35.9689999  92.8229904
  73.4529924  35.1729870  91.7852497  74.1433382  31.2145376  83.4382629
  74.1246510  30.2727842  83.6085129  74.8265839  31.5494084  84.0190029
  58.8835144  23.3496618  63.4084463  59.7717142  23.7052751  63.3789110
  58.3607340  24.0439963  63.8094854   3.2242712  86.2714767   7.1415013
   3.6628070  85.4456615   6.9366914   3.4352672  86.4330864   8.0610645
  57.1170235  27.7081323  76.7121935  56.6720963  26.9981170  76.2494278
  57.2535753  27.3689079  77.5967884 100.0069237  85.9904480   7.4244624
 100.0270748  85.7751274   6.4920145 100.2575970  85.1776218   7.8634536
  70.5329657  41.7031193  65.7482386  69.9798441  41.3484621  66.4443016
  70.5888796  40.9975624  65.1038074  61.8583059  13.9848089  74.5980215
  61.4221573  13.4749699  75.2807188  61.1728001  14.5552242  74.2502499
  53.3602476  24.5378828  84.6451664  52.6330757  24.6194530  85.2622604
  53.8952351  25.3161359  84.8011971  72.9287863  17.7490461  74.6263933
  73.5501099  17.3304737  74.0305853  72.3337650  17.0453000  74.8850822
  86.4727116  19.9259984  95.8161449  86.5873814  19.0147102  96.0856628
  86.0954571  19.8704493  94.9381828  68.8353920  44.4318295  78.2579660
  69.4903278  43.9485121  78.7616491  68.3649158  43.7576771  77.7676630
  95.1137543  95.5677795   3.9450827  95.6213379  94.8554707   4.3339279
  94.2325020  95.2075100   3.8458762   5.6112939  56.8803406  11.0131872
   5.4584533  56.8456554  11.9574690   6.3289720  56.2647915  10.8639503
  53.7710142  28.4808445  82.1037960  54.6681881  28.3008695  82.3847198
  53.2517481  28.4173870  82.9053974  73.3978605  37.6206613  70.7312584
  74.1797590  37.1132064  70.9488726  72.6874352  37.1761465  71.1937857
  65.7578039  39.6794343  78.7665415  66.2482119  39.6262717  77.9462337
  65.9099436  38.8354254  79.1916704 106.0211182  87.9587269  10.3139400
 106.9447613  87.9984760  10.5619991 105.9210682  87.1016598   9.8996174
  49.2125654  13.0753541  70.3092480  48.6740112  13.1897795  69.5262384
  49.3573713  13.9646423  70.6324005  67.6553154  22.6257396  74.1813517
  67.2533369  22.2613025  73.3927870  68.0373335  21.8695354  74.6268272
  50.9169483  32.1994853  85.5123234  51.3515663  31.6060162  84.8998356
  51.2365484  31.9308949  86.3736820  94.3743420  91.2500954   4.6261838
  94.7360992  90.3925037   4.4027987  94.5116711  91.7799091   3.8409013
  51.0081911  10.4958951  85.9247017  51.3985443   9.8281860  86.4886284
  51.4521217  11.3072193  86.1714935  85.7319260  83.5942554  23.2945013
  86.2465477  82.8532600  23.6143780  84.8218346  83.3165359  23.3986306
  53.0758810  20.2214837  84.9365044  53.3117771  20.8061886  85.6567192
  53.4482384  19.3749642  85.1834679 105.3001404  94.0929317   1.4652424
 104.8738194  93.9731407   2.3138487 104.6287727  94.4959164   0.9146933
  61.7709351  16.9188225  82.6398373  62.2574663  16.4338040  83.3063793
  62.1880054  16.6744781  81.8136501  44.6543932   2.7555802  82.6498699
  44.3098164   1.9633070  82.2377968  43.9595366   3.4045917  82.5394440
  50.3769016  16.3645422  84.6623135  49.9336624  15.5177426  84.7143078
  51.2923813  16.1683130  84.8613548  90.2712822  28.8549376  95.6011868
  91.0032749  29.4305944  95.8226395  89.8265457  29.2997575  94.8796749
  37.9048681  19.8213863  86.3312054  38.5091996  20.5592656  86.2502670
  38.1909227  19.2026865  85.6591797  57.0374203  21.8346620  96.2620354
  57.2970915  21.3137174  95.5021572  56.1082554  21.6379142  96.3811111
  24.9343872   4.1956922  77.0040703  24.0393877   4.2413199  76.6677284
  25.1464009   5.0977778  77.2439098  30.2565050  28.0601454  89.7526741
  29.5762539  27.4202251  89.5429230  29.7750640  28.8551283  89.9816895
 111.9618797 102.3954105   6.5036541 111.5417099 101.7959690   5.8869183
 112.8524780 102.4985981   6.1683506  55.6900072  26.2069297  90.2527809
  54.9954653  25.9637380  89.6406460  55.4404545  25.7884741  91.0767078
  42.4729776  25.6744695  91.7311764  43.0864573  26.2947488  91.3373089
  42.1410036  26.1259437  92.5071907  34.9372792  27.9873061  88.8407516
  35.5404186  27.2808933  89.0719128  35.5046153  28.7358165  88.6561012
  72.6241636  91.4508724   5.9577799  72.8942108  92.0362663   6.6653234
  73.4380245  91.0455608   5.6584686 107.1970654  64.2451763   4.3399382
 107.9907894  63.7658024   4.5774990 106.8035126  64.4872332   5.1782429
  82.2526836  79.1232300   1.4035690  83.2054043  79.0313673   1.3935256
  82.0792961  79.7432613   2.1118982  70.4763651  20.2883387  66.5009260
  70.4239702  19.3826115  66.8061209  69.5731735  20.6038761  66.5310955
  63.1880379  25.5051780  54.4147491  64.0011644  25.0606179  54.1751146
  62.9662609  25.1510310  55.2759266  89.6821308  95.8047390   2.6908723
  89.1552734  95.0062275   2.6590115  89.9527931  95.9494495   1.7842093
  61.5258789   3.1177956  91.3743401  62.1021461   3.8529879  91.1654377
  60.6489992   3.4297490  91.1507511  60.9397459   0.1112565  67.6031113
  60.5079985   0.8213875  68.0780220  61.1980629  -0.5099119  68.2840347
  64.6719265   6.3309175  63.1163645  64.6598339   5.7831389  63.9012384
  65.4775286   6.8420905  63.1934357  60.6892967  31.8203282  81.8826962
  60.9688330  32.6012683  82.3604298  59.7390270  31.9105363  81.8113804
  62.2964811  19.7683263  77.5866413  63.0125904  19.8648548  76.9588709
  61.6727448  20.4532433  77.3456526  27.4722195 109.6348381  79.0768433
  28.1620526 109.2482948  78.5374451  27.4865317 109.1240215  79.8862267
  73.5469103  35.2944636  89.8048878  74.3808556  35.7446671  89.6703815
  72.9183674  35.7937503  89.2834663 109.2539597 108.7967682  73.5838413
 109.7831535 108.6621284  72.7976751 108.8619518 109.6616840  73.4634638
  42.5044394  12.1262562  85.7724953  43.1541872  11.6930020  86.3259888
  41.6756535  12.0040584  86.2355518 106.4132404  71.3905382   1.1067987
 105.8597279  72.0371151   0.6688441 106.7239857  71.8358994   1.8950386
  59.7224855  25.6170893  77.5115299  60.6782627  25.6433153  77.4664116
  59.4981003  26.2407708  78.2021093  70.3276873  39.9897099  72.3864985
  71.1900616  40.2414370  72.0560837  69.7127485  40.3388023  71.7413473
  60.4897165  35.2015328  73.7251997  60.2384472  34.5493221  74.3792009
  59.7588062  35.8194137  73.7100220  45.6676817  19.9270344  91.7463970
  45.4742861  19.6051431  90.8659363  45.7190847  20.8777666  91.6479111
  57.3756504  11.6454518  83.1938744  57.1145391  10.9938002  82.5431824
  57.8277493  11.1408973  83.8700867  64.3946981  38.0431843  96.1935043
  65.0241184  38.7117863  95.9232616  64.9256945  37.2610044  96.3434219
  84.9793720  39.1612506  81.3642883  85.7890034  38.7959409  81.7210579
  84.8688030  38.7208343  80.5216503  61.7468405  30.2023530  88.0807209
  61.0281706  29.5906758  87.9207134  62.5335932  29.7185493  87.8293514
  34.3742180  11.5347612  96.7778587  34.5803475  12.3985684  97.1350479
  33.4383321  11.4235222  96.9451141 111.5636921  77.6112795   9.2418391
 112.2172832  77.2631836   8.6353087 111.2424183  78.4066725   8.8171399
  58.9543867  29.7860599  67.3030472  58.9358044  28.8708663  67.5828743
  58.5263634  29.7834754  66.4468813  57.7195120  23.0091596  86.6738510
  57.6169395  23.5202384  87.4766731  56.8380594  22.9659510  86.3031769
  96.8331718  58.2374907  18.9926255  97.5019646  57.9453993  19.6120119
  96.8087959  57.5516319  18.3253682  64.1387844  25.4389095  92.6153088
  63.9954567  25.9223342  91.8016815  65.0901175  25.3547430  92.6794910
  69.1580868  25.7659745  95.7218075  69.6518612  26.2113166  96.4103508
  69.7023869  25.0153661  95.4839897  81.3575268  46.0928631  94.4513416
  81.5670109  45.2736807  94.8999977  82.2021675  46.4181471  94.1398907
  69.2517560  36.2332114  96.5073715  69.2722982  35.6478652  97.2644538
  68.9422696  37.0681723  96.8585088  48.1266260   6.1983627  74.1985035
  48.8584137   6.2520075  74.8131895  48.5313368   6.2889135  73.3358145
  72.1153307  55.0734854  75.2932167  71.3347101  54.5917606  75.0197077
  72.6887226  55.0552797  74.5269775  57.8126097  27.0007229  79.1714334
  57.4881649  26.4708567  79.8995876  58.3360767  27.6853275  79.5880032
  91.1662769  97.2903347   4.4120184  90.6127167  96.6606808   3.9501286
  91.0197163  97.1031189   5.3392214  98.6671066  95.9399223  19.7922945
  99.3409443  96.4041805  20.2889252  98.2569313  96.6170216  19.2542279
  59.6746063  15.5574524  73.6040783  58.7763071  15.3620064  73.3374548
  60.0955629  15.8817685  72.8079367  77.4198580   8.3433604  64.5347452
  77.2394085   7.4275523  64.7467947  77.8041887   8.3150911  63.6585474
  60.6462955  45.9355307  75.3231144  60.6183434  46.4164209  76.1502743
  60.3597593  45.0509882  75.5505180  92.5651646  66.0021496   5.2242881
  92.2057724  65.5225515   4.4779277  92.1539593  66.8651199   5.1749372
  73.8747501  54.2898178  84.5694351  74.7226906  54.5233917  84.1917133
  74.0925074  53.8119459  85.3697205  88.0610466  84.7972107   4.3234700
  88.8593483  85.1769924   3.9564407  88.3626652  84.0306282   4.8109213
  75.3412199  12.3566282  80.3551006  75.0007725  11.4701581  80.2346802
  74.5618010  12.9119265  80.3746605 117.4578571  66.6140318   5.0872582
 117.8819275  67.1890450   4.4502655 117.9293251  66.7734003   5.9049064
 109.2448711  81.3375950  11.9207418 109.8969173  81.8342113  11.4263213
 109.4205761  80.4234219  11.6979289 100.6061649  92.2750664   3.6858487
  99.8639488  92.8746700   3.7621650 100.3514671  91.6656208   2.9930761
  52.4942112  24.1397023  90.5690670  52.7929735  23.9953804  91.4669228
  51.8945122  24.8830318  90.6327629 110.6910801  77.2546053   0.4725727
 109.8641014  76.8216944   0.2606206 110.5598354  77.6032019   1.3543233
  66.3707161   7.8211486  95.7850456  66.9920349   7.8530216  96.5124893
  65.6084394   7.3645478  96.1409664  83.5213089  64.5771122   2.8603840
  83.6046028  65.1278448   2.0819305  83.5019875  63.6826754   2.5200367
   0.7665739  89.6279621   0.3317014   0.2408552  89.6527290  -0.4678225
   0.4232594  88.8803482   0.8210336  34.2167330  33.4268355  86.8011093
  34.1445661  34.1675711  87.4030495  33.9948392  32.6629972  87.3336029
  71.3811111  24.9000955  53.8834381  71.9351006  24.2125797  53.5137749
  70.7321548  25.0768328  53.2023716  50.7990265  28.4336138  87.5306892
  50.4201651  28.1053376  86.7152596  51.2794924  29.2200398  87.2720146
  51.8807936  26.1433291  77.5119686  50.9645462  26.3294196  77.7171373
  52.3336554  26.2146807  78.3522415  50.8916187  17.1073401  93.1462574
  50.3766394  17.1034515  92.3394108  51.5231895  16.3974106  93.0307198
  73.8425064  37.8189206  62.4820375  73.0930710  38.4141040  62.5003099
  74.5824766  38.3730936  62.2339106  49.2301607  18.5147715  88.5224247
  50.0385857  19.0075111  88.3813763  49.2612553  17.8125131  87.8727341
  74.1839314  36.0116553  77.4303722  74.3058348  35.9161472  76.4857817
  73.5199690  35.3592277  77.6533604  38.3762074  23.7443376  80.3778458
  38.3759594  23.1399632  81.1201096  39.1363668  23.4842920  79.8574972
  48.8385010  34.7236109  83.7075233  48.5675383  34.2719340  84.5067692
  49.7459459  34.4499969  83.5736942  50.4722261  34.2230678  80.7497215
  50.2578974  33.7319899  79.9565411  49.7810841  34.8818016  80.8176899
  57.2812462   9.1524088  82.0087147  56.6964102   8.7545729  81.3637924
  58.1264114   8.7286484  81.8591881  83.4481525 102.4389458  10.7286024
  83.3684826 101.5232563  10.4613936  83.1039810 102.4586773  11.6215706
  47.2683048  19.7867501  76.3566494  47.8331852  19.5615244  75.6174517
  47.7999115  19.5990872  77.1302176  63.6974382  26.8690443  75.0238466
  64.2810154  27.5863338  75.2711535  63.8406944  26.7568851  74.0840960
  68.7004757  59.6367550  81.9131470  67.9571533  59.3198824  82.4262619
  68.4662008  59.4408226  81.0059738  70.6671476  31.1477947  66.6515064
  71.5395212  30.8784628  66.3640118  70.0734520  30.5273008  66.2287235
  53.0148506  27.2021341  79.8696852  53.4228134  27.3700094  80.7191658
  53.4022856  27.8535056  79.2850113  66.9020700  30.2550864  66.6977501
  67.1802616  30.6657100  67.5164270  66.1669350  30.7904029  66.3990164
  45.7196379  59.1686106  87.6010418  45.3692436  58.3931494  88.0393410
  45.8290339  59.8110771  88.3021164  57.4418497  45.9336376  85.7301807
  58.0863380  45.5203962  86.3047218  57.8849745  46.7128849  85.3945446
  45.5213451  38.0499816  85.8369732  45.3668499  37.4122071  86.5338230
  46.3676643  37.7995920  85.4664516  89.0779495  34.8278117  80.2911949
  88.1556225  35.0834584  80.2775955  89.0610123  33.8709545  80.3104210
 108.7229538  85.7639503   0.6935761 109.2894745  86.5036106   0.4740557
 108.7180710  85.7417393   1.6505060 105.2262783 104.5075130   5.7209265
 104.8677063 104.4599819   6.6071534 105.9565735 105.1223469   5.7906884
  69.7110939  19.7008991  94.4854450  70.4875565  19.3443096  94.0539551
  69.3218136  18.9512897  94.9357605  89.5984173  80.0297546  22.7490044
  89.6061230  80.9852314  22.8060293  90.5188560  79.7886086  22.6447678
  69.4703436  56.7845011  91.1612892  68.5825729  57.0323420  91.4195061
  69.8812199  57.6073933  90.8962345  95.4708004 109.2039871  14.9602246
  96.1553192 109.0200615  14.3169224  94.8312950 108.5025597  14.8366737
  65.3883171  33.6879253  91.1244106  64.4504881  33.6380363  90.9394073
  65.5000496  34.5272112  91.5708923  81.4621544  76.7916679   2.7534848
  81.7048454  77.6645327   2.4445543  80.5361462  76.7062044   2.5266573
  11.9889963 110.2867222  67.8806353  11.4196265 109.5199490  67.8166437
  12.1890461 110.5129719  66.9723272  79.1206074  29.8621178  56.4251614
  78.5463715  29.8027349  57.1886778  79.6271801  29.0501404  56.4427328
 115.9983349  74.1119719   0.9179734 115.2514744  74.6839762   1.0947177
 115.6057739  73.2854223   0.6369974 106.8640327  90.6307507   1.6498515
 107.0623016  91.5379906   1.4178289 106.5005875  90.2526855   0.8490958
  59.2882442  18.2775962  82.0704365  59.7779465  18.4197509  81.2603664
  59.8671961  17.7378798  82.6087189 118.0144405  71.4312315   8.6090028
 117.3904133  72.0443153   8.9975226 117.7222252  71.3341951   7.7026784
  76.0389853   5.5856496  70.3300524  76.8892574   5.7372755  70.7427073
  75.9684038   4.6329480  70.2699757  64.2337894  26.7537928  90.1797485
  65.0048065  26.9943881  89.6660614  63.7653112  26.1264729  89.6290779
  82.0731926  89.3575573  28.9276171  82.0283985  88.4271908  29.1481829
  82.9341412  89.6364498  29.2394090  19.1758573 110.1082706  75.3458261
  18.9338791 110.8358955  74.7729063  19.1985798 110.4912376  76.2227774
  67.4494505  95.0133514  11.4433801  67.8691196  95.2181339  10.6078148
  68.1771374  94.8867416  12.0522130  52.7090216  34.4808722  82.1470547
  51.9035530  34.3317842  81.6518497  52.5923014  35.3461480  82.5393581
  80.8149815  20.5643487  73.9771080  80.3194904  21.3749337  74.0940189
  81.0851002  20.3189969  74.8620224  59.8131418   1.8143880  65.6314898
  59.3192816   1.3596863  64.9491549  59.8003244   1.2139873  66.3768673
  66.6815758  24.7209549  93.5163498  67.3845768  24.6551728  94.1626453
  65.9635353  24.2105556  93.8907146  66.1086607  27.9227901  88.5225391
  66.5774107  28.7336016  88.7202549  65.4123068  28.1890154  87.9221630
  75.3310585  86.1769104   6.2668502  75.0883102  85.9941769   7.1745461
  74.7323275  86.8721581   5.9941220  31.4424658  34.1975641  90.5193138
  30.7793379  33.5079741  90.5503178  30.9924459  34.9450779  90.1256943
  42.4267960   8.7732798  96.8715954  41.5886307   8.9008915  97.3159313
  42.4691439   7.8314644  96.7059994  70.9267855  23.8135314  96.5909004
  70.8858299  22.8970289  96.8639851  71.7361879  24.1437101  96.9808674
  54.6742344  32.6793838  82.9620838  53.9530182  33.2386661  82.6735020
  55.4609966  33.1992006  82.7976894  67.4000978  47.6097202  85.0276184
  67.1500111  48.0553579  85.8369923  67.0458269  46.7254925  85.1217461
  56.9475317  14.5181465  90.5868912  56.0969543  14.3401766  90.9882259
  57.0914078  15.4528034  90.7350445  57.0777845  36.8250203  64.7333479
  57.7511358  36.5936518  65.3731155  56.7257166  35.9841418  64.4414473
  65.6460953  19.9718833  67.7490330  65.7165098  19.0423965  67.9665852
  64.7780132  20.0606918  67.3556137  57.4936438  15.2790129  72.0340061
  57.0843363  14.4153333  72.0865345  57.8346157  15.3285587  71.1409664
  68.7655306  21.6786814  87.7947426  67.8535938  21.4847660  88.0115318
  69.2402506  21.5457654  88.6152267  75.9936762  30.1846814  81.3105965
  75.8207321  30.8296418  81.9964123  75.1833344  29.6791244  81.2473965
  77.1201944  31.7557859  94.1952705  77.1237707  30.9313893  93.7088680
  76.2706614  32.1485662  93.9946461  85.2920914  29.4458771  83.6657810
  85.7947159  30.2593684  83.6229515  85.9352684  28.7793779  83.9073086
  75.9972239  41.8321896  80.9681416  75.6615210  41.1404800  80.3979874
  76.6018486  41.3832045  81.5589619 108.1993389  75.9617901   0.3182403
 108.2369709  75.2088881  -0.2716373 107.3547554  76.3712215   0.1304341
  82.4350452   2.5432950  59.8991013  81.6765308   2.9940832  60.2701426
  82.7840996   2.0251459  60.6242990  64.9427509  18.9866114  88.9601803
  65.0907516  18.0771708  88.7008572  64.7524786  18.9405704  89.8971462
  75.7233381  18.5221434  58.9386415  75.5202579  19.1848230  59.5988274
  76.5927505  18.7620437  58.6180115  34.2324638  17.3297644  92.5695801
  33.8077331  17.9361916  93.1762791  33.7473488  16.5108156  92.6706600
  68.2013178  54.6760321  93.2800293  67.8560877  55.5510378  93.1027985
  68.8786793  54.5468140  92.6161575  43.6709738  54.9225950  90.7913303
  44.0675831  54.0516424  90.7720375  43.9487219  55.2937508  91.6287899
  52.3786116  50.2801466  95.6742191  51.7421770  49.7465324  96.1500740
  52.7607107  49.6816444  95.0323296  74.6718884  43.7208414  77.4482679
  74.1031313  43.9289522  76.7070246  74.2691612  44.1686010  78.1922817
  57.1085835  66.4878559  86.1379242  57.9443121  66.9519281  86.0886574
  57.3423004  65.6025696  86.4169693  60.6772661  47.0020056  77.8673506
  61.1959600  46.3950825  78.3954000  60.4106569  47.6861620  78.4814167
  87.1418095  49.2485285  86.5978336  87.0898914  50.0958204  87.0401382
  87.0725060  48.6053896  87.3033810  76.0914183  64.4177818  82.4884892
  76.7038250  64.9300575  81.9605064  75.2612400  64.4751978  82.0154858
  65.5424213  50.2857208  84.4448471  64.9178839  50.8902931  84.0439987
  66.2337446  50.1866579  83.7902451  76.3885593  19.1911900  91.3170052
  76.9420671  19.9470031  91.5135002  75.5555582  19.5706606  91.0371113
  60.5847454  61.8167305  80.2202988  59.9527979  61.4219952  80.8211803
  60.8878660  62.6031017  80.6741428  82.7690792  37.2512126  94.7276115
  82.3464966  36.3924694  94.7131157  82.4160290  37.7048421  93.9622307
  57.7952528  46.6287756  92.5380993  57.1304560  45.9704542  92.3358822
  58.5936308  46.1235905  92.6917648  61.1441135  40.8999205  78.7260771
  60.9985209  40.0193548  78.3801842  61.4362431  41.4089918  77.9699469
  58.3181858  54.1608858  87.6962852  57.4929285  54.1582394  88.1812286
  58.3077192  54.9854279  87.2102261 107.4843693 106.0296440   5.6201434
 108.0180645 106.0197353   6.4146888 108.1200123 106.0205936   4.9045259
  90.8809853  40.3568602  91.8947315  90.5733013  40.2552843  92.7954197
  91.7688465  39.9992800  91.9031620  85.8205986  26.5690064  81.4013386
  86.5179062  26.7403269  82.0343018  85.5267048  27.4379110  81.1277199
   7.4215961  96.1230659   9.1149980   7.2571993  96.7132473   9.8504484
   6.6561633  95.5487251   9.0930670  79.0974665  55.8137035  80.1292515
  79.9775410  55.4456377  80.0502968  79.1476774  56.3936377  80.8891201
  72.2076178  35.7840896  75.1060009  72.3010826  34.9876785  74.5832920
  71.6640377  36.3606167  74.5690012  49.3148041  37.1172643  96.0298920
  49.5834208  37.7166414  95.3336048  48.4277391  37.3961377  96.2570000
  79.5585823  38.1946778  85.7646275  79.5017195  39.1236329  85.5409336
  79.9843311  38.1803560  86.6218090  76.5091419  22.9411244  85.4929543
  75.7118034  22.6276851  85.0660610  76.3713694  23.8827419  85.5959606
 111.8062496 103.7984657   9.1160977 112.1903706 103.7834930   8.2394803
 112.4168110 103.2941437   9.6537805 105.3126526  97.6966476  19.8828137
 106.1851883  98.0653954  20.0204039 104.9606800  97.5785732  20.7650852
  71.5172768  42.3109531  76.6027069  71.5763569  41.5153980  76.0737181
  71.0878658  42.0299721  77.4107218 106.5322495  87.2825146   2.5448433
 105.5973434  87.1475029   2.6996160 106.9642448  86.6616821   3.1315136
  32.8976750  31.9161773  93.5215950  32.4821353  31.1725783  93.9581871
  33.7837934  31.9413233  93.8826942  55.0263357  50.0067472  97.0743465
  54.5926142  50.4037619  96.3190365  54.3471098  49.9682903  97.7476978
 104.8107147  42.3076868  88.9986229 105.3044987  41.7641544  88.3846378
 105.3184032  43.1164980  89.0643024  71.8744373  35.0761509  79.4484138
  71.1980581  34.7735214  80.0543594  72.6021576  35.3372288  80.0127602
 116.5653801  78.1185865  21.8498063 116.7969322  78.8747168  22.3891401
 116.6083908  78.4436607  20.9505224  58.4894896  65.1480627  80.6491184
  58.8960123  64.8510075  81.4631939  57.5505543  65.1448202  80.8351898
  70.2755547   3.8162687  94.3229103  70.6072903   2.9183924  94.3211555
  71.0344887   4.3524510  94.0931988  66.6639137  39.0898132  95.1329231
  66.8672752  38.8320684  94.2337894  66.5717554  40.0417805  95.0941753
   3.6735332   1.6480421   1.2686378   4.1939086   2.3548895   0.8867897
   2.8498888   2.0659032   1.5201010  62.4511671  61.1349154  94.2771721
  61.5505219  60.8253670  94.1809940  62.7908325  61.1651325  93.3827686
  67.3997259  39.4384980  72.1815872  68.0116034  38.7034607  72.2210884
  66.5877771  39.0565872  71.8482590 104.9761677  89.4823456   5.9797674
 105.7381630  89.5730782   6.5519243 104.3644619  88.9416599   6.4794761
  90.1605225  43.6048269  71.1992311  89.6714878  42.8460550  70.8808851
  90.2334881  43.4639072  72.1431875  73.5181618  43.7612200  63.7442112
  73.0291414  43.6944914  64.5643568  73.5839224  42.8592825  63.4305000
  62.9016304  42.3390818  72.3495102  63.5077095  42.8373194  71.8011856
  62.5214386  41.6899967  71.7575884  71.4376163  56.4818430  86.3177872
  71.5003061  55.5895662  86.6585922  70.6807613  56.4619160  85.7321262
  80.2550697  47.3077011  81.2216473  81.0221958  46.9093752  81.6328430
  79.9538851  46.6529465  80.5917168  81.3646030  43.6257315  95.7113361
  81.5215683  43.8994884  96.6150188  82.1065235  43.0588770  95.5004883
  72.0248270  32.4341774  88.2799816  72.3588657  33.2088518  87.8277302
  71.0810089  32.5812292  88.3416843  51.7891455  48.2414103  85.9992504
  51.1285114  48.3712244  85.3188515  52.1657228  47.3827124  85.8067322
  37.4143767  60.8495378  85.8206463  37.9838610  60.5167007  86.5142918
  36.8591356  61.4961958  86.2562752  68.5165882  40.5834675  74.4582987
  68.0021811  40.1723051  73.7636280  69.3878508  40.6941175  74.0776587
  99.0545273  93.6334515  10.0600314  98.7210655  94.0920734  10.8312011
  98.3695984  93.0011177   9.8426288  81.8083286  50.5084562  66.1754131
  80.8775616  50.6769753  66.3220549  82.2567177  51.0916471  66.7878485
  71.5686369  52.6346397  80.3032684  71.2125349  53.5231066  80.3100967
  71.9931078  52.5533009  79.4491911  56.6268730  71.7331219  90.7618809
  56.9269800  71.2071753  91.5031910  55.9761477  71.1830330  90.3257751
  62.3839092  61.5785694  88.0574894  62.7498674  60.8477592  87.5592613
  63.0456352  62.2672367  87.9935265  66.0048819  41.6191149  91.9650078
  66.0490131  40.7759523  91.5140533  66.6955566  42.1437454  91.5600681
  81.1292839  25.3319049  80.0512028  80.4579639  25.2056956  79.3806648
  81.0702324  24.5495200  80.5994892  73.4356308  54.3089771  72.6225424
  74.3810177  54.4514418  72.5758696  73.1311607  54.4253397  71.7225456
   6.3882476  81.3766384   0.0455896   6.2444603  80.9698200   0.9000261
   5.5256683  81.7006874  -0.2135991  58.7034655  51.1710310  76.7694092
  58.6112356  51.6597366  77.5872660  59.5710897  50.7707357  76.8261242
  66.8998480  53.0041599  84.1464520  67.6542234  52.6756859  84.6355915
  67.0767212  52.7567959  83.2388401  97.6816845 108.7899876   8.8262248
  97.5540733 108.0537033   8.2280338  96.9084644 109.3394756   8.6980814
  95.6995106  54.9906206  77.0052242  94.8953629  55.4585123  76.7801809
  96.0318089  54.6686888  76.1672688  51.9305277  51.7335033  80.1943588
  52.4365902  51.3574076  80.9145546  51.5351295  50.9780693  79.7593641
 107.8778458  81.3331032  14.2693532 108.3835125  81.3602352  13.4570777
 108.4478378  80.8809185  14.8913383 105.9965420  63.5282660  88.1694221
 105.2243996  63.8158417  88.6565876 106.0960007  64.1775656  87.4731731
   9.2747080  91.7047977   8.7657303   9.5082563  90.9113216   9.2474747
   9.3462992  92.4071980   9.4120544  80.6029892  20.4081535  67.6645470
  81.5033531  20.4865122  67.3492289  80.5876255  20.9180593  68.4744787
  97.6025105  98.0907154   3.0618936  98.0713367  97.5679493   3.7123847
  98.2685852  98.3203888   2.4139601  89.1184235  22.2273374  88.1893349
  89.8216629  21.5789843  88.1529045  88.3222675  21.7275333  88.0088615
  75.6466436  52.9280996  67.5204802  75.2605247  52.1649456  67.9502869
  75.2223969  53.6780119  67.9374695  66.9751787  57.5164747  70.4408550
  67.2515583  58.1604671  71.0928679  67.2612429  57.8842640  69.6047163
  72.7307796  41.6000319  79.0512419  73.0584383  42.3425722  79.5586967
  72.7470303  41.9042444  78.1438160 106.9014549  33.1803536  76.9472027
 107.4948120  33.1072426  76.1996698 107.3529434  32.7235627  77.6569414
   4.0412349  87.3876095   9.6319366   4.8052222  87.9519081   9.7507960
   3.8448924  87.0621204  10.5104208  55.2500534  68.0003166  75.6636524
  55.1340485  68.3390379  74.7759342  54.4895506  67.4368286  75.8062887
  70.3380680  32.0075846  84.8771667  69.5996523  31.4252543  85.0556660
  69.9379110  32.8657818  84.7371578  48.3689404  55.5196524  89.6906185
  48.7721252  54.7160721  90.0191402  48.5593700  55.5169916  88.7525558
  80.1459312  58.0333567  73.0833769  79.6430445  57.8981495  73.8865328
  80.1418686  58.9819050  72.9550648  62.8599691  44.6079063  89.2083359
  62.1874189  44.9133635  89.8171139  63.3891821  45.3845501  89.0267181
  56.9852972  59.4486475  84.5721626  56.1813688  59.7252607  85.0119495
  57.5845098  59.2277241  85.2851582  50.8437395  69.6556425  88.1037235
  50.6488085  68.8188314  87.6818466  50.3372288  69.6382236  88.9157486
  79.6591616  36.3321662  83.1813145  79.2785692  35.8600879  82.4406910
  80.0487041  37.1149349  82.7917385  78.7733412  51.3301373  55.0353289
  78.7396908  52.1180058  55.5778790  79.6021032  51.4007521  54.5616245
  96.8314552   8.3622020  91.4091206  97.1682453   8.3474243  90.5132484
  96.2220287   9.1001862  91.4237499  74.2249918  32.3725390  64.5378304
  75.0959730  32.0704174  64.2802525  73.9314270  31.7323732  65.1860905
  61.3905525  34.0872002  83.3847809  60.7119560  34.2716217  84.0341854
  61.6907454  34.9504375  83.1002808  96.1906242  57.8000593  74.5644760
  96.2754536  58.2808018  73.7411165  96.8013573  58.2347775  75.1596642
  52.8774786  61.1507702  84.4948864  52.1318102  60.8436298  85.0105190
  53.6438608  60.8061266  84.9532604  73.1239653  25.9286356  78.3076572
  72.2494364  26.2043452  78.5822821  73.0841637  25.9234595  77.3512983
 113.3746433  99.6866417   8.2144654 113.9155388  99.9777126   7.4803382
 113.7048531  98.8128948   8.4236336  72.2744799   1.5290599  22.1404600
  72.9804564   2.0506188  22.5222993  72.7162409   0.7695326  21.7607284
  82.9719734  55.4063320  70.5100107  82.7508259  55.4812765  71.4382935
  83.9245033  55.4966688  70.4826641  71.3373184  42.9544353  84.8527718
  71.4889908  42.0686388  85.1823139  72.0884609  43.1311607  84.2863941
  85.6229019  34.8367023  79.7972775  85.7483864  34.0615034  80.3445911
  85.7431602  34.5198727  78.9020777  68.0240250  53.2353497  90.2858543
  67.1728563  53.4831095  90.6469059  68.0919027  52.2957754  90.4556370
  52.7648783  63.0857706  86.9634151  53.4538651  63.7327957  86.8121147
  52.2846937  63.0493164  86.1361790  27.0737028  13.9350533   7.0782602
  26.9814301  14.4015193   6.2475210  27.9053831  14.2455590   7.4362069
  55.6374359  21.7060161  82.7288914  56.5643978  21.7484283  82.9637909
  55.5536747  20.8933043  82.2301865  93.7220955 106.4665985   9.3663061
  94.0399647 106.1565208   8.5183442  92.8540039 106.8244934   9.1803807
  55.8245420  60.7313251  89.5852280  55.6577110  59.9292183  90.0802231
  54.9782896  60.9536123  89.1970539  78.2193041  69.6810436  84.8865318
  78.1275892  70.2450657  85.6544495  79.1437054  69.4326925  84.8808002
  60.3956985  21.6058898  84.2003441  60.5605221  22.4763393  84.5628071
  60.5286932  21.7096782  83.2581234  55.4213858  21.6526794  76.0975122
  56.1717701  22.1859312  75.8352184  54.7423935  22.2888041  76.3223362
  56.9140339  40.9709644  91.0602093  56.5344858  41.6051626  91.6684628
  57.7877712  40.7967520  91.4101505  85.5747986  45.6796455  67.3181629
  84.8708820  46.3104820  67.1672297  86.3789368  46.1843777  67.1963644
  78.2718706  26.4062881  55.5651236  79.1292143  26.6642118  55.9037542
  78.0970573  27.0271039  54.8578358  74.2258358  41.7284870  87.8551769
  74.9388790  41.2796402  87.4009418  74.4527912  41.6612005  88.7826443
  81.8493366  36.7802739  79.3001270  80.9128189  36.6035914  79.3892813
  81.9120789  37.7352047  79.2801285  82.0834446  40.4651928  88.9419937
  81.6630936  39.6062231  88.9833546  82.8133965  40.3456306  88.3344555
  64.7347260  32.1266246  81.1632442  64.0495539  32.6335263  80.7275581
  64.2623901  31.5608096  81.7739677  83.3654690  47.9140139  71.3513136
  83.6751938  47.5029707  72.1583748  82.9497433  47.2024632  70.8643818
  81.8784046  54.9920130  80.6509018  82.5114155  55.6920862  80.4914570
  82.2160435  54.5346212  81.4209843  68.7864351  32.1251965  88.1950092
  68.1546068  31.5132570  88.5725784  69.0171814  32.7079630  88.9184570
  94.7530079  48.0262852  97.1942711  95.5840302  48.0246019  97.6692772
  94.8110008  47.2722626  96.6074944  60.2134037  48.4932041  97.3918819
  60.3221750  49.4437504  97.4211311  59.4948339  48.3532190  96.7751980
  55.9035730  55.4482889  89.8139095  54.9469709  55.4538727  89.8472786
  56.1718988  55.1551294  90.6847000  51.4899111  67.4524641  71.7069674
  50.8455086  67.4984360  72.4132681  51.2479019  66.6693878  71.2125444
  52.7139616  55.4226065  82.6966858  52.7159834  55.6941843  81.7788219
  53.6323881  55.2389479  82.8941441  44.6130800  74.7407436  85.4877472
  44.8979664  74.1015863  84.8346424  44.2172337  74.2137337  86.1818695
  35.9803104  54.4889164  91.1441612  36.1845326  55.3313208  90.7381058
  35.7942891  53.9067554  90.4074669  64.9739170  41.5310812  87.6212692
  64.2960358  40.8890915  87.4101830  64.6785212  41.9312000  88.4391117
  11.8036163  90.2449131   4.8752418  12.1286309  90.2634239   5.7753837
  12.4280751  89.6912670   4.4064596  73.2821274  47.7768135  81.6723919
  73.1422234  48.6518526  82.0342827  73.8462591  47.3408604  82.3110867
  56.0982847  48.0931234  74.2263651  55.7900953  48.9435720  73.9133263
  56.8828297  48.2954597  74.7360468  71.1923504  51.1890268  94.1701794
  71.7666912  50.5374050  94.5723724  71.6546440  52.0192719  94.2851257
  66.0861254  35.3975892  67.2132063  65.6383944  35.5250931  66.3768339
  65.5143023  34.8068333  67.7033663  58.3397102  47.2534037  95.5356598
  57.6336288  47.2846508  96.1811829  57.9540396  47.6218224  94.7408295
  78.2387447  55.5593729  85.3294754  77.4078560  55.8292675  84.9383068
  78.6090374  54.9393559  84.7012329  76.7275333  64.8415899  85.5611515
  76.0355473  64.8899651  84.9015713  77.4799728  65.2676105  85.1505756
  72.8220844  44.0261126  87.0405579  73.4895134  43.3408594  87.0059776
  72.3983765  43.9912748  86.1829567 117.2974491  49.1021633  23.7817025
 117.3558521  49.9637413  24.1946244 116.7300701  48.5958958  24.3630838
  71.7403030  51.8046761  86.0412979  72.1633482  51.3222361  86.7515850
  71.6871357  52.7050734  86.3617611   7.9213315  79.8823023   4.2992550
   8.7563270  79.4646692   4.0880758   8.1648737  80.7292271   4.6729407
 104.2081261 101.6020775   7.0341629 103.3750153 101.6535854   6.5656507
 104.1131592 102.2186565   7.7601403  79.9428415  46.0865211  67.1211100
  80.4787922  45.4817820  67.6342106  80.0938225  46.9414663  67.5242281
  78.6347389  48.9184809  62.4633932  78.8727951  48.0064678  62.2966766
  78.5456371  49.3057823  61.5925980  59.4532728  47.3304129  84.6907139
  59.2703629  47.4363232  83.7571430  59.0871429  48.1159115  85.0971317
  69.7805309  54.4518328  79.1133785  69.3195391  53.6404991  78.9001656
  69.2586279  54.8474932  79.8114491   9.3607718   3.4953949   6.5976781
   8.7706476   4.2488202   6.5793467   9.8165810   3.5685202   7.4362022
  79.0616894  25.5585265  73.6519289  79.1551971  25.2829337  74.5638132
  78.1270838  25.4643154  73.4678793  92.5508976  57.6128197  96.0374832
  93.4621525  57.5806332  95.7462788  92.4144840  58.5239649  96.2971687
  72.4419069  37.9696751  76.8600178  71.7593336  37.4860215  76.3948298
  72.9904699  37.2910762  77.2534847  40.1867485  14.9308264  17.6280093
  39.7656369  14.6726561  18.4479153  40.4657269  14.1053653  17.2317588
  63.4249878  53.9424372  83.8213634  63.5693884  53.1306267  83.3351994
  62.5351810  53.8609934  84.1646385  53.3163834  20.4645157  74.2870283
  52.3967838  20.6835508  74.4373465  53.6487961  20.2206039  75.1508808
  54.8345852   8.0445004  83.8421822  54.7616673   8.3438879  84.7484207
  55.7569265   8.1731653  83.6209106  59.4882536  99.8019886  21.6545820
  59.4001961  99.0446091  22.2332430  60.2918673  99.6349812  21.1620903
  73.7879229  39.3033314  72.8351068  73.8200808  38.8810325  71.9766998
  74.6896744  39.2665696  73.1540537  90.5748844  64.3099546  79.4716215
  91.4997292  64.4323540  79.2573118  90.1057529  64.6395731  78.7051392
  72.6324940  30.5800343  90.2300453  72.3592520  31.2216234  89.5743465
  72.3250484  30.9413838  91.0613918  75.2882338  44.3061638  94.3260479
  75.7369900  43.8583183  93.6089134  75.5652285  43.8361788  95.1125717
  11.2079084   4.6100271   1.8754137  11.3261092   5.2091372   2.6125214
  10.5475402   3.9862925   2.1772432 102.4393463  90.1823711  15.0994217
 102.1070671  90.7845688  14.4337082 103.2372665  89.8181915  14.7161031
  79.0253401  50.8154678  66.5468979  78.5949373  51.4856005  66.0159445
  78.9870501  50.0236797  66.0103941  66.2549877  21.1161351  85.3573990
  66.2183046  21.8522096  85.9681988  65.5249357  20.5536747  85.6160259
  62.9277515  61.9598913  82.9212379  62.1868134  62.4064684  83.3308792
  62.6263523  61.0598278  82.7976418  76.2795067  37.5384068  55.1063919
  76.5281677  36.6886544  54.7426319  76.2246752  38.1175566  54.3462563
  62.3060799  52.8763580  80.3319645  62.8419018  52.7254343  81.1106491
  62.5049067  52.1370268  79.7574377  64.9324512  45.2101278  72.7591705
  65.0878763  44.3751431  73.2006168  65.1805782  45.0495481  71.8487406
  45.2869320  74.3968391  72.3639107  45.8397913  74.4003582  71.5825224
  44.3931818  74.3478012  72.0247316  71.5077829  40.3375769  69.1456270
  70.6834650  39.8689389  69.0148449  71.9460821  39.8593926  69.8495197
  53.2403326  47.2047663  76.5590143  53.4213352  47.7431774  75.7885695
  54.0539789  46.7243528  76.7120075  88.3839226 101.4475250  15.8118665
  88.1085300 101.0584259  16.6419232  89.2212772 101.0269928  15.6163549
  44.8468256  65.8659124  95.0058937  45.2455235  65.3502655  95.7068729
  44.8321247  66.7607450  95.3454399  62.0700502  27.4453282  58.1252861
  62.1527863  27.4039793  59.0780067  61.1293125  27.3746228  57.9632711
  55.5109119  54.8868465  82.1264172  55.7710648  55.4963732  82.8170967
  55.8707619  55.2658367  81.3244820  55.5089712  45.8640623  75.9265184
  56.2210846  45.6500387  76.5292788  55.8926439  46.4941740  75.3166151
  47.5606155  14.1713953  96.2962914  47.0586729  14.9064779  96.6483402
  46.9712162  13.7597024  95.6643486  93.2996273  50.0766754  94.7506809
  92.7842903  49.2729378  94.6823692  93.4569454  50.1812887  95.6890488
  67.0173264  48.9469814  87.3682594  66.2132502  49.4619036  87.4357224
  67.0303917  48.4176874  88.1657028  95.9336376  60.7435608  85.5371761
  96.3330460  61.2055874  84.8001289  95.0380898  61.0795689  85.5735588
  57.0454311  56.3328791  86.0898590  56.9959879  57.1843719  86.5243053
  56.1335087  56.0555935  86.0018349  77.6609993  54.1691637  95.5034924
  77.3870754  53.7611055  96.3248825  77.4377775  55.0939322  95.6093502
  68.1286383  46.1235905  73.7039185  68.3828545  47.0416117  73.7979460
  67.4935055  45.9779215  74.4050694  72.1924734  90.3384781  93.2854080
  71.8892813  91.1510086  92.8803158  72.7934885  89.9605083  92.6434135
  12.3642194 110.3663445   3.4528384  13.1250215 110.6841087   3.9390874
  11.8401945 109.9013996   4.1051027  76.0599041  53.0204773  83.2208443
  76.9517803  52.8052521  82.9479694  75.8495331  52.3675394  83.8884163
  76.6829920  50.1792622  74.8918533  77.2424936  50.4809141  75.6075287
  75.8954954  50.7191658  74.9596024  16.5096986  96.2027836   5.1877660
  17.0317280  95.4170418   5.0254947  16.8805182  96.5757561   5.9875250
  85.8325195  52.0987940  84.7774410  86.3880634  52.1883583  85.5517673
  86.0584927  52.8522968  84.2320919  83.5812378  35.4662514  66.3131809
  84.2048931  35.3485060  67.0297194  82.8171635  35.8701563  66.7246246
  79.7713232  46.4146614  92.0109367  79.1735506  46.8632507  92.6089859
  80.4698372  46.0825682  92.5748730  85.6164932  60.6947374  73.4120941
  85.3287315  59.8527336  73.0593109  86.3979244  60.4855585  73.9238071
  80.0139904  64.9202871  76.6106176  79.8632717  65.8623505  76.5329790
  80.2240944  64.6372032  75.7207012 108.3696365  94.9025536   8.7413013
 107.6220894  94.6738243   8.1889504 108.6279869  95.7753944   8.4452760
  70.8164644  60.7854271  92.9205513  71.6975403  60.6274891  92.5814438
  70.9236240  61.5088749  93.5381031  50.3462076  48.1411743  88.6948204
  49.4023943  48.2429123  88.5719585  50.6985617  48.0839539  87.8066730
   9.5996863 104.2920399  19.8560882  10.1278758 104.1257763  20.6368589
  10.2403867 104.4465828  19.1619313  75.3563976  51.8277550  90.2163124
  74.6288395  51.2319660  90.3950024  74.9480057  52.6907539  90.1479149
  66.8042421  54.8695517  77.3994017  67.3579264  54.4871187  76.7186594
  67.0373583  55.7979202  77.4042416  98.4575844  46.8830347  86.0994339
  97.5687599  47.2352791  86.0531521  98.9936638  47.5234175  85.6317139
  66.1602497  36.6798091  79.1087055  65.4247093  36.3674283  79.6356153
  66.0198593  36.2893176  78.2461262  81.7473602  55.7993460  72.9439640
  81.7409039  55.4474258  73.8340998  81.5171242  56.7224073  73.0496740
  62.8579235  86.1201572  97.2490120  62.6011038  86.1598682  96.3277626
  63.7403727  85.7495594  97.2358894  67.3843336  61.9687414  91.2887859
  66.6035986  62.1250725  90.7575226  68.0535698  61.7022848  90.6584167
  81.8293858  63.5983944  97.3934174  82.4255180  62.9444408  97.7583885
  82.1733761  63.7737131  96.5175343  79.3208218  22.3909163  76.0016537
  80.1677799  22.5756812  76.4075565  78.8852692  21.7990899  76.6150618
  10.0204957 104.7601223   0.7718479  10.8010530 105.2950859   0.9160067
  10.2725947 103.8846207   1.0654005  94.7978592 109.5597267   2.2808567
  94.8208237 109.3566418   1.3457300  95.4874897 109.0156269   2.6611209
  79.7661448  29.3930435  69.4062567  80.0425720  28.5304070  69.7155714
  79.3782473  29.8103189  70.1754427  78.1602859  74.0824890  87.9001808
  78.0686808  74.6344280  87.1235180  78.3874226  74.6924400  88.6020374
  73.7829399  51.3962984  69.7348928  73.8959408  51.0797453  70.6311369
  74.3353939  50.8206129  69.2061090  39.0302277   0.6822412   5.7608885
  38.4551954   0.7428271   4.9980652  39.8999143   0.8957068   5.4227966
  37.1632385  30.0767732   5.0153279  37.6649547  30.8629990   4.8000100
  36.4234805  30.3983712   5.5306578  84.0680027  48.8932276  69.0253401
  83.8553143  48.4879827  69.8660326  83.6448193  49.7511387  69.0591145
  84.4978142  64.1911650  84.8643970  84.7093010  64.0603065  85.7887268
  84.9909592  64.9724483  84.6141434  31.5439034  97.6174736   3.4391841
  31.7266393  98.5092640   3.7350455  31.4429760  97.1132374   4.2465201
   2.1305382   9.9035782   1.6887355   1.2371333   9.5632356   1.6415495
   2.0269565  10.8543909   1.6505694  51.2646627   3.5837781  17.5119913
  50.9800434   4.0961230  18.2687807  50.5105829   3.0347383  17.2971559
  37.8012061  29.8965693   8.2171267  37.8203321  29.0256739   7.8203779
  38.3913851  30.4198384   7.6748067 100.1624203  42.2129059  86.7821503
 101.0712910  42.4138165  87.0053673  99.6957779  43.0385113  86.9119930
  90.3026009  45.7726383  88.5037231  90.4729176  46.7100620  88.4117317
  90.5554295  45.3992891  87.6593685  96.4796925 110.5483723  11.0754383
  95.6438160 110.1772881  10.7928705  96.8853664 109.8555374  11.5966189
  73.9178419  46.2577391  78.8806963  73.6500788  46.3452387  77.9658842
  74.4890118  47.0099688  79.0360737  63.8283634  61.6169167  91.4797306
  63.7816620  60.6609964  91.4632130  64.3434286  61.8449545  90.7058144
  83.6691093  35.4500604  77.2628403  83.3019066  34.5747447  77.3861837
  83.2776070  35.9746337  77.9612541  81.9554806  40.4142284  85.5271626
  82.3877525  40.9774494  84.8851681  82.4653530  39.6041942  85.5169392
  77.9365683  74.7083282  96.2039375  78.8883924  74.6143579  96.1661148
  77.7333307  75.3596830  95.5326176   2.1479551  95.6501102  14.5977390
   1.3384132  95.4134274  15.0503469   2.6119986  94.8202419  14.4872332
  48.4577274  15.7590652   0.7607643  49.0146255  15.0336993   0.4780229
  48.6346531  16.4568698   0.1298925  87.3913956  62.1831608  77.8851795
  87.6767921  61.2799406  78.0229187  86.8357372  62.3765564  78.6402130
  83.3051395  57.1712255  79.8203611  84.1598797  57.3617792  80.2068043
  83.0875301  57.9579735  79.3204594  79.9491787  51.9262934  85.5962753
  79.2315435  52.4519205  85.9497547  80.5965233  51.9000864  86.3008976
  72.4561644  50.5214405  83.7471390  71.7311478  50.6850719  83.1439686
  72.1311665  50.8162260  84.5978546  81.4875984  59.6753263  93.5896015
  82.1805573  59.5332813  92.9447269  81.9523430  59.9099302  94.3928432
  93.5269165  74.5603275  95.6131840  94.2397022  74.7352839  94.9987316
  93.8337803  73.8155031  96.1301994  60.1933956  59.2803526  91.1099625
  59.7062731  59.7716045  90.4484367  60.9152985  58.8785648  90.6265736
  95.3106213  36.7699194  94.9617863  95.0487328  37.6768517  94.8033047
  95.0741100  36.6084385  95.8751392  88.3157635  50.4805946  92.3702431
  87.6769352  50.6251669  93.0682564  89.0361214  51.0757780  92.5778008
   6.8171340  97.1925735   2.0217003   6.2240666  96.4413071   2.0114782
   6.6000104  97.6799583   1.2270004  78.8526106  57.2921181  75.3361320
  78.1243896  56.6708946  75.3341866  79.0037727  57.4810648  76.2622404
  24.6081400   5.0864267  35.1224256  23.6780167   4.9945223  35.3289604
  24.9789476   4.2214951  35.2974296  53.0693483  46.6965055  94.5848465
  52.3548365  46.8513346  93.9669991  53.6370993  47.4614143  94.4910049
  66.5774965  52.1149778  73.2238531  66.8607569  51.3006306  73.6395836
  66.5064478  51.8973207  72.2944403  50.2469492  32.6292467  97.2780132
  50.5357981  31.9214773  96.7019367  50.6521845  33.4157896  96.9128132
  70.6233549  80.0860310  82.7776623  70.2386093  79.7503996  81.9679928
  70.6530857  81.0346699  82.6534462  73.2853842  48.6990643  74.9003410
  73.8581181  48.4837961  74.1642284  73.2411194  49.6552372  74.8977327
  76.4147854  51.2277937  80.3574181  75.4886007  51.4398146  80.4734612
  76.8560886  52.0771742  80.3520679  63.9562941  50.3389597  87.7674866
  63.2300997  49.7434568  87.9525566  64.0691662  50.8377600  88.5766125
  82.8907490  67.7102947  87.8817654  82.4610329  67.0568752  87.3298550
  82.4915981  68.5412788  87.6241207  63.4263372  55.3780699  80.1369381
  64.3297958  55.2088308  80.4040623  63.0924654  54.5228577  79.8660755
  78.5093069  67.4434614  75.1895428  77.6158047  67.2924805  75.4979134
  78.5720396  66.9368649  74.3798161  93.4300137  53.1952953  95.8885860
  93.5757828  52.4551678  96.4778137  92.8174973  53.7598276  96.3601303
  48.7129545  17.4522245   4.0841049  47.7862644  17.4374926   4.3233794
  48.7291098  17.8484535   3.2129139  73.6432981  38.1078959  67.8246546
  73.4131956  37.8626537  68.7208366  74.2547274  37.4286842  67.5399542
  39.6152854  29.4274592   2.8188288  39.5877171  30.0696230   3.5281223
  39.6861386  29.9533868   2.0222044  73.0675507  90.9906006  87.4395370
  72.4771786  91.7203426  87.6270676  72.5281668  90.3640270  86.9571400
  48.7928009  19.9406767   2.5092989  49.6603346  20.3430653   2.5504959
  48.1869698  20.6580400   2.6952812  59.7871780  51.1501789  85.8366013
  60.2339363  51.3990879  86.6457272  59.2079782  50.4328012  86.0937500
  76.0782528  50.2517033  87.7248096  75.4231882  49.5539999  87.7430153
  75.9927940  50.6827259  88.5751915  72.4824572  44.6007013  75.5924606
  72.0563364  43.8298798  75.9672737  71.8714094  44.9109745  74.9241924
  64.8529530  60.0402975  70.6673574  64.0959454  59.4578552  70.6046867
  65.4158068  59.6316147  71.3249350 111.4889050  37.4441671  78.4695482
 112.0139313  38.0932713  78.9377928 111.9608307  37.3010683  77.6491547
  65.8274078  58.1484842  80.9027481  64.9085617  57.9315042  81.0604668
  66.2930727  57.7781439  81.6525650  39.1486001  55.3637457  96.2217903
  40.0090361  55.7298994  96.4262772  38.5474920  56.1040735  96.3043594
  30.3043365   0.6849635   5.4083008  29.7300720   0.9120409   4.6769416
  29.7122073   0.5732621   6.1520326  90.1708984  61.3922215  80.3008366
  90.8925343  60.9699965  80.7668877  90.4261684  62.3132467  80.2480698
  76.3042212  53.6352205  70.5646467  76.4003325  54.2597294  71.2836599
  76.4565086  54.1540480  69.7747993  81.8543053  55.3599405  93.8624096
  81.5267181  54.5983171  93.3840275  81.8633938  56.0641909  93.2141972
  78.3960056  59.4962740  85.4348373  77.7310181  59.8494196  86.0258579
  77.9040766  58.9568186  84.8157787  70.9071207  44.2960882  71.6784334
  70.2098751  44.0092134  72.2681665  71.6101742  43.6603165  71.8116331
  74.6954679  61.5356112  84.7841930  74.0523577  61.1625481  84.1813087
  75.5024576  61.5867853  84.2719555  72.8064108  31.9013453  75.5326033
  73.2581472  31.3999200  74.8538256  73.5032558  32.1858406  76.1239576
  62.3196363  25.3621888  77.8115845  62.0881653  24.9802780  78.6582232
  63.2602215  25.5287695  77.8730869  33.0567622  19.3980420   8.2988757
  33.7868857  19.1082561   8.8458449  33.4372449  19.5015144   7.4266607
  68.4099007  46.6587734  76.9987869  69.1883039  47.1947479  77.1506071
  68.6137486  45.8186054  77.4096346  92.0697975  47.0730877  83.0363846
  92.4143028  47.4583340  83.8420677  92.2299480  47.7371216  82.3658276
  68.1099129  72.4047756  92.9406357  67.6307726  72.3544502  93.7677479
  68.9419508  71.9663572  93.1187725 109.1357422 111.1485004   7.7522469
 110.0601292 111.1635208   7.5042415 108.8724327 110.2351093   7.6399004
  60.1603031  43.9937925  79.1513443  59.4897079  43.4385443  78.7535620
  59.6729231  44.7289181  79.5232058  79.9488497  55.4296064  87.7395153
  79.2181826  55.3196287  87.1310234  79.8619938  56.3280058  88.0582047
  71.0626316  58.7217855  90.0248432  71.3313389  58.6186981  89.1119289
  71.8704414  58.9415598  90.4889297 119.0461159 107.1983147   3.9942539
 118.3811283 107.0701981   3.3177882 118.6766720 107.8683186   4.5694464
  26.6636467  15.5120599   4.9979836  26.8084407  15.5270958   4.0519178
  26.1905456  16.3238370   5.1808089  57.8395748  69.5679808  87.2180176
  58.4317875  69.2556715  87.9021072  56.9656134  69.3416214  87.5361252
 112.9139614  38.6272812  82.7556038 112.2121620  39.2348027  82.9893303
 113.6788273  39.1862226  82.6184750  86.6023731  40.9861898  63.7650490
  86.5688324  40.7379627  64.6888924  85.8680534  40.5203342  63.3650637
  93.6906052  68.2120466  87.2529697  93.5339165  67.7480221  88.0753803
  92.8970528  68.0629492  86.7388916  70.1677942  43.6892223  80.4998398
  70.8029604  44.2258072  80.0256252  70.7011032  43.1290245  81.0637474
  73.3473301  36.6140485  82.3049927  72.7567434  36.0261106  82.7759171
  72.9135036  37.4666357  82.3385429  58.3306217  48.8777971  86.5709305
  57.4396324  49.0713453  86.8623161  58.6290836  48.1832600  87.1581078
  74.0806389  65.3929615  92.2297573  73.9394760  66.2385225  92.6555824
  74.9120522  65.0807858  92.5868702  15.0482857  34.0462112  10.3580558
  15.7937777  33.8022256   9.8094714  14.9138093  34.9769044  10.1792920
  94.3658829  25.9957838  82.1032047  95.0227547  26.6043520  81.7649937
  94.8730278  25.2504182  82.4248600  69.7392654  35.3103852  77.9369736
  69.1450405  34.9307990  78.5843134  70.6139994  35.1442623  78.2883692
  93.6914825  41.7563868  78.3187199  93.9092541  41.9802237  79.2235422
  94.1969776  40.9634686  78.1398392  72.2313976  59.6881676  85.4501343
  72.0493031  59.4699001  84.5361137  73.1523561  59.9490166  85.4551888
  64.0714312  42.2551155  90.1257515  63.5919142  43.0300808  89.8329735
  64.5857286  42.5599241  90.8732986  79.7956085  32.6214623  93.4881783
  80.1228142  32.4574614  92.6037121  78.8498783  32.4893999  93.4220028
  82.5706291  66.2043190  83.4179974  82.2610664  65.5067921  83.9958000
  83.5247612  66.1628437  83.4823322  83.5804653  59.3534279  91.6968060
  84.3115425  59.0349102  91.1673641  82.9545689  59.6966314  91.0590744
  95.0368500  64.2002773  86.7983532  94.4471931  63.5744762  86.3777447
  95.6291771  64.4781113  86.0996437  80.2284718  73.0185843  76.3799572
  79.9713135  72.8830099  77.2919416  79.6088934  72.4914408  75.8755016
  15.1067877  16.6299915   5.9885937  15.5292392  15.8985651   5.5382800
  14.7377360  17.1635783   5.2848053  66.7822981  50.9349585  91.9401264
  65.8354378  50.8784962  91.8116951  66.9162846  50.6751728  92.8516006
  87.7225113  48.2104206  75.9588146  87.0075893  48.8351202  76.0807180
  88.3378506  48.6605787  75.3800678  91.9410610  55.7492828  94.3780899
  91.0940170  55.3123045  94.4664192  92.0352650  56.2545538  95.1855850
  88.0655003  61.4988470  82.0855427  88.6364269  61.5366411  81.3181686
  87.7031708  62.3818350  82.1582127  76.8429422  54.7894192  88.8363457
  75.9118700  54.9456215  88.9942551  77.1537733  55.5940247  88.4213352
  92.0642281  74.0506744  88.4717178  91.5760612  73.8848639  87.6652241
  91.3951969  74.2977285  89.1101551  87.8532982  58.0105114  92.8274632
  88.7669468  57.7424717  92.7293110  87.8516102  58.9415216  92.6050758
  52.9687738  20.1567793   0.7756468  53.5897541  19.5399547   0.3881714
  52.2423887  19.6095872   1.0742769  73.3786201  55.7165670  80.0407219
  74.1991043  55.5361319  80.4995060  73.6110353  55.6844616  79.1127205
  92.7518082  66.7243338  89.6220875  92.2016335  66.0196304  89.9640465
  93.6429596  66.3786888  89.6731377  10.9982228 102.5337982  27.4805641
  11.4984071 101.9260120  28.0252171  10.1521122 102.1037006  27.3567080
  85.0093365  51.9372463  70.8348083  84.3685627  51.6274500  70.1947498
  85.6024742  52.4935818  70.3299189  79.5617485  61.4004660  78.7934113
  78.6999369  61.2437916  78.4074545  80.1519489  61.4665270  78.0427265
  86.9132805  55.1896000  73.7523794  86.0934448  55.1821995  74.2463827
  87.1524715  54.2663097  73.6714172  77.7759647  65.5667162  80.6844616
  78.5753345  66.0865259  80.6005573  77.4292421  65.5151033  79.7937584
 101.5461349  34.5933247  85.4445457 101.7826080  35.2191758  84.7599888
 101.8241215  35.0126696  86.2588596  87.5564766  52.2824192  86.8871975
  88.3313370  52.8420639  86.8360424  87.0853615  52.5956392  87.6593208
  10.7951605 107.4594784   2.7744278  10.5269313 107.9996204   3.5177520
  11.2677014 106.7265511   3.1691000  50.8465576   3.9490092   5.7014382
  51.2230968   3.8634491   6.5772980  51.0605145   3.1233239   5.2670437
  15.2909088  14.1141856   0.9189130  15.9053457  13.3935618   0.7796244
  15.7226515  14.8754060   0.5311314  79.1082668  53.7203407  83.6254311
  79.5317554  52.9454756  83.9948559  79.2624378  53.6512756  82.6832485
  55.7354021  61.6799212  81.5526009  54.9753237  61.3197899  81.0956383
  56.3634253  61.8739700  80.8567810  71.1260509  56.5338612  81.8163109
  71.5614128  56.1564159  81.0519600  71.3819504  55.9654522  82.5427055
  75.4974937  31.8506551  57.9031277  75.5528116  32.5365663  57.2377729
  75.4128933  32.3253441  58.7300158  76.2642956  31.3441586  69.4368601
  75.6696653  30.7160091  69.8468351  77.1315098  31.0984874  69.7590542
  79.4543076  57.9968977  81.9308949  80.1440620  57.8550053  82.5792217
  79.3812132  58.9489174  81.8633938  96.5820885  43.6532021  69.8323679
  96.6581726  44.4656086  69.3319273  96.8714142  42.9708052  69.2266798
  86.7366982  50.7397318  80.2212143  87.0745945  50.5390501  79.3484116
  86.1879349  51.5135431  80.0935173  89.2143250  59.3639755  71.3849592
  89.5722866  58.6182880  70.9032488  89.9270439  59.6418810  71.9603157
  95.7877350  42.6130724  82.5819874  95.0500298  42.4454165  81.9955540
  95.7497692  41.9036674  83.2235050  98.2720757  84.0650940   0.9234779
  98.1601715  83.2884502   1.4716834  98.5687351  84.7447491   1.5287021
  55.6969166  49.8194027  87.7561569  55.3886604  50.2408457  88.5584068
  55.0082350  49.9931669  87.1144772  61.1124420  54.5947313  86.8195057
  60.3192663  54.5422935  87.3527527  60.8518267  54.2448473  85.9675121
  91.7635155  70.0279665  74.9575996  92.4135017  70.7287645  74.9063301
  92.0599079  69.4790268  75.6835794  91.7763042  54.9607468  68.1385803
  91.1637688  54.3956280  68.6093950  92.6367569  54.7196531  68.4817028
 100.3811073  94.1741848   0.5289343  99.8201180  93.9891338  -0.2242401
 100.7765579  95.0229359   0.3302385  59.7087479  17.9573452  18.8345277
  59.4797516  18.8862026  18.8664317  59.8869371  17.7862191  17.9097593
  60.6856441  76.6435385  92.7558422  60.0220776  76.6310883  93.4455967
  60.2198029  76.3573742  91.9701385  96.3024139  48.3921051  87.4434376
  96.1372471  49.0490294  86.7671204  96.7224503  48.8788176  88.1525993
  82.6276302  52.9972410  63.7511492  82.5302315  53.8678169  63.3653498
  83.4299374  52.6506472  63.3607483  71.2653446  56.7750263  77.6668739
  71.1872244  56.3025427  78.4956598  71.6014004  56.1240530  77.0508099
   3.3691904   5.5292392  12.1443450   2.4646431   5.4038870  12.4312472
   3.5260895   4.8142731  11.5275478  96.0175991  43.8567352  87.1868324
  95.7756615  44.0201521  86.2752438  95.2586269  44.1482353  87.6920128
  61.8202877  65.7285357  83.7036324  62.4372530  66.4603567  83.7082386
  62.2363424  65.0610685  84.2491722  91.1327839  51.2995911  93.4997082
  90.8271217  50.4707575  93.8682652  92.0139980  51.4100027  93.8567829
  22.4353790   0.5572634  20.8136439  23.1259489   1.2036752  20.6670237
  21.9641757   0.5172221  19.9814200  98.4765911  90.4565239  82.1624565
  97.9227543  90.8645344  82.8280544  98.0293941  90.6366062  81.3355160
  90.3213692  79.4222975  90.0359344  89.5964241  78.9395142  90.4329300
  90.3213978  80.2671432  90.4858971  85.0471687  91.6979790  93.8786125
  84.8413658  92.6327610  93.8863945  85.0528526  91.4462852  94.8021126
  82.3252678  92.6432610  89.3315315  81.8876839  92.0934868  88.6815262
  82.7204609  93.3497143  88.8206768  89.4539261  81.8515110  90.4874325
  88.6344910  82.3446941  90.5265236  90.1305389  82.4939251  90.7012749
 101.4029980  75.5211592  93.0889893 101.3332748  75.0728083  93.9318085
 100.5268097  75.8729744  92.9316425  24.6450186  27.0459414   7.9533553
  23.7818670  26.6697311   8.1256008  24.4608736  27.9178786   7.6040024
  50.9894800  17.9116762   0.6098011  51.3441944  17.4426949  -0.1454911
  50.1030588  18.1570446   0.3446881 105.3697300  66.0312128  79.9192333
 106.2877750  65.8603668  80.1295757 105.3528976  66.9491100  79.6482897
  87.6228714  85.2948856  71.6155338  88.4689808  84.8818874  71.4430332
  87.2063732  85.3557968  70.7558489 102.1026802  85.4191875  82.8072071
 102.9035473  84.9333763  82.6101494 101.7631531  85.0087833  83.6025143
  86.9268513 100.2146626  88.9949226  86.3837337  99.9359035  88.2576561
  87.1637821 101.1190128  88.7894058  77.0552540  61.1086750  77.6949215
  76.2459660  61.6072512  77.5821877  76.9471598  60.3451681  77.1278238
  50.3826141  29.9777818   1.7394748  50.9024429  30.1978421   2.5125077
  49.7358847  30.6807423   1.6776863  34.1713309  28.5583639  13.2629108
  33.7595296  27.7044916  13.3953881  35.0199199  28.3564520  12.8687537
  85.5116272  56.0102987  92.6698971  85.9570599  55.1764441  92.8199291
  86.2004375  56.5970039  92.3575878  87.9382420  68.4405947  81.8752384
  87.3265743  69.0832806  81.5159988  87.5422096  67.5932455  81.6718006
  88.7728786  82.5266075  82.2216702  89.5680237  82.5193596  81.6888237
  89.0636444  82.2467327  83.0896282  33.0372119  11.0169542  15.7571137
  32.2471046  10.6360745  16.1403823  32.7609110  11.3226569  14.8931479
  95.5405140  54.7274685  84.4117355  96.1480141  54.2203522  84.9502659
  96.0926533  55.3739786  83.9719677  22.1139550  20.3710914   4.8880917
  21.2087584  20.5041552   4.6067673  22.3328853  19.4908834   4.5822573
 106.4612389 100.6814480   1.2953261 106.6645336 101.3086987   1.9892040
 106.6843605  99.8293018   1.6698697  91.5042782  75.9959698  78.7744427
  90.9992599  76.0646009  79.5846748  90.8690739  76.1729097  78.0805826
  32.2160578  10.1869297   4.3832430  32.3883343  10.9811807   4.8889285
  31.5603209  10.4513264   3.7380019  90.7490253  85.5097675  83.3099079
  90.4579258  85.1225185  84.1354561  91.1419964  84.7813416  82.8290749
  43.4974480   8.8798755  17.0357370  42.9777145   9.6574354  17.2394753
  44.3991041   9.1985327  16.9944334  50.6003714  50.9639406  88.3121014
  50.0594902  51.1603880  89.0770054  50.6812668  50.0101662  88.3145332
  37.4028182  14.1116118  14.4005322  38.2220244  14.5299983  14.1357958
  37.6711082  13.4239042  15.0098848  73.8943529  93.2871342  89.5269108
  74.7732496  93.2627010  89.1485310  73.8713503  94.1031837  90.0266838
  78.7381554  78.4303141  92.2387886  77.8544760  78.1318521  92.4538708
  78.6208248  78.9956951  91.4753628  65.7313251  80.2047253  86.9978523
  66.4978647  80.1929665  87.5710106  65.5732489  81.1334419  86.8283272
   5.6297040  15.1445723  21.8447161   5.5406457  14.5345843  22.5769830
   6.5441471  15.0620735  21.5741253  77.0064402  79.4940138  87.3006821
  76.6394234  78.6491156  87.0405293  76.4669800  80.1400661  86.8447971
 100.6815243  68.5918427  76.1684799 101.4606380  69.1208315  76.3398886
 100.0203037  68.9381361  76.7677402  10.3751051  32.6647425   6.9215930
  11.0011446  33.3332062   6.6432726  10.0732720  32.9618549   7.7799940
  70.7629728  78.8976383  96.5933037  70.3759050  78.3576679  95.9042168
  71.2995195  79.5364857  96.1240196   4.8950344  65.9745598  63.7943745
   5.4772139  65.4475737  63.2470322   4.0256935  65.8417511  63.4164286
  34.6050620  24.8245645  16.8079650  34.1993070  23.9643550  16.7000985
  35.5449510  24.6561265  16.7411125  29.7551823  23.4267402  14.3407643
  29.6989202  23.8390541  15.2027750  28.9001441  23.5880232  13.9418530
  62.6678753  73.8174677  88.5667706  62.4596596  73.4592485  89.4296455
  61.8188477  73.9096117  88.1344509  22.8256798  21.2544513  11.8514609
  22.8959370  20.4450011  12.3575091  23.2445359  21.0511756  11.0151172
  59.9315739  70.4128504  90.8007717  60.3777552  71.2233877  90.5554485
  59.0901184  70.7004166  91.1550140  45.6513357  24.4658589   1.2544326
  46.2636995  25.1831365   1.4179902  45.0766468  24.7945094   0.5630893
  67.0383072  78.8178778  91.6257477  67.9792976  78.8267279  91.4505672
  66.7649841  77.9236460  91.4211082  35.9877658  17.3114562   2.7027413
  36.6551709  16.6265810   2.7445185  35.3417349  16.9786513   2.0797499
  75.8030224  77.2724724  83.8585186  75.2830601  76.9819546  83.1092072
  76.3656044  77.9623318  83.5066319  83.6541748  73.1864405  95.1045895
  83.1261730  73.5441113  95.8184052  83.1701469  73.4147739  94.3109798
  94.0326309  78.1494904  80.1405525  93.9357567  77.2892475  80.5489922
  94.9448109  78.3901691  80.3024960  82.6095867  96.0013580  79.8850107
  83.4651375  96.2772942  79.5561743  82.0279121  96.0720253  79.1281223
  25.1275730 111.9636440  12.0805240  24.5268083 111.6697884  11.3957131
  25.9990335 111.8344975  11.7062140  85.3848743  67.0164919  81.1033726
  85.4960918  67.5820827  80.3391933  84.8047543  66.3174772  80.8015823
   5.7425642  27.7874827   6.5820968   6.0341108  27.7179790   7.4911630
   5.6990224  28.7291312   6.4158630  75.2005291  81.6771412  91.8925285
  75.3699160  82.6190281  91.9119549  75.7015562  81.3284302  92.6298237
  81.7818451  75.6815863  88.4125996  81.2999725  76.4085722  88.8069534
  81.2650394  74.9057627  88.6299706  77.1234560  68.7709475  93.5321426
  76.5567493  68.7944555  94.3031979  76.6395521  69.2568350  92.8643322
 109.7614098  70.6417418  90.7004642 110.5652332  70.3200245  90.2922916
 109.1241837  69.9416161  90.5590725  80.4661751  66.7071199  80.7280922
  80.8172321  65.8292961  80.5783749  81.0791206  67.1083403  81.3441753
  92.4970150  90.5219650  82.3713112  92.7183533  89.6104145  82.5619030
  91.8292999  90.7468128  83.0192566 107.0853710  87.9239941  71.9704676
 106.3064289  87.4286938  72.2237253 106.8318176  88.3734035  71.1642599
  89.9210930  94.9394035  84.6295071  89.1653252  95.2048397  85.1535130
  89.6275425  95.0295830  83.7229156  75.5975389  48.2468367  90.2890015
  75.5033684  47.3669958  90.6540394  75.2795172  48.1682920  89.3896008
  78.3874655  71.1771059  74.8310709  77.4933767  71.5175629  74.8006773
  78.3544207  70.4749393  75.4807615  55.0297213  23.9363861   5.6348747
  54.6219826  23.9907575   4.7705686  55.4031134  24.8059416   5.7786840
 101.0923576  52.6846457  86.3057995 100.6086826  52.4515486  85.5133629
 101.6711998  53.3963060  86.0324669  69.0769434  51.5459204  84.9970627
  69.9257135  51.6483736  85.4275513  69.2866373  51.1780500  84.1386127
  84.4942665  76.8727064  90.2599621  83.9463806  77.3927498  90.8478451
  84.1834641  75.9746695  90.3747368 105.3045559 110.0929451   1.1028051
 105.7703304 109.3138218   1.4065133 105.2368832 109.9772930   0.1550302
  96.4974689  79.3738174  93.1263924  96.7603302  78.8287258  93.8680267
  97.1844101  79.2378044  92.4738216   7.9000229  10.6941354  10.8262706
   7.4047858  11.0653639  10.0960910   8.8104266  10.9229922  10.6391287
  98.1672573  58.8033438  86.0885525  98.5046101  58.4014511  85.2879906
  97.7574348  59.6166563  85.7939339  93.7473869  55.1061153  71.9570637
  92.8370476  55.3950977  72.0203018  93.8696098  54.9006319  71.0302067
  29.9787903  34.5283604   2.6146695  29.4471836  35.1705861   2.1443807
  30.8637810  34.6529198   2.2718737  59.7173309  40.4913855  91.9672012
  59.5631504  39.5728683  92.1880722  60.4979277  40.4767847  91.4134026
  43.5837078  21.6787720  10.7982337  42.6396418  21.8355417  10.7781756
  43.8400269  21.8752050  11.6993141  69.6922541  89.6138668  91.4951706
  69.2496490  89.1608238  90.7774734  70.5041361  89.9407578  91.1075783
  37.8437734  27.5747466   3.6862695  37.5402594  28.2520604   4.2907196
  38.7202501  27.8597045   3.4277788 110.7243919  73.2524109  76.0703993
 110.0745964  73.6948967  75.5243158 110.3227520  72.4107695  76.2861681
  24.1932058  29.7236109  16.7561162  23.4545040  29.3842196  17.2614551
  24.9672556  29.4274449  17.2350347  41.9646215  45.1484203   2.6250416
  42.7504921  45.0033998   3.1519252  42.1599245  45.9345055   2.1149793
  70.1106882  73.5289812  84.2838097  69.4033384  73.0496120  83.8524342
  69.7058105  73.8985348  85.0685024 111.2806511 106.0438251   2.3630850
 111.4488602 105.4480076   1.6330579 111.8737888 105.7492638   3.0542064
  29.2247772   9.5349067  19.7092152  28.9666343   9.6335667  20.6256533
  28.4519792   9.8036569  19.2124367  31.2047529  87.3385143  19.3389332
  31.2535119  88.2434368  19.6471083  30.2882957  87.2194576  19.0896082
 116.7742538  99.9943066  30.6698394 116.0830212  99.7084332  30.0725889
 117.5648975 100.0112152  30.1305485  77.1230745  79.7689533  80.7858849
  77.4053574  79.9018812  81.6908073  76.1903477  79.9839354  80.7919216
  24.6413517 110.9689808   7.5631374  24.0446544 110.3852558   7.0946783
  25.3130007 110.3882217   7.9206789  78.3285046  90.1985836  97.3575687
  78.3161640  90.3489304  96.4123344  77.7973413  89.4120598  97.4819469
  78.7302446  60.1574230  95.9700298  79.1482353  59.3240118  95.7533836
  78.8552332  60.2496719  96.9145393  72.4866152  96.6821575  94.0322399
  72.9899549  96.2087631  94.6946430  73.0605078  96.7051792  93.2665062
  92.6848412  68.3635426  77.0379019  92.4710751  67.4831629  77.3468733
  93.2096577  68.7437439  77.7423525  93.7895393  70.8148432  86.1698055
  94.5182800  70.8925247  85.5540562  94.0662575  70.1346588  86.7838097
  42.8964090   4.0743771  15.2190161  42.3510599   4.8607996  15.2381051
  43.7926579   4.4057301  15.1626194   0.7835421  94.0964699  81.6959858
   0.6289805  93.3707523  82.3006916   1.6973130  94.3405056  81.8432903
 104.0527439  68.1120396  82.2783661 104.5290184  68.9257002  82.4437523
 103.1663036  68.3948278  82.0536327 117.8555679  81.1217117  87.8000641
 118.4586811  81.4495468  87.1329594 117.7384090  80.1967812  87.5832844
  81.7693520  79.8243189  84.0370369  82.2824955  79.2078352  84.5594025
  82.1319962  79.7500896  83.1543064  50.3929043  13.4825528   8.4882194
  49.8102093  13.4974110   7.7289587  50.8417940  14.3275702   8.4622091
  79.2303610 102.1684647  77.1763659  78.7077332 101.5985203  77.7405024
  79.3585730 101.6603279  76.3753748  30.7784081  10.1209128   7.9353106
  31.6065311  10.3420949   8.3613670  30.8123422  10.5770421   7.0944613
  50.8769941  12.3736453  15.8272541  50.6774807  12.6614892  14.9364281
  51.7692232  12.6825190  15.9845889  70.5767536  82.6250362  81.3203335
  70.6236935  83.5801220  81.2772751  70.5599880  82.3445702  80.4052925
  82.3976803  68.7303162  82.2935772  82.8594971  69.3211985  82.8883934
  82.5840759  67.8549433  82.6329994  23.2019448  14.2890275   2.7506793
  23.7879181  13.9025903   2.0998849  22.4066830  13.7585437   2.7019036
  98.6753654  81.3157082  87.7098370  97.7217388  81.3466072  87.7865601
  98.9689541  80.9196663  88.5303116  77.2569132  91.6791153  82.3061943
  77.5451469  91.3723469  81.4465141  77.4355030  92.6194668  82.2972012
 106.1677074  85.9170818  95.5720520 105.9266949  84.9961185  95.4722118
 106.0992908  86.0819721  96.5124607  59.4520664  56.5371895  77.8444195
  60.1120853  57.2288609  77.8913307  59.8263550  55.8144093  78.3481359
  28.1073380  14.6292448  11.6142333  27.3810339  14.0990186  11.2862504
  28.7368679  14.6452165  10.8933520  86.0858917  97.3780251  84.2148972
  85.6313324  97.9596615  83.6055470  85.9027576  96.4974880  83.8872528
  87.1857262  83.9318466  80.1430511  87.6696491  83.5669041  80.8839130
  87.2249031  84.8791409  80.2746487  71.0742569  14.6333206   1.0714545
  71.4686346  13.8062596   1.3483429  71.5305376  15.2999818   1.5848766
  17.0605350 103.7709522   3.0743033  17.9011738 104.2287159   3.0721042
  17.2933924 102.8425694   3.0850458  81.7540359  70.2374506  87.3048210
  82.5554371  70.5925941  86.9202900  81.2748909  69.8693132  86.5624332
  79.1131163  63.3826494  87.4792099  78.1662750  63.2440615  87.5018692
  79.3892622  63.0131245  86.6405010  36.1467981  16.9484711  11.5267718
  36.7689061  16.2884772  11.2207973  36.6390491  17.7691519  11.5066743
  33.6676788  38.7764239  14.4121349  33.7160540  38.6681509  13.4623086
  34.2368221  39.5234203  14.5973420 105.8011150  41.6672945  93.1813335
 106.1143303  42.2977877  92.5327873 104.8575497  41.8211412  93.2287025
 116.2487984 110.1705933   4.7096896 115.4027367 110.6139946   4.7714218
 116.4839554 110.2311611   3.7838045  83.9386082  62.8468370  76.3531542
  83.9254856  61.8911362  76.4050817  84.5317268  63.1166744  77.0543194
  89.7851086  76.3634253  80.9286213  88.9292526  76.7807865  81.0263824
  89.6748734  75.4965544  81.3192749  42.7997160  13.5871112  11.6609669
  43.5499239  12.9930747  11.6841769  42.6733208  13.7770998  10.7313645
  40.3085041  27.5827742  10.2099204  40.9789896  27.5866389  10.8930504
  39.9031973  28.4480333  10.2672243  67.8190708   8.7392163   4.3034866
  67.3093081   8.9994287   5.0707299  67.2095394   8.2249576   3.7741086
  75.6914425  69.7682428  91.4455128  75.1316214  70.5441332  91.4167500
  76.2248516  69.8282433  90.6529903  27.7251339   2.6520082   8.5493749
  27.7486706   3.5306430   8.9284247  28.3811021   2.1603264   9.0435284
  78.7995052  71.4388943  90.3488636  79.6971416  71.2474871  90.0771141
  78.2583475  70.8580494  89.8140812  88.4997845  45.5988932  55.5499315
  89.1601849  44.9060869  55.5612564  88.5762596  45.9884739  54.6789503
  93.8132858  87.3571110  91.3179016  92.8962421  87.1122074  91.1942482
  93.8555241  88.2733250  91.0440636 110.9863758 109.1069412  86.7170525
 110.6890869 108.6026096  85.9597588 111.1173916 109.9926376  86.3785172
  63.7908173  54.2426920  94.3932152  63.6616516  55.1134729  94.7690868
  64.6436930  53.9625311  94.7253895  76.8154049  47.4437284  77.4932814
  76.3567543  48.1342602  77.9718637  76.4924765  47.5195312  76.5953922
  35.7969427   2.4580216  -0.2731144  35.0967097   1.9970374   0.1888374
  36.4643335   2.6117194   0.3956145 101.4662075  97.7318382  79.2401075
 100.8535862  97.1410370  79.6781349 101.1036968  98.6053276  79.3878603
  94.6452332 105.6902218  78.9624071  93.7674618 105.3226852  79.0656376
  94.5196819 106.4567566  78.4030437 101.4415264  75.9510851  77.5719786
 101.3983250  75.7807827  76.6310406 101.5738869  76.8967628  77.6383924
  71.0349083  72.4544144  90.9235573  71.5304184  72.5671482  90.1123905
  71.1437511  71.5293503  91.1441135  83.4131622  62.2270536  88.8507557
  84.0392780  62.4684954  88.1681824  82.8638554  63.0036497  88.9574623
  33.8766909  32.6138568  19.6095812  33.4003878  32.9104948  18.8340998
  33.2410002  32.6824832  20.3219128  91.9241905  65.0773668  86.1740971
  91.7186737  65.2184105  87.0982647  91.9207764  64.1257954  86.0704899
  39.3013144  45.5403805   0.6568664  39.9231553  45.4146290  -0.0598858
  39.5461154  44.8798943   1.3049886  71.7072630  90.7159042  90.0962448
  72.4893761  91.2473011  90.2450752  72.0449162  89.8402596  89.9079323
  38.5140753  21.6054392   2.3146158  37.8320003  21.8291879   1.6814147
  38.1894922  20.8156896   2.7472520  89.3542194  81.6749763  87.5740337
  89.5027447  81.4843750  88.5002327  88.4106064  81.8215275  87.5079823
  92.2078800  78.0700111  95.5182362  92.3202705  77.3445225  96.1324596
  92.6025486  77.7577925  94.7039890 107.3345280  47.7700996  88.7615776
 107.0387650  47.7078581  89.6698093 108.0936337  47.1887541  88.7165165
  99.6729851  70.9275675  77.8052616  99.0580177  71.5306044  77.3876524
 100.5201435  71.3689470  77.7441025  99.7420406  38.1475353  83.0235672
 100.4511452  38.7833142  82.9277229 100.0932598  37.4848723  83.6183357
  96.4887142  74.6505117  82.6448631  96.8026924  75.2567387  83.3157825
  97.2656822  74.1537189  82.3884296  83.5211754  59.8250628  78.7335491
  83.8071442  59.4751740  77.8897285  84.2940521  59.7593212  79.2944241
  92.4225140  86.5278435  87.7179337  92.5113869  85.6583023  88.1080914
  91.5454769  86.8155861  87.9713917  73.4970427  82.3355293  84.3173981
  72.5410843  82.3830605  84.3068027  73.6901045  81.3981152  84.3316078
  83.4834957  47.1652508  93.7224007  83.4416389  47.9555845  93.1840134
  84.0201855  47.4158239  94.4743347  72.5040960  78.2370043  93.2514763
  72.0781374  77.6088858  93.8347912  73.1669950  78.6595917  93.7975597
  78.3631659  66.2050533  72.7160311  77.4246120  66.0223055  72.7601671
  78.6419249  65.8265781  71.8821955 105.4521084  70.4818869  71.1754847
 106.3594913  70.7587862  71.0481453 105.3357792  69.7542095  70.5645895
  58.6214447  22.7223849  10.9142947  58.1055212  21.9213986  11.0063577
  58.3855295  23.0613089  10.0507510  55.6484795  22.4935055  16.2028372
  54.7558403  22.3796773  16.5291345  56.0134602  21.6087127  16.1900234
  80.5251026  66.3178015  86.5233803  79.6997738  65.8711910  86.3346767
  81.1604595  65.9037876  85.9393120  29.2792749   9.3822348   1.3636269
  28.6688089   8.7250018   1.6977033  30.1266026   8.9371681   1.3501339
 101.6268921  49.7012711  94.2181969 101.4546013  50.3142452  93.5034943
 100.8925343  49.0879583  94.1899872  44.0285540  10.4961658   6.7061561
  43.2969952  10.9716749   6.3125330  43.9678717   9.6150959   6.3370132
  93.8551140  79.8031521  83.9197063  93.4255695  79.8262691  84.7747993
  93.1818771  80.0959015  83.3054829  69.9785900  75.2616358  87.1487236
  70.5144167  75.8090687  86.5747547  69.0938807  75.3330612  86.7903614
  26.2741137  24.5130539   1.7076047  27.0592904  24.3997765   1.1719766
  25.7502604  25.1573300   1.2314561  75.3943396  63.2402134  79.3985558
  76.0936069  63.4310484  78.7733889  75.7816792  62.6101494  80.0061893
  18.8220608   1.8433954  10.4599440  17.8842151   1.7906940  10.6440604
  19.1929924   2.2771887  11.2283611  68.1709480  80.1852322  81.3271427
  68.8233519  80.8791924  81.2321568  67.3295593  80.6379223  81.2691116
  68.1471586  77.4428368  96.3239670  67.3079920  77.2061539  95.9289932
  67.9277372  77.6905918  97.2221375  47.3426437  21.2618184   9.1425043
  46.5415144  21.0502815   9.6217567  47.9874182  20.6314993   9.4637382
  80.9874344  48.3795738  89.7022247  80.5995274  47.7604961  90.3206921
  80.3490639  48.4399176  88.9915371  65.0415468  84.2658234  82.5990295
  65.1809168  85.1373577  82.9694843  64.3628645  84.3930721  81.9361401
  46.6217756  14.6533573   9.8625028  46.9497824  15.3121042  10.4746270
  46.6290426  15.0921679   9.0118414  73.4408760  86.3957691  80.6946087
  72.5510645  86.5543175  81.0097790  73.3226871  85.9154129  79.8751450
  87.6051903  50.5071497  77.7926159  86.8575287  50.0684166  77.3867273
  87.7412128  51.2907171  77.2599316  79.9140167  73.4049511  95.0362301
  79.1055393  73.4571695  94.5264530  80.4622173  74.1084099  94.6885967
 100.9090424  56.0641766  77.8176641 101.0653496  56.2767458  76.8975496
 101.1617661  56.8558455  78.2926607  87.8799057  78.1351662  79.8639536
  88.6089134  78.7513494  79.9354124  87.2212791  78.6019707  79.3496180
  20.0782585  86.0134315   2.0411326  19.4493437  86.0520267   2.7616939
  19.6642661  86.5096951   1.3350433  44.1562796  17.1937752  22.9934669
  45.0038147  17.5042236  23.3121228  43.7222290  16.8423402  23.7708497
  78.9194107  65.2969074  83.6589718  79.1012144  66.0809183  83.1407928
  78.7052727  64.6258116  83.0108929  82.4964523  80.4579639  71.0432053
  82.5125122  79.7754574  71.7141438  81.6703033  80.3192043  70.5801249
  95.8725643  99.5054150  58.8356972  96.2111282  98.9034939  59.4985008
  96.5491295 100.1776791  58.7547159  75.5063391  89.6532440  80.0398827
  74.5646381  89.7921371  80.1405621  75.7266235  90.0918770  79.2181110
  33.4738302  12.9581666  13.5344374  34.0101576  13.5983646  13.0667520
  33.1096745  13.4451604  14.2736661  93.8262463  96.4098549  83.3056450
  92.9699421  96.0678673  83.0487251  93.6299133  97.2251225  83.7671947
 117.8314400   1.8957482  90.8330822 117.3254299   1.7951189  91.6393471
 118.6139107   1.3625313  90.9732533   4.6859330  89.4180584  83.8052177
   4.3269077  90.2204514  83.4263992   4.4427449  89.4601536  84.7300529
   3.9683384  83.8174438  81.7119312   3.5741708  84.6438789  81.4328671
   3.2787576  83.3796597  82.2109795  71.9388056 109.4708347  50.6703520
  71.0574102 109.1649342  50.8843708  72.4982500 109.0765381  51.3395166
  41.6966534   4.6926865  76.2952328  42.2037649   3.8816115  76.2601662
  40.9483957   4.5323759  75.7202148 100.4086208  88.6796856  93.0966187
 100.5073071  89.2870426  92.3633957 100.5370140  89.2213821  93.8752842
  82.6997566 101.6849995  78.3734941  82.7310753 102.6246834  78.5530424
  82.5180721 101.6263008  77.4355316  74.0902424  82.9379559  81.7612076
  73.8035202  82.1682072  81.2697792  74.0532303  82.6644421  82.6777458
 116.5426254  86.2448215  93.4197903 116.7808723  86.7160988  92.6214409
 116.3133240  86.9327450  94.0446186  91.8615341 106.0754395  69.0325069
  91.5012932 106.9029999  68.7137699  91.1782742 105.4305172  68.8495779
  91.9456577  99.0990257  76.8968201  92.3371792  99.6496487  77.5748730
  92.5202179  98.3350468  76.8473482  81.6371632  92.9181671  77.9006290
  81.6117001  92.4999809  78.7612677  81.4341450  93.8372326  78.0748224
  81.5991116  80.5062485  91.7975616  81.2221527  80.6498814  92.6656055
  82.1671009  79.7434950  91.9063091 110.3146648  99.4748974  69.8490381
 109.9662685 100.2547741  69.4170046 110.7930279  99.0131378  69.1604280
 101.7902088  75.2807951  80.3345680 101.6881466  75.3479433  79.3851995
 101.6064739  74.3621254  80.5308342  66.9892263  33.9249229   5.0751460
  66.2913752  33.4628415   4.6106938  67.3505926  34.5281172   4.4256836
  92.1592903  92.9384041  92.9162502  91.5224075  92.7947235  92.2162724
  92.9269505  93.2978058  92.4715424  70.0046015 110.5269623  76.7018032
  70.2085543 111.4248657  76.9633245  70.7744837 110.0210476  76.9617414
  59.4984436  20.4684043  22.1454263  59.5932770  20.6722164  21.2149978
  60.0154257  19.6725428  22.2701883  86.9344139  87.8092957  67.4904394
  86.2297344  87.9504299  68.1226921  87.2054863  88.6905384  67.2332430
  27.3026848  40.5285740  22.4859595  27.2538018  41.3326836  21.9690013
  26.8424177  40.7379866  23.2986927  34.5364308   8.4087324  65.8715105
  34.1450119   9.2031229  66.2347841  35.4493523   8.6450428  65.7073116
   7.4582571  73.2970381  81.7830467   7.7195543  72.6016474  82.3866940
   7.7783370  73.0058384  80.9292412  89.7522449  89.0027237  78.0101871
  89.0218544  89.0008831  77.3915100  90.2977943  88.2644844  77.7388859
 107.1470547  78.7486553  81.6129589 107.9663086  79.1284704  81.9304562
 107.2450066  77.8083706  81.7629814 107.3428440  79.2408419  92.7271938
 107.5292110  79.8582077  92.0198345 106.7128563  78.6270237  92.3495865
 113.8283634  99.6497059  74.2753935 113.4084225  99.5221519  73.4247398
 114.0861607  98.7696075  74.5496082  63.1355190  41.9199085   8.1435943
  62.5983858  41.9068670   7.3514152  63.4069920  42.8333521   8.2338917
  56.2739468  39.0141416  24.3777704  57.0435095  39.3105602  23.8918281
  56.2701464  38.0637574  24.2638135  82.2235775  98.5729027  81.0360050
  82.4517632  97.7705097  80.5665970  81.5942001  98.2912445  81.6999149
  45.0334072  28.2852530   1.2418884  45.3084755  27.4925947   0.7811730
  45.7498074  28.9044523   1.1019041  72.9758310  22.2526169  13.7199783
  73.1026745  21.7662382  14.5345807  72.0534754  22.5081086  13.7347102
  97.7513790  93.6486340  77.8732347  98.3104706  92.9169369  78.1345177
  97.5567818  94.1054821  78.6915588  99.4661522  93.0626678  74.5325565
  99.5274067  92.7465439  73.6311436  98.5314560  93.0271530  74.7358227
 118.7539959  96.9530964  73.7235355 118.2993889  97.7951145  73.6997938
 118.6454296  96.5973282  72.8415632  -0.1004562   1.6832058  82.3707581
   0.0853010   0.7518674  82.4904919   0.0560150   1.8408832  81.4396954
  54.9104071  33.5567451   9.5512956  53.9801931  33.7224364   9.7045231
  54.9501371  32.6363134   9.2915714 112.6437855   9.4303644  73.9165831
 113.6004448   9.4248253  73.9481544 112.3741436   9.0737367  74.7629547
 105.7299614  94.4205379  82.4664116 104.9557018  94.6540260  81.9543266
 106.2142372  95.2413082  82.5561333  48.4340668  31.8988299   1.6678388
  48.6580133  32.6380181   1.1024360  47.9922962  32.2964334   2.4181594
  69.5790815  46.5653801  14.7687018  69.2151451  47.3949909  15.0777805
  70.3833342  46.4530563  15.2754509 101.1720657  76.2482500  70.6945467
 100.9151936  75.3454351  70.5069971 100.9343338  76.3791418  71.6124678
  76.7695522  41.1950779   0.9277561  77.3856592  41.4628744   0.2458988
  76.1453485  40.6266117   0.4767083  91.8830395  93.8143826  89.2478752
  92.6000023  93.4627628  88.7200832  91.4813328  94.4819641  88.6918163
 102.3995304  50.2089167  76.8805885 103.3423996  50.3549194  76.8036890
 102.0093346  51.0646248  76.7024183  12.3960173  97.7608871  82.5867558
  12.9081094  97.0503044  82.2006607  12.9144561  98.0489159  83.3380795
  99.8888969  96.6083336  71.5967607  99.5605850  97.4897957  71.7741442
 100.2118301  96.2982655  72.4428129 108.8944340  49.6043730  94.8951435
 108.9916897  49.3104410  95.8008862 108.1428146  49.1132498  94.5633507
  61.5773582  43.8674450  17.4246311  61.0656738  44.4014549  16.8169749
  61.9496727  44.4972372  18.0418646  74.7728777  50.1931095   4.8616207
  75.1363897  49.9544001   5.7143277  73.8254166  50.1970434   4.9977681
  19.6150815  19.1879201  86.4389324  19.6021152  18.4908938  85.7830238
  18.7427652  19.1629744  86.8322182 116.6244698  61.3954687  91.4632607
 117.2425270  61.2326288  90.7507229 115.8587646  61.7767811  91.0336971
 102.4997139  94.7516823  84.5149708 102.1462917  95.4243946  83.9329243
 101.7281628  94.3579674  84.9223137  80.0110817  18.1705713   0.7371391
  80.5194378  18.9809680   0.7044373  80.6215382  17.5186384   1.0814700
  83.7549973 104.0715885  88.0167294  84.0529537 103.2956600  87.5419807
  83.8667583 103.8450718  88.9400005  95.5596638 111.7767429  72.3345757
  96.1997604 111.1162376  72.0695591  95.3899002 112.2790813  71.5376616
  97.8198242  71.8165779  70.9928465  97.4722385  72.5794315  70.5308151
  97.2314072  71.1014128  70.7509041  93.5908890  83.6276054  78.9928293
  94.3635082  83.1593800  79.3091393  93.8884258  84.0718746  78.1988955
  94.5598125  98.4172249  73.3882809  95.4671192  98.6334324  73.6034155
  94.5118237  98.5054398  72.4363613 104.5643044 106.6953850  90.4226971
 105.0865936 106.7426205  89.6219349 103.7382412 106.2982464  90.1467800
 101.0161209  90.7512760  75.5298376 100.6597328  91.5404892  75.1219606
 100.3124809  90.1062584  75.4586792 101.1813068 109.9060249  68.2727051
 101.0902405 109.2003727  67.6324034 100.3898430 110.4329872  68.1625652
 115.4286289 103.0689049  97.3663139 115.3939915 103.0369186  96.4102745
 115.1736259 103.9651299  97.5853729  77.5295067  99.9061298  88.3078098
  76.9541311  99.9274063  87.5431347  78.2894897 100.4279900  88.0502892
 117.9618549  84.0440369  79.9518251 117.0744133  83.8985825  80.2797127
 118.4574509  83.2840347  80.2568150 117.9175282   5.3673530  56.7267323
 117.5266552   5.2662551  57.5946140 118.8449669   5.1696980  56.8572474
  52.6809359  30.9568334  10.8569551  52.4080276  31.7499399  10.3957224
  53.5032606  30.7060003  10.4361296 105.4073620  97.7730465  79.4990873
 105.4648876  97.3713493  78.6321640 106.1809349  98.3340168  79.5549393
  97.5147724  96.0011959  90.9494591  98.1306934  96.7260838  90.8426762
  97.7597427  95.5995846  91.7830849  93.3451176  96.6576767  79.4029093
  93.2584381  96.7596340  78.4551096  93.8809872  97.4023533  79.6758938
  80.3455544  86.6174698  87.5712872  80.9147263  87.0505428  88.2074642
  80.5146122  85.6835365  87.6954269  91.6533184  84.2581844  72.7137280
  90.7790279  84.0642262  72.3757410  91.8865204  85.0938034  72.3092651
  34.7594929   6.3918173  71.0178518  34.2829084   6.6367441  71.8110180
  34.1586208   6.6017592  70.3029346 100.5132771  74.1260386  84.5734596
  99.6612072  73.7802887  84.8392868 101.0536289  74.0629959  85.3610420
  89.3412685  88.0082321  74.2064714  90.1420498  88.3277988  73.7907028
  89.4824696  87.0667744  74.3062162 102.2818184  66.3055420  90.2267361
 102.1924400  66.2412596  89.2758942 102.4628067  67.2314978  90.3882408
  53.5611820  35.1530004   4.3930772  52.6562691  35.4247332   4.5464769
  53.6359406  34.3079710   4.8364362  77.8012419  69.0495300  96.7754078
  78.2621431  69.7459459  96.3076401  76.9106102  69.0748072  96.4256001
  96.8898869 109.6130562  71.4581203  96.7063236 108.7388134  71.8019772
  97.2391319 109.4568634  70.5807066  93.6908150  76.0769653  75.3419828
  93.6626148  76.5924978  74.5359659  93.6981583  76.7286921  76.0430098
   8.3357573 101.7884922  93.9083290   8.0648839 102.1107388  94.7679901
   7.6490498 102.0885086  93.3127975  52.0447779  26.9801593   4.6909294
  51.5881681  27.5213051   4.0468019  51.7345190  26.0909629   4.5197594
  43.3204031   4.7345796  93.7960720  42.6237154   4.2894512  93.3136749
  43.1523466   5.6661999  93.6543941  76.3603640  43.7493134  91.8174267
  76.3973618  44.5011234  91.2261200  77.1560574  43.2534504  91.6244698
 109.8357296  78.5238075  86.4303875 109.5326042  79.4254780  86.3239098
 109.2245293  78.1381893  87.0580482  93.5295773  84.6545887  94.0259552
  93.1387615  84.4544125  94.8764992  92.7821732  84.7525501  93.4360313
 100.5144691 107.2749424  70.5665207 100.5316639 107.7266407  69.7227764
 100.1313972 107.9107761  71.1708355 105.5303860  82.2844124  82.3925591
 104.7517490  81.8027782  82.6718044 106.2519073  81.8665791  82.8627205
  96.4813805  91.2176228  65.3129244  97.2329617  90.9399986  65.8366489
  95.9676456  90.4194832  65.1893187  86.5634060  77.8786564  82.2339249
  86.8849087  77.8514528  81.3327408  86.9466591  78.6752701  82.6010036
 103.2367802  93.1940174  88.7106609 102.4179077  93.2828617  89.1983032
 102.9682446  92.8823376  87.8463840  73.7805271   3.6513090  12.8406692
  74.5566273   3.4077606  12.3361087  73.1021833   3.0443153  12.5446284
   4.2568833  84.9740028  84.9950886   3.8525769  84.9841976  84.1275215
   5.0918531  85.4265118  84.8755455  90.9542942  64.4632721  90.6128502
  90.6439686  64.4199944  89.7083855  90.1930809  64.2188358  91.1392021
  94.4155025  95.4354191  89.9638844  93.8112450  95.1101112  90.6311798
  95.2840996  95.3118706  90.3466320   5.8773625  92.6854038  80.8276463
   5.1419502  92.3987103  81.3691330   5.5545002  93.4673214  80.3797531
  96.7484379 104.0037918  62.8812742  97.2941589 103.7602615  63.6290073
  96.1250401 104.6376228  63.2360744  71.0300446  26.4016676  16.4441526
  70.2705717  26.5036654  15.8705413  70.6950665  25.9226894  17.2021770
 106.1523438 111.0981274  78.4848213 105.6868839 110.9141922  79.3007517
 106.7289257 110.3438854  78.3627367 107.0711708  74.2039156  86.3565063
 106.6120911  74.4698191  85.5597782 107.3152733  75.0276566  86.7785263
  37.9796338  13.7119973  94.0951347  37.8307056  13.6632681  95.0394249
  38.1990981  14.6297145  93.9343262  73.9470243  54.3653011  89.3528652
  73.7445354  53.8364220  88.5811710  73.4018993  53.9947414  90.0469494
 103.6638355  94.6179390  73.9469194 102.7469540  94.8871517  74.0023756
 103.7785053  94.0069389  74.6747589  80.8705330  91.6898918  80.2665424
  80.7971859  92.3675537  80.9385777  79.9761915  91.3686180  80.1517582
 113.7955856 101.7834187  78.8429308 113.2639980 101.0135555  78.6405325
 114.4722271 101.4579201  79.4365883  75.2414465  30.1897073   5.5406266
  75.8823013  30.9007072   5.5445701  74.3931580  30.6320310   5.5091971
  97.6277733  95.0627136  97.1141243  97.3051929  94.3023205  97.5978374
  98.4582138  94.7721004  96.7371178  86.1510754  97.8466320  90.6699848
  85.2847099  98.1459141  90.9457779  86.4346695  98.4952641  90.0257111
  30.1441932  11.2089801  83.4313679  30.7622004  11.9368136  83.4988785
  29.8524523  11.2262571  82.5198746 108.0667400  85.6294537  70.7741547
 107.8090191  86.5508461  70.7449675 107.4997997  85.2017307  70.1323843
 118.4939671 109.4017792  92.8654766 118.3562183 109.5944595  91.9380474
 119.4445324 109.4231415  92.9759312 102.4385452  92.5072289  72.0269394
 102.6960278  93.3130264  71.5790224 103.0138111  92.4634743  72.7907372
 107.3623371  96.1322212  64.8091888 106.7322254  95.4305363  64.9729490
 108.1688976  95.6778526  64.5657778 105.5838585  65.0015402  76.6911840
 105.5747604  64.1898060  77.1983719 104.6624088  65.2514601  76.6226244
  83.6197758  67.2765827  91.4121819  83.8266277  68.0030155  92.0001698
  83.9575768  67.5540543  90.5606365  86.1977386 111.9305134  84.0686035
  85.4970360 111.5734577  83.5229206  86.1641407 111.4109612  84.8718262
  87.8227901 111.3007736  77.3816156  87.3536205 111.7225742  78.1014729
  88.1540775 110.4849815  77.7570629 101.5575504  81.2109375  74.5102882
 100.8398914  80.5875111  74.6222448 102.0439720  81.1665630  75.3334904
 103.5624218 102.8341770  75.0241804 103.9557838 101.9906044  75.2475214
 104.2064476 103.4819889  75.3102064  91.6951370  94.2894173  77.1055174
  91.1188698  95.0052452  77.3733616  92.1817017  94.0641499  77.8984451
 103.2808208  87.1383476  96.5845966 103.5719872  87.1888828  97.4950409
 103.5575104  87.9692268  96.1981773 115.6355572  85.1083946  84.7514915
 116.2904549  85.5793571  85.2667999 115.1638317  84.5763874  85.3923321
  64.4556570  48.3538771  30.0305247  64.6358252  49.1644430  30.5067134
  65.0139570  48.4028053  29.2545509  86.7240620  92.4571800  64.7851181
  87.5727940  92.5312424  64.3487644  86.5901089  93.3117294  65.1950264
  97.4457741 108.0699539  92.1170044  96.6078663 108.0338478  91.6556644
  97.9434776 107.3306274  91.7678356   6.2185097 109.5003510  92.3274136
   6.4726663 108.9874935  93.0946255   5.3826803 109.8980141  92.5713062
  58.2127810  28.2645273   1.2344231  58.7679625  28.1510043   2.0058638
  58.4230614  27.5162315   0.6757910 110.5755520  92.1075058  96.8062019
 110.5267334  91.1530781  96.7522621 110.3485584  92.3080158  97.7142239
 102.5257778  86.2148666  78.4856081 101.7701244  86.7534351  78.7204695
 103.2442379  86.5685844  79.0099430  48.3575058  46.3437033   7.7486956
  48.0828810  47.2600603   7.7818394  48.7591124  46.1829901   8.6025780
 111.0433102  85.8295155  73.4751368 111.2581539  85.8221912  74.4078875
 110.1130009  85.6067085  73.4418774 114.8288727  85.5832386  75.4052258
 113.8724518  85.6017971  75.4390574 115.0806713  84.9614716  76.0880375
  79.7264767  73.9457226  91.4325237  79.5116091  73.1852293  90.8924198
  79.2726946  74.6751881  91.0103893  66.7927122  36.6404581   0.8372106
  66.3855457  37.2535038   1.4492738  66.5024042  36.9354010  -0.0259007
  87.3084641  86.6739082  80.8336449  87.6070118  87.5378227  81.1178207
  87.4181557  86.6834068  79.8827982  79.1545010  82.9708385  83.9153099
  79.8084688  82.8076744  84.5949745  78.8902760  83.8808346  84.0507030
 109.2264175 110.2185917  80.2828407 109.3074417 111.1134529  79.9528313
 108.6603260 109.7795391  79.6480131 113.3337688  73.5112572  81.9691086
 113.3204651  74.2781019  82.5418282 113.0527496  73.8440132  81.1167431
 110.2066612  95.0165558  84.1701221 110.4606342  94.8912048  83.2557869
 109.2601109  94.8743439  84.1774464  58.4179401  13.6096227   2.8835976
  58.7997055  14.3770552   2.4575296  59.1638517  13.0344951   3.0541170
  78.5867548  75.9192181  89.9346066  77.6956415  76.2554026  89.8390293
  79.1357183  76.7025423  89.9703217  33.9782405  31.5624762  11.9379270
  33.9591670  30.7748508  12.4815416  34.9078608  31.7764235  11.8587911
  90.1220894  90.1275444  92.2718811  89.8506927  91.0057354  92.0047569
  89.4168377  89.8220825  92.8424454  89.2608261  83.0433750  72.0657778
  89.9822044  82.6657009  71.5625715  88.9702702  82.3331070  72.6379156
  50.3168440   1.6937689  72.4793196  50.6394243   1.3872625  73.3268023
  49.4344616   1.3288155  72.4126720  93.4567356 105.5765152  66.5092754
  92.6373100 105.2983189  66.1001635  93.1893539 105.9596729  67.3446894
  99.6473217  82.7119255  76.1837006  99.2860699  81.8558598  75.9537745
 100.1070118  82.9977798  75.3942680  77.9404402  92.4802208  87.1964931
  77.0875788  92.1767616  86.8854237  78.1838369  91.8533611  87.8777027
  98.8727665  90.8148861  86.0072231  98.4879875  90.9732819  86.8692493
  98.6824894  89.8945713  85.8254433  87.7665329  99.2482090  68.6312151
  88.5356808  98.8171196  68.2586575  87.8942966  99.1897106  69.5780468
  78.3356953 108.5325146  83.6335373  78.1123304 108.7062263  82.7191162
  78.7654591 107.6773739  83.6168289 114.9603748 103.9142132  77.3326397
 114.1916370 104.4109917  77.0524597 114.6048927 103.0896282  77.6641989
  98.7967110 105.7667065  91.7240047  98.0457592 105.2858543  92.0719814
  99.4874287 105.1085949  91.6463661  67.1630764  41.5689611  11.6564906
  66.4925241  41.5712547  12.3395598  66.6771460  41.4258814  10.8443129
 104.0652847  78.7589931  91.4339447 103.2113647  78.4945536  91.0916996
 103.8611412  79.2805004  92.2102070  82.1710682  87.3788357  89.3358707
  82.8289604  87.8922939  88.8670731  81.6691303  88.0268288  89.8302364
  73.4399748  71.2507343  86.4370918  73.1007814  70.9723806  85.5863857
  73.1477070  72.1578455  86.5263081  94.3784237 103.2877445  91.2324905
  93.7798882 103.0273247  91.9326115  95.2421474 103.0148602  91.5419292
   0.4693160  55.8385754  90.3774834   0.1757502  55.5418158  91.2388706
   1.2159270  55.2759409  90.1719379  78.2454109 104.3696308  67.2192287
  77.7905130 105.0796223  66.7662191  78.5196924 103.7763023  66.5199757
 107.5424194  78.9769411  74.9668884 107.3885918  79.1738176  74.0428686
 106.9901562  79.5996523  75.4396152  92.2438622  98.9165688  65.4794741
  92.6298141  98.2760239  66.0769558  92.4356174  98.5752583  64.6059895
  42.2919035  44.7264767  17.2607183  42.7278614  44.3152237  16.5143633
  42.2390461  45.6530619  17.0264554 107.7066422  79.6927595  84.5161629
 107.7939224  80.3962326  85.1593781 107.3626232  78.9524841  85.0160313
  95.0326729  94.3733597  76.7289400  94.8099327  93.4425449  76.7146826
  95.9201431  94.4018173  77.0864487  78.1846857 106.4603901  81.4171314
  77.2848940 106.5996647  81.1218071  78.3002901 105.5104923  81.3932228
  83.3921051  75.8475447  84.0567112  83.6780453  76.7396450  84.2532444
  82.6137829  75.7205105  84.5992088  80.6334782  85.7298565  73.6029577
  80.1406765  86.2130070  72.9396772  80.3091049  84.8318291  73.5354519
 114.5381165  66.4811230  91.2979126 113.7804031  65.8964300  91.3132858
 115.2363014  65.9580803  90.9039497  52.9109097  98.0076790  94.4068813
  53.0396175  97.9931641  95.3552723  52.7163696  98.9230251  94.2055511
 101.7622566  74.6425533  74.7376728 101.7385101  73.9531040  74.0741014
 102.5325775  74.4382620  75.2678585  46.1532640  42.8928232  21.4729238
  45.5148792  42.8343725  22.1837521  46.8079662  43.5151911  21.7895532
  90.4558086 106.8375111  57.5894976  89.6828079 106.6030025  57.0759821
  91.1882019 106.4495468  57.1106339  36.0967445   2.8206670  62.0909834
  35.7647920   3.6485699  62.4382782  35.4804587   2.1621558  62.4115849
  53.3903027  15.1165593   4.3499136  53.6907244  14.4072139   3.7817532
  52.9437590  15.7234716   3.7595838 106.2192631  45.5043221  87.1713924
 106.1049271  46.3308620  87.6404285 107.0094109  45.1204872  87.5516129
  56.4470577  53.5705709   3.1118155  56.6731215  53.4036350   2.1967964
  57.2386169  53.9558315   3.4876400 115.0373268  96.9789314  94.3509102
 115.8891678  96.8624496  93.9301682 115.0379658  97.8898621  94.6449089
  63.5849333  47.2452927   9.2267835  63.7435055  48.1778049   9.0801376
  63.5166216  47.1606064  10.1777792  33.3012104  95.1642036  68.5470057
  33.0205107  96.0759449  68.6256075  33.0939412  94.9268627  67.6431608
  91.6395664 103.0516148  76.7511415  91.2219810 102.2560501  76.4210844
  91.0149860 103.7495613  76.5536451  93.1098747  84.8023319  68.5276604
  93.9341545  84.3157482  68.5226345  92.5385952  84.2997551  69.1084194
  57.0522308  22.6509595   1.0583475  56.1166096  22.5636935   0.8760552
  57.2032881  22.0819449   1.8130895 110.4116440  96.5210438  91.9786739
 110.3954124  95.5784035  92.1441936 111.2955761  96.7924786  92.2261143
  89.2577553 104.4174385  79.5219135  88.8741875 103.6822510  79.0437889
  89.0351200 104.2498875  80.4376602 101.9581413  65.9588623  82.2937012
 102.6591110  66.4665127  81.8848419 101.7624855  65.2677965  81.6609478
 111.5432453  82.2102261  93.1285763 111.6767502  81.2630081  93.1630707
 111.5694714  82.4892807  94.0438271  39.4019175  31.7577910   4.2640337
  38.8925409  32.4566293   4.6743888  40.2189636  32.1805573   3.9995766
  81.2429428  84.6607971  91.5359974  82.0182419  84.2219830  91.8861198
  81.4238739  85.5938148  91.6499233  98.6875439  74.2350292  74.4913387
  98.2605934  73.5309649  74.0032387  99.1989899  74.7064066  73.8337231
 113.3341599  88.6060143  74.6531725 113.0416393  89.2243958  75.3226995
 113.0556583  87.7503109  74.9794102  78.5206985  90.4989338  89.2780590
  78.2020569  89.8128891  89.8646069  78.8513327  90.0263977  88.5141087
  95.6469631 101.4987087  79.3998337  95.3674316 100.7100677  79.8647404
  96.5771389 101.3563538  79.2244864  68.6930847 105.7793903  89.6504116
  69.4613314 106.3450050  89.5722961  67.9737949 106.3020802  89.2959404
  91.6591454  92.4664974  96.8166065  91.5221214  91.9601822  96.0159206
  90.7797241  92.5954914  97.1718693 103.4814644  83.9339733  77.5161648
 103.8370419  84.3528461  76.7323637 103.1732464  84.6608829  78.0573082
  10.2171290  78.8911390  67.5420618   9.7785848  78.2969379  66.9331026
   9.7325635  79.7130680  67.4654961  91.4182377  67.9332209  85.5721378
  91.4886189  66.9787693  85.5547810  90.4787636  68.1052971  85.5088043
  63.3451271 105.9567451  85.8549786  63.2867956 105.3634167  85.1061153
  63.9424610 105.5189800  86.4614296  76.5406179 100.0315762  74.4292784
  76.4539528  99.3975544  75.1411343  76.5568638  99.4985104  73.6344147
   7.2363955  90.3823471  82.8033924   7.2522229  90.4973412  81.8532562
   6.4829677  89.8140335  82.9633522  58.0604553  58.0111122  13.2817602
  57.8463984  57.1238089  12.9934871  57.3917532  58.5627031  12.8757906
  33.8311934   0.4557628  82.5233555  33.7454677   0.5071961  83.4753227
  33.0177593   0.8334859  82.1888638 107.5086021  80.4035854  87.2131729
 106.5806103  80.3144360  87.4302197 107.6793003  81.3435555  87.2727871
 107.1792603  97.5426579  85.6268787 106.2234211  97.5468540  85.5760098
 107.3693657  97.3556519  86.5461826  30.8119178   1.2426572  73.2150078
  31.6966724   0.9413940  73.4215975  30.4733324   0.5894277  72.6027298
  85.4023647  81.7451954  94.5497799  85.7510567  81.0135365  94.0405464
  85.9923267  82.4738884  94.3569851  74.1325283  89.7983265  96.9116592
  75.0517225  89.5595360  97.0312214  74.1204882  90.3056908  96.1000729
  13.8047481 100.4571915  94.0247822  14.1261971 101.3588047  94.0239906
  13.0502200 100.4714108  93.4359550  88.6788559  93.3420277  72.4192572
  88.6258888  93.7331104  71.5471983  89.4913578  92.8361607  72.4059439
 100.6611252  88.4880352  78.5461521 100.3557682  89.3841934  78.6871624
 100.8737373  88.1667709  79.4224072  69.8002768  97.6227951  91.1644936
  68.9944410  97.9410267  90.7575703  70.2457285  98.4148693  91.4651966
  99.3621349 109.1611767  63.1164885  98.9985180 108.2771969  63.1674623
 100.2888775 109.0278339  62.9174852  94.0558338  83.6621761  73.8349247
  93.1815815  83.7059975  73.4476471  94.0073586  82.9336548  74.4539022
  38.1653523  11.2115800  72.0654011  37.9649472  11.8258452  72.7716208
  38.0254674  10.3474700  72.4526691  26.8779850  25.8062983  50.7665443
  26.9961786  25.3774834  49.9189711  26.3033700  25.2169180  51.2550974
  13.4350848  95.1794624  81.8447590  13.8014519  94.4748783  82.3791409
  12.6269877  94.8126316  81.4860916  42.9059505   3.7457952  65.3073168
  43.2603216   4.1799188  64.5313072  41.9686604   3.9384171  65.2824926
 115.7266617  96.7188072  87.2211933 115.7589722  97.6744366  87.1768379
 116.6422558  96.4453506  87.1651554  31.5458179   7.1822304  88.2762623
  31.1962795   7.9699719  88.6928177  32.3348641   6.9762701  88.7774754
  27.1833992  10.0040841  89.2605686  26.8413734   9.5843244  88.4712315
  26.4783025   9.9182159  89.9022102  85.7481194  95.0430489  90.9040260
  86.0033226  95.9654427  90.9211922  86.5774632  94.5651722  90.8966446
  87.5111485  98.5150623  77.0660973  86.8993187  99.2454338  76.9741058
  87.7795124  98.3130836  76.1697626 102.3574734  85.4305363  73.3207846
 101.8879032  85.9098053  74.0034485 101.7936993  84.6829510  73.1220055
 113.0507469 104.4164944  85.7226372 113.8750935 104.6129036  85.2775478
 113.1465244 103.5101509  86.0151863  38.5607648  15.4165316  75.3071404
  37.8645563  15.0957704  75.8804083  39.0461779  14.6304166  75.0568771
  91.7730904 109.6361256  78.3747292  92.7189732 109.6167469  78.5202026
  91.6769409 109.8965263  77.4586630 104.0879345  87.7570438  68.7235451
 104.7938442  87.1160793  68.8077497 104.0686226  87.9709053  67.7907419
 105.8526993 108.2680416  84.9097824 106.0167980 108.6222267  84.0357971
 106.1780834 107.3687744  84.8687649 106.6784382 111.8025589  93.4165192
 106.1633396 112.5908661  93.2448101 107.1355915 111.6311073  92.5932026
  28.7680531  17.9379880  75.0853395  29.0590048  17.6619756  74.2162037
  28.3538485  18.7886548  74.9403143   2.7892834 101.1591244  87.9530239
   3.0442703 101.0596466  88.8702583   2.2640459 101.9591618  87.9358578
 101.3448524 101.7046738  96.7271709 100.9537029 101.5116024  97.5792027
 101.4425468 102.6568413  96.7187023  76.0497332 109.9056053  68.1720686
  75.4627466 110.6413364  67.9978085  75.5375528 109.1306591  67.9410648
  63.2635117  51.8579817   3.0967700  62.7403545  51.2203026   2.6110679
  62.6326370  52.3057365   3.6604598  68.3770227  57.6903009   3.3313757
  69.2402744  58.0867958   3.2138282  68.4623098  56.8146229   2.9543501
  59.8505497  49.3874979   5.2031094  60.5919170  49.6059275   5.7678139
  60.2304077  49.3115616   4.3277979  38.4633636   8.9414752  92.5863743
  38.5829186   9.7830820  93.0264187  39.3511820   8.6550629  92.3719406
 103.9157867  79.4012499  59.6157074 103.4554482  79.3811321  60.4547024
 103.5249710  78.6880255  59.1109228  67.3379660  72.6202822   5.3995419
  66.7151356  72.9910517   4.7743648  68.1851339  72.6806641   4.9580786
  24.1984177   5.3077310  70.2525091  23.9548469   6.1941540  70.5192661
  24.6714234   5.4269153  69.4289255 101.5187168 103.3783054  81.5592861
 101.6144371 103.5119629  80.6163025 101.2425232 102.4658489  81.6450405
  53.6223078   2.0814112  90.4978561  53.4123993   1.1506420  90.5742741
  53.4897661   2.4299940  91.3794136 103.4390640 106.0296059  93.4691811
 103.9604187 106.6188335  92.9239941 102.6279068 105.9028912  92.9770565
  83.5845375  60.1331615   4.7234115  83.9502907  59.4006062   5.2192146
  82.8630924  59.7488403   4.2253774  31.5746999  25.5208588  96.3652706
  31.2302828  25.8371377  95.5300617  32.3814106  25.0609875  96.1329556
  11.4383900  93.3509827  73.1511164  11.7010617  94.1373062  73.6295795
  10.4815602  93.3774948  73.1536770  57.7395010  50.1041126   6.7044896
  58.3393097  49.8791409   5.9932601  56.9986296  50.5254030   6.2687653
  42.2292614  16.7912066  92.0274258  43.1682444  16.9714880  92.0725632
  42.1742249  15.8673048  91.7832756  66.8233204  46.0719728   4.3819979
  67.5057173  46.7047834   4.1581222  66.2104559  46.1108065   3.6477476
  13.3716953   1.7717533  72.9649353  13.5539293   2.5044423  73.5533142
  14.1521251   1.7067286  72.4145412  63.4069204 104.6703434  96.5764809
  63.4368038 103.7146568  96.5316677  64.2996073 104.9273300  96.8073368
  26.5553164   1.8490200  86.4380646  27.2473693   1.8473998  85.7767773
  25.7437944   1.7766440  85.9356403   6.2054598 110.9759998  72.7215576
   5.9124076 110.4420280  73.4599495   6.9585693 110.5028248  72.3677778
 110.7522297  91.3405895  69.0103912 111.6437531  91.6756916  68.9148331
 110.6811905  90.6558037  68.3453703  95.6728077 103.0277252  73.2352924
  96.2775421 102.6590252  72.5914049  96.2327099 103.5212231  73.8346148
  61.8119097  50.0604010  23.9083529  61.2685013  50.8023119  23.6428142
  62.2069979  50.3367281  24.7352648 102.9314232  91.8140411  86.2987518
 103.2807446  91.0999584  85.7655525 102.2380924  92.1971512  85.7614040
  33.3299160   8.5328043  92.8739452  34.1129470   8.1193131  92.5104618
  32.6163054   7.9374975  92.6445961  11.7535877  95.2987385  84.9691582
  12.6989126  95.1515961  84.9998188  11.4907157  94.9875355  84.1029739
  86.8952465  75.3259993  79.0651035  86.9614410  74.9738026  78.1775188
  87.2388744  76.2166882  78.9955997  68.7140083  73.7168312   2.1541226
  69.0934229  73.0301857   1.6056746  68.9045572  73.4401035   3.0504179
  80.2418137 105.7937050  84.5410728  80.5799007 105.5971336  85.4147434
  79.3016481 105.6255341  84.6046448  85.2041626  97.4987030  79.0242910
  85.0155067  98.4276295  79.1575193  85.9015846  97.4875641  78.3687687
  86.6479015  95.5242729  65.5129910  85.9347248  96.1611080  65.4678059
  86.8159580  95.4189205  66.4494133   0.2456812 105.5362701  75.8982754
   0.7301128 104.7545719  75.6327438  -0.3652232 105.2241993  76.5658379
  85.4182148 106.9681072  82.1776295  84.8258114 106.6219044  81.5102100
  86.0472202 107.4980164  81.6879463  27.1562600  11.6318119  82.8794575
  27.1843696  12.3729360  83.4845829  27.5615048  11.9618642  82.0775414
  58.3686876  30.3399658  19.8824739  58.7266111  31.0155177  19.3064940
  59.1365623  29.8659658  20.2017331 113.9328957 106.8568039  66.0010815
 113.6811447 107.0356369  66.9071054 113.2304287 106.3017654  65.6624079
  36.3150477  25.6509900  89.1567707  37.2541070  25.7035565  89.3346310
  36.2593317  25.3283787  88.2573032  66.3849640  73.0563784   0.7100276
  66.8281412  72.8323507  -0.1082864  67.0951271  73.2529736   1.3209707
  14.1587520 103.7438011  67.0731401  14.6340597 102.9130745  67.0877361
  13.3029032 103.5366821  67.4484539 101.8077087  96.4394760  97.0348835
 102.7159214  96.2576389  96.7934036 101.7043114  97.3795986  96.8874931
  89.5362663 101.5917301  80.3016090  90.4559040 101.7630577  80.0987816
  89.0610695 101.8830299  79.5234251 115.1490402 104.4374466  88.2842922
 114.8984814 103.5164547  88.2119656 114.8735237 104.6921730  89.1648769
 101.5520954  72.5936222  80.1918983 101.6301632  71.7032242  80.5344296
 101.4516449  72.4787760  79.2469358  57.9986048   6.5832001  91.8392086
  58.0527115   6.9608897  92.7170753  58.3860636   7.2469240  91.2686157
  58.0263901  52.2197676  21.2073803  57.6353121  51.3510418  21.1146545
  58.1456184  52.5259638  20.3083467  80.3139114  49.1629457   1.8539636
  79.6694565  48.4755278   1.6855213  80.0428963  49.8883867   1.2913676
 109.0424633  98.7502289  84.2505360 108.7550926  99.6241570  83.9861584
 108.2517624  98.3303547  84.5892715  75.2926350   8.6874717  -0.0510102
  74.8342800   8.7878662   0.7832944  75.4265308   7.7437460  -0.1386820
  55.7992983  51.6247749   5.2020258  55.4438925  50.8048058   4.8591492
  55.9848928  52.1495533   4.4233119 101.1023045  73.6871481  61.0016251
 101.3875580  73.4421158  60.1213884 101.1080551  72.8655100  61.4926577
  68.0451727  59.9316549   5.2704352  68.0610657  60.0844622   4.3256447
  68.2652903  59.0051174   5.3669411 118.3831310  96.6001320  87.8203678
 118.4739971  96.4910793  86.8737602 119.2817211  96.6851616  88.1390190
  28.5269499  -0.2126355  91.0356617  28.5650110   0.6080573  91.5268326
  27.9571342  -0.0199386  90.2910709  30.9767270  21.6432214  92.0925713
  31.2501836  22.0367384  91.2639618  30.9364176  20.7044387  91.9101143
 104.3697357 103.3651829  63.8502169 103.5184669 103.7266636  64.0969944
 104.8055458 103.1881428  64.6838617 109.1102314  82.8089142  68.8088226
 108.3078480  83.1153011  69.2313623 109.1066170  83.2339573  67.9511786
 116.6593552  90.9739494  69.3829679 115.8544064  90.5085373  69.6102858
 116.9061565  91.4320946  70.1863527  73.8779306  39.5443535  12.3137534
  73.9180851  38.6166620  12.0813549  72.9503393  39.7693586  12.2417915
 114.1065025  10.0677836  65.1468706 114.6969700  10.7302809  65.5055714
 113.9436626   9.4712472  65.8775282  93.1011868 103.2057858  72.5744581
  94.0345001 103.0532074  72.7224064  92.9132938 104.0169239  73.0466700
  13.6104584 104.7863674  96.8384075  13.2096696 104.8844242  97.7021122
  13.0205238 105.2528191  96.2462616   2.3165810 103.9618206  86.9502831
   2.7905518 103.5841084  86.2093925   2.5527161 104.8893547  86.9379234
 116.3656616 105.7569695  93.6342430 117.0055389 106.1725712  94.2122364
 115.9430122 106.4864540  93.1809616  45.4307699   2.9409432  73.3547163
  45.3044653   3.5570315  74.0763187  44.8919630   2.1850011  73.5880995
  64.6931171  56.8422413   9.0378010  64.7129917  57.0444632   9.9731851
  64.5191193  55.9017611   8.9997238  23.0271268   5.7620525  81.7042637
  22.6454377   6.1096120  80.8981895  23.1116939   4.8222604  81.5434170
  64.5380449  54.1398478   9.3812364  65.0437593  53.3839226   9.0827942
  63.6525917  53.7998676   9.5101506  10.8666313   1.0265883  72.2372818
  10.9095860   1.1305920  71.2867212  11.6482556   1.4731669  72.5626516
 109.1277599  94.8064995  89.2647076 108.9108086  94.1655827  88.5876656
 109.5890331  94.3010426  89.9340153   2.9956937 103.1973934  76.2605333
   2.3192368 102.8369808  75.6871748   3.6927581 102.5414753  76.2502956
 103.6319256  93.2025623  76.4080048 102.8400898  93.3020878  76.9365168
 104.3211365  93.6142349  76.9293022  49.8467064  22.1096683  11.6972113
  49.5889473  21.2503195  11.3635802  50.7482481  22.2229195  11.3961589
   0.6960938  94.1800690  52.9366922   1.1786443  94.7712231  53.5145473
   0.3651554  93.4948158  53.5173273  82.1096794  19.8117033   0.1834985
  82.4591990  19.8651472   1.0730001  82.7263583  19.2472092  -0.2826384
 116.2840652 110.2885437  88.4194756 116.5288639 109.9837875  87.5457382
 117.0508385 110.1027584  88.9614964  25.3025150  16.9343638  61.9582033
  24.9845982  16.3575673  62.6528025  25.5079508  17.7559161  62.4043894
   1.6932277 105.9199429  95.9957981   2.5320944 105.4627705  95.9364033
   1.0401393 105.2488232  95.7975388  37.1666837   2.7987093  78.5695124
  37.7749372   3.3454230  79.0668726  36.3626909   2.8013074  79.0889549
  37.9265952   1.6210261  89.5454502  38.1524444   0.6992605  89.4206619
  37.0509529   1.7062503  89.1683292   9.5700282 100.3264904  79.5435953
   9.7593582 101.1899853  79.1764975  10.4046607 100.0334740  79.9093294
   0.8691978 108.8714886  84.7080517   0.5054949 109.7147751  84.4381905
   0.3143450 108.2220745  84.2760468  46.3809061  43.6591053  17.9318833
  45.6368828  43.9755058  18.4442782  46.3431692  44.1626596  17.1187162
 107.7102947  93.3884811  87.0489216 107.7787876  93.7496185  86.1651134
 106.8379593  93.6469460  87.3463249  96.7535496 104.3962765  93.7830734
  96.1356258 103.7646770  94.1511536  97.4993706 104.3790913  94.3828106
 110.3909016 100.3567410  73.3473635 109.6234608 100.0316525  72.8766251
 111.1104774 100.2682686  72.7223730  83.3176517  14.8080373  71.1368132
  83.9401245  15.1753592  70.5092573  83.1557274  13.9190090  70.8211517
   6.1845350 110.1739979  82.9387760   7.0334685 109.9966526  83.3438587
   5.5453783 109.9584389  83.6179256  45.3954029  16.7338383  71.3371611
  46.1411619  16.7550945  70.7374763  45.5076647  15.9211409  71.8302631
  51.8146467  11.9983780  61.3144445  52.2481489  11.1626148  61.1418009
  51.2437344  11.8220890  62.0622540  17.2359502  76.2031269  41.9489622
  18.0456257  75.7052708  41.8358278  17.5238061  77.1117592  42.0370197
  14.7913909  93.5352325  83.4744167  15.6883216  93.2781410  83.2607555
  14.4692576  92.8332520  84.0398216 107.9726696 110.9918404  67.8878736
 107.3909569 110.2320766  67.9124737 108.8175106 110.6564522  68.1878519
 108.5108185  98.9167118  71.6716719 108.0235672  99.7398281  71.7076588
 109.1889954  99.0684128  71.0134220  23.6580706  77.9076433  51.6088676
  23.0822706  77.8514481  50.8462906  24.3064928  78.5703850  51.3710642
 112.0752811 108.5355377  62.2614670 111.2206936 108.8389301  61.9550705
 112.6200962 108.5198402  61.4745998 114.9352646  99.9310780  46.6675472
 114.2310333 100.1389122  47.2816324 115.6808376 100.4468441  46.9746780
  23.4276891  95.8215523  70.8538246  24.2100477  96.1826229  70.4369640
  23.5175419  96.0577965  71.7770529  29.2219281  11.0445559  70.1710558
  28.9906216  10.2893829  69.6302748  28.9645767  10.7920051  71.0577440
   2.9150209  88.5178947  59.1308069   2.8587085  88.8656998  60.0208044
   3.1024587  87.5866890  59.2489767  42.5952816  11.0619926  73.5161209
  42.9895449  11.8464231  73.8975143  43.3186054  10.6245029  73.0670834
  27.4541163  35.9241176  95.4329491  26.7620707  35.2861238  95.6069279
  27.0235729  36.6120934  94.9254513  66.0730267   9.7180527  68.8818216
  66.8935633  10.1131463  69.1765404  65.4720259   9.8373979  69.6171999
  63.7296200   1.8654522  79.9119663  63.6550617   1.3928525  80.7410145
  63.6204863   1.1912667  79.2412996  44.8526287  14.0828443  72.1104002
  44.2164946  14.0314066  71.3970137  45.1034784  13.1736362  72.2736406
  37.5614190  16.7704952  80.9950447  36.7240596  17.1877694  81.1973858
  38.2195902  17.3791206  81.3306332 100.9851170 103.7658405  75.8808279
 101.8927670 103.7627983  75.5768824 100.4638290 103.7850666  75.0782537
  22.5235438   4.7702032  60.6049299  22.7940941   4.0148497  61.1269188
  21.6890740   4.5067507  60.2170038  13.8225722  93.5623837  54.6481848
  14.3677247  92.9076958  55.0845718  13.8567591  94.3255138  55.2249813
 115.8141994 101.9238663  85.0406170 116.4402390 102.0808792  85.7474804
 115.0550652 101.5349388  85.4749966  86.0693169  99.0844631  86.5498447
  85.1154423  99.1116714  86.4749146  86.3560677  98.5924530  85.7804680
  28.7647080  92.0100689  75.2354670  28.1398988  91.3496876  74.9358797
  28.2668090  92.8275776  75.2371025  13.4355664 104.0972137  57.1463203
  13.3897448 103.1433582  57.2117472  13.1445670 104.2904186  56.2551260
   9.4925070 104.0988350  55.5326700   8.7914133 103.5765934  55.1428366
   9.5579857 103.7784195  56.4322662  35.8787513  95.3427410  86.9300175
  35.2904916  95.4098225  87.6821327  35.4051352  95.7704926  86.2166119
  57.4417686  11.0117316  92.1997929  56.9302845  10.7828057  91.4237690
  58.2135677  10.4474902  92.1529675  12.7855599 109.6825695  71.0662127
  12.2310507 108.9355850  71.2915087  12.4814415 110.3876209  71.6377449
  19.3603551  20.4822278  97.1832943  19.8221600  20.8585334  96.4340496
  18.8545585  21.2107253  97.5434113  85.1389980  54.5007992   3.2500589
  84.3472862  54.6934366   2.7477536  84.9488831  53.6711359   3.6879495
  66.8655539  14.4141328  77.8479290  66.0932064  14.3862939  78.4126663
  67.6057577  14.4236708  78.4547567  95.3841686  28.4465671   1.3323545
  95.2457428  29.0499949   2.0623854  96.2118149  28.7281036   0.9425232
   5.5983204  97.3484993  86.6368771   5.2718955  98.2323170  86.8058205
   4.8478228  96.7793369  86.8072891  10.2871203  95.8649063  66.6089487
   9.8276687  96.2871647  65.8831167  11.1287296  96.3184643  66.6559362
   8.6858672 107.5152111  42.7630711   8.5273808 107.8899288  43.6294985
   8.0490202 107.9483032  42.1946621 114.7978592  99.9915981  92.6703930
 115.2207851 100.0328541  93.5280991 115.1644516  99.2083836  92.2600079
  52.0546103   9.7278321  54.1914654  52.5602007   9.2473370  53.5359192
  51.2348652   9.9468476  53.7484264   5.8729357 104.0450478  69.1001701
   5.6601340 103.3108139  68.5241032   6.2248075 104.7151089  68.5141325
 119.0762117 102.8093624  72.4529600 118.1277702 102.7201557  72.3595095
 119.2885856 103.6150265  71.9817543  63.1212854  13.0332243  69.7046995
  63.5514021  12.2848845  69.2909145  62.5113678  12.6428890  70.3306961
  60.4863977   1.7200026  84.9913597  60.1095390   1.8799406  85.8565998
  60.0942755   2.3902681  84.4317055  24.2509174   9.7215796  68.4810591
  25.0232720  10.1012027  68.9000893  23.5548353  10.3593051  68.6392021
  37.1247602  12.6703942  64.4611788  36.4445305  13.2248330  64.0789223
  37.5677228  12.2806871  63.7074232  58.1311721   0.1596617  70.5120897
  57.2235090   0.0714850  70.2212191  58.0842800   0.0956988  71.4659977
  11.3525307  92.5622845  70.3931379  11.9936287  93.1114006  70.8444691
  11.1242151  91.8866158  71.0315514  25.1171541 111.0706425  72.8994942
  25.8756351 111.0654259  73.4833670  25.4440165 110.7017612  72.0789337
   3.3412933 105.4595375  77.6992750   3.2046884 104.7093201  77.1206951
   2.5646222 105.4752445  78.2585287  11.8760955 105.0890446  61.5269232
  11.5483129 105.5740356  62.2842741  12.7964783 104.9217033  61.7297125
 104.2619514  99.3540192  65.7831764 103.5423565  99.7806168  66.2483978
 104.3468475  98.4992313  66.2055016   7.7861887  93.8705158  96.7662334
   7.1732789  93.4204769  97.3476410   7.5728846  93.5420704  95.8928108
  21.3864493 108.1767750  46.6479731  20.5176520 108.2199287  47.0474195
  21.9885826 108.3911991  47.3604965   0.3039392  91.3682270  65.5884457
   0.9621202  90.9577274  66.1492586   0.7550631  91.5139961  64.7568941
 111.0374928  97.3103905  85.3989983 110.4302502  97.8795433  84.9261856
 110.8963966  96.4426041  85.0204754  58.7858295   4.5553184  69.6331644
  58.4506226   5.4507244  69.5871449  58.5556793   4.2583659  70.5135489
   5.9610122 107.8410625  86.6363621   5.2983278 108.3936977  86.2220192
   6.1238515 108.2564354  87.4832344  15.5328786  88.7548733  62.2038794
  14.8028266  89.2864037  61.8865013  15.6966543  88.1278610  61.4994144
 116.0663605  91.5880966  75.2417326 115.1711273  91.5226936  75.5741596
 116.0704994  91.0418224  74.4557285  13.9001358 105.3716087  69.5137167
  14.5304263 105.0332355  68.8777351  13.9525855 106.3227749  69.4201136
  12.2616351 101.9394207  71.5564394  12.3071373 102.8513908  71.8436146
  11.3362551 101.7968464  71.3575029  94.9121189  36.9652987  11.8403220
  93.9940739  36.8658090  12.0923543  95.2138996  37.7293921  12.3315632
 112.4444771  93.2526398  65.7522869 112.7039242  92.3323154  65.7962513
 113.1840992  93.6901188  65.3306198 117.3579025 102.4532127  79.8275185
 117.8128815 103.1756401  80.2603245 116.8158245 102.0656013  80.5146503
 112.8148937 103.9409733  67.9585457 113.1165028 104.3876076  68.7496185
 112.1201134 104.5033455  67.6161289 111.9903183  46.4080572   0.6906120
 111.8669033  46.7096186   1.5906473 112.4597263  47.1229649   0.2607254
  41.3011360   5.2839077  82.7167892  41.5217876   5.8950877  83.4196472
  41.3779783   5.8022410  81.9157600  97.5722504 108.2178307  87.8890038
  97.6084709 107.3270893  87.5404358  98.4883308 108.4885883  87.9499912
  19.2602301  97.8332233  60.8515263  19.6448815  97.3984241  61.6125917
  19.6913397  97.4263763  60.0999594  68.4273911  13.7232196  83.4340286
  68.6539221  14.5774436  83.8017464  67.5608397  13.8508236  83.0479717
  27.5012064  95.7163048  66.5746260  28.2254672  95.0905704  66.5863276
  27.3920274  95.9390354  65.6501245   0.9900743 104.8989010  79.0905380
   1.4436579 104.1142273  79.3984032   0.2513594 104.5644951  78.5819054
  12.0362949 109.5163250  60.0829315  12.5331342 108.7517166  59.7918129
  12.0942581 110.1320076  59.3523073  53.9054871  16.9070661  89.6118832
  54.3573618  16.6269100  90.4078388  53.1467009  16.3268113  89.5503902
  10.9566963 106.0773849  64.3556595  11.3476813 105.2524471  64.6434784
  10.0242996 105.9810162  64.5495224  17.1950758  98.3897114  74.9624825
  17.5156653  97.8140354  74.2681837  16.9638371  99.2021561  74.5122719
  24.5646405  97.7910423  55.0263214  24.1685677  98.5732746  54.6423149
  23.9978933  97.0728302  54.7448778  77.2400522   7.7576464  48.6823034
  76.9713402   6.8526506  48.8404417  76.4397907   8.2692897  48.8007593
  45.2445221   2.3765047  90.4794788  45.0161886   3.2719344  90.2298737
  44.8568487   1.8308727  89.7952080  60.8811855  16.4859235  46.6063213
  61.0587692  15.6634891  46.1499214  61.5948057  17.0660460  46.3409233
   3.5415408 101.9987202  49.6720839   3.3717617 102.9401779  49.6392822
   4.1063920 101.8307877  48.9177799  46.4141369   5.1860225  64.2764664
  45.9424591   4.4330055  63.9204884  45.9223223   5.9458196  63.9649248
  14.3215048   1.0419873  66.7031288  13.6295998   1.6704954  66.4970303
  15.0740886   1.5836358  66.9407558  79.8136330  28.5239196   8.4694356
  79.1116238  29.0215516   8.0501789  80.2906704  28.1237006   7.7424634
 112.1758938 112.0130539  89.5007515 111.6086006 112.6161194  89.0204144
 111.5765762 111.3675880  89.8754787  32.2681737   3.5346344  58.7625694
  31.7024088   3.0769929  58.1407118  32.7958393   2.8423086  59.1606712
  20.8565784  97.2148323  63.1598282  20.1025367  96.7760754  63.5537195
  21.1458254  97.8383350  63.8260269 118.3250046 106.5784359  52.0199490
 119.0488243 107.1925354  51.8966436 117.6017570 106.9572544  51.5203047
 115.7303429 104.1926575  59.4742441 115.8656120 104.6270370  58.6320734
 115.5876064 104.9089146  60.0929785  11.6000509 108.3561611  51.0879755
  11.5902436 109.1589165  50.5667114  11.6438115 108.6598587  51.9946623
   8.8912982 102.8918362  67.9228926   8.8786507 102.2507191  68.6335564
   8.6417472 102.3924541  67.1453428  13.3623278 111.3615799  87.4474049
  13.9415956 111.3662624  88.2094097  13.2565689 110.4347992  87.2326374
  86.0909707  79.4286839   0.0594636  86.5686852  80.2564088   0.0057241
  86.7302091  78.8051549   0.4041692 103.1265354 105.7356358  70.5087709
 102.2821236 105.9548569  70.9026480 103.7629509 106.2512016  71.0041428
 105.7721806 103.2267284  69.0432453 106.5800953 103.7327480  68.9570332
 105.2404785 103.7279224  69.6615791  14.0815663  99.8318291  74.5339966
  13.9820147  99.0262699  74.0266562  14.8317122 100.2740288  74.1365433
  96.5784168  91.9686890  56.3310194  95.7088184  91.5730000  56.3898945
  96.5799141  92.4191284  55.4864311 100.0355148  74.9182606  64.3225622
  99.5267105  74.8614931  63.5137796 100.7243061  74.2617321  64.2187929
  23.5680079  99.2126560  67.9381180  22.7237749  98.8107014  67.7333307
  24.2156816  98.6019325  67.5863075  27.1695399  95.9645844  71.6799307
  27.5358820  96.8331623  71.8460512  27.7721810  95.3628731  72.1169615
  33.7754750   0.4451985  55.2822590  33.3600163   1.2980065  55.1544142
  34.7140169   0.6256530  55.2292728  15.2795780  80.0182247  47.2470522
  14.6567595  80.6435585  46.8765450  16.0558558  80.5420685  47.4450636
  16.5300012 104.6937561  69.7725916  16.9520009 104.3317413  68.9934301
  17.2316384 105.1542664  70.2328825  37.4315333  19.0969455  78.9230919
  36.9446898  18.3099234  78.6785269  36.7764926  19.7948945  78.9184380
  25.4287362  99.8663616  45.4258728  26.0039401  99.1290855  45.6303167
  24.5458794  99.4981194  45.4604578  84.6668530  10.9624958  48.2252216
  85.2649879  11.2990642  47.5579977  83.8569260  10.7778823  47.7496386
   1.2300585 107.0016670  68.0128908   1.5135987 107.9143047  68.0669641
   2.0284604 106.5144730  67.8093529  62.7132940   7.8354031  56.7395687
  62.5202513   7.2526014  57.4739456  62.6291275   7.2800279  55.9645176
 102.4332237  35.8601046   9.8817021 102.6385212  36.1633444  10.7660842
 102.3298836  36.6631317   9.3711138  67.4032307  13.8451242  75.2926064
  66.4953947  13.7389219  75.0083733  67.3710108  13.7357354  76.2429905
  67.5243235  27.5203848  44.9692392  67.6943350  26.6016507  45.1772165
  67.8641605  28.0033422  45.7225609  10.5660653 109.4315052  65.3613043
  10.9760284 108.9519501  64.6414518  10.5791044 108.8179874  66.0959244
  24.2789197  24.1322064  88.1286335  23.3985567  24.5037174  88.1849384
  24.1480803  23.1895351  88.2310200  15.4002631 101.5422535  67.1182156
  16.2239814 101.1775684  66.7946100  15.4759192 101.4960670  68.0713034
  53.6114740  23.8444328  66.0716200  53.3433151  24.7605014  65.9999371
  53.2726765  23.4327841  65.2766371  73.4233093   2.4352036  64.6216536
  72.7088404   2.8073823  64.1046858  72.9858160   1.9676222  65.3331280
  69.9147797  14.1657710  53.1364107  70.7779551  13.7736177  53.2682180
  69.9392462  14.9755764  53.6461639  33.2523203 100.1892757  65.4959106
  32.7594209 100.2092648  64.6756172  32.5813794 100.1913452  66.1786032
  10.9865963 101.8039703  47.6454973  11.2675202 100.9528542  47.9815435
  11.4417374 101.8929482  46.8081474  15.6827080 107.0988369  82.1518993
  15.1653469 106.5636158  81.5501499  15.7848418 107.9364681  81.7000580
  24.8381209  18.3640409  91.2249947  24.2771983  18.2962263  90.4523468
  25.1904345  19.2532718  91.1879063  11.5615356 102.3998642  68.5165024
  11.4931047 102.6782513  69.4297647  10.6600773 102.4101257  68.1947899
  57.8857517   4.1779345  94.0864182  58.1470633   3.2708150  93.9280510
  58.7054205   4.6331307  94.2792130  53.7651777  23.6364961  79.8234081
  54.2896414  23.7555099  79.0315676  54.2991114  24.0127254  80.5231190
 117.6037121 102.9780960  62.5171709 117.7679539 103.8081646  62.0696783
 117.6873684 103.1869316  63.4475613  70.2286530  26.5985298  57.2829533
  70.2499723  27.4808574  56.9124413  71.1356354  26.4216113  57.5325918
  26.5818596  35.0619006  78.2870531  27.4790502  34.8899293  78.5728979
  26.6697669  35.7396197  77.6168299  62.8188896  25.4155135  88.4409142
  63.0422735  25.7851458  87.5866890  63.4022379  24.6625948  88.5360527
 118.1350136 110.1508617  76.1323452 118.5736370 110.9165668  76.5032244
 117.6801491 110.4862213  75.3597736  22.5820923  99.2796612  62.1483612
  22.9159427  98.7308216  61.4387512  21.7753291  98.8463879  62.4269962
  56.4458370  21.1816502  69.3876076  55.6601143  20.6475234  69.5041466
  57.1693516  20.5566621  69.4339228  23.6100984 101.3920975  87.5971222
  24.5122290 101.4406681  87.2808361  23.6215520 100.6891632  88.2467270
  73.8275814  20.0639439  38.1501460  74.1489029  19.7955453  39.0109301
  74.4689798  19.7100449  37.5340319  32.4777675  89.8909664  75.6211615
  32.2244143  89.1689587  75.0460529  32.7506351  89.4653320  76.4339399
  36.6914511   3.1021538  68.5723972  37.6411676   2.9976571  68.5145283
  36.3396025   2.4045977  68.0193615  19.7428739 100.1070786  80.2772045
  19.5558703 101.0451603  80.2417660  18.9294481  99.6898174  79.9935484
  89.6811676  55.7864523   4.7263336  89.6784496  54.8294735   4.7060451
  90.5840015  56.0188532   4.9433839  53.1183815   0.2042168  70.2227449
  53.0848980  -0.6593481  69.8112011  52.5823069   0.7600352  69.6571302
  16.9340837 106.6067314  53.1432819  16.7314899 107.5379276  53.0535173
  16.6085958 106.3735294  54.0127087  61.3727236   4.0687692  55.5536985
  61.9523525   3.8195902  56.2735415  60.5010128   4.0998656  55.9478855
  55.7063437  25.6408882  75.1616478  54.7593260  25.5856776  75.0338173
  56.0751104  25.4781032  74.2934656  63.5897303   0.7752086  82.2996235
  62.9224539   0.1483796  82.5790119  63.7693834   1.2980106  83.0810547
  27.3436332   1.7294861  56.7495680  26.8143845   2.1660221  57.4170732
  27.8601217   2.4326247  56.3557816 115.7536507 111.9452953  54.5870590
 115.7791519 111.1660576  54.0317488 116.4935398 111.8377876  55.1847506
  14.2683017 108.1880093  68.7452698  13.5991740 108.5232067  69.3420458
  14.0489876 108.5751247  67.8977633  59.2524910  20.8069491  76.0842705
  59.1983795  20.8789325  77.0372248  58.5528183  21.3746119  75.7610846
  52.6065874  22.5395393  76.3471794  51.9372034  22.6407528  75.6704903
  52.1965694  21.9816113  77.0081139  48.1239557   2.3574507  69.7478533
  48.1904745   1.9845679  70.6269264  47.2078562   2.2290145  69.5018959
  78.3361721  15.7578385  81.5858459  78.8331699  15.7018387  82.4019814
  78.0047274  16.6556537  81.5683746  62.2174454  19.7120035  72.3303986
  63.1231308  19.5300639  72.5811148  61.8303347  20.1155901  73.1072521
 106.2863541  51.3462019   3.0607942 105.9998322  50.5051231   3.4167707
 105.6235218  51.5677595   2.4067314  62.0401478  18.5215187  65.0293493
  61.5315771  17.9570222  65.6115294  62.8155565  18.0043268  64.8114395
  12.0431614 111.9534683  64.7334194  11.6604686 111.0772610  64.7785568
  12.4884176 111.9770145  63.8864088  49.0724468   4.8008412  64.4450665
  48.1929255   5.0437760  64.1558361  49.1080189   5.0764424  65.3610420
  89.3636703  67.3437977  13.5223031  90.1774311  66.9993782  13.8902688
  89.4687366  68.2945871  13.5568357  55.4197168   8.1427455  77.6321554
  54.6579933   8.6883688  77.8278637  55.1857996   7.6857835  76.8242550
 103.4743118 103.1246662  58.9150286 103.6486053 103.0197716  59.8503637
 103.1794071 104.0310001  58.8265181  59.3598747  23.3684587  96.1085892
  59.0403271  24.1597772  95.6750774  58.5714912  22.8520465  96.2759209
  48.3981180  26.1669374  85.3846741  47.7820015  26.1821318  86.1170673
  48.0037832  25.5661607  84.7523785  47.0032072  11.9858932  76.3549185
  47.1789694  11.0452271  76.3770247  46.8421459  12.2209954  77.2687149
   9.3142873 109.1179657  47.6747799   9.4142413 108.4940338  48.3937788
   9.9472547 108.8292122  47.0173550  48.4634161   8.4848720  57.5408411
  47.8741646   7.9060662  58.0245781  48.2180119   8.3641660  56.6235447
  11.7536819  93.8107109  64.3557835  11.1300695  94.2179203  64.9570465
  11.2129605  93.2706356  63.7794304  55.6165171  18.3153307  84.5718861
  55.7820320  19.0912390  84.0363407  56.4135456  18.2081378  85.0909996
   8.1991398  97.6976299  87.7550888   8.7520295  97.6537228  86.9749451
   7.3074365  97.5942039  87.4228287  68.6965847  19.4726813  68.9783144
  68.1608915  19.8892975  68.3032656  68.7677240  18.5601270  68.6982870
  21.5841746  97.2817516  73.5078287  21.6888642  96.6168404  74.1883850
  21.6316843  98.1145573  73.9773083  75.9722185  29.1739035  44.4602299
  75.6340313  29.7585106  43.7819242  76.4322281  29.7529626  45.0679398
  58.9848375  18.9830720  59.1317940  59.0639687  18.7116838  58.2172918
  59.7536039  19.5321000  59.2860794  23.0244803 100.0728512  76.3389158
  22.7321911 100.6836700  75.6623745  22.2215939  99.6486568  76.6416788
  41.6583252  86.4157677  77.1673727  41.1601067  86.3069439  76.3573313
  41.8066502  87.3591614  77.2324324  27.4602771 102.3531342  61.3763046
  27.2457910 102.5765419  60.4705906  26.9950056 101.5322208  61.5371227
  21.2102318 102.9884148  93.6067867  20.7413960 102.4123383  94.2105865
  21.5380239 103.6983013  94.1589165  69.1576672  16.0198987  56.0282850
  69.7176123  15.4571128  56.5630388  68.3234835  15.5528033  55.9814692
  65.3311872  23.2863736  77.9625845  64.9014568  24.1056323  78.2083035
  66.2627602  23.5042810  77.9322290  55.8638382  30.0730610  67.5167847
  55.8264160  30.8967137  68.0030251  56.5311909  30.2206469  66.8466473
  71.5911293  20.3750372  74.2518091  72.2810364  20.7999539  73.7421942
  71.9833326  19.5535254  74.5476580  75.8684778   4.1171148  74.0851593
  75.4513979   3.3944240  73.6161280  75.2691507   4.8546124  73.9705563
  66.6830206   2.1977177  79.5620298  65.7485008   2.2958174  79.7444677
  66.7163420   1.7294395  78.7278605  98.5498047  11.2881243  44.4136667
  97.9196072  11.9908035  44.5727873  98.0697155  10.4853070  44.6167278
  46.3367844  13.5404861  40.5181551  46.5628719  14.0458250  39.7372913
  46.5133476  14.1347623  41.2474632  58.5222816   1.1314175  95.5149269
  57.9701042   1.8194483  95.8863354  59.4171858   1.4412755  95.6540966
  19.9166155 110.1612091  52.0705605  19.3665469 109.3802071  52.0098019
  20.0950837 110.3998280  51.1609221  74.6949959  13.3243966  84.3829536
  75.3307247  13.6180520  83.7303829  75.2284336  12.9728150  85.0957394
  63.5851908  16.0586965  91.4106560  63.6458921  15.5250633  90.6183243
  62.9683065  15.5870974  91.9703674  24.1652942  97.9733467  40.8506250
  24.5918441  97.2064400  41.2328959  24.8732305  98.4499836  40.4171801
  40.8901978   2.5815380  83.4792042  40.7805538   3.5121804  83.2839775
  41.3470316   2.5654376  84.3202019   2.0560205  53.6700249   9.2821765
   2.4314825  54.5462465   9.3687618   1.8500157  53.4079838  10.1794660
  72.7477741  20.8180308  57.9015207  72.3338747  20.1947951  57.3044491
  73.6865568  20.7049847  57.7527237  58.8097763   7.3349935  69.3524313
  58.8980103   7.6678449  68.4593153  58.8014984   8.1195664  69.9007130
  73.3115435   6.2674677  48.7612438  73.3546591   7.2091490  48.5950804
  72.8572512   6.1928910  49.6004629  15.4761755 109.5194721  62.1837759
  14.9845624 110.0151539  61.5289164  15.2907705 109.9651146  63.0103731
  57.3219919  16.4049065  81.8979549  57.9396296  16.0270441  82.5240326
  57.7695847  17.1796072  81.5577698  54.4851589  13.6017871  68.7322283
  54.1922903  13.5321259  69.6408558  54.8745584  12.7487576  68.5400248
  46.6831303  15.0614429  89.1859627  46.9289923  14.8669267  90.0903702
  45.7868719  14.7350371  89.1059113  78.6021614  50.0689602  69.1548729
  78.6447382  50.5179691  68.3105946  78.5532331  50.7749367  69.7994089
  64.8542118  11.2750697  85.5136490  64.4580030  11.3104129  86.3842869
  65.0122452  10.3435838  85.3600597  63.1651020  13.6723816  86.6170216
  64.1070175  13.7404490  86.4608288  62.8018951  13.3980358  85.7749653
  34.8107457 108.0720806  55.7652664  34.3183732 108.6676216  56.3301802
  34.6297479 108.3798981  54.8771667  77.0622063  18.9738119  51.0170174
  77.7198315  19.6676362  50.9682941  77.0174122  18.6233664  50.1274061
  63.8456440   1.1141530  75.4880095  64.4061470   1.0575052  74.7141504
  63.0292511   1.4955056  75.1650381  51.1744738  10.7891679  51.5235090
  50.9391880  11.6487670  51.1742783  51.6397429  10.3584683  50.8063936
  39.8040223  15.2903092  63.4113598  39.0096331  15.3814983  62.8851843
  40.3537369  14.6860671  62.9124260  25.7293057 110.7630348  62.5436735
  25.2771592 110.4038048  61.7802906  25.8506370 111.6895485  62.3361349
  61.9603205   8.7839013  88.5263920  62.1366405   8.6575067  87.5940990
  61.1522198   8.2961923  88.6855888  52.7164650  22.6328588  69.5048761
  51.9000483  22.4095297  69.0578604  53.1457376  21.7905116  69.6545696
  46.2790060   8.2231158  77.9460478  45.8937263   8.9454603  78.4420395
  46.5016031   7.5693601  78.6088324  73.3713675  15.5291259  78.0417585
  73.5342550  14.7386026  78.5563183  74.1437721  16.0747206  78.1898975
  50.2289915  17.5041234  82.3159790  49.2807007  17.4761963  82.1886921
  50.3844929  16.9493151  83.0803394  14.9770248 104.3395138  80.6743622
  15.5314088 104.7714996  80.0245285  14.0929258 104.6504307  80.4796124
  88.3676910  48.7960148   2.9472452  88.6495495  48.9055300   3.8554284
  89.0965843  48.3430910   2.5232106  12.7365720 104.1525841  64.5661020
  13.3359444 104.3570709  63.8483477  13.3053720 104.0344906  65.3268623
  69.2433548  31.3858128  71.0853958  69.7170782  32.1560884  71.3992310
  69.8939276  30.6837630  71.0959721  90.8051014  21.9841719  73.7747955
  90.1831055  22.5678682  73.3404636  91.0850716  22.4679518  74.5518446
  44.2722082  22.2386837  95.5050755  44.7092915  22.4950528  96.3171482
  43.8185263  23.0307412  95.2168941  60.9537125   0.9503495  58.9063692
  60.6740284   0.1335327  59.3196678  60.4401636   0.9988793  58.1000519
  18.1148589   5.7022482  73.4281206  17.5399017   5.3498614  74.1074419
  17.8783667   6.6279936  73.3706903  69.4548464  19.0131545  38.3652449
  68.6602688  18.8067412  37.8730297  70.1694918  18.7164533  37.8017926
   6.8818808  98.7398911  83.5938072   7.0531356  98.2160187  82.8112030
   7.3508632  98.2854080  84.2936134  65.7585621   8.5381263  85.5955887
  66.3652086   8.0190080  85.0676441  65.8429337   8.1797713  86.4791584
  23.8630438 110.0483608  65.8562279  24.3857026 109.2902565  65.5948067
  23.3224440 109.7289276  66.5786886  72.3087931   4.5032385  57.3192120
  72.3026562   5.1228285  56.5896225  72.5878668   3.6753815  56.9280577
  61.3945961  11.4522493  68.0873775  61.8236494  10.6323063  67.8427649
  61.6393280  12.0664215  67.3951864  70.8840418  24.0726924  47.2559690
  71.0613346  24.9975061  47.4277782  70.8061457  23.6783433  48.1246805
  88.1834698  60.9754229   2.6048502  87.3696899  61.1798525   3.0655116
  87.9261589  60.9003496   1.6859439  47.7748823   8.4580016  75.5981350
  47.4061680   8.2374674  76.4534998  47.6131821   7.6827246  75.0605202
  56.5824986  15.1592410  62.7732038  56.0046816  14.6190166  63.3122015
  57.1302366  15.6268549  63.4037209   1.4004232 109.8993397  68.2882118
   1.3452734 110.4561520  69.0648365   1.1606577 110.4758263  67.5626659
  55.5938721   7.6715368  66.9574928  55.9102201   8.5674500  67.0736599
  56.3086843   7.2216439  66.5070772  34.1031265 111.1538506  92.9251385
  34.2336321 110.9303951  92.0035839  33.1975007 110.9025669  93.1065941
  55.3069878   6.0139066  72.7687168  54.9571705   5.1237643  72.8075266
  54.8004627   6.4403868  72.0775032  59.7570562  13.2315361  86.1858368
  59.7724724  12.6394904  86.9378185  60.6026173  13.6791420  86.2160397
  16.4050746 103.5931683  63.3864880  17.1558404 103.6655617  63.9758444
  16.7859387 103.3529186  62.5418282  61.6960812  23.6513090  79.8027277
  60.9717894  23.3040285  80.3233337  62.4211311  23.0489826  79.9692774
  14.6900976 102.3759556  70.2648830  13.8043928 102.1445751  70.5445671
  14.8268235 103.2588100  70.6085300  60.1209021  21.8451858  81.4708614
  60.4469490  21.0385013  81.0718822  59.4046688  22.1224499  80.8995819
  37.6581645   5.9735864  66.2972736  38.5635543   5.6650215  66.2613964
  37.2903109   5.5472124  67.0713043   9.3371665  98.8309765  69.8860598
   9.9338293  99.0649223  69.1750813   9.9021798  98.4461308  70.5560493
  21.9274664 108.3389568  67.2363853  21.9112206 107.7300549  66.4980030
  21.0055661 108.4745407  67.4553490  55.3338957   2.6132759  65.4878616
  54.3845558   2.5553095  65.3800583  55.5142689   3.5527450  65.5209637
  59.4400167   5.6101412  33.4956121  59.4134808   4.6770501  33.7074351
  59.7673512   5.6424701  32.5967026   6.8558276 102.3620605  53.7968826
   7.3920757 102.6768684  53.0691671   5.9748530 102.6808071  53.6006308
  21.0209060 109.2275906  96.1427593  20.2756810 109.3730259  96.7256165
  20.6439137 109.2448807  95.2630901  25.5653000 106.6926670  77.8672743
  26.1584139 106.6092110  78.6139250  25.5007601 105.8060265  77.5123930
  85.9025574   5.6526756  44.9979353  86.8221855   5.3945279  44.9356842
  85.6354618   5.3777379  45.8750343  59.2787838  21.6504121  71.8214846
  60.0207233  21.7968822  72.4082661  59.6774435  21.3817692  70.9937572
  51.6916275   6.1598986  96.4494896  52.4583673   6.0408747  95.8889675
  51.1297226   5.4114205  96.2487984   2.7855361 103.2888126  93.8254261
   2.1312121 103.9597416  93.6306381   2.4790263 102.5122452  93.3572102
  62.9686213  25.9540200  50.3196096  62.8398800  25.4544282  49.5133448
  63.6994600  26.5403771  50.1239347  40.7375479   8.0384922  91.1596203
  41.6213179   8.1924069  90.8257103  40.5801105   7.1078300  91.0005188
  38.4312487   3.3547220  65.1276588  38.9898419   4.0747443  65.4205275
  37.5618768   3.7458557  65.0414085  41.3759756  17.0121586  64.9487734
  40.8526659  17.7559483  65.2473640  40.7497215  16.4427722  64.5017433
  14.8554099  99.8570442  57.9798555  15.6170917 100.4201889  58.1175184
  15.1600623  98.9805031  58.2145452  66.3094807  21.8006063  62.5798559
  67.1562862  22.1637630  62.3204803  65.6850529  22.5068736  62.4139929
  51.5708971   4.4973743  72.3812342  50.7797527   5.0335109  72.3275948
  51.2707233   3.6080357  72.1936035  57.2995377  18.4786057  30.6673098
  57.0429611  17.7699876  30.0771737  57.3622084  18.0631781  31.5273809
  45.2265453  21.2095928  84.5350933  45.3109503  21.0149455  83.6017036
  46.0292101  20.8637524  84.9254227  49.1444969  10.9830832  55.2333450
  49.1960764  10.3764892  54.4946861  48.7026119  11.7547762  54.8791409
  55.6868649  12.5720465  77.3971033  56.1703062  12.4132097  78.2078362
  56.0794067  13.3668554  77.0359659  47.3460627   5.0948298  60.7336903
  47.8394938   4.3479699  61.0727453  46.5115261   4.7216302  60.4499531
  22.4294639  11.7559445  72.4085426  22.6333666  10.8213675  72.4434710
  23.1939363  12.1825111  72.7956533 102.6446247  68.8437939   5.6224918
 101.8822575  69.4223356   5.6401974 102.9829884  68.9206934   4.7303981
  63.9376640   9.8584378  70.7291985  63.6640644  10.5587876  71.3215542
  64.6397448   9.4081467  71.1988258  41.6056061  13.6504662  80.8924675
  41.5744877  12.8814030  81.4615059  41.7076159  14.3888068  81.4930344
  50.7789850   1.5339474  69.5768070  50.6258774   1.4792560  70.5200958
  49.9609375   1.8811029  69.2211103  23.1135511  98.6177349  83.7120056
  23.7139344  98.9637375  83.0516624  22.9527736  99.3558979  84.2997932
  46.5660858   7.3168480  59.1876364  45.6328154   7.4920613  59.3081999
  46.7425394   6.5619379  59.7490692  23.5006166 104.4054413  81.9283295
  23.3076954 104.3274403  80.9940243  23.1963325 105.2820301  82.1633530
  29.9894142 106.8332100  52.8427172  29.6389651 107.2305965  53.6398983
  30.4662681 106.0619164  53.1492329  64.6048212  14.4911575  79.5841312
  64.0147686  15.2362239  79.6979141  64.1974068  13.7843430  80.0847912
  43.5177040  12.3795843  63.0308676  42.9574823  12.9965746  62.5600100
  42.9085827  11.7528152  63.4212017   3.0480540 108.2853508  72.2289658
   2.5163084 107.5679684  72.5736904   3.6041430 107.8746128  71.5669298
 114.4949436  91.4864922  80.0698948 115.1655006  91.2450600  79.4309139
 114.9113464  91.3432503  80.9197903  15.6815290 106.5034580  76.9055462
  16.4724898 106.6962814  76.4021206  15.8796227 105.6836319  77.3581791
  31.5766549 110.8114338  94.0766335  31.4750981 111.2710381  94.9101067
  31.5604210 109.8835754  94.3112373  52.0071125   5.6339997  66.3089275
  51.0889626   5.3830779  66.4102650  52.4975252   4.9116504  66.7012787
  64.6890688  18.4926033  43.6084080  65.2230215  17.8630447  43.1238556
  65.2113295  18.7041700  44.3821716  24.2440081 104.7519970  52.6144934
  23.7959003 104.2223454  51.9550276  25.1512980 104.7935295  52.3122787
  64.3988085   3.9326370  76.0661697  64.2439508   3.0650049  75.6927204
  65.1845121   4.2486635  75.6200409  30.0532961  94.1092396  78.7677050
  30.3414917  94.9829578  78.5035324  30.0079012  93.6144447  77.9495668
  65.2190399   8.1780052  46.9713163  64.6816015   8.7879372  47.4766588
  66.0214853   8.0839247  47.4846029  86.8013763  73.5885429   4.9235269
  87.7007484  73.3142185   5.1026738  86.8271923  73.9236307   4.0272668
  59.7741985   5.4272127  79.6277142  59.2037773   4.7283119  79.3077278
  60.1758242   5.0657123  80.4178047   3.0612695  83.7251282   3.1825930
   3.1264448  82.8053951   3.4396499   2.1207260  83.9015102   3.1602940
  63.4586382  18.9165342  91.8137455  63.0409479  18.8269711  92.6703358
  63.4939051  18.0238950  91.4699745  48.4458208   5.2339721  69.7233200
  48.6411428   4.3527776  69.4046068  47.6392078   5.1325923  70.2286243
  45.1977015   4.6173024  75.6977177  44.7405100   5.4256588  75.4658365
  46.0955334   4.8940268  75.8808756  45.5961943  24.4285583  78.0641890
  45.3537464  24.5779967  78.9780378  46.3675976  23.8637257  78.1103373
  18.9812589  95.8181953  64.7644806  18.7621260  96.1334038  65.6413269
  18.1340635  95.6812763  64.3405151  72.5413752   2.0114328  56.0172272
  72.7106667   1.2308602  55.4897022  72.1157074   2.6205593  55.4138994
  19.6877956 111.9160652  80.5907536  20.0177670 112.0505333  81.4791584
  19.5927215 112.7993202  80.2343082 106.3375854 105.1695919  60.2526760
 106.2104321 105.6057358  59.4101620 107.2616863 104.9200726  60.2561569
  34.4218731  16.8314135  71.6340399  34.1108060  16.5933609  70.7606554
  34.0441751  17.6960158  71.7954016  66.9297743  11.3811350  53.8036156
  66.0204840  11.1736739  54.0189838  67.3624372  10.5292964  53.7452459
  68.5887289  10.2845323  87.3878479  69.5147610  10.1715577  87.1735096
  68.5406017  10.1296389  88.3312035  19.1256988 103.0383396  69.1894341
  19.4789755 103.7672901  68.6794710  19.4878817 103.1620884  70.0667810
   9.6428621  99.1817188  76.6589403  10.5511761  98.9005280  76.5488195
   9.6291608  99.6194458  77.5100803  93.4599304  69.2913675   7.5645703
  92.9836750  69.5914221   8.3387655  92.7752113  69.0500593   6.9407475
  52.4238205   7.8001046  64.8329210  51.9092035   7.7294129  64.0289307
  52.1612930   7.0405436  65.3529024  39.8578167   3.3739302  74.8396730
  38.9723444   3.6733711  74.6334982  39.7399545   2.7572370  75.5621862
  34.5151043  87.5933743  83.6936474  34.3685412  86.9784832  84.4124413
  35.1820040  88.1947231  84.0251064  62.3787546  13.1360626  84.0985584
  61.5097427  13.3107209  83.7372589  62.9035759  13.8924253  83.8364315
  38.2296324  14.2091858  66.6852617  37.9164314  13.8114834  65.8728790
  39.1378641  13.9164937  66.7606020  76.6046953   1.1325178  64.8863173
  76.9926119   1.4264636  64.0620947  76.1845493   1.9140175  65.2454376
  60.7641220   5.9806329  38.7908626  59.9695301   5.6753236  38.3530951
  60.8598280   5.3999984  39.5458031  41.7481995  92.2869873  61.8325806
  42.2320223  92.9554939  61.3475561  42.3123503  91.5142727  61.8029976
   3.4069410 103.7736225  81.7827988   2.8891379 103.5078144  81.0228825
   4.2975706 103.8673592  81.4448261  61.9914722   6.3328582  58.8460684
  62.3190117   6.1784923  59.7321415  61.0402489   6.3713533  58.9456558
  26.7405009 111.7656517  30.8071208  26.2372541 112.3493385  30.2394199
  26.8343329 112.2509956  31.6267967  53.1610632  13.8029599  51.9405031
  52.5967264  14.4753575  51.5588808  53.5834837  13.3892882  51.1877298
 117.0453453  54.6934032   0.4634046 117.8350735  54.7043085   1.0041733
 116.3244724  54.7429609   1.0912006  47.5284719   1.1608971  72.2921658
  46.9883585   1.9484693  72.3572969  46.9180870   0.4388508  72.4415541
  58.3360291   2.3545237  79.7982931  57.7366924   1.9849829  79.1498613
  57.9457378   2.1271089  80.6422043  37.6509929   7.6526433  82.3141384
  36.8881965   8.0659628  81.9097328  37.2831798   6.9804704  82.8878307
  47.4321079  20.0119090  68.5207748  47.5589132  20.8104825  68.0084896
  46.5241146  20.0608039  68.8197660  43.5201836   5.5192643  57.8661823
  43.6188984   5.1757663  56.9782114  44.0217781   4.9152923  58.4137678
  33.8672662 112.2868347  44.1723204  33.6183763 111.4250469  44.5063925
  34.0702724 112.7979374  44.9557686  37.4969602  19.9999869  94.5435238
  37.0308518  19.3265808  95.0390053  37.8956771  19.5270121  93.8130856
  57.4008274  21.0830283  64.4341612  57.7575684  21.8345070  63.9606094
  56.8003988  21.4660072  65.0737286  75.1990652  22.4488425  92.4279213
  76.0904026  22.7011490  92.1868992  75.2891016  22.0479965  93.2924747
  77.7079344  20.1886249  83.8639259  77.0670795  20.6233931  83.3013344
  78.5292435  20.6490898  83.6917114  53.7379360   8.0267990  71.2753820
  53.7470198   8.3604240  70.3782511  53.0040407   8.4788817  71.6916180
  48.4540033  26.7857528  63.6079264  49.0231228  27.4996090  63.8955784
  49.0169859  26.0116839  63.6180449  78.3401251  40.2868366  60.6934690
  79.0553474  40.0346613  61.2774992  78.1060171  41.1727667  60.9701443
  76.5405798  35.0882149  74.0598059  76.1173296  34.5159817  74.6998405
  77.4457788  35.1584268  74.3629789  56.2575912  15.2315032  76.1904526
  55.9083128  16.0909057  75.9545183  56.4016581  15.2826977  77.1353626
  76.9654036  42.8763008  84.3978882  77.6451778  43.4660101  84.0717316
  76.9732666  43.0031919  85.3466129  57.7399874  19.2056966  94.7609329
  58.0586100  18.4198344  94.3169403  56.8378448  18.9954174  95.0020790
  77.1057320  11.9938052  78.0816603  76.1693668  12.1046460  78.2464981
  77.5255680  12.2517157  78.9023018  77.6707315  21.6379762  74.0548992
  77.1375036  21.0071492  74.5385885  78.4399796  21.7751026  74.6077871
  57.1662426  39.6523094  64.4225931  57.1012163  38.7421274  64.7116852
  56.2837505  39.8725152  64.1243505  58.3242178  10.2561665  97.3085022
  58.4556532  11.0754502  96.8312836  57.4264097   9.9984950  97.0992661
  78.2122898  13.5568357  52.5376940  78.4450102  13.2066905  51.6777706
  77.9038429  14.4452024  52.3590994  92.7407455  16.2536693  82.2015190
  91.9883251  16.8451345  82.1853542  93.4179878  16.7140520  81.7059135
  36.1540222 107.4944973  69.4629908  36.2696624 106.5675163  69.6717310
  35.7217741 107.4955750  68.6089468  71.0104752  28.8756013  59.9476337
  70.8164930  27.9735684  60.2024651  70.7771397  29.3969369  60.7157469
  64.5942545  10.4521942  62.5554180  65.3815794  10.9944999  62.6029634
  64.8979855   9.6203452  62.1920872 117.6848984  80.3098011  23.7334847
 118.5033512  79.8186636  23.6616969 117.7018738  80.6756306  24.6178555
  68.8197565  18.5891461  57.0021105  68.1840420  18.5571623  57.7170086
  68.8207912  17.7020049  56.6426516  80.1027012   9.4784445  85.7595348
  79.7492886   9.8126376  84.9351311  80.9625816   9.1280800  85.5269814
  83.1082726   9.0635616  51.4019394  83.3966827   9.2181182  52.3014736
  82.1929455   9.3434256  51.3924599  55.8068085  31.4164114  87.4146652
  55.9371758  31.3561630  86.4683056  55.8813143  30.5138636  87.7246475
  68.8131952  41.2187672  67.7157736  69.0700674  41.4782906  68.6005878
  67.8742838  41.4006662  67.6758957 101.2333393  79.3863583   1.3848494
 100.7616615  78.8045025   1.9808309 100.6551456  79.4727659   0.6269240
  82.7063370  12.7796578  75.6936026  82.9582596  13.6538935  75.9910488
  81.7499733  12.7793467  75.7337570  62.4196339  37.5993156  91.2573528
  62.5431967  36.6508794  91.2195301  61.8899488  37.7407408  92.0419979
  69.9311495  28.7250018  55.0731897  69.9134207  29.2895842  55.8459568
  69.0398407  28.3824682  55.0063229  50.4872894  20.8679605  71.0633183
  50.2531338  21.1439657  70.1771879  50.7085562  19.9409008  70.9748125
  54.3697119  16.4796698  68.0528498  53.8823605  16.8946946  68.7645197
  54.3707371  15.5484748  68.2744503  66.0661793  12.3114109  57.1645737
  65.8429766  12.2075510  58.0895758  65.2346706  12.5219607  56.7397213
  67.6968908  18.0628967  79.1691494  67.9580927  18.9237261  78.8420677
  68.0127668  17.4488592  78.5062647  56.1465836  30.9864736  84.7541142
  56.9808340  30.9219313  84.2892551  55.6037569  31.5431595  84.1958427
  61.5810966  12.7452910  72.0262957  61.3935089  13.3422327  72.7506590
  62.0313835  12.0063007  72.4354029  60.0786161  15.8881545  77.5205803
  59.4804478  16.5282440  77.9062176  60.1570320  16.1550653  76.6046953
  58.6415148  39.2504907  62.2691345  58.3962202  39.5900035  63.1298304
  58.2583809  38.3738160  62.2393942  92.0353127   3.2685089  91.1136723
  91.7428112   2.7684924  91.8756771  91.4491940   2.9947227  90.4081726
  77.5238514   5.7791054  65.2955484  76.9419813   5.0195503  65.2684212
  77.7724695   5.8575928  66.2165546  55.4091644   1.0705443  67.9334164
  55.4780817   1.5159784  67.0889807  55.0328016   1.7264891  68.5202026
  66.5940619  13.0989397  92.2701454  66.8878174  12.1885717  92.3043251
  65.8846664  13.0977356  91.6274929  77.5382519  37.8828979  81.2783432
  77.5237179  38.6381626  81.8662167  77.6083374  38.2624817  80.4024220
  73.3182240  26.7557907  62.6436281  74.1299725  26.3843393  62.2981977
  72.8933382  26.0257459  63.0938911  88.5540009  19.2753291  89.3863297
  88.5595131  18.5181117  88.8008118  87.9208374  19.0471864  90.0669765
  60.8087635  25.5674028  65.3829718  60.3076649  25.6715417  64.5740938
  60.1475954  25.3988361  66.0542917  66.2854147  21.4151978  88.7788105
  66.1983156  21.6742110  89.6961784  65.8598900  20.5591631  88.7301922
  63.6493874  13.8286006  50.4565048  63.7596369  12.8940797  50.6318569
  63.7507772  13.9079082  49.5079994  69.8086166  31.8669486  80.7057762
  69.5201492  32.5174618  80.0655842  69.1599798  31.9178271  81.4078617
  61.9256449  33.5521674  66.4695930  61.5933895  33.3649731  67.3475409
  61.1523867  33.8196492  65.9728527  36.9095230  94.3391323  53.2490683
  37.8310251  94.3384361  52.9900980  36.5242076  93.6085987  52.7652454
  90.3452110   7.3102570  90.6241512  90.1037025   6.4133465  90.3929424
  89.6037960   7.6335573  91.1360168  63.3624411  10.5531120  56.7266273
  63.8435411  10.5975783  55.9003115  63.0398321   9.6528566  56.7678022
  33.5767555 106.7943287  62.2401714  33.8094735 107.4780083  62.8683901
  33.7267590 105.9748363  62.7115059  53.2185221  30.3164220  61.1662531
  53.9533520  30.6922245  60.6814528  53.2289028  30.7719922  62.0080233
  59.4808960  26.7313957  70.8214569  58.9519024  26.0652304  70.3825665
  60.3789949  26.4073825  70.7531452  80.8795261  14.6316934  60.9995842
  81.0633087  14.9798405  61.8720818  79.9246120  14.5798886  60.9586334
  84.0832710  30.0859070  62.5735092  84.6967316  29.8609185  61.8740273
  84.6401882  30.2775836  63.3280516  86.1829376  61.4958429   7.0177519
  87.1394730  61.5200472   6.9917005  85.9735203  60.6062889   7.3024702
  75.2347803  22.2529888  41.8793964  75.9091663  21.7763615  42.3634005
  74.7304916  22.7064323  42.5549078  69.3290758  35.3502202  64.5631838
  69.8379803  35.2117276  65.3619766  69.8593235  35.9539723  64.0430355
  53.3570528  32.5282717  65.8916855  52.4409533  32.8056812  65.8973503
  53.6315012  32.5894737  66.8066549  67.7441072  16.3832533  69.0262318
  67.5192404  15.4659617  69.1819429  68.6997986  16.3898706  68.9729977
  60.4973745  18.2180202  75.3255177  60.0977182  19.0296805  75.6381083
  60.1466465  18.1029928  74.4423485  65.2218294   7.2803658  58.9660311
  64.9190140   6.4120436  59.2316437  64.6639490   7.8876233  59.4520760
  60.4176044  33.6966825  69.3930769  61.0391378  33.6417890  70.1189661
  60.2286577  34.6313381  69.3097067  60.9154463  29.3352199  64.0701103
  61.3186026  29.7259712  63.2948637  60.4521275  30.0598860  64.4901466
  61.6138744  29.1062832  71.1789179  61.0572052  29.7248960  70.7059813
  62.3396206  29.6382666  71.5052891  68.1588411   4.4890574  83.3518028
  67.5884628   4.2697799  84.0885639  68.7958717   3.7752685  83.3213520
  77.8909445   7.8935498  73.6385632  77.1839619   7.7719861  74.2723083
  78.4420824   8.5755348  74.0224552  63.6258698  32.9690361  53.1976938
  63.6328316  32.0734835  53.5355806  64.2531109  33.4376597  53.7483215
  86.3494492  37.8030705  57.0341110  87.2055435  37.8550506  57.4591303
  85.7275200  37.7226138  57.7572680  65.9594631   4.6717340  66.8204784
  65.1045656   4.4736809  66.4381838  65.8078384   5.4507035  67.3556900
  45.5647945   7.2340631  62.6257229  46.4957905   7.3830831  62.7908659
  45.5049610   7.1206188  61.6771555  73.5612345  10.1303816  91.4216137
  73.6511946   9.1851127  91.5424633  74.3819094  10.4935813  91.7544937
  79.2093945  46.5191936  73.3617449  78.4975958  45.9912443  73.7234688
  78.8293028  46.9360781  72.5884628  83.2511902   0.6140291  57.0241451
  83.0439663   0.7875662  57.9423904  82.6579952   1.1826042  56.5331507
  67.4074030  30.5697274  51.9778156  67.9221296  29.7784877  51.8189859
  67.8027487  31.2307429  51.4094925  63.9063311   4.1791704  64.8098898
  63.1322622   4.1181898  65.3696489  63.5928202   3.9321777  63.9398718
  58.0109787  18.5357249  85.9683990  58.1385374  19.3141437  86.5106392
  58.5836363  18.6730206  85.2137852  89.3360996  37.2950482  69.1089964
  89.3859577  38.2012272  68.8047171  90.2223587  36.9534516  68.9903402
  77.3883581  30.1307368  60.2665377  76.6725969  30.2598476  59.6442461
  77.8753281  30.9545445  60.2457571  58.9624691   0.0516393  73.2615662
  59.8468494   0.2387391  72.9467583  58.8304853   0.6656286  73.9839458
  52.7116776  29.6234155  94.4533539  53.3693171  29.6640754  95.1476860
  51.8954945  29.4159555  94.9083710  42.4975872   2.4516584  60.0677490
  42.5407600   1.9062008  60.8531427  43.1746244   2.0963728  59.4918776
  60.9423542  30.8097982  68.7621927  60.4526567  31.3263464  69.4021940
  60.2693415  30.4141045  68.2083797  75.4601669  38.9184952  76.3844633
  75.6875658  39.8213983  76.1624575  74.5172596  38.9421582  76.5475655
  70.6623030  28.8198495  70.8797455  70.2499199  28.7480617  70.0189209
  71.1862755  28.0229831  70.9615135  56.9932842  24.8251700  64.7178268
  57.2015858  25.7428980  64.8928118  56.6201782  24.5035529  65.5385494
  63.4665251  22.7006078  58.9926910  62.8796911  22.9164767  59.7174406
  63.1349421  23.2129455  58.2552671  57.9784632  13.6713302  75.0692606
  58.8158989  14.1336429  75.1039124  57.3302126  14.3312359  75.3152895
  60.9893179   5.3085411  88.9711857  61.6216326   5.2243906  89.6848583
  60.1707602   4.9716541  89.3354702  54.3108177   0.4729522  60.2269745
  54.3656111   0.4222797  59.2726898  55.1609087   0.8198451  60.4976082
 109.7177029  79.5108700   8.1341451 110.5529308  79.9515820   8.2903183
 109.2684078  80.0675297   7.4981487  58.0902672   9.6206540  53.9001513
  58.9832354   9.8154575  53.6157370  57.5379896   9.9223137  53.1788826
  62.1364546  22.5527024  86.5556335  61.2880278  22.8693652  86.8656826
  62.2064972  21.6671896  86.9122696  30.6188989   9.5348805  92.1966839
  30.8295059   8.7776643  92.7430344  31.3630390  10.1262283  92.3097897
  84.0143967  22.4914622  69.7701836  83.6270809  21.6907787  70.1239204
  83.3967590  22.7796292  69.0980864  70.4246855  13.1802380  65.4891682
  70.0236082  12.3223209  65.6282568  69.7326756  13.8057780  65.7037687
  89.4080067  30.0588870  42.0376635  88.9696407  30.7883668  41.5995646
  88.7532330  29.7166276  42.6462364  39.4359231  10.0420451  76.4515066
  39.2797685  10.0147462  77.3954868  40.1483583   9.4189775  76.3084745
  60.9286690   1.8187889  78.6955595  60.1431036   2.1916300  79.0956926
  61.6082525   2.4763009  78.8441324  61.5420961  20.5929065  63.3358479
  61.8430567  19.9519706  63.9799404  61.2008572  20.0649667  62.6139975
  63.9760065  20.0978947  75.5633783  64.8353148  19.8429441  75.8992720
  63.8756752  19.5945096  74.7554350  52.1247292  24.0252304  71.8086004
  53.0406046  24.2910433  71.8907881  52.0604753  23.6565447  70.9275961
  65.8903360  14.3691850  61.9998598  66.2904501  13.7032425  61.4406967
  66.6269970  14.7650456  62.4655390  55.6905699  33.1915665  60.3484488
  55.3982544  33.9669609  59.8693371  55.6400156  33.4461308  61.2697935
  43.9855099 108.6158276  70.2949238  44.1964102 109.1945362  69.5622206
  43.3013248 109.0798759  70.7773972  69.0982914   1.8079506  87.4624252
  68.8603258   2.6897463  87.7488518  69.9292803   1.9220093  87.0012474
  64.5381927  33.7602019  88.1652451  65.0781536  33.8996887  87.3872948
  65.1375628  33.8926959  88.8997078  71.8147469  39.1790652  63.6153269
  72.3624325  39.6949816  64.2070198  71.2842560  38.6327291  64.1952658
  13.5778654 109.6083164  41.6151905  13.7948322 110.2739143  42.2679806
  12.6269114 109.5162773  41.6738987  83.2004547  40.9100008  82.9867744
  83.8534355  41.5963125  83.1239605  83.5389137  40.4012108  82.2500134
  65.1002073  23.8841128  89.0714073  65.9046650  24.3216801  89.3500042
  65.3677320  22.9828191  88.8915920  79.8396015  30.6179929  80.3375340
  79.3824339  31.2046790  79.7350121  80.7673264  30.8106017  80.2016640
  81.1487293  20.1013136  61.1375570  80.9138489  19.2232060  61.4375401
  80.3484154  20.4391360  60.7355499  67.6316071  12.6111078  80.3382969
  68.5016203  12.9855251  80.2000427  67.1150255  13.3320737  80.6982803
  90.6504440  29.1898274  71.7989016  89.6934414  29.1708422  71.8020678
  90.8928585  29.2002535  72.7248383  54.8704576  24.8024511  71.7460060
  55.7978725  24.9012280  71.9613791  54.6650219  23.8976097  71.9811392
  81.0430050   1.1796235  85.9362984  80.3060055   1.7705682  85.7818604
  80.7807827   0.3567627  85.5235386  44.4488573  13.2996356  74.8191929
  44.9828339  13.4709382  75.5949211  44.8229837  13.8629258  74.1417217
  59.9050474  40.0213671  59.9134445  59.2666626  40.0934410  59.2038679
  59.3742609  39.9347067  60.7052708  15.3087115 105.8482170  73.0402231
  15.5653930 106.3645554  72.2761965  14.9337673 106.4872932  73.6462212
  78.1195068  18.5936773  81.7392063  78.0979395  18.9704514  82.6188660
  78.9743137  18.8471770  81.3909626  53.6041307  25.5272222  58.3868885
  53.6805153  26.4332128  58.6861849  54.4204140  25.3611183  57.9153728
  57.0450306  17.8250003  73.0305767  57.3541498  16.9313359  72.8821135
  56.3638115  17.7351975  73.6969948  83.8167095  88.7816811   8.7196034
  84.2987442  89.1151619   9.4763458  83.3453178  89.5430279   8.3814067
  60.6833649  19.0171909  70.2438307  61.1302805  19.2092371  71.0682201
  61.3557673  19.1372621  69.5732403  58.6621189  12.2224557  67.6957035
  58.6075354  11.6535878  68.4635830  59.5989656  12.2837770  67.5091648
  35.6293440 108.3868313  71.9528008  34.7296643 108.6842060  71.8172503
  35.8221936 107.8491974  71.1846924  67.2142172  25.2074838  74.9575806
  67.1972561  24.3831158  74.4714117  67.1197891  25.8833647  74.2863894
  63.9446306  19.9499738  58.8054657  63.9847422  19.5681381  59.6822929
  63.7476206  20.8745623  58.9556503  54.7642946  24.2421150  77.2942114
  55.3403473  24.8406720  76.8186903  53.9496803  24.2437649  76.7915821
  64.4021177  29.3594456  91.1286545  64.2683601  28.4689283  90.8041286
  65.0885868  29.2727494  91.7900753  57.8789091  23.6060643  70.4445648
  57.2059822  23.1690073  69.9226665  58.4139490  22.8923035  70.7917070
  67.9363489  39.2679763  87.8197479  67.7820778  38.8287401  86.9833755
  68.2072449  38.5666609  88.4121990  64.0705729  14.4195902  56.8040657
  64.6709776  14.9439871  57.3339272  63.9938211  14.9020207  55.9809017
  32.3392415 107.0241547  69.5593691  33.0319023 107.3419952  68.9802074
  31.5522385 107.0251369  69.0145254  67.3513269  29.2023563  77.4073601
  67.0796680  29.2255664  78.3249044  67.8930998  29.9838853  77.2981310
  76.7570686   7.2467655  91.9731426  76.1663866   7.6778305  91.3554764
  76.8935585   6.3739455  91.6046524  81.2933826  24.2075515  87.3133659
  81.6606903  23.5543966  87.9089355  80.6305981  23.7304926  86.8140030
  66.0792637  45.8335447  75.8338356  66.8725252  46.3244820  76.0481834
  65.5064440  46.4753723  75.4141235  81.2103176  27.1308613  84.4180298
  81.6225624  27.9451013  84.1294193  81.2789536  27.1528625  85.3725147
  58.9795685   5.2771544  56.3811064  58.0380630   5.1627743  56.5104103
  59.0563440   6.0960513  55.8914661  31.4650679 111.2837982  87.4062061
  31.9438767 110.4586506  87.4842834  30.7075739 111.0705280  86.8612766
  14.4757390 111.2324810  75.4958200  13.9138186 111.8224049  75.9982777
  15.3592825 111.5787220  75.6211376  77.1781635  26.9535375  85.9440136
  77.4801064  26.5730429  86.7688084  77.8422880  27.6069283  85.7243538
  67.1455765   6.8046600  90.1293087  66.5410185   6.6238523  90.8490658
  67.7014875   7.5123334  90.4554939  81.2623310  18.9236784  50.5606079
  82.1549988  18.5782230  50.5670118  81.3323021  19.7760987  50.9903908
  72.3544931  22.9002261  50.3272390  72.6236057  22.8490829  51.2444067
  72.8793859  22.2323632  49.8860168  76.3059711  22.7110934  72.0674038
  75.6721735  23.1158733  72.6595926  77.0276546  22.4427438  72.6360798
  47.1104002  18.4060252  86.0321617  47.3985291  17.5395954  86.3194084
  46.1967659  18.2816124  85.7752037  72.4898481  12.3888540  71.1049461
  71.9744444  11.6248322  70.8463717  73.3663702  12.0416307  71.2704039
  80.7294464  32.3815870  77.6504660  80.5913448  31.4402390  77.5454903
  81.6510868  32.4625444  77.8959417  96.8497086  51.9795084  91.8131161
  96.2515450  51.3458490  92.2092247  97.5698948  52.0529366  92.4393559
  57.0212650  28.4634638  82.2838783  56.9558144  29.0838814  83.0098438
  57.9411030  28.1987143  82.2772598 109.0549278  73.6130285  14.2965293
 109.7507191  72.9679012  14.1703451 108.5959435  73.3194399  15.0835276
  59.6736574  24.5175815  84.9565601  59.3315649  24.4197249  84.0679550
  59.0532494  24.0387368  85.5061340  99.3946552 111.5503883   8.8933724
 100.0807953 112.0648861   9.3184984  98.7876034 111.3304615   9.6000189
  44.8531485 112.5537014  83.6391544  44.8346853 111.5975380  83.6796761
  45.2438021 112.8211784  84.4710732  56.2122917  12.7257919  72.3458719
  56.7890072  12.4100745  73.0415392  55.5599689  13.2596743  72.7993917
  71.4892006   2.6694942  70.0617170  70.6362820   2.4273546  69.7009897
  71.4393568   2.4179964  70.9839439  64.4135332  17.5362611  77.5194693
  63.9425898  17.8237379  76.7372894  65.2133560  17.1324861  77.1826077
  72.0664167  10.8924985  55.7619667  71.7064381  10.9892941  56.6436005
  72.1986866   9.9500453  55.6594038  64.7342348  22.8427768  95.1313305
  63.9842510  22.2862172  94.9215794  64.3802500  23.5102057  95.7190895
  92.4583626  26.5307117  63.8635015  92.6209354  26.7455769  64.7819948
  92.1919918  27.3602080  63.4670019  72.0887661  24.6014190  63.5437489
  72.5985813  24.8107505  64.3263721  71.4037991  24.0097976  63.8552523
  70.8414173  43.6025429  57.4069166  70.5903435  44.4254732  57.8264093
  70.0233221  43.2558441  57.0508862  72.0454264  24.5252228  35.5324912
  71.1350632  24.4340897  35.2511358  72.0613146  24.1560721  36.4155006
  91.0283184  31.9928837  52.9060268  91.7277813  31.3646865  53.0858660
  91.4834118  32.8213096  52.7549362  78.0002117  20.0930691  48.6137056
  77.6349640  20.9422374  48.8621712  77.2430468  19.5800114  48.3313942
  71.5287256  22.3747659  82.3117352  71.9532490  23.0014777  81.7258644
  72.2531176  21.9155860  82.7367592  75.9930563  28.5337210  75.2916241
  75.3702068  28.3442473  75.9933281  76.8500948  28.3487439  75.6756878
  86.3126850  32.6781178  45.1366520  86.6940975  33.5491896  45.2461195
  85.9284401  32.6933336  44.2600918  71.6608477  21.9948006  64.8181868
  72.5570107  21.9744706  65.1539135  71.1519432  21.5048313  65.4640770
  65.0942183  34.0600109  74.1951609  65.2481222  33.1240821  74.0663815
  64.3104839  34.2471814  73.6784744  84.3935871   7.2123659  70.7632113
  83.8087463   7.9307556  70.5221558  84.6559143   7.4085826  71.6626120
  64.4705725  31.5260077  66.4296961  64.0408230  31.1792922  67.2115755
  63.9949226  32.3330188  66.2329054  86.7925072  18.0841172  91.5717506
  87.3890495  17.3788643  91.8227100  86.1599350  17.6661968  90.9874344
  66.9044542   0.0880949  57.6710844  67.1835327   0.1244540  58.5859776
  66.0398245   0.4987524  57.6679230  84.7643375  23.6010838  72.4876785
  85.2820492  22.8497767  72.7770662  84.4732666  23.3662701  71.6065598
  66.1077452  32.4622488  77.2512150  66.9174910  32.3626161  76.7506027
  65.7537508  33.3055377  76.9687557  52.6658297  26.5998197  70.1091146
  52.2990370  25.7271266  70.2508974  53.6116934  26.4584827  70.0691462
  64.4080305  26.2535620  72.1582890  64.2614651  25.3081965  72.1904278
  63.8413763  26.5598536  71.4502478  68.7202883   9.3263811  61.3287878
  69.5592117   9.5405674  61.7369127  68.8535452   9.5070851  60.3982925
  68.8734674  12.1032906  73.9727116  69.3834734  12.7010155  73.4260368
  68.3007383  12.6754844  74.4834089  65.1907492  36.8511343  87.1276188
  64.3245554  36.7226911  86.7410374  65.0504303  37.4961948  87.8207493
  51.1039639  40.4516315  96.7684746  50.4472065  41.1450863  96.7050552
  51.9374084  40.8962059  96.6136932  55.6475782   5.9614301  69.3124914
  56.4225149   6.5217406  69.3544340  54.9148226   6.5718305  69.2305660
  71.4001322   7.5727248  72.0921326  71.5335798   8.1456232  72.8472567
  70.7256889   6.9556111  72.3759079  54.5530462  26.7393684  85.3755951
  53.9697075  27.4482965  85.1047421  55.3909779  27.1700764  85.5447006
  79.6841383  12.8710282  63.3889151  79.2059851  12.1488500  63.7964201
  80.4551601  12.4583769  62.9997063  73.6924648  18.9522767  77.1025991
  73.8297415  19.8100162  76.7005157  73.2970238  18.4234416  76.4096403
  61.5516949  23.9086366  60.6369114  61.8058109  23.6707139  61.5285683
  61.8210030  24.8227549  60.5469561  72.8198910  33.2206941  52.4550009
  72.7841663  32.6615906  53.2311201  73.6111832  32.9411364  51.9946432
  59.8182535  11.8258893  88.7010098  58.8959169  11.7476010  88.4572792
  60.0171995  11.0055220  89.1522884  24.5440507 110.9208393  84.2804909
  24.9686027 111.7769051  84.2244911  24.8137188 110.4670620  83.4819889
  67.5400591  33.9254236  62.6365709  68.2175589  34.3462086  63.1658792
  67.9579353  33.7742066  61.7887831  60.0982666  21.8327641  48.7361670
  59.6319675  21.3140321  48.0806398  60.9119892  22.0906091  48.3030319
  57.8511763  20.2346802  83.3481503  58.4898233  20.7873535  83.7986088
  58.3795452  19.5725882  82.9024124  83.3665180  23.6578608  92.7610397
  84.0881538  24.0796161  93.2275009  82.9926109  24.3529701  92.2195053
  69.1655874  34.4873333  57.8403473  69.0191174  35.3622532  57.4807739
  70.1177979  34.3908834  57.8553677  38.0573344  16.4074659  91.1570358
  37.2327280  15.9306872  91.2515736  38.7275076  15.7853293  91.4399529
  56.3162136 103.5500336  85.4446030  56.7216492 104.0892124  86.1236763
  56.4795303 104.0268898  84.6308708  73.6169481  28.5715604  68.4841681
  74.3744087  28.6946273  67.9120302  72.8707933  28.5229325  67.8865719
  69.9114132  49.2932701  92.4094868  70.2281523  50.1538563  92.6838970
  69.2854452  49.0408421  93.0882168  77.8456593  41.0045481  55.8345079
  77.0206022  40.6798983  55.4737902  78.2829332  40.2232695  56.1730719
  51.6814327  37.8297257  88.8982582  52.4356794  37.3313880  88.5836029
  51.0802650  37.8500247  88.1536674  88.8408756  46.8595171  84.1936588
  89.3241787  47.6816511  84.1115570  87.9209423  47.1144104  84.1231632
  60.3642130  36.7809749  63.6070967  60.2285194  37.4301600  64.2972994
  61.2973213  36.5728354  63.6541510  77.5243998  56.6653013  92.3292637
  77.4473858  56.3937330  91.4146328  77.9853392  57.5033951  92.2922611
  82.9355240  57.4835348  83.0254269  82.1842289  57.0472527  83.4272194
  83.2624054  56.8541193  82.3826122  77.1139479  56.7709684  82.8519154
  77.8683186  57.2815990  82.5579453  76.8377781  57.1971083  83.6633110
  57.6943684  22.9448342  74.9633121  57.4066019  22.4603033  74.1895866
  58.1181192  23.7278032  74.6116972  78.3165884  34.1871190  67.0341301
  77.7334976  33.4284234  67.0093918  79.0491295  33.9447737  66.4676571
  76.4892530  15.9635746  52.3609304  75.8073664  15.6129527  52.9339266
  76.1191845  15.8984363  51.4805698  99.3028069  45.4489326  78.9890242
  98.8641834  44.9926662  79.7071218  99.3774509  46.3543081  79.2906141
  64.2169142  43.4995365  70.1518822  63.5285425  43.2725286  69.5267057
  64.9949694  43.0469847  69.8262167  92.9164028  24.7945261  87.4976254
  93.1234074  24.9892783  88.4116650  92.7201080  25.6472325  87.1095753
  98.3629417  23.4108400  82.0254135  98.2504272  23.3305430  82.9725742
  97.6196289  23.9421749  81.7401123  76.7623520  19.2365968  71.3210058
  76.5327597  19.2140186  72.2499895  77.7156019  19.3230236  71.3119078
  78.4118128  35.3918958  70.6005764  77.4588490  35.4784060  70.6251955
  78.7330627  36.2925887  70.5583334  67.7201033  30.5285692  73.1316757
  68.2167816  30.7070971  72.3331308  67.6546526  29.5741796  73.1646919
  66.6954136  36.1358380  95.2410984  66.7821550  37.0808315  95.1157951
  67.5554132  35.8558583  95.5545425  90.5372810  29.2142701  74.8491049
  89.8107338  28.9349008  75.4061556  90.6553650  30.1412511  75.0564480
  60.3123903  38.6210561  66.3410711  60.7703924  39.4038773  66.0350323
  60.2763700  38.7211609  67.2923422  67.9337215  18.3381021  88.2789135
  68.4631538  18.5480928  87.5096035  67.4511814  17.5498939  88.0296898
  83.7054443  22.0373130  64.0466642  83.2883167  21.2469506  64.3895435
  83.1537533  22.7542567  64.3594837 108.8108826  14.5218349  75.1703930
 108.1544113  14.6964657  74.4960165 109.6446228  14.5275295  74.7002172
  70.3975105  56.8492556  71.8077946  69.7167587  56.1786366  71.7522717
  70.9341526  56.7109871  71.0273314  88.2874107  50.9080791  69.7147751
  88.4995842  49.9868298  69.5647383  87.7546597  51.1572313  68.9595747
  67.2041321  13.6322045  68.7309456  68.0518484  13.2001400  68.8355017
  66.7638159  13.1325364  68.0434275  92.7926826  51.8351746  79.7834587
  93.4556389  51.1511946  79.8777485  93.2374954  52.6386833  80.0531864
  63.4898710  30.8905911  83.5022545  64.2543030  31.1781836  84.0014172
  62.7818727  30.8585882  84.1456413  62.4552822  36.6814494  68.0330324
  62.1896219  36.5320849  67.1256495  61.7311049  37.1763682  68.4162474
  77.4521065  43.3942366  71.6838551  78.1733608  42.9364157  71.2520790
  77.5966263  43.2419157  72.6177454 100.3053188  35.1056004  66.8381166
 101.1561680  35.5310917  66.9441080  99.6977425  35.6597185  67.3280478
  76.3843536  51.3149977  64.9355125  75.9663248  51.8020105  65.6456518
  76.1597586  50.4005671  65.1075792  91.2356567  36.7051864  90.3440571
  91.6759491  37.2268581  89.6730614  91.8297291  36.7291903  91.0942078
  71.5224934  27.1116304  89.1004944  71.2490654  26.5392137  89.8173046
  71.9267225  26.5219855  88.4639835  64.8212147  32.9085326  69.2508221
  65.7189274  32.6208186  69.0847921  64.3586874  32.1119690  69.5111704
  70.1960850  19.0568650  71.3131094  69.5986557  19.1695392  72.0524406
  69.6340418  19.1128492  70.5403185  56.3243103  56.4821291  79.9703789
  55.7873535  56.1035824  79.2742395  56.9559622  57.0358324  79.5114040
  73.3016205  40.2050829  65.9977245  73.1353807  41.0818911  66.3438559
  73.2812786  39.6360183  66.7671299  92.0790005  62.4150038  76.0614014
  91.2212753  62.5300741  75.6523943  92.6916218  62.8294516  75.4538107
  61.9568396  40.2042580  71.0762024  62.1860552  39.5585036  71.7445517
  61.5192604  39.6966314  70.3927803  78.1649590  28.2659411  76.9555426
  78.4427834  27.3666239  77.1295309  78.5622835  28.7796593  77.6587200
  72.7498245  48.9417076  71.4077806  71.9136524  49.4075871  71.4063597
  72.5981855  48.1757450  70.8541203  74.5831299   7.1210271  71.9549036
  73.6503696   7.1641487  71.7443657  74.9333286   6.4605987  71.3570499
  85.4955769  55.6972170  77.0283890  86.1377621  55.3128338  77.6251078
  84.9685669  54.9547291  76.7330742  80.8245087   8.6566234  78.5973501
  81.2843227   8.5777390  79.4331598  79.9893284   8.2114071  78.7405062
  79.4264364  60.7622290  81.3731289  79.9851751  61.5323019  81.4781475
  79.2575979  60.7153511  80.4321098  69.3845558  28.2830739  68.4596825
  68.4297037  28.2185650  68.4418297  69.5972586  28.8857961  67.7471399
  77.4638557  38.3841252  78.2253981  77.9845285  39.1608810  78.0209923
  76.6020393  38.5683560  77.8518248  64.7461271  44.3522501  77.7393818
  65.2910805  44.7773218  77.0771360  64.5685530  45.0400734  78.3809423
  86.6903019  38.1711292  76.5854836  86.4433098  37.3465776  76.1667490
  86.1205578  38.2303858  77.3523712  76.8042374  50.7869482  85.1697636
  76.4372301  50.7358360  86.0523319  77.7384233  50.6154299  85.2885342
  85.7476902  45.7527637  61.4176178  85.6293678  44.9558735  61.9345284
  85.3446960  45.5523252  60.5728436  67.1290779  38.9797020  76.3142347
  67.6894665  38.2071757  76.2407589  67.6499844  39.6899748  75.9395361
  75.0936031  27.8501463  65.9143257  75.5641317  27.6254988  65.1115990
  75.7828093  28.0438185  66.5497160  60.2804661  17.2870183  92.8481770
  60.5279827  16.3900983  92.6234436  61.0824680  17.6767468  93.1962204
  76.7149401  51.2890434  47.8323221  76.1175871  51.0004950  48.5223484
  77.3448133  51.8529797  48.2811785  72.7196550  24.3412781  80.6750107
  73.3609009  24.6171665  80.0200844  72.0443535  25.0191760  80.6494331
  72.4540377  18.7197030  21.3046074  72.4647903  19.2877412  20.5342507
  73.2492161  18.1928647  21.2248325  80.8171082  36.9650841  58.2396698
  80.0219917  37.4387765  57.9954624  80.5734634  36.0413408  58.1799316
  74.3725777  38.1076670  49.0057659  74.3035460  37.3092985  48.4822464
  74.8973083  37.8519964  49.7643948  91.4157963  35.8542156  67.9012632
  91.7432499  35.1726079  68.4881353  91.4589214  35.4608536  67.0296907
  84.1845226  40.4149246  57.6592779  83.9682007  39.4825339  57.6686382
  83.3362484  40.8573008  57.6281595  61.4835262  21.4327216  74.4203901
  61.9347954  22.2431588  74.6565676  60.8708239  21.2812829  75.1400375
  77.1439409  11.2232351  43.1963968  76.5559435  10.4679465  43.2019663
  77.4786234  11.2596118  42.3003483  71.6582203  22.1254253  44.9897289
  71.5140009  22.6612997  45.7696486  71.2801552  21.2742639  45.2106905
  78.1421661  24.0626836  68.4655523  77.1945000  24.1233659  68.3452559
  78.4535265  24.9630594  68.3727407  63.0529308  35.1046896  70.1409674
  63.5163307  34.3252873  69.8343277  62.8961945  35.6175780  69.3481159
  79.6974468  45.5456305  70.9048557  78.9395094  46.1116934  70.7587671
  79.7951412  45.5170679  71.8566322  90.8275795  40.0569248  60.0250912
  90.8208847  40.7961369  59.4170237  90.1143646  40.2427244  60.6358528
  75.1987982  28.3570290  55.2848196  75.2741861  29.1661596  54.7789955
  74.3213367  28.0307078  55.0852919  77.9494047  42.2352505  53.3225155
  77.1183634  41.8434143  53.0540657  78.1059647  41.8869543  54.2002439
  82.8001308  23.8994765  58.1540060  82.9372787  24.7782373  58.5078430
  82.8017616  23.3288789  58.9225435  69.8642111  33.0197096  68.4913063
  70.1843548  32.5149822  67.7436495  70.6024742  33.0402160  69.1002226
  53.9709806  22.4842286  93.0473137  54.4799137  22.8379440  93.7767696
  54.6192217  22.0552087  92.4887848  78.8214874  53.4772396  56.6306877
  79.6611929  53.9307308  56.5567255  78.1670332  54.1724634  56.5629435
  59.7053814  31.1177588  77.2780657  59.7149181  30.3913856  76.6547489
  58.8907957  31.5839767  77.0901060  77.3327160  47.2477484  67.9356909
  77.7407074  46.6632795  67.2968102  76.5119410  46.8133640  68.1677771
  85.6887531  43.2368803  78.1135511  86.5070057  43.4277534  77.6550055
  85.0993156  43.9460468  77.8568840  89.2396832  39.6885562  86.7081356
  89.4149017  39.6546841  85.7677174  88.4297276  39.1906285  86.8189335
  74.8677063  56.2141323  65.7390118  74.8502827  55.9280062  66.6522789
  75.4494524  55.5909109  65.3038168  73.7360287  19.8239112  80.2258396
  72.9533148  19.2729270  80.2235222  74.4098902  19.2844748  79.8121309
  85.7982731  45.3194237  84.4427204  85.8496475  46.2744284  84.4821739
  86.3265800  45.0824261  83.6805248  87.8919506  22.1083188  96.3408470
  87.2642231  22.8300714  96.3763714  87.3618889  21.3401270  96.1283588
  81.6096306  23.5705853  50.5071163  82.4429607  23.2596231  50.8608150
  81.0753632  22.7807951  50.4233217  56.1598253  42.8179407  92.9195404
  55.9323454  43.7460041  92.8630829  57.0264721  42.8080511  93.3258057
  69.3718052  47.1138668  71.1171484  69.6671343  46.9195175  72.0066643
  70.1575947  47.4223757  70.6659269  68.3435488  41.6671658  70.8501196
  67.6722050  41.1199236  71.2576103  68.2459593  42.5204802  71.2726879
  84.2999458  35.7077122  90.9811306  84.4082928  36.1738658  90.1521587
  85.1543713  35.3085089  91.1448860  81.4525700  51.8349600  61.3222933
  82.1667957  52.2868776  60.8729792  81.8570042  51.0449696  61.6808653
  75.8773088  15.2853513  49.8042154  75.8569050  14.3288600  49.7735405
  76.5944004  15.5285192  49.2186499  67.2845793  36.9139647  71.1516953
  67.9568529  36.6263485  70.5339909  66.5879583  37.2688651  70.5994320
  70.7953596  36.1642909  94.5618153  71.5382433  35.6675029  94.9046803
  70.0888443  36.0003924  95.1864815  72.1387196  46.7257595  70.0387192
  72.3940611  46.4849997  69.1481781  71.9297504  45.8927727  70.4614449
  73.8273668  32.4614334  61.7179251  74.0929699  32.7415919  62.5938225
  73.6739731  31.5205026  61.8036556 109.6391869  90.3780842   5.4234439
 108.6886311  90.4182720   5.3182727 109.9367905  91.2721348   5.2550817
  87.2487354  40.7287455  79.9021149  87.7219677  39.9544024  79.5976877
  87.6249504  40.9166813  80.7619858  77.8467751  63.5304928  49.0731144
  78.4678555  62.8319359  49.2793083  77.3293924  63.1840944  48.3460951
  78.1056595  28.8364434  54.0446091  78.3214664  29.4670939  53.3576298
  78.1459284  29.3428612  54.8558760  96.4537239  46.6544294  79.9686384
  96.8321419  45.8899927  80.4029942  95.5502796  46.4001989  79.7805023
  69.7296476  38.2888722  64.9942112  68.8145876  38.0093455  65.0218296
  70.2125072  37.5683498  65.3990841  65.2530241  27.1211934  57.4553823
  65.9178305  26.8423915  56.8256760  64.9256754  27.9503655  57.1067476
  79.2610455  48.4839153  65.1111794  79.0140438  48.7897587  64.2384338
  79.1558743  47.5333786  65.0705290  65.7313538  28.9123988  75.1714849
  66.1927509  28.2299328  74.6840572  66.2653780  29.0506697  75.9537411
 105.1982307   9.5727468  77.5632620 105.8740997   9.7914082  76.9216824
 105.0554180   8.6330748  77.4498940  63.5302496  49.2660236  81.2119865
  62.9193878  48.7938929  81.7778206  64.2258358  48.6340237  81.0304165
  70.5319977  33.1729174  75.6823492  70.7368517  33.8214159  76.3559389
  71.2615538  32.5541615  75.7158279  55.7441235  27.1438861  65.6493187
  56.5567350  27.4670649  66.0384846  55.0516891  27.5277925  66.1872578
  70.3199434  15.7379436  69.6905136  70.7179260  16.1767125  70.4423952
  70.9971333  15.7598424  69.0143681  57.1656752  37.8153372  89.6129227
  57.6211309  37.9430556  88.7807655  57.2327757  38.6616588  90.0550461
  72.6977062  36.1877966  29.7682238  72.6126385  35.7141638  30.5956697
  72.8597069  35.5051661  29.1170692  97.6869583  22.7667236  84.5145702
  97.6207161  22.3425865  85.3701115  97.1583366  23.5602283  84.5990467
 103.1976795  31.9792080  83.3801365 102.7458954  32.1697164  82.5580502
 104.1165257  32.1781111  83.2001495  65.8357286  49.8087883  77.5881815
  66.7637348  49.8505402  77.8190279  65.8300114  49.5703554  76.6611719
  85.4624557  55.1474571  63.3463192  84.7521400  55.4421854  63.9162540
  85.5435562  54.2113972  63.5292101  39.9163461   2.3593998   2.1905366
  40.3181458   1.5669310   1.8344752  40.4336691   2.5606173   2.9703569
  62.0992279  22.4097180  71.4480066  62.8842163  22.6705241  71.9296789
  62.1379852  21.4535427  71.4266109  73.3980227  33.8345408  85.9439754
  72.8757477  33.7147975  85.1508045  73.9548206  34.5892096  85.7524586
  63.5977840  50.8230925  78.9160776  63.6403036  50.1650667  79.6099234
  64.4164944  50.7142305  78.4322453  89.2555904  37.5740218  96.8342876
  88.8436794  37.5208616  97.6966858  89.7055054  38.4188890  96.8354225
  62.1816444  28.2453966  54.3686485  62.9030180  28.6431932  54.8561001
  62.5835609  27.5132895  53.9009857  93.8784885  22.9115534  75.2686882
  93.8107777  23.0145311  74.3194532  92.9757786  22.9722428  75.5811882
  68.4973001  56.1597729  80.9563828  68.5294390  55.8666611  81.8670368
  68.8536072  57.0479250  80.9779263 101.7374134  40.1080704  82.0543385
 102.3096848  40.3397417  82.7858257 102.3344421  39.8086405  81.3686848
  61.4073277  34.1955876  63.2676125  61.2518787  34.0757561  62.3307514
  60.8326387  34.9199891  63.5150194  77.7867365  51.3664818  58.1404161
  77.1809721  50.7454395  57.7359533  77.9160976  52.0426083  57.4753284
  81.2832737  49.6260452  84.9426556  80.9834099  50.4927444  85.2167892
  81.6925716  49.7728539  84.0899181  69.3002415  39.7224855  57.3110342
  68.5300446  39.4105959  56.8359041  69.1385317  40.6567335  57.4424219
  66.3189507  59.0189505  72.7782488  66.2255383  58.3152533  73.4203672
  66.3031960  59.8219776  73.2989550  60.6997871  27.7274108  87.5956154
  60.1571226  26.9532514  87.7453709  60.8781433  27.7166176  86.6552353
  87.3776531  37.3315501  62.9921579  86.8848515  38.0510211  63.3867979
  86.8948841  36.5442300  63.2437277  59.9287558  15.5380392  89.2656803
  59.5365000  16.0929215  89.9398232  59.2627335  15.4869890  88.5800934
  86.3753319  34.9111199  72.6165390  85.6763172  35.0718546  71.9826841
  87.1828175  35.0739837  72.1290302  74.4592047  29.6642089  61.8228579
  74.0899038  28.8826799  62.2340298  74.4916344  29.4515228  60.8901501
  97.5851536  50.8508444  77.4206448  97.1300602  50.3248978  78.0782986
  98.1179523  51.4619589  77.9294634  69.8292303  43.5505724  74.7054625
  70.1587296  42.8260899  75.2372360  68.8766718  43.4758282  74.7627354
  87.9630089  58.5620117  82.4048996  88.6707115  59.2049170  82.4503231
  87.8016758  58.3185911  83.3164597  75.5240488  34.1464305  56.4279652
  74.8282719  34.7961926  56.3283014  76.2138033  34.6056819  56.9070911
  88.5408497  39.2568254  55.4723072  88.4617519  38.3239508  55.2730036
  87.9223824  39.6819544  54.8781776  85.6382751  32.1162653  93.3722878
  86.0272980  31.3761926  93.8383198  85.8968925  32.8835058  93.8828754
  91.1487770  33.3675337  72.6119566  91.2673664  34.2202759  73.0302858
  90.4106808  32.9733157  73.0767488   8.4793591  97.5631237   6.9745553
   9.2522138  97.9372692   7.3975658   8.2202393  96.8399620   7.5456351
  77.7200127  43.0180502  78.8995600  77.1822643  42.9915142  79.6909857
  77.9141092  43.9467669  78.7729025 102.3549747  52.8567696  82.4511242
 101.9494915  53.7157440  82.5693607 102.9057693  52.9567528  81.6746807
  58.5339165  31.8161368  69.7946596  59.0609646  32.5431633  69.4631767
  57.6735210  31.9421029  69.3945599  82.5928783  56.9355011  46.7776346
  83.1077290  57.0086241  47.5812531  82.8234577  56.0769463  46.4227438
 118.1876373 101.2091160   1.4732662 117.6231289 100.4715347   1.7046359
 118.9886189 101.0649681   1.9771361  89.4308376  62.8992748  74.7361851
  89.6501160  63.1775713  73.8469744  88.5179901  62.6167107  74.6804714
  83.5799599  25.7627797  78.7448454  82.7771759  25.5230951  79.2078114
  83.3729935  25.6265831  77.8202677  62.7469873  46.4751959  69.5043516
  62.7726412  45.8597565  70.2370214  62.1604395  46.0659361  68.8681936
  46.8039608  37.9564261  96.0546494  46.0581923  38.3057165  96.5425682
  46.4301538  37.6622725  95.2240086  82.6364613  35.6421804  81.7368698
  82.5291443  36.0842752  80.8946896  82.7292252  36.3534737  82.3706532
 111.6109276  61.3156939  76.7627954 112.3668671  61.8440437  77.0189762
 111.7966270  60.4452705  77.1150923  72.5265932  21.5134549  88.5211658
  73.1780720  21.1311364  89.1090775  72.0357084  20.7627344  88.1869793
  86.3453007  30.3047132  71.2424946  86.3795280  30.6230903  72.1445465
  86.6238880  29.3907809  71.3003397 104.5074844  48.8501835  85.3833199
 104.3330765  48.5480642  86.2746906 104.8019791  49.7546482  85.4903030
  85.9450054  40.9682703  60.1897573  86.6014290  40.5969715  59.6002769
  85.4228020  41.5460491  59.6332455 105.6161022  52.2102833  79.0920591
 106.4717865  52.6221514  78.9720106 105.5637646  51.5586090  78.3929062
  63.0871725  31.1554670  72.2117758  64.0300703  31.3201165  72.2033739
  62.8224277  31.3253069  73.1158209  80.8186626  27.4674129  75.1866674
  80.0702286  27.2692108  74.6238184  81.4172935  27.9594302  74.6247196
  65.2676249  31.3336039  73.8020945  65.1460171  30.7047033  74.5133781
  66.1219645  31.1131740  73.4309483  68.4357262  33.9267826  79.8434210
  68.1522465  34.4678164  80.5804157  67.6417494  33.4737492  79.5595264
 114.5091724  43.0041981  80.9103394 113.6111736  42.9829168  80.5796146
 114.8276711  42.1087646  80.7963657  13.7671375  78.2598400   1.0192584
  14.2356074  78.6010933   0.2574742  13.8655674  78.9400721   1.6854611
  85.0056553  36.6928530  74.7331476  85.2715206  36.0481167  74.0775108
  84.0799522  36.8531561  74.5498037  76.2786579  37.3554444  44.9807453
  75.8777666  38.0181360  45.5432034  75.5377007  36.9093609  44.5705986
  63.2599926  28.9419222  65.6450462  63.5675669  29.8193288  65.4174805
  62.3592663  28.9127111  65.3224421  85.2049923  52.4109173  64.0087509
  85.7142925  52.3344660  63.2019043  85.2429581  51.5379667  64.3995810
  76.7914772  22.2480130  49.6806479  75.8625555  22.0311236  49.6012783
  76.8253469  22.9058194  50.3751802  72.1089125  33.0310726  83.4120274
  71.5456152  32.4158311  83.8814926  72.9589701  32.5930786  83.3696461
  82.9786968  41.9342089  61.8242455  82.3898888  42.1845388  62.5361967
  83.1757355  41.0121822  61.9893837  95.7359219  28.3576131  70.2711630
  95.1072884  29.0735388  70.1789427  96.5920925  28.7824678  70.2192068
  77.8566027  32.6969051  61.4165831  77.4504423  33.2620358  60.7593966
  77.5731754  33.0621910  62.2547197 102.9423523  98.6804676  18.6239433
 103.2820320  99.5197296  18.9345479 103.5007381  98.0259895  19.0435946
  64.3294573  32.4428248  46.6145325  63.6742830  32.5932622  45.9330988
  64.4629955  33.3030725  47.0124960  71.4781427  33.7484860  60.7266235
  70.5778027  33.5380244  60.9742641  71.9929695  33.0052543  61.0409355
  60.2636576  41.2455130  68.3041668  59.4889116  41.2514257  67.7420568
  60.2276802  40.4006910  68.7527275  61.6531324  47.3543453  73.3176804
  61.1046553  46.9697094  74.0013885  61.8544817  46.6237926  72.7328968
  67.0660305  25.0887656  62.2417164  66.1616611  24.7794318  62.2932386
  67.2202349  25.2233291  61.3066483  77.8988647  45.7288027  79.5422125
  77.5413084  46.0365677  80.3750801  77.3730993  46.1730766  78.8770628
  92.9830933  34.1322351  69.0929031  93.6743450  33.7870359  68.5278893
  93.4455681  34.4600129  69.8642063  79.1469669  43.9952183  88.8105869
  79.6409369  43.3895826  89.3632412  79.7506618  44.2201138  88.1026268
  82.2256756  12.4155056  70.3041935  83.0693245  12.1088135  70.6365108
  82.3655987  12.5293124  69.3641376 111.5394115  97.8431034  22.7571845
 110.8311558  97.4457169  22.2505355 111.1038113  98.4924889  23.3092666
  88.6478710  32.1677470  80.2625084  88.8842106  31.7840767  81.1070061
  89.1509247  31.6650200  79.6218491  56.3875389  32.7925968  64.4683599
  56.2034369  33.3140635  63.6870766  55.5398464  32.7074218  64.9047041
  63.2160997  39.7183228  87.3477936  62.4539328  40.2787352  87.2019768
  63.6280203  39.6454239  86.4868450  78.1790638  40.5298042  82.3600864
  79.0676165  40.3340006  82.6573563  77.9570341  41.3531637  82.7948475
  83.5494423  29.2363906  74.3864107  84.1525555  28.5075068  74.5320702
  84.1178799  29.9858427  74.2091084  76.4398241  49.2109823  82.5566578
  76.3296652  49.5920753  83.4277821  76.4889956  49.9654484  81.9696331
  89.1013145  13.2740152  92.9199886  88.6432552  12.4659717  92.6887321
  89.7457027  13.0050778  93.5747242  81.3398457  49.4632578  76.4924622
  81.9060612  48.8205481  76.0651922  80.6372261  48.9424086  76.8814039
  54.6498585   0.6926973  72.9655457  54.2422104   0.4181734  72.1441460
  55.0100470  -0.1133876  73.3353043  49.3356514   8.6184949  67.2745943
  48.5800028   8.6323261  66.6871977  48.9588308   8.5033369  68.1469345
  87.8158092  40.1666880  94.9897289  87.4060154  40.6654882  95.6964779
  88.7139130  40.4958487  94.9537659 102.9932976  36.0882521  83.4835720
 103.7890625  35.6036377  83.2641697 102.3705006  35.8494663  82.7970314
  86.1943054  41.1553669  67.1657515  85.3058529  40.9831524  66.8539190
  86.7386723  40.5199003  66.7009115  64.5292377  34.5406508  83.2541275
  63.6857796  34.1065049  83.3819103  64.8639393  34.6792459  84.1401291
 113.0556965  90.1082325   7.2565567 113.8626671  89.7872066   7.6590186
 113.3317471  90.4502773   6.4062434  65.1506138  27.7089739  60.1185274
  66.0941458  27.6308012  60.2594900  64.9868727  27.2158217  59.3146467
  86.5510750  48.4421730  67.9229212  85.6610012  48.4426308  68.2750463
  87.1014023  48.1866598  68.6632538  65.8349657  41.7847443  68.7724161
  65.7708454  42.0807266  67.8643894  65.0945234  41.1882591  68.8827562
  59.6399021  21.1383033  66.3498306  59.1799068  20.5182505  66.9156694
  59.2076540  21.0532212  65.5000353  64.2274427  19.5620906  86.5185356
  63.3084059  19.6106446  86.7816734  64.7052002  19.4383907  87.3387051
  95.6197929  31.5181208  58.8521576  95.2287483  31.2279892  58.0280590
  96.0815620  32.3257494  58.6269093  80.9016228  66.1527491  44.6698189
  80.6276226  65.2376604  44.7312164  80.5338001  66.4577675  43.8404131
  89.5773697  26.4367509  61.2817144  89.5260620  26.8527389  60.4211569
  88.8642788  26.8332100  61.7822790  83.4112072  70.6892490  92.7891636
  82.7948570  70.6688452  92.0570946  83.1889153  71.4881802  93.2672215
  66.2010622  54.7185469  80.3241920  66.5766001  54.5944500  79.4525242
  66.7706919  55.3654003  80.7405281 101.1234570  61.0438490  54.4964314
 101.5739727  60.8668756  55.3222322 100.2127647  60.8010912  54.6636105
  86.9000244  41.5753174  75.6804419  86.0782814  41.1533594  75.9313011
  86.6370869  42.2756863  75.0832987  87.2177696  56.4257908  59.2537022
  87.7614212  57.1891689  59.0589523  87.6101017  56.0467005  60.0402069
  93.0749989  34.7872043  46.4697075  93.3741665  34.2156100  45.7625961
  93.6760902  34.6083117  47.1928453  87.0824909   7.8078067  46.3711834
  86.4315224   7.3689759  45.8235550  87.2838974   8.6173081  45.9017372
 104.9544907  47.5023556  78.3863115 105.6095123  48.0475569  78.8221264
 104.9073219  46.7104149  78.9218760  93.1191158  23.9987159  58.7648249
  93.1419182  24.2600155  59.6853876  93.9852524  24.2293239  58.4288788
  93.6432171  57.4578428  83.5559940  94.3066025  56.7872477  83.3933163
  93.2301712  57.5978231  82.7039242  88.7960911  42.2310114  91.4528942
  88.6685181  42.3008347  90.5068111  89.5943165  41.7115974  91.5492535
  84.7768879  47.9478741  96.0488796  85.3053761  48.6785221  96.3699436
  84.1500759  47.7784348  96.7521763  99.2581844  42.9868698  62.1651745
  98.8276482  42.3562050  61.5879965  98.7484741  43.7907553  62.0642138
  80.5128384  48.4263659  68.1691408  79.6684265  48.7031507  68.5249281
  80.8050537  49.1689777  67.6405811  89.2577934  13.4238362  87.0313263
  88.5937977  13.1521130  87.6649666  88.7650871  13.6051893  86.2309647
 109.1289330  44.9811935  53.3778811 109.7723103  44.3862200  52.9927635
 109.2378807  44.8727846  54.3226624  76.5308046  47.0559835  74.6834898
  75.8924770  47.0166874  73.9712954  76.9120741  47.9313278  74.6153784
  89.5332146  46.3784981  71.6983271  90.0038624  46.3931370  72.5317001
  89.6693802  45.4927778  71.3618851  90.1453400  44.9352646  82.1921730
  90.2257442  45.8006811  82.5932026  89.4612217  45.0403166  81.5309811
  94.3369961  58.8235474  37.4917436  93.3889389  58.9394093  37.5548744
  94.5035362  58.7178707  36.5550828  82.2528648  23.2194829  82.5072193
  81.4586639  23.6890841  82.7620792  82.9657841  23.8221455  82.7188015
  94.0052319  45.5050039  67.7318621  93.6063671  46.3751125  67.7386332
  93.7087440  45.0992680  68.5465384 102.3741817  41.2529182  70.5448723
 101.5604401  40.8426523  70.2520561 102.8355980  40.5596828  71.0168314
  92.7951813  48.8041687  85.0344467  93.0724430  48.5245180  85.9068871
  92.2104549  49.5448303  85.1949024  96.0717869  51.4961815  54.2565536
  95.2744675  50.9751415  54.3515253  95.8339119  52.3610878  54.5906019
  88.7011909  48.2457590  69.8121309  89.4571114  47.9297161  69.3172264
  88.6854362  47.7011108  70.5991125  86.1043072  45.2563047  96.1821461
  86.8373680  45.2645731  95.5666828  86.0017776  46.1710262  96.4448261
  78.5752630  70.6965923  72.0180655  78.7329483  71.6394234  71.9686794
  78.4661818  70.5206251  72.9526091  78.2758570  39.9646354  92.0746231
  77.4087715  39.8443866  91.6874123  78.2593775  39.4312310  92.8692532
  86.7959213  51.9359112  58.4802103  86.5609360  51.2932396  57.8108931
  86.2604809  52.7023029  58.2748365  91.3639545  36.8331885  72.3531771
  91.9074345  37.0170021  73.1193876  91.9387341  37.0002174  71.6062021
  89.2883301  54.3675518  86.1308670  89.3350792  54.5027876  85.1844215
  88.9589214  55.1976061  86.4754391  73.4089708  62.2889519  88.7986279
  73.7386465  62.5554848  87.9404354  72.6878500  61.6906834  88.6029530
  78.5706186  42.3600531  64.1190004  78.3886528  41.5432405  64.5836878
  78.4320593  43.0442047  64.7739553  96.8694401  32.5199842  80.3594780
  95.9956169  32.2402430  80.0866795  96.7849255  33.4624028  80.5041790
  87.4888229  50.6208658  89.8087692  87.8952599  50.9370279  90.6156731
  87.3199368  51.4133549  89.2991924  76.7090559  55.4338408  75.3599787
  76.2517929  55.2555799  74.5381737  76.0674667  55.2294254  76.0402822
  78.6850309  52.4455976  70.4582691  77.9809189  53.0905390  70.3911352
  79.0124416  52.5406790  71.3526917 104.6468353  71.6318226  81.8250847
 103.7846088  71.8582678  82.1736908 104.4931412  71.4661312  80.8949471
  98.1219864  39.6238685  55.6493521  98.5178852  40.3686190  56.1019468
  97.2097683  39.6247339  55.9393358 115.5238724  47.8361702  66.2917709
 115.8814144  47.6189804  65.4308271 114.8560333  48.4983587  66.1136580
  97.0942307  58.5913706  72.0706987  98.0340385  58.6411858  72.2453690
  96.8578148  59.4718838  71.7790890  85.9119415  49.7139788  57.1904373
  85.2607059  49.3403482  56.5966940  85.7723999  49.2547464  58.0186033
 104.6444416  60.0589466  89.5996380 105.4810143  60.2862930  89.1938210
 104.8252869  60.0628901  90.5395889  90.3788185  67.1001339  82.0124149
  90.5779839  67.6663923  82.7580166  89.7453022  67.5982189  81.4958763
  85.6037617  55.8686876  70.9475803  86.0630894  55.5702209  71.7325449
  85.7490253  55.1732588  70.3060913  87.7077770  34.8469877  69.0391684
  88.4387207  34.2694306  68.8192177  88.1214905  35.6256795  69.4116163
  97.3228931  53.5577536  74.2530346  98.2493687  53.7427092  74.4068861
  97.0483208  54.2206335  73.6194468  98.3923149  55.7905436  84.2959404
  98.2435989  56.7034197  84.0494251  98.5926247  55.8246279  85.2313232
  80.3089237  47.1286345  48.3085871  79.4061232  47.3941660  48.1334448
  80.2275753  46.2991142  48.7792397  75.4346228  54.9348688  81.5241909
  75.4334021  54.0738726  81.9424152  76.2414694  55.3488207  81.8305779
  89.5836926  54.1367340  61.4427567  89.3639660  53.3552361  60.9355927
  88.7492847  54.5923233  61.5542698  98.1967163  37.8408122  79.8794985
  98.1098461  36.9560027  79.5248222  98.4842014  38.3699441  79.1354513
  74.0291309  29.9175835  74.0579891  73.2152700  29.4520903  74.2507982
  74.7065783  29.4113755  74.5063734  84.0891647  45.7253599  80.1826000
  84.1294003  45.3969479  79.2844009  84.8826790  46.2515593  80.2810001
 108.8521862  34.7211480  93.7201405 108.2027149  34.2359233  94.2290497
 108.8616180  34.2865753  92.8673267  87.3716068  45.6272030  64.9939013
  87.2964954  44.7221470  65.2963305  86.4961624  45.9942436  65.1168489
  83.8397121  42.3788357  70.1053715  83.4230518  41.6883373  69.5897722
  83.5314655  42.2294426  70.9991837  74.4382668  54.9284649  68.6876583
  73.5486078  54.6277905  68.8729477  74.7432566  55.2989197  69.5158911
  91.1349678  49.4839096  59.8322201  90.9337902  49.1834354  60.7184935
  90.4199028  49.1422510  59.2953920  94.8884678  32.2499728  52.6289511
  94.3088627  32.7859735  52.0876646  95.7709026  32.5230193  52.3779726
  65.0806761  32.3801613  63.2566977  65.9344625  32.7718115  63.0726004
  64.9477482  32.5249219  64.1935062  98.6149788  65.0838470  76.2775135
  97.9242325  64.6482944  75.7781124  98.4452438  64.8370028  77.1866274
  82.4456787  57.4548483  56.3390350  81.7248344  57.6549625  55.7419062
  82.4906540  58.2123089  56.9225264  93.5769081  45.5382109  77.2637320
  93.9003086  45.6338406  78.1595516  92.8496075  46.1576700  77.2042418
  88.4201336  47.8852892  63.5322142  87.9179668  47.0898485  63.7092304
  88.8284016  48.1022787  64.3703461 107.5049686  27.2012520  87.6493168
 108.2408237  27.2825098  88.2560635 107.6780510  27.8569078  86.9737434
 111.2546062  23.9294958  82.7354717 111.9793797  23.5174370  82.2652149
 111.2824917  24.8465085  82.4624443  85.6137753  49.8607302  65.0983143
  86.0185146  49.2745352  64.4589424  85.2760983  49.2773867  65.7779551
 106.4567566  44.3584681  55.5169439 106.4921856  44.4790554  54.5680332
 105.9768391  43.5389376  55.6364775  74.5173931  72.8660679  35.1826453
  75.4097557  72.6260281  35.4322600  74.3466616  73.6797380  35.6570148
  92.2906494  39.5575929  82.5888443  92.3415470  38.9907122  81.8192387
  92.1209717  38.9591146  83.3163452  86.1029339  48.4812403  59.9803925
  85.7928562  47.6927614  60.4258013  85.4074669  49.1240597  60.1194572
  86.5165138  34.8468089  76.6864634  86.8984413  35.1612878  75.8670282
  85.6326866  35.2142429  76.6953182  73.2560730  44.0589905  90.1005554
  73.8166809  43.2834768  90.0774956  72.4836826  43.8113737  89.5922947
 111.7746735  64.2350435  86.4770222 111.2055683  63.4983969  86.2540817
 112.3138618  64.3657827  85.6970119  59.4116735  49.9229336  82.3683167
  59.2397451  48.9932823  82.2185707  58.5437202  50.3255606  82.3962593
  90.6955814  44.9700880  85.8435154  90.1109982  45.5131006  85.3147125
  91.2574577  44.5309687  85.2050018  81.3958549  53.1119156  69.5911503
  80.6351757  52.9266167  70.1418400  81.8810654  53.7831926  70.0709343
 109.9989891  41.2575674  55.7727766 109.3824959  40.5355740  55.6507111
 110.4429436  41.0567379  56.5966702  88.7968254  39.8093033  32.7312469
  88.4834576  39.2279434  33.4241033  88.5636711  39.3606758  31.9184709
  77.5169611  46.5170956  57.4872208  78.4440947  46.7399549  57.5708151
  77.4868917  45.8817911  56.7718744  61.8684149  46.6952038  81.7415905
  61.8806171  46.7909813  82.6939011  60.9386873  46.6729546  81.5149975
  91.6712379  43.3119678  89.4964981  90.8391666  43.6823511  89.2020226
  91.7926788  42.5335646  88.9528275  75.7490158  51.3780546  72.1391296
  76.5946341  50.9412575  72.2409630  75.9006453  52.0389557  71.4635134
  84.6914673  37.7880788  64.8485661  84.1812801  36.9787002  64.8194265
  85.2625084  37.6839852  65.6096935  84.3842316  55.0003433  51.6392851
  84.0992165  55.5195904  50.8873653  85.2117729  55.4002380  51.9066525
  85.6311893  55.5720901  67.3863649  84.9847221  55.7018948  66.6924858
  86.2601757  56.2831259  67.2637701  88.2694149  74.2586565  96.4487362
  88.2221699  75.2064133  96.5742779  88.5327435  74.1509485  95.5347919
 102.2535992  48.5783243  83.7128162 102.6105690  48.6951303  82.8323841
 102.9736710  48.8165140  84.2967606  81.2648869  23.2680440  68.7681437
  80.7955074  23.4773135  67.9606009  81.3290215  24.1033149  69.2312193
  91.7867756  17.0586443  79.0822315  91.7861843  16.3272691  78.4647179
  91.0226822  17.5801933  78.8365078  96.1857033  45.5914402  75.7280064
  95.5215836  44.9123430  75.6096792  95.6957150  46.3550854  76.0329485
 107.1402073  46.8494940  56.5589666 106.6899490  47.1797848  57.3363972
 106.6275883  46.0867643  56.2912178  99.2286682  61.2596798  89.8674870
  99.1442013  60.3422546  89.6078110 100.1720428  61.3995457  89.9493599
  79.5103931  41.1864281  71.3737106  80.0556183  41.6387367  72.0174313
  80.1081371  40.9827995  70.6543541  72.6503372  41.7178154  71.8078995
  73.0005741  40.8998823  72.1608162  72.9770136  42.3940611  72.4013662
  78.1424618  49.1976738  95.4540348  78.0755281  50.0774431  95.0828838
  78.3123732  48.6321783  94.7006607  75.3580236  48.8866806  79.1748238
  75.9373522  49.6209860  79.3783140  74.5051336  49.1519833  79.5189619
  87.9791164  49.9452591  61.5768194  87.4885750  49.4865513  60.8947706
  87.9781532  49.3415785  62.3196507 107.4177456  39.0781951  68.7492180
 108.2139874  39.4436216  68.3636189 106.7955780  39.0399694  68.0228043
  83.8207245  60.4657316  69.3287230  83.8661575  59.7484493  68.6965275
  82.8901291  60.5400467  69.5401716  75.4292440  50.1452017  67.5863886
  75.1941490  49.5650721  66.8622255  76.2218285  49.7568226  67.9567957
  69.4260693  52.7060270  71.4332581  68.9924955  53.5592747  71.4478302
  68.8464546  52.1517372  70.9107208 113.7496376  31.0994601  65.7836771
 113.3080292  31.2558937  66.6183853 114.5909214  30.7128310  66.0265684
  74.8817539  34.0376043  69.3658972  74.8308659  34.5476747  70.1742744
  75.3010893  33.2174587  69.6261835  33.4295654  90.3298473   1.7823115
  33.1170774  91.2324715   1.8443313  34.0125608  90.3298473   1.0231352
  19.6616089  98.0365181  11.1828661  19.6392536  97.3817158  10.4850352
  19.0313888  98.7020874  10.9070587  89.8804188  48.9668608  77.8259945
  89.4332600  49.5827389  78.4064865  89.2044449  48.3351660  77.5805378
  89.0415478  54.5955229  83.3728600  89.8595333  54.9956226  83.0778027
  89.0540314  53.7169552  82.9931259  16.8769312  98.0820847   1.3338801
  17.7720284  97.7480030   1.2753436  16.6539836  98.0083942   2.2618330
  83.1091976  49.8715401  88.5283661  82.2509480  49.4657755  88.6507893
  83.6052418  49.6226358  89.3082523  92.9385853  71.3018608  88.8748455
  92.6863766  71.4340878  87.9609776  93.0628490  72.1862173  89.2193794
  84.2327118  52.2390318  79.6787643  84.2465973  51.2841368  79.7436905
  84.1589737  52.5396395  80.5845356  26.1478090  29.5486069   4.6951035
  27.0008802  29.7947478   4.3374506  25.8265018  28.8692808   4.1022196
  67.2713089  49.5833588  74.6525764  66.7156410  48.8750839  74.3272924
  68.1238747  49.1724253  74.7957516  91.7586136  50.9929132  82.3931789
  92.1579170  50.7863235  81.5481377  92.3567200  51.6244936  82.7927017
 112.4759769  73.3122063  78.2593489 112.0449257  73.0157566  77.4577618
 111.7973804  73.7942028  78.7320137  86.6705513  42.4993372  51.7333603
  86.3432217  42.9216099  50.9391546  86.2467384  42.9734421  52.4487877
  75.3517532  50.0061512  50.0763655  74.6369982  50.3747320  50.5955029
  76.1442471  50.2411175  50.5590487  77.9559708  60.1445913  56.7757225
  77.4314260  59.3922520  56.5017176  77.3188925  60.7636356  57.1323061
  84.0608978  65.2875614  79.4436884  83.2142162  64.8570108  79.5619440
  84.0447330  65.6037140  78.5403490  86.0977936  58.2264423  69.0315104
  86.8071461  58.0114603  68.4258413  85.8709526  57.3914003  69.4407606
  95.3380775  33.6437654  67.1842337  94.7573376  32.9162025  66.9614458
  95.4425621  34.1265368  66.3643265 106.3040638  57.2089672  63.3791208
 106.0144138  58.0137730  63.8088036 106.9538307  56.8389130  63.9766932
 101.9561863  37.2269297  69.5864725 102.4123478  37.8450871  69.0154886
 102.2209644  37.4780416  70.4713821  87.9070854  57.6851892  74.0303278
  87.4079037  56.8685293  74.0196753  87.8516674  58.0115032  73.1321716
  79.9554205  53.7900782  72.5570107  79.6564913  53.7241697  73.4639454
  80.4338741  54.6183872  72.5221157  89.0166473  51.2789869  52.5038528
  88.0944920  51.2563610  52.2482252  89.0678406  51.9796419  53.1540060
  78.3335304  60.0251770  47.2780943  78.1675625  59.1006660  47.4623823
  79.0892696  60.2459955  47.8224611 108.7568188  35.1732993  77.0641565
 107.9201889  34.8034143  76.7822552 108.5167313  35.9431601  77.5798178
  94.9873447  29.5614171  55.3849840  95.0574970  28.8560891  56.0282755
  95.8405209  29.5757246  54.9512482  77.0623779  57.9407597  69.6826220
  76.4245558  57.2502136  69.8630810  76.5677738  58.7546444  69.7784805
  81.8030930  64.3396997  85.3139496  82.6588917  63.9436769  85.1495838
  81.1764050  63.6387110  85.1347733  78.2374001  59.9500132  75.2317667
  78.7055063  59.1153336  75.2521896  78.9056063  60.6044102  75.4354715
 111.6446209  45.5415535  64.1007710 111.2775898  45.2199697  63.2772970
 111.5087700  46.4885616  64.0699005  81.4027786  56.9816208  68.7047815
  80.7974625  57.1867180  69.4173479  82.1917248  56.6646528  69.1444826
  80.2156830  51.8350410  77.7443266  80.4425526  51.2149811  77.0513010
  80.3040504  51.3321781  78.5539865 117.1070862  95.8471203   4.3381026
 117.4964714  95.6404591   3.4884527 116.1662102  95.7323647   4.2046523
  79.5046663  57.5996256  94.9416924  80.1906681  57.7248383  95.5974102
  79.8912811  57.0019722  94.3017101  80.1734066  53.8730717  64.7177029
  80.9354305  53.4656572  64.3059063  80.5057240  54.2209291  65.5452251
  78.8985443  23.5704207  80.6084347  78.6948490  24.4845271  80.8063030
  78.4571505  23.0723357  81.2964058  84.3022060  62.1687126  71.6447258
  84.2672157  61.6858625  70.8189726  84.7321320  61.5692568  72.2546768
 118.9805889  56.2003756  97.2892666 119.6389484  55.6858253  96.8223286
 118.3077717  55.5644274  97.5324059  84.0639496  49.4099522  53.2787323
  83.3797073  49.3188667  52.6155996  84.5285892  50.2105522  53.0350542
  95.5629921  37.8147507  84.1810131  96.0778999  37.6304603  83.3954334
  94.8280144  37.2032905  84.1345501 101.0281277  31.8450761  85.4622269
 101.2735081  32.7696562  85.4279995 101.2409592  31.5084076  84.5918274
  99.6279430  55.9134817  86.8746758  99.9210548  56.8243599  86.8498707
 100.4202366  55.4023409  86.7096710  82.8501987  54.2248440  78.2351780
  83.5752296  53.6995983  78.5738277  82.3477554  54.4689322  79.0124798
  42.8715467  29.3180180  10.4642439  42.9111862  28.3790755  10.6460285
  43.7071133  29.6591926  10.7830942  96.8612576  41.5923882  64.3736315
  96.7281055  41.9811487  63.5091257  97.1028996  42.3302698  64.9334240
  92.4973965  40.0380230  86.4179325  92.1496487  40.4837608  87.1903515
  92.6789665  40.7427740  85.7961750  88.6907101  46.9882011  53.2462263
  88.0020905  47.2248316  52.6249075  89.3460655  46.5346241  52.7161217
   7.4396729  41.2361765  67.1350908   7.3685616  42.1635866  66.9090748
   6.5347213  40.9250689  67.1576118 108.1133556  56.3788509  84.4664383
 107.9677582  56.3078880  83.5230446 107.3236084  56.8051767  84.7992706
  50.7164431  66.4714336  80.2307224  50.7030725  67.0008945  81.0280514
  49.9990606  66.8186474  79.7005939  89.0500450  41.8171024  84.9708557
  88.8638592  41.2817430  85.7421875  89.9887466  41.9964790  85.0247192
  86.8615532  49.8889875  49.3526363  86.8528557  50.8127832  49.6031618
  87.3776817  49.8641872  48.5468912  76.8859720  54.4243050  64.8365879
  76.8274117  53.4793425  64.9774504  77.6140308  54.7044849  65.3912544
  94.2016315  32.3819566  56.3032341  94.6570492  31.8168545  55.6791449
  94.8071861  33.1074429  56.4555597  82.9695225  44.4494915  48.2840347
  83.7775803  44.0354967  48.5871553  82.9940891  44.3541002  47.3319149
 106.7644501  59.1664028  66.1311245 106.2795162  59.8461151  65.6630850
 106.0876751  58.5850477  66.4778757  83.7015247  74.1621780  90.1284313
  83.1811619  74.2806101  89.3338013  83.9968014  73.2525587  90.0880051
  80.7854462  60.7449770  72.9336977  81.4047813  61.2868166  73.4226418
  80.2182674  61.3733721  72.4868584  85.8403683  40.3513765  85.5810547
  85.2287006  40.7052898  84.9354267  85.2875614  39.8674011  86.1945724
  69.4192171  53.8040352  75.6567907  68.8876343  53.0123091  75.7393837
  69.0262794  54.2811966  74.9259329  14.0900099  98.5327339   0.4496648
  13.6551952  98.9314365   1.2034561  14.9928284  98.3978081   0.7376674
  97.3224545  44.3540621  81.0186100  96.7754841  44.0526533  81.7440128
  97.4709511  43.5706615  80.4890251  61.7155933  57.8834009  89.4525337
  61.7458105  56.9949389  89.8074436  61.8782234  57.7727699  88.5157585
 100.6735802  47.5160885  50.9937286 100.5501175  46.9111061  51.7251587
  99.7864914  47.7773476  50.7466412  73.7597370  56.9886255  84.9003220
  73.5031796  56.1120129  84.6140289  72.9998255  57.3152208  85.3820896
  93.6011791  13.2989275  54.1501379  93.8361740  13.4998119  55.0560427
  92.6448631  13.3377600  54.1365242  88.6014175  66.7489910  87.7156162
  88.6959457  67.3869371  88.4229565  87.6555920  66.6436100  87.6129436
  67.0647097  54.7992611  73.9961624  66.2181330  55.2287149  73.8732624
  66.9241953  53.9019394  73.6939907  77.2785711  69.6152973  89.3527508
  77.9018831  69.0120411  88.9480305  76.4905930  69.5424604  88.8142204
  97.0278072  41.6217947  76.9107151  97.3951912  42.5049686  76.9463634
  96.6450977  41.4864111  77.7775669  91.0018253  37.1741629  64.3078661
  90.7847881  37.2949791  63.3834553  90.9680653  38.0558252  64.6790266
  81.7384529  51.6680908  54.2446947  82.2022820  52.1540117  53.5628033
  82.1965408  51.8947506  55.0540209  98.6253262  31.3354802  83.3642578
  99.0305519  30.8791566  82.6268291  97.6972485  31.3841319  83.1350517
  25.5561781  98.6778927   0.3864308  25.9458852  99.5259571   0.5988965
  24.8709679  98.8818836  -0.2500484 100.6626892  51.3568401  72.8016806
 100.1964092  51.5399742  71.9860363  99.9725533  51.2840462  73.4609509
  83.7065601  31.2916660  67.1141720  84.1425514  31.1286712  67.9505825
  82.9604721  31.8481946  67.3374367  97.0147991  41.3991022  67.8637457
  97.7390862  41.9825268  67.6373577  97.3985004  40.5223846  67.8446627
  77.6875257  61.6701269  43.0730534  76.8006039  61.8042183  42.7389526
  77.7482843  60.7260799  43.2190657  65.3419304  35.4348493  61.9595671
  66.1075401  34.9798751  62.3103762  64.9609566  34.8167372  61.3358450
  94.8630524  48.5832548  83.1380272  95.6064510  48.0496979  83.4189510
  94.2898750  48.6175632  83.9038754  84.8297501  32.7758980  49.0168047
  84.5982838  33.6959529  48.8897085  84.3154430  32.3065901  48.3599424
  82.7021217  57.3270798  76.0000753  83.5808849  57.0089102  76.2069273
  82.1811008  56.5326500  75.8832502  86.0878658  45.9736967  56.4946461
  85.5825806  46.3747025  55.7874632  86.9134235  45.7173300  56.0835981
 102.6425552  36.8502069  86.7547989 102.0993233  37.4564552  86.2512207
 102.4760532  37.0818257  87.6685047 109.1858006 102.4608421  24.7310162
 109.6567059 102.6361465  25.5457258 108.4842300 103.1118298  24.7150493
 105.9858131  62.7868414  93.5310745 105.8907700  63.5676336  92.9855824
 105.3213501  62.8884315  94.2125416 112.1475887 111.1736488   8.0183703
 112.9835701 111.2268448   8.4815449 111.6549397 110.5018139   8.4897184
  97.2962189 111.8732262  86.3906860  98.1691551 112.0281887  86.0298634
  97.4579811 111.5066814  87.2599983  90.2852535  64.4128752  82.2460079
  90.5317020  65.3362942  82.1932030  90.2686024  64.1169977  81.3358402
  96.2728405  83.4838104  86.6954041  96.9616890  84.0790653  86.3998032
  96.1434937  82.8836536  85.9610176  62.5307703   9.7344327   3.7653649
  62.0711756  10.5147183   3.4552726  63.4100008  10.0446200   3.9820862
  99.3948841  80.5840492  85.2184772  99.3229485  80.5565166  86.1725807
  98.5373020  80.2965450  84.9052334 104.4592381  71.7854738  89.1105080
 104.6922016  72.7066040  88.9944172 104.7673512  71.3579512  88.3114243
 109.6592712  46.1773729  89.1790962 109.6278954  46.2290764  90.1343822
 110.4791737  45.7207441  88.9907455  63.7979698   7.2258490   1.5128469
  63.6954594   6.4417070   0.9735477  62.9197598   7.4002409   1.8513249
  90.8934689  56.0014820  72.3495960  90.8174992  56.7333508  72.9618311
  91.0999107  56.4120674  71.5099335 109.9761009  63.3245182  80.9814548
 110.2228165  64.1451931  80.5550098 110.7013702  63.1367064  81.5772247
  37.9432511   1.9181119   8.8745731  38.1339526   2.7284157   8.4020561
  37.0291448   1.7275392   8.6640370 115.0332546  53.9681721  82.6847935
 114.0796661  54.0088749  82.6124191 115.3522396  54.4300556  81.9094563
  93.2024956  61.1244488  56.6617823  92.5963211  61.3440895  55.9542894
  93.0548859  60.1925421  56.8229866  69.3882847  75.2118063  97.0711231
  68.9315224  75.9601688  96.6870022  69.7013330  75.5309629  97.9175091
  75.4456663  65.8005810  95.7425499  75.0662661  64.9292707  95.8570099
  74.7087049  66.3493633  95.4742908 102.3037338  60.2295685  93.6196041
 101.4633751  59.7850370  93.7310600 102.0713520  61.1436462  93.4562302
 110.3984642  76.3184214  61.0046673 110.6761456  76.6122913  60.1370478
 109.9189091  75.5064631  60.8404064 107.2339058  72.0390749  63.0189705
 106.7991924  71.7300463  63.8138008 107.8170776  71.3218164  62.7706146
  45.2590466  29.9700046  11.8556595  44.7016335  30.2693653  12.5739241
  45.8221674  30.7192183  11.6612267   5.8100748  83.1405640  88.1272316
   6.2271810  83.9799404  87.9330444   5.2269101  82.9853249  87.3842335
  46.1957359  21.4138436   6.2042516  45.8144188  21.5205574   7.0757121
  46.0276651  22.2478032   5.7655120 115.9506130  67.8115988  67.5912523
 116.5742588  68.5229588  67.7370691 115.5489635  67.6658583  68.4477997
  24.9888873  71.1638880  59.5542336  25.4494452  70.6486654  58.8919115
  24.1773582  70.6812668  59.7114944 102.6580715  60.3477383  65.5602598
 101.9709301  60.9602785  65.2978230 102.3956203  60.0526237  66.4321899
  86.5597534  63.6289263  73.5549784  86.1721516  62.7634001  73.6848164
  86.1010647  64.1926622  74.1779089 111.8575668  73.9007759  65.7464457
 112.6824951  73.6138058  65.3548193 111.3670540  74.2828465  65.0186729
  91.6480827  48.2389116  80.3239441  91.5668201  47.7641487  79.4967604
  90.7534313  48.2881832  80.6607056 112.5265980  56.2177277  90.9697723
 113.4228039  56.5370798  91.0749054 112.3476887  56.3099861  90.0339794
   6.5181595  58.0892372  96.9567966   6.1152411  58.3287382  97.7913761
   6.0606259  57.2919178  96.6900158  82.6471996  29.7086096  83.9014244
  82.3334503  30.0259542  83.0546093  83.5971260  29.6510196  83.7986088
 117.2318554  95.8225918  59.1729879 116.6884041  96.6103745  59.1902256
 118.0188179  96.0637665  59.6616220  87.5767136  74.6302128  89.4531345
  87.9734516  74.6254730  88.5820389  86.7571926  74.1474438  89.3457031
  77.4923420  48.7468004  92.1320248  76.8493366  48.6184454  91.4346695
  77.7986050  49.6458292  92.0129204   2.0600200  52.1884632  82.0679665
   2.6950839  51.5375805  82.3667526   2.5715867  52.9902554  81.9599819
  99.2632675  77.7021217  61.5056610  98.4752274  78.0248308  61.0685444
  99.0204716  76.8336678  61.8267155  86.7952442  85.2578831  83.1261349
  87.3903656  84.5103168  83.0693913  86.9902706  85.7789326  82.3472309
  82.6678276  49.7100925  63.3336687  82.7227497  48.7714577  63.5130501
  82.2966766  50.0852442  64.1322517 110.5561256  69.9768925  73.8092089
 110.4956055  70.4183817  72.9620600 109.7138882  70.1495695  74.2299938
  95.3411579  63.1128931  78.6003780  95.4722214  64.0555382  78.7027121
  95.8042908  62.8930378  77.7920485  47.0306301  21.9816828   3.1261164
  47.5443316  22.7736425   3.2846826  46.1267805  22.2433114   3.3017337
  98.6348724  88.9850235  65.0121117  98.7753868  88.0478382  65.1469135
  98.8086700  89.3786907  65.8671236  47.4663496  29.0593672   5.3539956
  47.4878836  29.8293757   5.9221995  48.3748007  28.9408684   5.0766712
 101.4015198  69.6045113  65.6037903 100.4524231  69.5416546  65.4965925
 101.7568398  69.3265390  64.7595692 104.1053486  61.7345572  76.3154316
 104.0099430  62.1069384  77.1920538 104.8753262  61.1693287  76.3778114
 102.8793335  46.9161558  71.2979317 103.0549431  47.6253986  71.9162893
 103.7376499  46.6960478  70.9358788  95.2885723  51.5513897  64.5134926
  94.6626091  51.3515234  63.8174725  95.7206154  52.3548460  64.2236042
 102.3908043  75.7768631  83.3668613 102.0589638  76.0021782  82.4977589
 101.6321468  75.4181910  83.8273335  97.3884010  80.7449055  77.3206139
  97.5597477  79.8245287  77.5200844  97.7780628  80.8793068  76.4567089
 106.7676735  77.3907518  55.8542919 105.9168243  77.5716972  56.2537336
 107.2844315  76.9991684  56.5584612  90.5541420  57.3190403  92.4498653
  91.4299583  56.9900751  92.6522446  90.6359768  57.6945162  91.5731907
 110.2632332  76.4958382  84.6704483 109.8626423  77.3261261  84.9280930
 110.3892994  76.0249233  85.4942131  96.6576385  68.3659267  70.4799461
  96.1923027  67.7565241  71.0529327  97.3693275  67.8467035  70.1055861
  93.0749893  79.9079132  76.6900682  93.5769081  79.1226196  76.9083071
  92.1864796  79.5883322  76.5330696 111.6485214  64.2156553  71.7467546
 111.2233353  63.4295511  72.0895195 110.9272003  64.8177052  71.5638590
  88.9451885  59.5607901  78.2418156  89.4434834  59.6130037  77.4262190
  89.2092419  60.3381300  78.7340069 114.7786903  58.7861204  80.0883961
 115.3314781  58.0873728  80.4382610 115.0494289  58.8706493  79.1741753
 114.5503616  30.5292320  93.8999939 114.2948627  29.7327638  93.4346008
 113.7316895  30.8680177  94.2622566  92.0300198  70.7824564  79.8378038
  92.6797581  71.4499235  79.6174335  91.9721127  70.8106661  80.7928371
 115.8463955  79.6884584  71.8143606 115.6448841  79.4896746  72.7287483
 115.1379585  80.2676010  71.5334082  63.4755278  70.1830101  91.3968849
  64.2809582  69.6722937  91.3151455  62.8213358  69.5521212  91.6972923
  93.5459900  77.7823305  93.1298733  94.1176891  78.5500479  93.1321621
  93.3068657  77.6645136  92.2105312  92.2055817  70.9709835  82.6237965
  91.8535519  70.5080175  83.3840370  91.9200802  71.8769646  82.7417469
 109.9857330  56.4772129  39.9317670 109.7827816  56.2577486  40.8410931
 110.8067894  56.9667768  39.9810529  34.9354935  10.5527580   4.1751915
  34.0137267  10.4586399   3.9349428  35.3242183  11.0384893   3.4477377
 107.8152943  71.1465645  67.2883844 108.5912514  70.9107590  66.7799377
 107.4919891  71.9469213  66.8746996  96.2842846  44.7019815  90.5838490
  95.4462051  44.2949104  90.8032417  96.1242294  45.1458502  89.7510242
 109.4110489  49.6410799  56.0116196 108.6516666  49.7933006  55.4491329
 109.6521091  50.5112696  56.3292599  99.6021175  59.4824934  72.3806429
  99.7366333  60.3802776  72.0771217 100.1299763  58.9476061  71.7877722
 102.2959900  68.6354637  67.8458881 101.9338799  68.9251375  67.0085144
 101.6389561  68.8925838  68.4927416  98.0085945  57.3668528  69.7354698
  97.6593876  57.7211285  70.5532551  98.9377880  57.5960684  69.7526073
 101.2255859  57.5554132  75.5949545 101.5228462  58.4652281  75.6052399
 101.2088013  57.3193979  74.6674585   4.5317525 107.1873760  94.8933220
   4.4505003 107.6211071  95.7427406   5.2823544 106.6020012  94.9941254
  74.6642494  78.2810163  90.0622463  73.7270546  78.1200171  89.9528217
  74.8200989  79.1079092  89.6059608 108.3538818  63.4184647  83.1130600
 108.1183624  62.4929953  83.0477524 108.8826656  63.5866547  82.3330975
  71.2663031  40.0151205  13.1604266  70.9192276  40.6766987  12.5620258
  70.5537748  39.8543119  13.7790346 114.5021343  71.6090584  58.6083126
 113.5973930  71.7297506  58.3200216 114.9880028  71.4291668  57.8034544
  10.5571270 108.0425453   0.1988286  10.5719423 107.7497101   1.1100167
  11.1898005 108.7601662   0.1675564 108.4532166  63.4228039  70.1663446
 107.5768280  63.3152294  70.5359316 108.6537075  64.3503761  70.2914238
 106.5874386   3.1009105  84.0924740 105.9872818   3.2670969  83.3655453
 106.8560982   2.1893880  83.9776611  93.4441090  53.0239534  83.4121227
  93.4420395  53.4154320  82.5386429  94.1243172  53.5014820  83.8870049
  85.5029488  86.7910385  87.6530552  86.3698006  86.4200020  87.4883366
  85.2242470  87.1346283  86.8042278  95.7701778  84.2656803  95.5515862
  94.9413395  84.2452812  95.0732040  95.7583523  83.4711075  96.0851955
  74.2482090  57.9761076  81.7242718  73.9666128  57.1251822  81.3883209
  74.9754906  57.7726507  82.3124123 106.2129688  81.1034298  79.9544239
 106.2466908  80.2572060  80.4005146 105.9367085  81.7205238  80.6319904
  92.0512676  76.7750549  82.7682877  91.7113876  77.0265865  81.9095421
  92.7638054  76.1658812  82.5748253  78.9996767  69.2635918  77.0064878
  78.9185524  68.5769939  76.3444996  79.7273970  68.9786434  77.5591707
  86.3584614  53.7437963  69.0873480  86.0228348  54.2985392  68.3831835
  86.6050625  52.9275799  68.6523628 107.3136711  48.8304043  79.4063663
 107.5448608  49.4680452  78.7309456 108.0674648  48.2419538  79.4482851
 109.2230034  70.2496529  82.7060318 108.9835548  70.5946398  81.8458652
 110.1665115  70.3980064  82.7694035 114.1153145  34.0677142  91.4137936
 113.8221550  34.8800349  91.0009670 114.0543270  33.4109497  90.7201290
  71.2273455   7.3496974   1.9925788  70.6182766   7.3954093   1.2555753
  71.6605902   6.5019798   1.8930337  83.3964157  69.6247768  79.9539518
  83.1904697  69.2358541  80.8039856  82.7201557  70.2897358  79.8246384
  64.4378805  56.6423655  70.8275747  65.3607559  56.8947792  70.8563375
  63.9873171  57.4191952  70.4962778  99.2611980  58.7013674  83.5016918
  99.7143459  58.5383987  82.6744556  99.5670319  59.5659065  83.7760448
  76.4311457  59.5498657  89.8124409  75.9051275  59.3421745  90.5847073
  77.0368576  60.2284145  90.1106262  77.4545717  62.5031042  83.9255619
  76.9731236  62.6807594  84.7335720  77.0206070  63.0426216  83.2646370
  84.4303989  45.4713535  74.6644402  84.7771072  46.3066387  74.3508673
  83.4798336  45.5754662  74.6218729  93.4172440  61.9426298  85.7432079
  93.1243324  61.4405823  86.5037251  92.6131344  62.3049450  85.3712273
  67.8447628  44.3284464   1.2668152  67.4890995  43.6235762   0.7256173
  67.0777512  44.7195864   1.6850686  12.6278865  81.2107754  72.7267075
  12.6857781  82.1609783  72.8266144  13.1063497  80.8613014  73.4784937
  94.4263268  69.8405457  73.5164165  95.3508186  69.6076584  73.6019516
  94.4023228  70.4626083  72.7893066 118.6397743  92.1480465  54.3363094
 117.9489613  92.7825737  54.5270824 118.4965420  91.4414883  54.9659920
  80.5463696  58.4386492  77.5946331  81.2666893  57.8184605  77.4817610
  80.9764385  59.2786980  77.7546072  99.8121834  54.7054338  67.0019674
  99.2495632  55.4527426  66.7989540  99.6804810  54.1010523  66.2714815
  90.0387955  84.0363884  85.5396175  89.5249176  84.5899868  86.1275768
  89.5234013  83.2342911  85.4544640  74.0090132  99.0477467   0.0080418
  73.5365963  99.0178967   0.8400061  74.8925352  98.7490463   0.2234465
 109.6455193  62.3771191  65.8905888 109.7353554  61.4409208  65.7125759
 108.8117409  62.6186943  65.4872561  35.6606698 108.3953476   6.4543176
  34.7439170 108.2032013   6.6514903  35.8492756 107.8822994   5.6685394
  81.8044281  71.8635035  79.4437456  80.9376621  72.2384834  79.2877245
  82.4002838  72.6113701  79.4003773   9.7388452  88.4135437  72.2999954
   9.9915797  89.3364334  72.2747803   9.8554528  88.1581974  73.2151079
 101.7360592  76.7991161  66.1080027 101.1067867  76.3685179  65.5293560
 101.2431812  76.9747066  66.9095469  92.4289703  65.5041933  75.4457188
  92.9546261  66.2371445  75.1252651  92.2787380  64.9609041  74.6720934
 103.6479950  67.8893757  86.1989212 102.9891682  68.5467339  86.4226723
 103.1520844  67.0763111  86.1028385  68.0999613   4.5271853   1.5786733
  68.9107418   4.7702959   2.0256218  68.1700373   3.5808134   1.4533675
 113.2405376  49.9928141  91.5322590 112.7654648  50.8237839  91.5378571
 114.1295624  50.2269793  91.2657452  84.9255180  58.2576084  71.9035769
  85.2111530  57.4523735  71.4720201  84.0608025  58.4341908  71.5330029
 107.5494003  69.0204525  60.5547905 107.6885891  68.1050539  60.3120756
 106.5991211  69.1327906  60.5307293  90.0430965  81.3669205  84.4048882
  89.7030735  81.2972927  85.2969551  90.1101589  80.4611397  84.1027546
 116.9522667  70.1928043  87.3283100 116.8623734  69.2446613  87.4240780
 117.1958923  70.3188705  86.4112568 107.7482128  24.0809274  62.3316002
 107.3280716  24.7835326  62.8276396 107.3057747  24.0892839  61.4828300
 109.5695972  66.1141682  86.0096645 109.4144058  65.9411669  86.9382191
 110.3564262  65.6108046  85.8004856 106.7516613  55.5224514  67.7826691
 106.3905621  54.6449900  67.6565695 107.2539806  55.6915522  66.9856024
 117.9815102  57.9187059  72.3340559 117.7050877  58.1817198  71.4561939
 118.5067272  57.1308565  72.1937895  37.9937260   6.7989365  -0.1639059
  38.3397047   6.9353834   0.7180902  37.0574848   6.6485182  -0.0333098
  39.8245716  43.2529545   2.3472060  40.4191208  43.9891672   2.4911948
  40.0644016  42.9167557   1.4836763  75.6092501  44.8960018  35.4884386
  75.0892639  44.4747257  36.1728191  76.2655401  44.2415619  35.2492428
  85.5844593  63.0642414  79.7642326  85.7871723  62.9860210  80.6964493
  85.0049877  63.8240290  79.7080564  14.2144310  61.1377335  77.1846819
  14.5799220  61.0862112  76.3015079  14.0030360  60.2316761  77.4096394
  82.5307846  52.9967356  73.3446455  82.9227066  52.3803139  72.7260637
  81.6694832  53.1916571  72.9753256  74.6114063  47.4135590  72.5330639
  74.7379923  46.8384743  71.7784214  73.9348078  48.0302095  72.2534466
  95.7602882  63.9966393  75.4129362  96.0993958  63.1068993  75.5109024
  95.0459194  63.9125156  74.7814035  54.2570829  73.5207653  86.4161682
  54.9143076  73.6726189  85.7370377  54.2182922  72.5683212  86.5032387
 116.8902588  79.5589590  61.4092684 117.5020790  79.7178841  62.1280527
 117.4498940  79.3931913  60.6506109 104.9938297  65.2085304  83.1366348
 104.7125626  66.0719109  82.8338242 105.8116722  65.3739357  83.6056805
  96.5663624  57.1583939  60.2281570  96.3288116  57.7482605  60.9435987
  96.0319614  56.3777494  60.3739071  99.8341274  82.3427582  48.6720943
  99.5400524  81.5873718  49.1811562  99.7827148  82.0525455  47.7613974
  24.5267534  69.5220804  56.5021467  23.8463020  69.9547386  55.9863710
  24.0618277  68.8419437  56.9894791  95.5337238  38.2131124  76.0366821
  96.2815952  38.6824918  75.6670809  94.8344326  38.8658381  76.0709381
 100.1875973 111.2107754  77.6781559  99.7274590 110.6121254  77.0898342
  99.5287514 111.8611908  77.9213047 113.8375473  62.9594994  61.4215136
 114.0530396  62.1098852  61.8061543 112.9245472  62.8735590  61.1471462
  81.1535740  67.7362871  78.2426357  82.0836353  67.6638079  78.4570217
  80.7030010  67.3737526  79.0053844 101.3856983  66.2816477  87.6874161
 101.1919212  66.7966557  86.9041824 101.5461063  65.3970575  87.3587799
  85.7308006  56.9203615  81.9728565  86.1035156  57.6114273  82.5203419
  86.4232063  56.7120743  81.3456345  81.8201065  70.2665138  90.2203083
  81.5434074  69.3512297  90.1764297  81.8321514  70.5570698  89.3083572
  13.2784760  95.1764393  74.1595697  13.5767138  95.4829407  75.0159216
  13.6293519  94.2887974  74.0873528 101.6981888  87.3624229  81.1565113
 102.0555782  88.0304909  81.7414856 101.6564465  86.5712452  81.6936493
  94.8001766  87.8435612  80.0219345  93.9083099  87.7774239  79.6807098
  95.3388596  87.3897076  79.3738031  95.4129696  99.8581791  83.8706493
  94.5377445  99.5132923  83.6938190  95.7642746  99.2829227  84.5502853
  90.0591564  93.8659573  62.6918745  89.8982906  94.2081642  61.8125296
  89.5961475  94.4700146  63.2723665 114.6239281  92.0231724  62.0472240
 114.1459942  91.2351608  61.7886782 114.0170860  92.7412128  61.8672466
 105.9187031  91.8990517  70.0054789 106.6544724  91.6542625  69.4442606
 106.1861324  91.6268444  70.8833218  89.5378780 101.2290573  75.6057882
  89.5613003 100.2929497  75.4073715  89.8326492 101.6522598  74.7994137
  94.4008446  90.1741695  68.7092829  94.9886990  89.4379044  68.5402632
  93.6800003  90.0518227  68.0915022  94.0757370  90.7270241  56.7237997
  93.2134914  90.6473064  56.3158751  94.2830944  89.8409557  57.0206594
 118.4838200  99.2022419  56.4739180 118.6972713  99.4071198  57.3842430
 118.6045647 100.0294018  56.0075998 112.8710461  98.8589478  48.2777500
 113.3565807  98.2616043  48.8466597 112.1570969  98.3272743  47.9258442
  14.9313951  75.8780050  70.4061174  14.3695807  75.8470964  69.6317530
  14.7650123  75.0496340  70.8559561 104.0671730  83.5412979  43.2818890
 104.0970421  83.8170338  42.3657513 104.9638367  83.2712078  43.4800720
 111.2275219  81.5839577  86.3600159 111.9209194  82.1278191  86.7336941
 110.8029842  81.1826801  87.1182823   0.0782660  85.6023407  81.8504524
   0.7085468  85.7055473  81.1374760  -0.7325477  85.3364277  81.4167309
 112.1965408  82.0953083  62.9917383 111.7154598  81.2709236  62.9198265
 112.8107452  81.9521713  63.7118053   1.0545128  88.6287594  73.0343151
   0.8068167  89.0276718  73.8684273   1.4222704  87.7785110  73.2752943
  97.3283195  92.6591587  70.7265329  98.1813526  92.4071026  71.0801363
  96.9149876  93.1582260  71.4310312 111.8568611 105.8932018  72.1248817
 112.4970436 105.1849270  72.0560646 112.2429276 106.5049362  72.7517557
  13.0491292  81.0493469  69.9310923  12.9747462  82.0036507  69.9296141
  12.7163851  80.7845020  70.7886314  91.5663052  92.9651451  71.8626642
  92.0542240  92.8513527  72.6782751  92.0967960  92.5197029  71.2020683
 108.4015942 104.2883492  58.3856344 107.9088688 103.4995556  58.1592321
 109.1810417 104.2512226  57.8312731  94.1123581  90.9201527  72.1698761
  94.9057102  90.4234791  71.9695377  94.3088627  91.3625336  72.9956627
   4.4002312  80.8684063  74.5068979   3.7988660  80.9986782  73.7736750
   4.4944808  79.9181843  74.5734501 110.2055073  77.2827482  66.2835121
 110.4909515  76.4043522  66.0321665 110.9759426  77.8336859  66.1452198
 102.4993610 105.8738899  67.5188398 101.5585995 105.7070541  67.4609518
 102.6248837 106.2359524  68.3959866 109.5307255  79.4967842  82.6390648
 110.4434490  79.4682455  82.9260349 109.0271282  79.5733261  83.4494686
   0.8680312 105.5944061  71.3961792   1.1661959 105.9037113  72.2515488
   1.6218960 105.7201672  70.8198929  10.0959790  76.2949800  68.9567471
  10.1333296  77.1427679  68.5139179   9.7758383  76.4977884  69.8357296
 101.7740536  80.2343655  88.4922504 101.9807816  80.8524609  89.1932869
 100.8176899  80.2281857  88.4526920 109.7948647  70.4437113  62.5902796
 110.2945614  69.6330833  62.4932528 110.2514553  71.0746002  62.0337391
  42.2011423   8.7038058  85.4705143  41.6789436   9.1233963  86.1542416
  42.4980497   7.8838480  85.8651543  10.0423968  64.1429806  59.7128248
  10.2427137  64.0113163  60.6395197  10.0269151  65.0938368  59.6038723
 116.9409657 105.8047104  87.0869064 116.3365555 105.4353809  87.7307415
 116.6163540 105.4875469  86.2441444  76.0359621  58.2624578  84.7950077
  75.7936716  59.0720987  85.2444649  75.2106428  57.7881718  84.6943855
  18.7294650 105.2014160  71.6036987  18.7647378 105.5682850  72.4871016
  19.1218925 104.3325615  71.6893387  39.6665788  37.8376293   4.3454218
  40.2578926  37.1633959   4.0107706  40.0432682  38.0895376   5.1885593
  47.2284651  37.9041028   2.2003728  46.4892483  37.3242831   2.3836674
  47.6545620  38.0245376   3.0490002  55.9425545   3.7990561  89.9262619
  55.2432394   3.1739968  89.7352314  55.4974556   4.5359212  90.3447628
  82.7848911 110.8468342  71.0614586  83.1688976 110.0292015  71.3780975
  82.5357628 110.6597233  70.1563883 111.4636135  83.1224442  75.1869583
 111.2355232  83.7672615  75.8565998 112.3655510  82.8747082  75.3903580
  96.3603115  94.8288536  74.4729376  96.6895580  93.9357662  74.3718529
  95.6943512  94.7625923  75.1572895 109.8077679  77.4717999  47.8906393
 110.2826405  78.1730795  47.4446154 109.4467545  77.8873825  48.6737061
 109.1770172  62.0263243  77.1582842 109.3597507  62.9590797  77.2714424
 110.0152588  61.6486406  76.8919134  74.4789886 104.7616386  65.0882769
  74.4402599 104.9072552  64.1430140  75.0607347 104.0084743  65.1909590
  98.9489365  99.2123699  80.2696419  98.2094574  99.3972397  80.8486176
  98.7698460  99.7248554  79.4812775  95.4900455  74.6850872  73.8689899
  94.9682808  75.3304052  74.3460178  95.7964039  75.1521349  73.0916595
 112.5666237  78.7747622  82.7251530 113.3200645  79.0919781  82.2272301
 112.4364376  77.8778553  82.4171925 102.1713638  81.3459206  78.7025547
 102.9864025  81.7903996  78.4693575 101.4943790  82.0135403  78.5920811
  99.0444183 104.8917961  70.8353853  99.5286942 105.7086086  70.7148218
  98.3698559 104.9108601  70.1565409 113.8207436 106.1236954  69.3180275
 113.0763626 106.6049767  68.9567709 114.3671036 106.7968655  69.7236967
   7.2062314  78.8005590  81.7306137   7.4601144  78.6331987  80.8230019
   7.4893022  79.6997595  81.8965912 112.2329998  92.5105858  71.5495110
 111.9596577  93.2013512  70.9458971 111.9299221  92.8082943  72.4072647
   1.5601295  92.0962334  73.5115099   0.9555345  92.7602863  73.8427639
   1.5364873  91.4013100  74.1693497 107.3544788  91.6294289  89.3141460
 106.5728760  91.0772991  89.2918491 107.0760727  92.4547958  88.9173126
  97.6954937  65.3156853  69.9587822  96.7804527  65.0535822  70.0599527
  98.0413151  65.3275490  70.8512497  98.5416317  67.3625517  61.0464525
  98.3157253  67.3847389  60.1165533  98.4044266  66.4510822  61.3045788
  99.8008060  97.0387077  60.6304884 100.4738808  96.7371655  60.0203419
 100.2530861  97.1071911  61.4713144   3.3453321  68.0525303  71.3750315
   3.2777879  67.5235462  72.1699142   2.9998928  68.9088821  71.6271496
 109.1260147  82.3588562  74.0746784 109.9948692  82.4311924  74.4697666
 108.8845062  83.2599926  73.8605213 100.2535915  76.2776756  73.1071281
 100.8628368  75.8651543  73.7194014 100.3392029  77.2153664  73.2792807
 105.9153843  79.1403580  50.5827856 105.5308151  78.5066700  51.1884117
 106.5757275  78.6416245  50.1017094 111.6595650  84.8670197  48.1085491
 111.1964989  84.1923237  47.6119709 112.0694542  85.4169273  47.4408484
 102.3478889  58.1350422  79.2230749 103.1990814  57.7595377  78.9978886
 102.2954750  58.9378119  78.7043810  98.6180210  92.4065971  53.4588194
  98.8076782  92.6111412  52.5431633  98.2615471  91.5185261  53.4369898
 110.8781528  67.1144724  34.5996976 110.7647038  66.2469292  34.2114592
 110.4242420  67.7064943  33.9999437 114.8543835  78.8636684  87.8455544
 114.1964626  78.9471579  87.1553421 115.6604671  78.6367798  87.3819065
 102.1348667  71.7089939  70.1975489 102.8059769  71.5650988  69.5303631
 101.5665531  72.3826933  69.8242140 108.7414932  73.8248682  73.7409735
 107.8252125  73.6261606  73.9337778 108.7406445  74.7521544  73.5035419
  98.0089378 107.8906536  68.0928183  97.7081585 107.0647430  68.4718180
  97.2234535 108.2762337  67.7047968  95.5696964  42.5804329  74.6054125
  95.9078026  42.4270916  75.4876804  94.8793125  41.9264126  74.4964600
  17.4946856  92.7920151  82.7592182  18.3312964  93.0006886  83.1748676
  17.5413013  91.8518066  82.5858498  46.9004631  86.6702175  69.9071932
  47.8209066  86.5123749  69.6971893  46.6829443  85.9967899  70.5517101
 110.5526161  65.4844570  54.6051073 110.4394341  64.6042252  54.2464781
 109.7149658  65.6818771  55.0241613  77.5032759  81.0248852  83.1023884
  78.1361485  81.7266178  83.2549667  76.9048405  81.0758400  83.8477135
 100.7790184  63.5904360  83.9476013 100.6661415  62.6491022  83.8157749
 100.0223255  63.8511944  84.4726372  93.1233883 100.6374264  74.5074511
  93.5140133 101.0201836  75.2930355  93.8717079 100.3725433  73.9725828
  60.8125925  46.4953709   2.1516058  60.0381994  45.9337234   2.1846534
  60.4804516  47.3443460   1.8597825   2.3940682 110.3852654  63.2176304
   2.5777814 109.6579361  63.8121700   3.1870925 110.4678249  62.6879787
   5.2742708  94.3278694  87.3223209   6.0802054  94.6829796  87.6972771
   4.6877182  94.2225266  88.0713749  10.3694367  82.9041195  74.7329569
  10.7013166  82.0528030  74.4477463   9.9742329  82.7329540  75.5877972
 109.4570732  64.6797657  95.2684498 109.3626022  64.2438126  94.4215393
 108.5947227  65.0577688  95.4407692 101.8262959 105.2826691  64.1301537
 102.0411587 106.1883354  64.3533707 101.6245174 105.3079319  63.1948042
  98.8343334  78.3998442  76.9640160  99.6761513  78.8436890  77.0668173
  98.7840462  78.1949329  76.0303593  93.5538292  93.8733864  79.3647814
  94.1665459  93.8178825  78.6314774  93.6286736  94.7769928  79.6715641
  96.4488220  42.6311064  12.0099711  97.3540592  42.9212379  12.1222806
  96.2152100  42.9122543  11.1253166 105.4778576  75.5712843  59.1993284
 104.8226738  75.1598406  59.7629642 105.6350708  76.4264488  59.5995808
  95.2279758  70.8916473  81.0330868  94.7366428  70.3973961  81.6892433
  94.7605801  71.7238140  80.9605217 104.0977287 103.8597393  97.3944664
 104.1810417 104.8129463  97.4207783 103.8813019 103.6633015  96.4829922
  87.0743370  90.8366776  66.9853544  86.5814114  91.0388756  67.7805710
  86.6774464  91.3878536  66.3108873  94.5223904  92.8649235  65.9522104
  95.2697563  92.5516033  65.4427767  94.8364830  92.8757954  66.8563414
 105.8919907  74.8049688  54.2905235 105.7593155  74.6498871  55.2257156
 106.1488914  75.7253408  54.2344475  55.8905220   5.7051122  85.6240273
  56.2875986   5.5600148  86.4828110  55.2169752   6.3670301  85.7803249
 104.3512154  89.3052292  66.3608789 104.8739147  89.9995804  65.9597683
 104.4163704  88.5723209  65.7486391 106.7998505  92.4074078  33.2185578
 107.7471066  92.4933815  33.3259463 106.6529465  92.5307274  32.2807717
 109.0944958 102.5145245  81.6555882 109.7677517 101.9696426  82.0630932
 109.5820045 103.1195164  81.0965157  41.4264154  26.9090080  88.9450455
  41.9961405  26.3002133  88.4749222  42.0280361  27.5191545  89.3716717
 114.1821384  70.0855732  87.5508499 114.0153027  69.1650772  87.7535439
 115.1361656  70.1631641  87.5574303 108.6842537  88.0025673  78.0665731
 108.0185509  87.3247242  77.9499578 109.4910812  87.5182629  78.2418060
 115.0757694  66.0636997  40.5983400 115.1122475  65.1147556  40.4783392
 114.7296047  66.1801004  41.4831352  93.1834793  72.7188635  74.9511051
  93.1534958  73.2631922  75.7378960  94.0786457  72.8163052  74.6264267
 101.2035179  44.6032715  62.9963303 100.5376816  44.2178011  62.4268436
 101.4773655  45.3989697  62.5401402  91.5317726  82.0353889  66.9189358
  91.2884331  81.6217613  66.0907269  92.2541809  81.5017605  67.2499990
 102.2514820  90.9628868  60.0661659 102.0920563  91.8623829  60.3520346
 101.8158817  90.4215717  60.7245398 115.2347851  72.9368734  67.9291058
 114.6592045  73.6143827  68.2839489 115.5362988  72.4521971  68.6974907
 106.1000443  94.3557358  77.0336723 105.6667423  94.1075706  77.8503084
 106.8387794  93.7513733  76.9612455 114.9513245  87.9645729  83.6062527
 114.5149231  88.1801796  84.4304466 115.6618595  87.3748970  83.8585663
   1.8238950 106.3348389  73.9215326   1.2208551 106.1390877  74.6386480
   2.6637784 105.9782314  74.2107677  94.8963165  81.7156029  75.6485271
  94.0805531  81.2182808  75.7071543  95.4270649  81.3918018  76.3763237
 102.3581314  74.7029257  56.0703039 101.4169979  74.7266436  56.2433243
 102.5038338  73.8532495  55.6543112  32.1284389  -0.2040909  92.7131081
  32.5652146   0.6405986  92.8224659  31.6881371  -0.3560957  93.5493279
 101.5543270  69.6431303  72.0443869 101.5931892  70.2788162  71.3298035
 102.2074986  69.9496365  72.6734018 115.7163906  76.2839985  45.2141190
 116.4087677  76.9448519  45.2035713 116.1710739  75.4637623  45.4056883
   5.3709561  76.6360235  92.5774479   4.5144135  76.7394352  92.9920197
   5.6386065  75.7443237  92.7998638 107.5616741  59.4275713  58.6393452
 107.1371365  58.7599087  59.1780663 107.3027897  59.2125320  57.7432585
  96.3434887  88.2516861  59.8561621  96.3659668  89.2051125  59.7742748
  96.3381863  88.0924129  60.7999992 108.0016708 106.8288612  88.6217117
 108.4095478 107.1992397  87.8389740 107.0896053 106.6831875  88.3704185
  91.3590622  90.9031487  79.0685654  90.8802509  90.3462410  78.4547138
  91.7586040  90.2906036  79.6861315  54.1145849  22.5381184   1.2323733
  53.4434938  21.8609142   1.3176075  54.1337252  22.7399492   0.2968897
 106.1002159  90.8228397  83.8379097 105.1843262  91.0735321  83.9584923
 106.3568497  90.4419899  84.6777439 101.0371780  95.3770256  74.2878628
 101.0673046  95.9924603  75.0203657 100.5025959  94.6502018  74.6075249
 106.8478012  96.9723988  82.2748661 106.0524082  97.0731449  81.7519569
 106.7145729  97.5491619  83.0270767  63.3212376  25.4166532   4.7629187
  62.6153994  24.8345351   4.4815537  63.0382013  25.7403255   5.6181133
  83.5674858  90.9243011  91.4841461  84.2720890  91.0097218  90.8419132
  83.8731098  91.4218521  92.2426128 109.8223400  87.2545624  85.0416851
 109.8677635  86.9981480  84.1205883 109.0474415  87.8137970  85.0966835
 111.2873650 101.7629242  83.0460548 111.8596458 101.0667801  83.3686924
 110.7082844 101.9577122  83.7829208  98.6177540  74.8405504  61.7923737
  97.8763199  74.8749924  61.1879587  99.0869045  74.0419769  61.5506840
 107.9029274  80.0813770  62.9141378 108.4830952  80.0163746  62.1555758
 107.0812035  80.4201698  62.5588655  91.2180805  73.6556244  73.1710100
  91.3503933  73.2620811  72.3085451  91.8658638  73.2281542  73.7312603
  21.7861748 103.2318401  87.1909809  20.9786654 102.8423500  87.5263405
  22.4851513 102.7057266  87.5794125  99.3702984  58.9189339  88.7387371
  98.8901234  58.7972689  87.9196739  99.3836594  58.0499458  89.1398811
 108.5608292  75.4934359  77.7442122 108.9903355  75.9933519  77.0500612
 107.8861427  76.0827589  78.0814457 116.0885239  75.6022549  71.1583519
 115.4118538  75.9799623  71.7202044 115.6113815  75.2743435  70.3960943
  14.9916899  75.9385681  51.8313074  15.8405232  75.9404087  52.2737026
  15.1476479  76.4080906  51.0118818   1.6581592  67.4447346  50.8124304
   2.2493446  67.1961641  51.5230274   0.8608257  66.9413567  50.9770632
  95.8210564  81.4093971  88.8691425  95.2144051  80.8638573  89.3697357
  95.2825642  81.7936230  88.1773090   8.4156579  53.6063099  78.8602829
   8.0911422  54.4997549  78.9728975   9.3461740  53.6602259  79.0781450
  99.3251228  85.6475639  49.6231318  98.6772823  84.9441528  49.6649027
  99.5311642  85.8380699  50.5382729 105.6462574  51.0583639  61.2272072
 104.7113991  50.8753681  61.1334658 105.9672165  50.3719330  61.8120384
 106.0129547  72.3933458  60.7114315 105.2454853  72.9555082  60.8172178
 106.2448597  72.1343088  61.6032553 115.8283234  88.2319450  48.9302921
 115.2298832  87.5074673  48.7480116 115.4084873  88.7163353  49.6411657
  15.5380547 105.8322430  66.0305262  14.8563194 106.4080429  65.6842279
  15.0596988 105.0904560  66.4008665 107.1558952  81.9183254  66.3147020
 106.7957401  81.4451313  65.5646324 106.9578743  81.3608074  67.0671606
  78.6653757  91.1903000  94.6731377  78.2689428  92.0360470  94.4638920
  79.5937586  91.3857937  94.8000908  18.6851346  83.2004452  53.5685062
  17.7338731  83.1684589  53.4669733  18.9750695  83.8326740  52.9108810
  24.3690395  96.9080925  80.9240437  24.5758080  97.7891350  81.2358952
  25.1774526  96.4122391  81.0537624 103.3598804 110.8743191  74.5573187
 103.0474091 109.9721622  74.6258926 104.3048477 110.8117199  74.6963978
  93.5206604  95.6198311  58.6140919  94.2657471  95.3318214  59.1414738
  93.2976532  94.8584080  58.0786180 106.3696957  80.2458668  59.2636061
 105.4332256  80.3383446  59.4388151 106.6704082  81.1381340  59.0914011
 103.3890438  94.7924614  70.9020519 104.2370701  95.0347424  70.5300665
 103.4039116  95.1544380  71.7880440  97.8621006  28.7695026   0.3456830
  98.7215233  29.1231370   0.5749426  98.0475521  28.0922270  -0.3048068
   0.9059618  78.9432192  78.0962467   1.4978893  79.5260382  78.5718298
   0.3159363  78.6010742  78.7678432  93.5771179  58.5312033  88.7044621
  93.5664940  58.2666349  87.7846146  94.4968796  58.4668207  88.9616013
 103.8583088  71.0470867  73.6729097 104.4333744  71.3580370  72.9737377
 103.2984638  71.7970324  73.8738728 110.1663494  83.5099888  91.2833691
 110.4321671  82.9604435  92.0206451 109.6299839  82.9351807  90.7373524
 107.9457378  81.1710930  90.3997993 108.7370396  81.2529564  89.8674679
 107.3034000  80.7704639  89.8140335  63.0745220  52.4287176   7.1649241
  62.6092148  53.2181501   6.8883026  62.5569391  51.7076635   6.8065715
 115.4395485  56.2632370  91.1985302 115.4957008  56.0263300  90.2728176
 116.2551594  55.9373522  91.5790653  82.9457951 100.8110428  75.6844473
  83.7566376 101.3035297  75.8118153  82.5016975 101.2623501  74.9665928
 111.5145206  51.1088324  73.2656813 111.3549900  51.7947435  73.9139891
 111.8796444  50.3822374  73.7706327 107.1406937  69.2128038  57.3277092
 106.8443584  68.3980656  57.7334356 108.0626583  69.2822409  57.5754786
 111.2292862  92.1039486  41.6531515 111.1361599  91.1549473  41.5697241
 111.6976547  92.2269821  42.4788237   1.0247877  73.0327559  68.2651663
   0.2034618  73.0873442  67.7766228   1.5905444  73.6878490  67.8565073
  93.1859779  74.5341396  77.3053122  92.7069092  75.0894690  77.9204035
  93.2763386  75.0711584  76.5181208 118.6393929  61.3465023  89.5155716
 119.1497326  60.6098986  89.1791058 118.5147667  61.9176149  88.7575912
   7.6430649  86.3076210  76.5021563   7.0631659  85.5564499  76.3768911
   7.3844695  86.9263649  75.8191299  97.6621056  85.9780312  59.2076492
  97.2301292  85.8299732  58.3663940  97.2961044  86.8044949  59.5226526
 109.3927860  71.9055939  71.9890022 109.3117332  72.6332664  72.6055670
 108.8485622  72.1610308  71.2441492   2.5485083  77.8115416  67.5492477
   3.1377289  78.2907963  66.9667006   1.8192142  78.4129238  67.6999044
  20.2319407 109.6061802  86.7512131  20.4439020 109.1195774  87.5477791
  21.0825014 109.8489857  86.3853931   3.7173921  83.1537533  65.5484533
   3.3106962  83.6379910  64.8298836   3.0568546  82.5117302  65.8086967
 110.1290512  66.9535732  58.7231302 110.8766556  66.5197515  58.3118820
 110.3949833  67.8701067  58.7971926  35.5695677   9.7241032  91.3085461
  35.1513505  10.3770864  91.8697453  36.3925505   9.5188427  91.7521667
 102.5521946  65.4780245  85.0072193 102.9175949  66.0574484  84.3386555
 101.9534874  64.9059486  84.5271111 109.1453552  75.4120779  68.3852291
 109.2136192  75.9858465  67.6221037 108.4862518  75.8290195  68.9401770
  63.8478088  44.4435644   9.2059886  64.6945429  44.2020798   8.8305432
  63.7420607  45.3684616   8.9832509 103.9757824  68.3622980  64.3304777
 104.8300648  68.1351042  63.9633226 103.6301708  67.5340271  64.6632814
  66.4656591  43.7110233  86.6780949  65.7471228  44.1552877  86.2280178
  66.1472654  42.8187799  86.8150520 103.1554604  80.1359558  76.5354347
 102.5829124  80.2572823  77.2928619 104.0392876  80.1239491  76.9027758
  65.4256296  13.7152123   7.7628237  66.2583590  13.5185242   7.3337543
  65.0814676  12.8601956   8.0211514 103.0133915  70.0981236  76.2102890
 103.6070156  69.4115067  76.5142679 103.2776928  70.2595472  75.3045702
 105.8938980  80.4497147  76.8783760 106.0299587  81.3850975  76.7274761
 106.2244987  80.2993965  77.7640057 105.2510357  71.0796213  57.2988224
 105.9644032  70.4665613  57.4762964 105.6900311  71.8863964  57.0293427
 107.8342915 110.9856319  45.4240084 107.0982742 110.6380939  44.9202824
 108.3495522 110.2138615  45.6587410  22.3755932  69.8690271  74.2953587
  21.4464855  70.0935030  74.2443466  22.4055076  69.1012192  74.8661518
 110.5200100  96.3471699  51.7224407 109.7132778  96.5973282  51.2720680
 111.0564899  95.9381962  51.0433531  89.0191078  91.5754414  70.1885748
  89.6496201  91.1870670  70.7950783  89.5476341  91.8586254  69.4424582
 115.8382893 105.2339268  39.8658776 116.1592388 105.3356838  40.7619047
 115.1318073 105.8753204  39.7902298 110.4453659  74.6824074  79.6255636
 110.2019310  74.7941732  80.5445194 109.7376823  75.1032972  79.1374302
   3.2140785  90.5161858  49.7444391   2.6718771  90.3468609  50.5148792
   4.0686595  90.1469517  49.9671364   1.0649756  93.4811878  78.9832211
   0.9707665  93.5930157  79.9291897   0.8119837  94.3279839  78.6155653
 115.8577156  99.0030766  64.4848633 116.5583801  99.4878197  64.0485954
 116.3136101  98.3620071  65.0302362  10.7554734  99.9780941  73.7215376
  11.1701632  99.9436665  72.8595209  10.9110022 100.8719444  74.0266180
  60.4371214  34.8268676   1.9654834  60.3702879  33.9820647   1.5204303
  61.1593008  35.2737427   1.5239017  84.9330139  88.3299923  69.1506004
  84.6108150  88.7165070  69.9648619  84.1478348  88.2053852  68.6174965
   1.3385929  79.5830011  55.9037781   0.7498033  79.8599386  56.6058207
   0.9180721  78.8086033  55.5300140  92.9313183  80.4859924  89.1800690
  92.0918179  80.3167248  89.6076393  93.5804844  80.0908470  89.7620296
 118.3017349 108.7413311  71.7056990 118.6927700 107.9155827  71.9911385
 117.9720783 108.5587025  70.8258104  33.0812979  78.0316019  90.8122063
  33.1069112  78.4388351  89.9463367  33.9934158  77.8100014  90.9997368
  99.2842007  48.4356260  80.2583694  99.9380684  48.8429070  79.6902132
  98.4637737  48.8734579  80.0315571 108.6941147  82.8622341  85.9699535
 108.0939770  83.3013630  85.3672695 109.5390511  82.8779316  85.5204201
 117.7167511  80.8620548  77.4448395 117.3727608  80.7487202  78.3308744
 118.1691933  80.0398159  77.2565699  21.5991020 105.6657219  75.4336548
  22.3453903 105.3596020  74.9183130  21.9924641 106.0882854  76.1971617
 100.7827282  99.9825859  90.8739853 101.5797710 100.4547596  91.1148453
 100.0767708 100.6105804  91.0271835  46.6207647  12.0901227  71.1921835
  46.2308359  11.3633573  70.7063866  47.3606968  12.3691046  70.6528378
   4.1780931 106.8431759  56.6783237   4.0089190 106.6570282  57.6018858
   5.0946313 106.5993977  56.5488434 114.4580269  90.7237625  82.6409435
 114.3094063  89.8059559  82.8684521 115.0488758  91.0465431  83.3213520
  95.9953976 100.0433540  66.8266439  95.9192753 100.8611107  66.3350058
  95.8872414  99.3570709  66.1681986  10.3398073 101.8834305  86.0478115
  10.0378478 101.1158657  86.5334988  10.2536237 101.6338444  85.1277542
 116.1756039  75.0107670  88.3044243 116.6534519  75.8046293  88.5445976
 116.8001842  74.3009138  88.4535313  13.2157338  87.9299927  69.3698311
  13.2851434  88.7606716  69.8403454  12.4549663  88.0405903  68.7995386
 102.7343559 102.2638893  56.5163279 103.2087994 102.8764439  55.9542799
 102.8611946 102.6040268  57.4020195 106.3268375  71.3019562  83.9390373
 106.1846542  70.3558397  83.9685535 105.8597279  71.5900040  83.1547832
  54.0588903   3.5207844  72.5701571  54.0671825   2.6266170  72.9116631
  53.1864023   3.8509759  72.7845621  12.5282514  84.6962452  86.5530586
  12.1630931  83.8300514  86.3724804  13.0419326  84.9069309  85.7733345
   9.2040426  92.5541019  78.3166647   8.3726704  92.6968384  78.7690783
   9.0642643  92.9122257  77.4400568 113.2869720  88.7611675  69.7230339
 113.4371281  89.6541500  70.0333118 112.9704475  88.2898808  70.4937029
 107.6216125  94.9363136  79.7826910 107.4278641  95.8534336  79.5888233
 106.7913437  94.5770454  80.0954437  18.9150810 108.7016392  91.1201286
  19.5859230 108.5125160  90.4640579  18.1224036 108.2880878  90.7782650
  88.2634354  87.3751163  90.1288891  89.0612507  87.5576782  89.6325016
  87.6527977  88.0622196  89.8620033  47.0273638   0.4611988  67.6054668
  47.2476816   1.2994924  67.1993208  47.1793985  -0.1859273  66.9167423
  88.3142853  97.4127102  74.5668983  89.2424107  97.3898792  74.7999048
  87.9891014  96.5412712  74.7928810  26.9313312   8.4689230  81.7386436
  27.1810269   9.3446106  82.0336914  27.5938439   8.2375419  81.0876656
 109.7939873 107.2895241  79.8351812 109.6601200 108.0453777  79.2633343
 109.8112392 107.6576328  80.7186031 112.8540516  79.3739223  85.7354069
 112.0610905  79.9041843  85.8145142 112.8412151  79.0571022  84.8322487
 116.4691830  79.5824575  33.5913157 116.2697315  80.2064514  32.8934002
 117.1714401  79.0392971  33.2334924  98.1374741   8.0256635  22.3657250
  99.0158176   8.2830852  22.6458573  97.5494957   8.5168153  22.9395604
  98.4741402  96.0130501  68.2953787  99.2801189  95.7182598  68.7193298
  98.5273170  96.9684982  68.3178854   5.2512336  95.3185177  79.7662735
   4.9125338  95.4847336  80.6459808   4.4938353  95.4333782  79.1923523
  69.6426964  41.4393616   6.9109190  69.1766787  42.1138954   7.4049520
  70.2596188  41.0650730   7.5398403 119.1464424 104.4546223  93.1993961
 118.3323860 104.5348835  92.7023029 118.9955997 103.7152004  93.7882328
  19.9374747 103.5840607  76.7348528  20.6647348 103.1757164  77.2045135
  20.3414392 104.2986012  76.2424374 118.8399220 104.1112137  81.5113831
 118.8157749 104.2515087  82.4579430 118.2887936 104.8064709  81.1520767
  15.2522850   3.6933199  82.1682930  15.6772172   3.6251929  83.0232906
  15.5254173   2.9035652  81.7014790  20.5551457  83.0586720  63.8801575
  21.1722302  82.5006962  64.3535519  19.8779964  83.2668114  64.5238829
  99.0233517  73.6247587  66.6633368  98.5392570  74.2563248  67.1953201
  99.2975903  74.1213703  65.8923626  51.1556530   7.9691011  74.1044664
  50.6360006   7.5236702  73.4352970  51.1461115   7.3715901  74.8522091
  99.7755241  73.7156296  70.7402277  99.2791557  72.8993559  70.7998228
  99.2665195  74.2623138  70.1416636  98.7561035  72.0673704  85.5495071
  97.9442406  71.9390249  86.0400581  98.6365414  71.5546131  84.7501183
 107.9861259  96.3032341  72.2580481 108.3146954  97.1634483  71.9967031
 107.0978165  96.4715195  72.5724030   0.8303580 102.9471588  69.2276716
   0.7591625 103.7112427  69.7998095   0.1924746 103.1082726  68.5324192
   7.4522072  91.7881203  85.0134087   7.4015349  91.4627552  84.1146278
   7.0915115  92.6736069  84.9682713 103.0144882  81.7277431  61.5048313
 102.2652817  81.1417580  61.3973475 102.9828835  82.3000145  60.7381916
  98.3384132  66.4626503  58.4775686  97.7051163  65.8661509  58.0783796
  98.3935356  67.1973848  57.8665352 111.3779640 106.9285297  51.6663694
 111.1816502 107.8626633  51.7376089 112.0561409 106.7754459  52.3242950
  14.9429357  60.2756405  91.4336300  14.5495903  60.7068253  90.6749439
  15.8828092  60.4277563  91.3349724 110.9879589  95.5395126  87.5452042
 110.2770615  95.3561115  88.1593895 110.6629658  96.2653351  87.0124912
   5.1738995 105.4793930  85.3546238   5.3188318 105.2085781  86.2612057
   5.5369055 106.3638592  85.3079128 115.8647919 110.9432507  46.7622852
 115.9733868 110.0032902  46.6177177 115.0557613 111.0157967  47.2686958
  96.8905449 104.7950172  29.3346691  97.8428555 104.7426510  29.2534566
  96.7440319 105.4494286  30.0176859 114.1026878  87.2505474  62.7311993
 115.0034332  87.5127792  62.9212761 114.1387463  86.2959194  62.6711512
  97.0826721  89.2119026  62.3843527  97.2454453  89.1254902  63.3236456
  97.3992062  90.0884819  62.1660709  42.5324202   0.5916081  82.2287273
  42.1387386  -0.2762616  82.3184395  41.9293690   1.1767242  82.6871967
  88.9308167 100.5346680  71.9194365  89.5364475 101.1379814  72.3500872
  89.4486427  99.7443771  71.7660093 111.5450382  89.0806103  76.9887638
 110.9171677  89.7962952  76.8897390 111.8384171  89.1434288  77.8977299
   0.8168924  96.2579918  79.0197420   1.1913696  96.7110729  79.7752047
  -0.0962197  96.1033058  79.2616701   1.8303397  88.9923096  81.3046837
   0.8902544  88.9427185  81.1314487   2.1697877  89.5696068  80.6207752
 108.9197063  86.2645531  59.7011089 109.4892216  85.7763100  59.1065454
 108.2364655  86.6252613  59.1360426  57.9302359  43.4031820   6.8615371
  58.8313627  43.1752396   6.6329610  57.3925829  42.8132200   6.3332301
 103.4744835 106.4130878  84.1217136 103.8950348 107.1631145  84.5422077
 104.1863346 105.7899857  83.9759541   5.3643960  76.2833261  80.7742500
   5.2420020  75.3579092  80.5624580   4.4906113  76.6654158  80.6921673
  12.4643493 111.2917709  83.3689213  12.9801035 110.7989407  84.0071583
  11.5626943 111.0075951  83.5188961 114.4888115  87.5201321  78.7175560
 115.0334263  87.2222614  79.4461870 114.0007877  86.7415714  78.4494066
  35.5620766   8.5365349  80.3254795  35.4353023   8.0404663  79.5167303
  35.2578998   9.4194001  80.1151085  41.8105602  10.5353475  63.7515020
  41.3539314  10.4268444  64.5857382  41.2569094  10.0832677  63.1148434
 117.9630566 108.5529995  66.0759258 118.3942223 109.4037533  66.1567450
 117.4969673 108.4410286  66.9044542 116.1263943  63.2588053  70.3085995
 115.6225300  63.6915970  69.6193600 115.4657078  62.9346848  70.9206963
 101.2818336  88.0428028  87.9939651 100.5345058  87.4950790  88.2342434
 101.6725254  87.5982761  87.2416496 107.7038956 108.9269543  78.3946514
 108.5445786 108.8713932  77.9403353 107.1844959 108.2126713  78.0255127
  25.2066946   3.3996642  65.7172775  25.9067464   2.8137159  65.4294825
  24.9728107   3.0829692  66.5897655  70.7763195  25.8081603   1.0199632
  71.4075851  25.8511853   0.3017121  70.9504032  24.9667192   1.4417532
  46.3093805   5.0720286  67.0519543  46.5651655   5.3568470  66.1746407
  45.4200315   4.7347713  66.9444895   2.5676593 101.5883923  82.9022884
   2.6763746 101.8712139  83.8102627   2.6132265 102.3972034  82.3924065
 108.5339832  76.7390537  73.9667225 109.4900417  76.6947889  73.9813328
 108.3199883  77.4824142  74.5305109   3.3075410  95.6809139  66.8943357
   3.3374092  95.6282902  65.9390497   2.9369000  94.8421860  67.1689367
 109.2924118  80.6481838  76.4719725 108.8922310  81.5169048  76.5094185
 108.7580967  80.1653194  75.8414316 113.9258671  88.8531494  59.0857267
 114.6488380  88.7095737  59.6964121 113.4311962  88.0338764  59.1033268
   3.4524268  89.4190598  86.3008022   4.0763316  89.9583149  86.7867851
   3.5510904  88.5432434  86.6742325   8.3428168 100.8943081  65.4755259
   7.9306793 101.7504025  65.3594303   8.0040514 100.3654671  64.7531700
 111.7013454 104.3913746  90.6788254 111.6485691 104.5758820  89.7410583
 112.4893093 104.8506832  90.9693241 104.3001652  83.4378719  74.1909885
 103.7216949  84.1887665  74.0576744 103.7163258  82.7321339  74.4689989
  93.6193562 103.3869457  56.8266487  92.9948997 103.5226154  56.1139917
  93.1110382 102.9513454  57.5108242 113.0785179 112.1594620  52.5504065
 112.1478748 112.3822117  52.5731134 113.3639526 112.2299004  53.4613419
   7.2014183 103.8842392  71.3164377   6.5260053 103.9416122  70.6406021
   7.4604225 104.7921848  71.4738894 118.4105206  77.8092384  80.0496674
 117.9519558  77.0673752  79.6552229 117.8878784  78.0316687  80.8201313
 116.5665531 106.1065960  67.3781967 115.7594872 105.8428192  66.9362688
 117.2635937 105.6847382  66.8758059  86.3823223  19.2313612   2.9262388
  87.0404911  19.8994911   3.1176761  86.6587925  18.8553238   2.0905405
   0.3414343 106.0727024  83.8707733   1.2716863 105.9732819  83.6683464
   0.2649633 105.8009052  84.7853851   9.6631604 106.3420010  73.3417273
  10.2822769 105.7582188  73.7800503   8.8109416 106.1060524  73.7081814
 111.6449928 101.1313820  60.5589867 110.7144642 101.1991310  60.7729244
 111.7403793 100.2581215  60.1787853  33.0401158   7.3157597  68.8935232
  32.9073191   7.9453856  68.1848812  33.5065031   6.5877360  68.4827948
  24.5545769   5.3310418  59.0031672  24.9847078   4.6839318  59.5621538
  23.6666298   5.3983724  59.3542385  12.4379325  86.5181065  77.1006298
  13.2750010  86.4368629  76.6435242  11.8835020  85.8446312  76.7065954
  12.5150526  79.9229670  65.5556488  12.4304414  78.9988804  65.3208351
  12.1399105  80.3944111  64.8118496 100.4644966 100.3731632  82.3345184
 100.0813866  99.7910213  81.6783333  99.7246933 100.8846951  82.6620197
  20.5312920  17.6047277  77.2495270  21.4534593  17.4663341  77.4656010
  20.4825401  18.5233331  76.9849157 114.3976688  81.0305023  60.9769821
 115.2851963  81.0780334  61.3323116 114.1463661  81.9435120  60.8373451
  24.5666313   6.4080083  97.0275307  23.6758304   6.6678011  96.7925549
  25.1280999   7.0178407  96.5488911 104.9635220  75.2957296  79.9150896
 104.1038799  74.9109125  79.7443247 104.9948883  76.0704756  79.3538332
 114.6456909  94.5302200  77.0996046 114.5221138  95.4791164  77.0759010
 114.3484974  94.2717075  77.9720020  77.6057768  53.0002069  14.3425810
  77.6553679  53.2883835  15.2540219  78.0125570  53.7093401  13.8446975
  91.6921520 109.0927792  60.7535839  91.4137077 109.1869164  59.8426342
  92.1430779 109.9134064  60.9522295 118.0915356 101.0819340  52.2465849
 118.7472057 101.3730621  51.6128826 117.2871971 101.5276718  51.9809055
   0.3141205  95.0933838  66.5424442  -0.3100118  94.3830204  66.6910124
   0.4843669  95.0695992  65.6008053  92.8497505 108.1754208  70.7615328
  92.4315357 108.9687920  71.0960388  92.1493053 107.7099419  70.3044367
 106.1777878  76.2759209  91.3362885 105.3624630  76.6266108  91.6947365
 105.9828377  75.3570271  91.1522675   8.1912595 106.0973549  79.6697760
   8.1880617 107.0535851  79.6269083   7.6513398 105.8225727  78.9286852
  92.9055405  93.3828259  82.2582340  93.3087444  93.5918331  81.4156342
  92.5023746  92.5250149  82.1246243  54.8629141   3.1361112  47.3324633
  54.6221542   4.0613329  47.3796940  55.7689238   3.1083813  47.6400471
   6.5303588 106.9122410  82.2666645   6.6650367 105.9947872  82.0292473
   6.8726420 107.4053192  81.5210438 109.7675514  86.1845398  64.2478132
 110.6623268  86.0952187  64.5758772 109.5425224  85.3119087  63.9251471
  16.6646719  95.6376839  63.4029055  16.8830860  95.2980709  62.5350380
  15.9427857  95.0847149  63.7017870   3.6581787 102.0615482  57.5029469
   4.0035906 101.5645790  56.7613602   4.4240773 102.4972248  57.8768635
  60.9737015   3.9689609  48.4782171  60.3989267   4.5463598  47.9757500
  61.4072752   3.4286711  47.8176641  55.3308678  17.9877245  92.1791172
  54.4004011  17.8016877  92.0532131  55.6306124  17.3104990  92.7855396
  16.4596796  85.1969528  66.7797613  16.8955958  86.0449886  66.8636847
  15.5339134  85.4134655  66.6688013   7.9672843 102.4548149  60.0726032
   8.3122897 102.2144604  59.2127037   7.1030766 102.8233719  59.8894644
  31.3663101 101.0564327  53.6039066  30.9070325 101.8870163  53.4796572
  32.2915244 101.2754726  53.4932995  17.6552474 104.5344543  77.5921345
  18.0023742 105.2630424  78.1068039  18.4203148 104.1692162  77.1477175
  59.8947573  12.2239339  59.4157362  59.4116116  13.0502546  59.4166040
  60.7331276  12.4371052  59.0059519  27.4356818  88.5021591  32.1235824
  27.8367376  88.0621529  31.3740635  26.4947701  88.3784866  31.9985986
   9.8442715  95.2904320  41.2857485  10.1485872  94.9143791  40.4597950
  10.6461978  95.5375576  41.7462683  21.7322350  90.8607960  80.8909130
  22.3242784  90.1437473  81.1179829  21.6688848  91.3817215  81.6914463
 116.6309738  91.6720104  45.8222055 116.8811512  90.8549118  46.2534618
 117.2215843  92.3284340  46.1916971  43.9668703 106.6958427  49.3736506
  44.2966557 107.4191284  48.8404226  43.2258987 106.3499260  48.8761234
  20.4154611  79.7738695  39.5022750  20.1872683  80.0168514  38.6049867
  19.8489332  79.0280676  39.6998978  55.2157307   2.4042894  52.7374506
  55.5428648   2.8957021  53.4909296  55.9042549   2.4903989  52.0780897
  31.2664604 112.0421982  76.3865423  32.0791554 111.6520500  76.7083359
  30.7932401 111.3132191  75.9854269  58.8427687   8.4801161  66.9059229
  59.1323185   8.7717050  66.0414219  58.2093334   9.1423780  67.1823311
  42.4472332  21.6096520  80.2730560  42.3996496  22.3173738  79.6303272
  41.7057371  21.0428596  80.0605392  28.2423639  94.1422367  49.4417381
  28.8765168  94.5849514  50.0057316  28.7380791  93.9173603  48.6543798
  32.2817063  97.7205276  55.8135462  32.5168514  97.7198696  56.7414141
  31.4840150  98.2477188  55.7689905  25.7098317  93.8791466  56.1242008
  25.7911634  94.6447849  55.5555153  25.9506512  94.1997147  56.9933796
  12.4763238 110.7010269  21.2798691  12.7428567 109.8328304  21.5822387
  13.1524944 110.9537411  20.6512523  74.9224806  11.3953781  47.2276402
  75.6615973  10.8204067  47.0292759  75.2972221  12.0881963  47.7715206
  53.7530470  95.4542542  60.2405405  53.3351851  95.3700924  61.0975933
  53.3308983  96.2152767  59.8419476  28.6414409 105.8992290  61.6926765
  27.8822303 105.9580421  62.2726488  29.2927837 105.4140472  62.1992159
  91.7359257   4.5046854  79.2034483  90.9630013   4.4032511  78.6479950
  91.4073181   4.9292135  79.9959278  11.5069079  91.9067860  36.7967081
  11.0540307  91.7731380  35.9640765  12.3223853  91.4135265  36.7076755
  89.1259575   3.4126306  67.3251152  89.1909122   3.8178423  66.4603519
  88.2759285   2.9725650  67.3201656  43.0768394 110.8930969  74.9937963
  42.5577402 111.3614082  75.6475925  43.1076193 111.4859390  74.2429161
  23.4334540 110.1937389  45.9528732  23.2295465 109.2748642  45.7787514
  24.2372298 110.1665115  46.4719391  24.2333889 107.8373623  68.9902210
  23.7032819 107.4087238  69.6621466  23.7217021 107.7451897  68.1865358
  59.2494059   0.0973729  56.7810869  59.4383812   0.7106272  56.0708523
  60.0005531  -0.4958352  56.7915440  63.7837219   3.9078587  57.0747995
  63.4229708   4.4783837  57.7534723  64.4050503   4.4614848  56.6018534
  24.7908521  99.4731426  64.1686678  24.5350456  99.9486065  64.9590683
  23.9672446  99.3146896  63.7073708  40.4987097   5.9805310  51.3773870
  41.1835766   5.3958154  51.7018795  40.1508474   5.5361265  50.6042576
  13.6345577  82.0416641  67.0657301  13.3750689  81.7309856  67.9331255
  13.2584763  81.4028835  66.4601231 109.2541981  94.3521309  64.0451241
 109.9155903  94.5603371  63.3852434 109.6707535  93.6950302  64.6027374
  48.8122129  89.4491196  47.5738335  48.5885048  89.8732471  48.4022617
  48.9409018  88.5287189  47.8030586  36.0015821  95.8332157  69.6730137
  35.2487135  95.9102917  69.0869427  35.7606745  95.1349926  70.2818441
  68.7859774  13.6779737  40.7316780  69.4047451  13.1016982  41.1803055
  69.0413332  14.5601141  41.0015917  62.9313326   9.1247863  60.4591942
  62.2092438   8.6093044  60.8184862  63.0325985   9.8540395  61.0708857
  38.8667631  88.7498188  74.4873333  38.0096340  88.3318615  74.4043875
  39.4723606  88.0252934  74.6440363   1.1884283 105.6715012  62.6786470
   0.2908577 105.6565762  62.3464203   1.0958068 105.8724880  63.6099148
  94.0593910  22.7790785  25.1459002  94.2977619  22.4983048  26.0294032
  93.2875443  22.2563601  24.9285364  17.4020588  94.2827606  47.6834726
  16.9686401  95.1339340  47.6211452  18.1196225  94.3325615  47.0519257
  54.9370670   3.3481064  69.9350977  54.4965792   3.5058129  70.7701635
  55.3814077   4.1729698  69.7391605  66.0653353   7.7583659  50.2814388
  66.3753653   8.5918558  49.9273062  65.1786470   7.9443663  50.5903435
  60.5258703  11.5424073  50.8988905  60.7386065  12.0754814  50.1328611
  61.3445997  11.4949417  51.3925171  58.5170841   4.1005453  66.6585016
  58.1642723   3.8097405  67.4994469  58.7004280   3.2904810  66.1826706
  65.8956003   7.0196795  69.4757223  66.4592314   6.6245079  70.1408482
  66.2550926   7.8975630  69.3479776  67.9383516   3.5415840  57.1280384
  67.7077198   4.3687773  57.5508785  67.0982409   3.1107593  56.9704390
   3.6365280  88.0840206  64.7139263   3.7656090  88.6722851  65.4579115
   3.1813094  87.3272514  65.0831270  59.5298290   9.9711543  69.5563698
  60.2782249  10.3921342  69.1333961  59.8275805   9.7937077  70.4486084
  79.1871738  11.9825590  60.5798626  79.8537254  11.6606069  59.9729967
  79.1143465  11.2953770  61.2422132  29.7757149  98.3124828  46.6588545
  28.9024353  98.6395264  46.8748522  29.6150041  97.5438023  46.1115503
  64.3886518   8.3608109  35.8099437  64.5630407   7.4348170  35.6415534
  63.5843945   8.3625466  36.3289785  61.8193054  20.2046108  52.3343611
  61.8085003  20.8611584  51.6378975  62.5785446  19.6567404  52.1352911
   6.0852760  84.6478271  65.3951073   5.6575501  83.8434029  65.6886673
   6.3652432  85.0786877  66.2027073  27.7344418 110.0987148  44.5986605
  27.5075221 110.4775238  45.4479170  26.8920588 109.9576664  44.1665363
  20.4472733 107.2391796  61.3845634  19.7864723 107.9276848  61.4589357
  21.2485909 107.6387215  61.7229271  29.8133683 102.8336525  76.9535780
  29.8790407 102.9284000  77.9038095  30.4383421 102.1413898  76.7381382
  62.0450258   8.8631755  28.0366039  62.6300859   8.1073421  27.9851437
  61.1695623   8.4974557  27.9099345  74.7634411   0.6280233  48.9850950
  75.0748920  -0.2555178  49.1815186  74.2994356   0.8999718  49.7769117
   7.9877919  90.4419518  55.2205133   8.6885381  89.8631382  55.5207872
   7.4704015  90.6191921  56.0060835  71.0862255   4.3417868  66.8335724
  70.1836491   4.3811139  67.1498728  71.1458540   5.0487447  66.1910105
  63.2914257 106.1057758  52.9847097  62.8826189 106.7010975  53.6129665
  63.1564569 106.5249062  52.1348047  37.5944781  94.2588615  72.1896553
  37.8751183  94.1370010  73.0966425  36.7917705  94.7762108  72.2547674
  69.1499805   2.5563133  51.0651493  70.1053429   2.5438181  51.0071230
  68.8716602   1.7649466  50.6041622  19.9702752 102.9433346  72.2784042
  20.0567293 102.9450035  73.2316923  20.3101325 102.0901489  72.0085812
  60.7842016   9.5043474  94.1877937  60.8454418   9.1139770  93.3159637
  59.9985981   9.1136956  94.5704842  13.8897359  91.0091496  62.8542042
  14.0340114  91.3242340  63.7464714  12.9861486  91.2553978  62.6564121
  36.9057012  90.0761223  69.5464277  37.7380037  90.0055027  70.0138855
  36.4979887  90.8661175  69.9012661  57.2782230   5.1441592  50.4617929
  57.4407530   5.8035475  51.1363459  58.1448507   4.9457264  50.1070881
  63.5356522   6.1020058  46.6329908  63.9501572   6.9646972  46.6465521
  64.2645359   5.4850167  46.6984558  31.2362719  98.8719559  30.3479576
  31.8746638  99.5322990  30.6174612  31.5529728  98.5653687  29.4982886
  30.4261327  86.9694901  86.4918137  30.8106017  86.8371773  87.3583698
  30.3495407  87.9197788  86.4063263  20.8663225 102.4128342  53.9359856
  20.7942629 101.8257427  54.6885586  20.0257325 102.8697968  53.9073420
  30.4002357 100.6121922  64.9408340  30.2272773 101.4758301  64.5660639
  30.7699633 100.1066589  64.2169762  62.7209044   6.0260212  61.3414383
  62.1062517   6.5897691  61.8111420  63.5172749   6.0454637  61.8721342
  79.6305895  13.3837008  69.4577980  80.4853725  13.2325077  69.8611879
  79.4598246  14.3147087  69.6002579  31.6990519 103.3292484  68.4672594
  32.2395468 102.9110146  69.1374636  31.0791707 103.8666153  68.9604282
  61.0917425   8.2351601  48.8875675  60.6711435   7.6298290  48.2769108
  60.3800058   8.7944305  49.1988277  53.7236071  13.8010633  42.2338200
  52.8114223  14.0740955  42.1358156  54.0864277  14.4058383  42.8809977
  28.8055587 111.0785770  67.4061918  28.2391810 110.9524727  66.6449118
  29.6498609 110.7149410  67.1394348  24.8727965  98.7790108  74.6197271
  24.5393229  99.0215969  73.7559128  24.2862988  99.2189693  75.2351046
  15.5926263  88.8911152  34.3632674  16.1958551  88.1957817  34.1008544
  15.8919108  89.1517353  35.2343225  64.1230536   7.8548759  52.8603411
  64.4335079   7.0047295  52.5487280  63.5065699   7.6425576  53.5611248
  45.3046513  99.2779350  39.7008967  45.4665184  98.4002399  40.0468445
  45.7453871  99.2855263  38.8512349  90.3850365  22.5640154  43.8083696
  90.6056118  22.3012662  42.9147577  90.0387287  23.4518242  43.7184048
  58.6045504   1.1728075  41.7435122  57.8515816   0.8883450  42.2615385
  58.6744308   2.1113876  41.9179153  37.7785993  90.1353359  85.4391193
  38.0746722  89.2259979  85.4801369  37.8043342  90.4367924  86.3472462
  16.9134307  95.6110477  24.8141980  16.0828614  95.3417015  24.4219780
  17.0284045  96.5184784  24.5320868 113.7991238 103.4169674  64.0119696
 113.3640003 104.2510414  63.8352442 113.5441971 102.8542042  63.2808542
  32.5537395 101.9832993  70.7280540  33.1777453 102.5487804  71.1831188
  32.4144435 101.2496662  71.3268995  15.5196464 108.9598846  71.9669437
  14.8120344 109.2929745  71.4150667  15.1153898 108.8354969  72.8256273
  24.8102975  92.1927547  36.5630221  24.2985845  91.5298653  36.0993886
  25.3398108  91.6944504  37.1855497  21.3405228  97.3554230  69.3057489
  21.8327355  97.2545052  70.1204729  20.9315872  96.5013981  69.1656208
  89.5913410  10.6448519  73.0127144  90.4460812  10.4249918  72.6421595
  89.7945595  11.1070240  73.8259363  36.5988398  14.9401522  58.2950926
  35.8426261  15.4432726  57.9930210  37.3556066  15.4189849  57.9570723
  51.6940260 108.5328484  91.7507267  52.2723770 108.1615162  91.0844994
  52.2850895 108.9662552  92.3663807  29.8995638 101.3749504  43.3793116
  29.4205308 102.1493149  43.6744738  29.9603462 101.4784622  42.4296665
  30.7652688 105.4885864  80.8919144  30.3478408 106.2092400  80.4200649
  30.3064132 105.4542255  81.7312527  77.2921991  28.4162760  67.6453924
  78.0731773  27.9218650  67.3966694  77.6234007  29.1269088  68.1945133
  92.2299480   6.6706431  70.7414150  91.3034534   6.6603303  70.9817076
  92.6569176   7.1462196  71.4539862  74.5034885  15.6580210  73.4825468
  74.5626497  14.9515653  74.1257000  74.9726200  15.3252578  72.7174187
  14.5310223 105.2915382  52.3528957  15.4352367 105.5397511  52.1604919
  14.5209110 105.1369190  53.2974720  30.5884171 106.2737083  49.0211296
  31.1543632 105.5635452  49.3237972  29.7712612 106.1512756  49.5043468
  35.3431988 110.9273529  52.1554041  36.1597300 110.4571056  52.3238659
  34.6875286 110.4626656  52.6754045  45.0204754  24.2007661  44.3716860
  44.0716219  24.1582155  44.2529345  45.1408148  24.2602992  45.3194237
  25.8166099  84.1523361  67.4678326  25.6086516  83.7287903  68.3006573
  26.7214584  83.8967514  67.2885084  64.3153858   5.2749974  78.6498451
  64.4423962   4.6604529  77.9270458  64.7903442   4.8838222  79.3830776
  55.7649612   5.0629103  79.5867634  55.7035065   4.3769175  80.2514935
  55.7323885   5.8808249  80.0829315   8.8615173 101.4822578  62.4005413
   8.4984118 101.7982483  61.5731764   9.5484358 102.1127605  62.6169729
  38.9212489 101.6026211  83.6877728  38.8885403 100.9002781  83.0382442
  38.4231567 102.3179722  83.2923031  72.0569611  15.4625595  75.6163454
  71.8435478  14.5314896  75.5547476  72.4800730  15.5553365  76.4699268
  29.1578960 104.6125507  55.3238964  29.0102363 103.8576984  54.7541428
  28.9622641 104.2904091  56.2037754  32.1108222 105.0576019  76.6781521
  32.2511888 104.4933987  75.9177542  31.2862086 104.7507572  77.0551062
  67.2696114  10.6820035  50.3191042  67.9677677  11.1722040  50.7532835
  67.7107668  10.2138019  49.6103048  41.0679388 101.9227886  75.9167480
  41.9406986 101.5321445  75.9605980  41.0634804 102.5780392  76.6144943
   6.8366760 110.4801655  54.9113417   7.6638407 109.9985123  54.9172497
   6.1687356 109.8074532  54.7788906  33.3944368 111.0357666  32.7587557
  33.6218667 111.9395638  32.5404382  33.2995510 110.6012440  31.9111633
  77.8038692   6.8541896  60.9901381  78.2588577   6.7962676  60.1499844
  78.3706379   7.4030721  61.5321112  87.4428463  66.3985014   5.0934374
  86.5344143  66.0970211   5.1036966  87.9432011  65.6409550   4.7901192
  85.0976372   3.4717834  94.6775818  85.6246758   4.0635422  95.2145004
  84.4038677   4.0262315  94.3205166  74.2083883   8.3234191  52.4263573
  74.7953463   7.8489178  53.0150509  73.7758923   7.6386452  51.9161940
  50.2854872   5.7878327  40.0193405  50.2090025   5.9108549  39.0731645
  49.4266939   6.0339385  40.3630590  68.6296988   2.3368937  70.4542589
  67.8003454   2.7691227  70.2503395  68.5378885   1.4574116  70.0877666
  37.4756217  99.5308399  66.1630297  37.8703070  98.6766815  66.3387346
  37.9820275 100.1430607  66.6968632  68.6538792  24.7529793  49.3970966
  68.1173754  24.1240811  48.9145184  68.3063936  25.6082010  49.1439629
  74.6522570   3.5562059  93.3141422  74.1474009   2.8140035  92.9817486
  75.5653429   3.2812816  93.2309055  75.9429073  39.7236443  65.5964804
  75.0352001  39.6792150  65.2959347  75.9716845  40.4984140  66.1578512
  80.3129578  43.3232546  62.1449232  79.7543192  43.1903267  62.9107475
  79.7016096  43.5048151  61.4311171  66.0930204  33.9495993  41.7814636
  65.2849340  33.4526753  41.6538191  66.4397669  33.6328387  42.6155281
  77.2047186   5.7517523  80.6534004  77.1140528   5.8025098  81.6049480
  76.5541792   5.1028723  80.3850937  75.7759714  12.7276540  37.8634787
  75.1756382  11.9996154  37.7028823  75.2391768  13.5112906  37.7451801
  23.6047029 110.7329273  30.8074689  23.6249208 110.6840897  31.7632079
  22.7983284 110.2796268  30.5614805  66.7631960  27.0683885  73.0597258
  67.3059654  26.6466832  72.3935413  65.8645535  26.8638849  72.8011560
  22.1145582 100.6795025  56.2348890  21.8279433  99.8081207  56.5083551
  22.8544807 100.8792019  56.8083620  81.6518784  29.1339731  72.4261189
  82.4293804  29.1630363  72.9836845  81.5092182  30.0441599  72.1664286
  53.6006737  18.7194633  27.3644090  53.6666727  19.0967345  26.4871716
  54.4046736  18.9950025  27.8047419  57.6026487 105.5257225  60.9189129
  58.5321236 105.6003761  60.7027245  57.5493860 105.7831955  61.8392944
  39.1822028 104.2951393  63.7170172  39.2686248 104.7413826  62.8746271
  39.7745872 104.7688484  64.3008900  76.0159779  30.0226831  48.7806416
  75.8759880  29.5075655  49.5751810  75.1379538  30.2950907  48.5140038
  75.9272575   8.8111782  67.1134281  75.9691811   8.1485319  67.8029060
  76.5533066   8.5111058  66.4544535 101.7889023   3.6816499  67.4784088
 100.8422089   3.5552964  67.5419331 102.1590233   3.0123585  68.0539894
  48.6307287  98.5890102  62.2812414  48.8790989  99.1069889  63.0469036
  47.8192806  98.9920044  61.9724035  55.6869698   5.9828383  60.1951170
  55.1197815   5.2468497  60.4250050  56.4778662   5.8478874  60.7171392
  56.8373489  17.0958853  66.7840052  55.9604120  16.9144511  67.1220827
  57.4005651  16.4603651  67.2257423  57.3724556  27.6297235  46.4071798
  57.0179796  27.5198913  47.2895145  57.7849007  28.4933996  46.4205503
  12.1421850 107.0636559  45.7263947  12.2713077 107.9973888  45.8928394
  12.1527183 106.6618156  46.5950966  21.8360543  93.0832958  63.9126921
  22.3498774  92.2915173  64.0717649  22.0409012  93.3242702  63.0092525
  70.1342392   5.6003255  70.8033180  70.4751921   4.7174838  70.9467459
  70.7947874   6.0263711  70.2570677  79.3635798  32.8834915  69.9919367
  78.9930344  32.3327732  70.6816006  78.8113499  33.6653185  69.9871206
  17.8340364  76.2936640  22.1440053  17.2139180  76.5732241  22.8174543
  18.3258235  75.5811024  22.5522184  14.9377644 111.1131477  66.5519142
  15.3262758 110.5473328  67.2191048  14.8543310 111.9653988  66.9796371
  72.7422667  11.9312441  68.0237436  72.7486563  12.0389915  68.9748383
  73.6256361  11.6303122  67.8108454  44.1819572 111.1515522  29.9029326
  43.3450174 110.9183788  30.3046775  44.3718767 112.0283031  30.2367830
 105.9821701  14.8587275  79.8651934 105.6698227  13.9556003  79.8101568
 106.6954613  14.9046803  79.2285252  80.2902889   5.1757866  57.2364092
  79.8017359   5.2433813  58.0567598  81.0745335   5.7053936  57.3803520
  56.7477036  18.4609532  64.4093275  56.8744564  17.9310715  65.1963425
  57.2023678  19.2819738  64.5975733  95.4407501  40.9087229  57.3839378
  95.6369781  40.1438951  57.9250145  94.7178459  40.6265593  56.8235540
  31.6101885 108.6994839  60.0612164  31.8414187 109.3904591  60.6819582
  30.7842302 108.9909554  59.6751165  48.4204102 100.8162117  69.1073799
  49.0612602 101.2721252  69.6529818  48.2492018  99.9973488  69.5725441
  78.2534599  30.7046890  71.4657593  78.4376049  31.1888742  72.2706747
  77.3675203  30.3637648  71.5886927  47.5167990 106.9893837  72.9619503
  47.9139757 107.7486324  73.3886099  47.3987055 106.3529491  73.6670971
  88.1453705  15.2450895  70.1953459  88.0597591  15.8044481  69.4233227
  89.0785122  15.0359952  70.2373266  66.7708445  17.7224541  64.7686148
  67.6617527  17.9882491  64.9963474  66.2701130  18.5382378  64.7686672
  70.5223322  19.5080817  78.2199907  70.1771164  20.3970480  78.1375408
  71.4655304  19.6042418  78.0882168  49.0088654 101.7425060  61.9759321
  49.3569422 102.2964764  61.2772274  48.3734703 101.1759472  61.5383196
  79.4153690  19.0772462  71.8525076  79.9936628  19.7823918  72.1433306
  79.9139214  18.6235285  71.1729336  60.4625177  32.2403765  51.7846966
  61.2992096  31.8248010  51.5761995  60.5059671  32.4071383  52.7262592
  98.2633495   8.5712081  53.8855314  98.6114502   9.4264913  54.1376209
  98.6448288   8.4017903  53.0241299  56.0655785  18.4209549  40.8901453
  56.9313002  18.1320894  41.1787844  55.7987738  19.0677285  41.5433931
  74.9138689  43.9096260  54.6205616  73.9970303  44.1745615  54.5467377
  75.0201845  43.2274580  53.9575577  63.6566305   2.8440601  53.9047718
  62.8038931   3.2166523  54.1289282  64.2874479   3.5142267  54.1677999
  66.5838766  11.8956864  60.6185341  65.8911943  11.4296055  60.1503515
  67.0164061  11.2201297  61.1408091  53.2271385   7.3672146  68.2637119
  53.9792585   7.5175929  67.6910591  52.7563620   6.6408765  67.8550100
  88.2034206  33.9542317  52.8521299  88.3941174  34.5456433  53.5802078
  88.1719303  33.0849457  53.2516098  70.3069544  24.2268586  70.6214905
  70.4417658  24.1164684  71.5626955  69.7406626  23.4961343  70.3733158
  20.5350018 105.5634594  53.4266949  20.6768417 106.2881470  54.0357399
  19.6954525 105.1881886  53.6923218  76.6759396 108.6030388  50.6496000
  75.9418440 108.4983540  50.0443077  77.3669720 109.0024185  50.1212025
  32.8687263 105.9548092  37.1408606  33.7645149 106.0236073  37.4711037
  32.8068805 105.0623798  36.8003082  72.7538300  14.4554293  64.5863152
  72.1351433  13.8099217  64.9280405  72.2500658  14.9520528  63.9414740
  69.9065685  25.4298234  42.5272322  69.6867847  25.4337120  41.5956116
  69.8302841  24.5118475  42.7874851  49.3216944  91.0672379  34.5124102
  48.9944315  91.7486477  35.0996137  49.8175287  90.4785442  35.0814605
  66.0634565 105.1939774  60.8574438  65.7747984 105.4570866  59.9835539
  66.9492340 105.5486298  60.9339762  25.2639842  97.2668076  44.6566010
  24.4152761  97.6272964  44.9134588  25.2070689  96.3377476  44.8798466
  83.6443138   6.7185122  33.0602860  83.9085960   6.4934480  33.9523244
  83.6496258   5.8841521  32.5911951  66.0280514  16.0697854  58.3182716
  65.5418968  16.0577357  59.1427326  66.1151743  16.9988823  58.1051493
  85.7298756  22.0887566  46.0315275  85.3085041  22.7934909  46.5234900
  85.5239868  21.2953091  46.5257788  78.3780861  31.1454797  49.5589399
  78.7242556  31.4583993  48.7231874  77.6180077  30.6150651  49.3198299
  75.6972647  23.5629821  51.9738913  74.9552441  24.0518618  52.3297501
  75.6289434  22.6972675  52.3765087  65.9514236 100.5793953  47.6114082
  66.5231180 101.3460064  47.6527166  65.8934069 100.2748108  48.5169983
  92.1730518   8.7804639  54.5652342  93.0423069   9.1741967  54.4904757
  91.9247532   8.5752273  53.6638689  88.0481720  12.1666753  37.6286244
  88.3569431  13.0460179  37.8469205  88.1394291  12.1100390  36.6774702
  94.7038555   3.4488955  37.9958987  95.3774643   2.9513586  37.5322866
  93.8808441   3.0298615  37.7443027  86.0782623   1.8226787  65.4218149
  86.2556553   1.9767855  66.3497210  85.1337147   1.9506299  65.3340673
  32.2783208 106.1177063  60.0925016  32.7842212 106.1959934  60.9013081
  32.1617007 107.0198822  59.7946644  65.2953911  24.0490174  53.6799765
  65.5855513  24.3681788  52.8254747  66.1010170  23.7799573  54.1213465
  70.6127834  16.8633795  35.4133677  70.8245230  17.7955258  35.3633451
  71.1433077  16.4600480  34.7262716  42.8238916 104.8658848  63.3273315
  42.5495815 105.7761288  63.4388351  43.7728786 104.8848438  63.4510279
  69.8387241  17.0720184  77.4657059  70.1103306  16.9515765  76.5557861
  69.9438143  18.0100238  77.6248693  52.6487303   5.0485390  75.8784914
  53.2988548   5.7271755  75.6967640  53.1656885   4.2809883  76.1231375
  80.4863453  18.1676829  69.3221331  79.9545288  18.9555681  69.2097044
  81.0872269  18.1759727  68.5770798  90.5278301  20.0922346  67.4910545
  90.7972145  19.3824720  66.9080448  90.0541878  20.7010436  66.9242668
  28.5519600 108.5397053  54.5115328  28.1666112 107.8745270  55.0818634
  28.0237055 108.5065651  53.7139845  66.0180712  18.9567339  50.2386999
  66.4562178  18.1081247  50.3029251  66.7312431  19.5951867  50.2397346
  51.1530733   8.5823423  70.2712393  50.2290773   8.6611724  70.0340605
  51.5832472   8.2940876  69.4661999  83.2331085   5.1037759  72.3256397
  83.6420536   5.6956124  71.6941977  83.9163876   4.4666749  72.5340986
  79.2221975   7.6642138  55.1350403  79.4813156   6.7572463  55.2978325
  78.3066511   7.7050120  55.4113340  67.7237940  22.9842591  47.5414610
  67.8790665  22.2605753  46.9344950  67.5694752  23.7415719  46.9767523
  62.6261377  10.3785062  73.3607864  62.4971056  10.3643024  74.3091440
  63.0565643   9.5462298  73.1651402  45.9459305 100.0548363  68.0217457
  46.8455362 100.2939415  68.2448244  45.9764719  99.1078091  67.8859472
  96.0966396   5.1787794  59.6591759  95.7242012   4.3754452  59.2956209
  96.6539001   4.8804951  60.3780079  54.6383667  93.2151031  57.3131800
  55.0190830  94.0930271  57.3364496  53.9469528  93.2712746  56.6536140
  92.4629498   5.8500004  40.1221704  91.5665722   6.1787242  40.0537348
  92.7714825   5.8054757  39.2171550  76.4790106  25.9976864  36.2823820
  76.5113258  25.2487278  36.8775725  77.1964073  25.8458281  35.6671476
  77.1898365  42.7149916  58.0753708  77.9883289  42.1983433  58.1836081
  77.1268702  42.8637648  57.1319008  64.8814344  16.1809862  54.4803429
  65.3644371  16.7327559  53.8651276  65.5187607  15.5266392  54.7664881
  72.7226067  24.2128754  69.3061972  71.9166088  24.0939426  69.8086452
  72.8174162  23.4000778  68.8096046  61.5354776  43.6126328  68.7712002
  60.7995129  44.1920233  68.5739899  61.2386847  42.7457237  68.4944010
  72.4043703  33.7998843  58.1480932  72.0691967  33.7017131  59.0393019
  72.9545498  34.5823455  58.1839514  60.5126572  33.3802366  32.5404477
  60.5062342  33.0705094  31.6347647  60.0235653  34.2026782  32.5157928
  50.0689507  13.7263680  94.8551369  49.4845963  13.1780994  94.3315315
  49.4940042  14.1463375  95.4948997  62.0138502   6.8556923  78.6796093
  62.7152491   6.2773931  78.9793396  61.2242842   6.3161862  78.7214613
  74.8351574   2.1418616  87.0176220  74.3845797   1.4285094  86.5655804
  74.7261143   2.8977677  86.4406109  97.7520847   4.1676944  61.6674614
  98.5134411   3.5938561  61.5821838  97.7710629   4.4568169  62.5797558
  82.8501797  27.9988933  61.5063715  83.2986641  27.2135210  61.8198681
  83.2185364  28.7102842  62.0302677  67.4573326  24.0305662  81.6290760
  67.5702667  23.4844160  80.8511257  67.8701973  23.5316586  82.3339558
  87.3989582   1.8408808  42.1520376  88.3310795   1.6752814  42.0107508
  87.3762894   2.5935063  42.7430296 104.4093609  26.7081404  66.5762663
 104.0035343  26.8108034  67.4370813 103.8623238  27.2305965  65.9897280
  33.9966011 110.5588055  35.3553581  33.7416267 110.7132626  34.4457626
  34.9236679 110.7948971  35.3876233  81.3345242  28.0253315  40.3001022
  80.3868294  27.9050303  40.2397585  81.4466763  28.7244105  40.9442616
  76.2518501  24.6372938  65.8960056  75.3749418  24.8714757  66.2000084
  76.6884470  25.4772401  65.7542133  82.5624847  13.3294535  54.4101524
  83.4055424  13.1775057  54.8372221  82.6766014  14.1567421  53.9423895
  68.6870718   9.6439236  90.1028156  67.8158426  10.0122464  90.2495384
  68.8659143   9.1306460  90.8907223  84.1467476  52.9513741  82.2161770
  83.7655163  52.5113821  82.9759789  84.8834896  53.4482908  82.5718594
  66.5271378  19.9921465  55.0281143  67.4463081  20.2031994  54.8643684
  66.3325596  19.2802978  54.4184923  84.7863770  15.0186265  50.1583672
  84.6340275  14.0940595  50.3538036  85.1620293  15.3748751  50.9634829
  29.4217658 110.1401520  72.8086758  29.7625470 110.3521919  71.9396877
  28.7894368 109.4385433  72.6533270 107.8785229  24.8034430  71.3665867
 107.8112411  24.4693232  72.2610521 107.2159386  25.4925299  71.3178444
  67.0513821   8.0218858  40.8207369  66.4498901   8.1129509  40.0817204
  67.0198202   7.0911354  41.0419607  81.8300056  28.1459332  53.4024477
  81.5202713  28.9692497  53.0250263  82.7841187  28.2221222  53.3930826
  93.4037971   6.8834615  63.6470652  92.7664948   7.0768106  62.9595375
  94.2534447   6.9471031  63.2108402  71.1445236  35.7619452  70.8807421
  70.9165049  35.5547214  71.7869949  71.5560102  34.9639773  70.5488396
 110.8030510  43.9098358  96.0186005 110.0073242  44.1578579  95.5479336
 111.0096073  44.6727610  96.5585136  75.0764036  35.5779338  67.2491550
  74.9529600  34.8691225  67.8804827  75.9033585  35.9859776  67.5058317
  86.2210083  32.7417731  65.6664181  85.7588577  32.8442860  66.4983702
  86.9000530  32.0920777  65.8481169  87.5886822   4.8776847  33.8465858
  88.2085133   5.2859414  34.4510460  88.0909824   4.1822934  33.4219027
  72.5088978   6.2988299  59.3996811  73.4073162   6.6126561  59.2967653
  72.4597120   5.5250275  58.8383961  80.3276157  28.0111051  62.4125814
  81.0591888  27.9986477  61.7954254  79.5841217  27.6790190  61.9094229
  61.6038895  14.2782640  61.1394596  61.0104513  14.4899261  61.8600607
  61.2521648  13.4685421  60.7694912  63.2538176   5.0209719  91.0071087
  63.7750769   4.3286073  91.4134979  63.7060738   5.8309770  91.2428761
  11.6897893 106.3724804  86.6821957  11.2087858 106.4699650  87.5039959
  11.0974765 105.8786964  86.1151123  75.7750702  38.5837412  95.8571434
  75.4781437  39.4010806  96.2571716  76.3726997  38.2048655  96.5017605
  74.8537350   2.5214651  57.3170519  73.9250326   2.5471458  57.0866489
  75.2800608   2.1374768  56.5508747  83.4287643  20.7680988  67.1721315
  83.4903431  21.6704273  66.8586922  84.1592121  20.6766987  67.7839518
  55.2443314  23.8731337  60.5661106  54.7986412  24.3158722  59.8439074
  54.5576572  23.7244892  61.2161970  69.1230583   8.8229471  28.7125397
  69.9099445   9.2017311  29.1044164  69.0710974   9.2234617  27.8447151
  35.1138854 100.0322056  58.4063101  35.5395198  99.9582100  59.2604733
  34.3614793 100.6029892  58.5622835  20.9699965 107.4876690  55.3709650
  20.1286650 107.7758026  55.7250404  21.3435531 108.2733536  54.9717283
  62.5845385  18.3629179  68.5335302  62.0968294  18.1168211  67.7475214
  63.4998083  18.1935287  68.3103275  68.2111120  12.5936496  43.7084723
  67.5216007  12.6729631  43.0492973  69.0050220  12.4152982  43.2043600
  80.8794785  39.4842362  75.5262613  81.2833881  40.3480577  75.6093168
  81.5916538  38.8690186  75.7010269  38.1311011 108.7199306  55.4395103
  37.3153114 108.7199783  55.9402275  38.3217287 109.6463108  55.2921486
  82.7477741   8.4330946  65.5469561  82.1233845   8.5031039  64.8248196
  83.5462952   8.0954343  65.1412630  43.3538198   9.6362734  43.4647417
  43.3954811   8.8079679  43.9426613  44.0587378   9.5764792  42.8199577
  50.5283499 100.2300644  63.9351082  50.3130245 100.6868267  63.1219482
  49.7983789 100.4282951  64.5216894  51.0941505  23.7602377  79.6498632
  52.0286179  23.7077975  79.8504972  51.0437107  24.3473387  78.8955450
  21.9181538 107.4111652  19.0335119  22.5976062 106.7551804  18.8777411
  22.2533727 108.2062626  18.6191690  91.3416195   0.3666259  55.4419756
  91.9519615   0.0425504  54.7796392  91.5573978   1.2947512  55.5328321
  28.9811993 108.2190514  77.6511145  29.3012214 108.6016560  76.8341541
  28.6171222 107.3723793  77.3926067  57.4689293  10.0542128  56.4952135
  57.4397945  10.2372241  55.5561209  58.4018803  10.0481534  56.7092180
  20.5663729 106.1231613  25.7417178  21.0503054 106.4180088  24.9702859
  19.7251129 105.8239174  25.3967977  23.9212012 105.7508564  47.9688740
  23.1986117 105.2967548  47.5354052  23.4945440 106.3490295  48.5823679
   2.0875052  27.8517866  83.8902664   2.9282114  27.4549365  84.1182041
   1.4824700  27.5322032  84.5596218  57.9013538  32.0176864  57.2283697
  57.3068523  31.5203476  56.6667175  57.4704409  32.8647327  57.3426294
  71.2609196  12.8300047  75.8205795  70.7084131  12.6298749  76.5761709
  70.6537533  12.8603470  75.0812149  98.6156082   2.5410518  50.2860355
  97.9637718   2.9251894  50.8723688  99.4450283   2.6373506  50.7540226
  98.7683296  18.4490287  44.8646736  98.9340401  17.8521478  44.1349411
  98.1667042  17.9696655  45.4343176  71.7667818   9.2416424  74.3105936
  71.4465952  10.1147938  74.5371389  71.6008759   8.7153167  75.0927019
  88.7404060  16.1652625  59.5056677  88.2171726  16.7070794  60.0963402
  88.1229877  15.8802676  58.8320208  69.6593332   7.4918830  58.8054323
  70.5264521   7.4585140  59.2094421  69.4580698   8.4258634  58.7470818
  55.7456970  24.3560863  57.2968674  56.2908745  24.4498968  56.5157080
  56.3173389  23.9347959  57.9387140  48.9675665 111.8596077  66.8972111
  49.2918777 111.5391827  67.7388620  48.0710554 111.5284157  66.8441772
  64.6863270  18.6176801  73.1581116  65.1154184  18.0972981  72.4789095
  64.1996098  17.9782009  73.6781168  81.8290520   6.3643593  62.6113319
  82.3458862   5.7031894  63.0717278  82.3258781   6.5436012  61.8130398
  81.0904884  54.7078943  66.9926214  80.8220100  54.0906429  67.6731730
  81.0922146  55.5597925  67.4290848  82.9389191  12.5405204  67.7047920
  82.2618961  12.3700583  67.0499516  83.7632942  12.3979008  67.2397137
  75.8567810  19.0419888  47.3238659  74.9235964  19.2546105  47.3102188
  76.0379219  18.7024975  46.4474154  71.3172150   4.4205326  77.1374512
  70.6764126   3.7250596  76.9893980  72.1466589   3.9593652  77.2622633
  68.7828493  42.5508308  55.6858158  69.5812225  42.7895641  55.2148199
  68.2307959  42.1328449  55.0249386  96.3845253  35.4961967  73.4804106
  96.0781002  35.4841232  74.3871593  96.0466766  36.3179636  73.1243420
  40.2213097  96.9433880  46.0502052  40.9056425  97.2898197  46.6228342
  39.9074936  97.7056694  45.5637074  73.7581444   2.7519444  77.2747517
  74.6157789   3.1649035  77.3755646  73.6926508   2.1515094  78.0173302
  78.2690239   9.4814152  51.9720650  79.0815973   9.5804787  52.4681902
  77.5758743   9.6113592  52.6192856  78.2060385   6.7641586  41.2867212
  78.6056280   5.8986264  41.3728380  78.6030626   7.1338648  40.4981041
  88.2673168  38.3986950  79.7277737  88.8351059  38.1218457  80.4469395
  88.8548279  38.4801555  78.9764929  90.3689480  18.4509265  28.4872007
  89.9888325  19.2059052  28.0380297  90.0384331  18.5139966  29.3833137
  88.3950233  38.3629775  44.3903017  88.5266495  38.7604284  43.5295248
  89.1702080  37.8174186  44.5232821  78.8994074   1.1025983  44.7031069
  79.4182205   0.8778519  45.4754782  78.1231070   1.5385526  45.0545835
 106.7984676  14.5612609  87.3196220 106.2151814  14.1704929  86.6689968
 106.4884186  15.4624689  87.4086761  71.1184978   3.3289018  41.7311954
  71.3394642   2.4305631  41.9769430  70.5321407   3.2345253  40.9805202
  80.1544762   5.7488358  52.2028351  80.5275345   6.6301090  52.1824837
  80.1762009   5.4584348  51.2910080  17.4219549  98.8652802  79.1361046
  17.3758090  97.9214478  79.2886829  16.6595757  99.0571880  78.5900450
  98.5430145  27.9430389  77.1917486  99.4255352  28.3071733  77.1225309
  98.6149979  27.2670722  77.8656340  48.3461237  90.2028465  43.0091906
  48.9884663  89.9856949  43.6848211  47.7055311  90.7557487  43.4565973
  78.6190367  45.9021235  64.7799110  78.7621927  45.7743502  65.7176828
  79.3653870  45.4717112  64.3628597 103.6036777  25.2923203  53.9624882
 102.7449608  25.6649065  54.1625547 103.4094429  24.4492435  53.5529470
  60.3920555  21.2471700  59.5277882  59.7901392  21.2076712  60.2710056
  60.8300304  22.0933890  59.6190023  60.6897354  16.7663789  66.5516901
  60.0652790  16.6823757  67.2722626  60.9182215  15.8645630  66.3263988
  83.0280018  20.8822846  46.6665363  82.7986336  20.8981586  47.5957155
  83.5889721  20.1125431  46.5714216  76.0094929   3.7284002  64.0633249
  75.7785463   4.3102473  63.3392048  75.1822233   3.3166072  64.3128920
  14.0752888  98.2929420  84.5636463  14.0462792  98.2587433  85.5197906
  14.7745335  97.6850510  84.3233395  57.1992111   2.3893759  50.6756783
  57.0575714   3.3305535  50.5739212  58.0985785   2.2491163  50.3795433
  54.0936852  19.7410238  69.7024870  53.2072449  19.3865407  69.6332359
  54.3839121  19.4906652  70.5795956  56.6726780  97.8653717  58.4874058
  57.2410393  98.6248970  58.6151457  57.1068478  97.1583557  58.9647436
 113.8582802   5.8816248  45.7423449 113.7007427   5.0490046  45.2971983
 112.9867554   6.2603456  45.8574295  66.4628029  12.7503502  47.2559977
  65.5867958  13.0386555  46.9996357  66.5066338  11.8369138  46.9732523
  69.7823620  12.5881779  62.7627563  70.2977800  11.9973779  63.3118773
  68.8727665  12.3532009  62.9462147  66.3433552   1.9157009  50.4723454
  66.5494728   2.5814575  49.8162079  66.6602993   1.0970873  50.0907040
  55.8068275  10.1891088  90.1624680  56.3916492  10.0728011  89.4136810
  55.2280283  10.9067416  89.9051189  44.6171141 103.2814980  52.9003477
  45.2122545 103.7913990  53.4499216  44.6664715 102.3933125  53.2538033
  53.8715267  92.6694202  51.3802242  54.1843462  91.9271183  51.8972921
  53.0090761  92.8686047  51.7445517 106.2980747  21.7975140  71.6945601
 105.9200764  20.9287930  71.5579128 105.5837917  22.4033022  71.4969540
  69.9057293  38.0367708  69.8725319  70.0754309  37.4094820  69.1697216
  70.2621222  37.6197863  70.6569719  27.4478459 111.3945580  74.5004368
  27.2397375 110.8906078  75.2871752  28.0919886 110.8595276  74.0367031
  73.0702686  16.9415426  51.9464779  73.6630392  16.1931467  51.8774939
  73.0362701  17.1345913  52.8833914 101.8692589  14.1874397  65.6473207
 102.5502586  14.8580158  65.7002544 102.3423100  13.3589816  65.7255030
  78.0048847  15.1045287  60.4832745  77.5560045  15.4770947  61.2421799
  78.0687714  14.1695213  60.6779861  82.4585533  24.4546390  46.5242004
  82.5754738  23.9393497  45.7260513  81.5098476  24.5441461  46.6146755
  80.6880283   7.5858039  47.7721643  80.6046963   8.3270389  48.3720493
  80.5308247   7.9603040  46.9054079  70.0165653  14.6380341  30.9895968
  69.8486423  15.4082525  30.4466438  69.1594315  14.4049501  31.3462901
  60.6235218  18.8625360  84.9566746  60.2512217  19.7296333  84.7961521
  61.5455675  19.0301049  85.1515579  84.7193241  11.2276208  77.4197960
  84.1703224  11.5848505  76.7217875  84.7206306  11.9064569  78.0946350
  44.5132780 109.1192532  76.1866283  43.7148523 109.0160179  76.7044020
  44.2477465 109.6589375  75.4419994  73.5290718  19.0710235  67.0580959
  74.1031122  18.7181938  67.7379656  73.8002539  19.9843657  66.9659090
  68.2480621  37.6530266  51.1724758  69.1989660  37.7411532  51.2376356
  67.9308939  37.8172326  52.0605516  62.0169401   4.3519431  81.0870171
  62.0879745   4.4035417  82.0401859  62.5353479   3.5831428  80.8494759
  74.1467953  37.3589802  52.1377754  74.5165205  36.5674257  52.5288963
  74.1526604  38.0017900  52.8469944  86.1382008   8.0502504  56.1985683
  86.5548420   7.3612237  56.7161417  85.9050655   7.6229143  55.3743935
  77.9613400  23.8123298  55.8720255  78.1783581  24.7437572  55.8323193
  78.4784079  23.4158230  55.1708460  94.8443413  14.0202641  75.3591299
  93.9432049  14.3263090  75.2565479  95.3361225  14.8027360  75.6083632
  76.4878130  46.8988848  63.5162449  76.3253021  46.1614895  62.9279661
  77.3072672  46.6766214  63.9581966  83.5513020  48.3461428  55.9794283
  83.2509136  48.4659958  55.0785208  82.7493000  48.2051277  56.4825583
  86.7548275  51.1659431  67.7006340  85.9979916  51.5750790  67.2810507
  86.7426109  50.2615929  67.3872232  80.8477306  25.9483457  69.0299940
  80.3068638  25.9500480  69.8197365  80.2392006  26.1612535  68.3224726
  66.0700369  21.4180684  72.2820330  65.5803776  20.6125689  72.4482775
  66.1500883  21.4573264  71.3289928  79.3531466  17.4237549  59.5472574
  79.8095655  17.6468682  60.3585148  78.7010145  16.7742729  59.8101759
  84.8628044  34.9236345  52.0747614  85.2358532  35.1557684  52.9251623
  84.7800350  33.9703989  52.1016836  57.5540686 106.5538406  50.4551363
  56.9484425 107.0208168  51.0307837  58.3211231 107.1238995  50.4014206
  79.6171713  14.4107699  55.0442266  79.3774319  13.8879287  54.2791128
  80.5393028  14.2039156  55.1962852  68.1288147  29.9213648  35.0100088
  67.4258184  30.4923034  35.3199363  68.2780743  29.3114233  35.7324553
  81.3622189  37.3918891  52.6471519  80.4789066  37.5571918  52.9767895
  81.9117355  37.3787165  53.4307861 100.6688786  24.4412780  74.3105888
 100.4732990  25.3777504  74.3421650  99.8791981  24.0200949  74.6500683
  85.3709984  21.9377875  23.6182189  84.4744110  21.9131994  23.2839227
  85.6354332  21.0188985  23.6623979 108.7590504  26.4549470  83.7627506
 108.7443733  25.6918883  83.1850433 107.8582382  26.5353608  84.0762711
  65.6469393  20.1502848  64.6842813  65.8174944  20.7748699  63.9792728
  64.8158360  20.4372430  65.0626326  76.6287565  12.5169969  59.0414715
  76.3942194  13.3369994  58.6069393  77.5609016  12.4051356  58.8548565
  92.9454327  44.5612335  53.7129736  93.6901283  44.6142721  53.1139421
  92.8461266  45.4512215  54.0510464  76.5614033  15.5658937  57.9704332
  77.3168659  15.8538508  57.4580050  76.8708515  15.5697501  58.8762236
  73.0470943  33.5866165  48.0224800  73.4829378  34.4286060  48.1541157
  72.1129417  33.7921906  48.0588818  62.5190353  33.4265995  79.8469591
  61.7248917  33.2849765  80.3622437  62.4150038  32.8566003  79.0850449
 116.8649483  22.0701003  40.6092501 116.7003345  21.6500139  41.4534426
 116.5571499  21.4356709  39.9619555  95.4061031  51.1703062  75.5590248
  95.9965897  51.4841032  76.2439299  94.8619080  51.9284344  75.3461170
  75.1345205  18.9020789  69.2406321  75.7425928  18.9190912  69.9796820
  74.2677069  18.9618981  69.6422386  93.4161472  32.7817583  81.9344139
  93.8000870  32.7011991  81.0612965  92.7890396  33.5005426  81.8549061
  76.2064838  41.6626358  49.4989204  76.8316984  41.7224503  48.7765884
  76.6892529  41.2210369  50.1976013 104.9679375  23.4507799  57.6524639
 105.9150028  23.3320045  57.5803661 104.6583939  22.6527405  58.0808878
  95.7598495  26.3725066  68.2047939  96.0640812  26.9868135  68.8728523
  95.1966858  25.7615042  68.6799240  82.4064922  37.4839735  75.9961319
  81.9274712  37.2250628  75.2088976  82.7384186  36.6614056  76.3559103
  89.6622562  32.4740219  62.3507214  90.3842068  33.1011319  62.3926067
  90.0341034  31.6579986  62.6854897 103.2594204  40.8077955  84.1366959
 103.6209583  41.5215778  83.6112976 103.9726925  40.5576086  84.7239685
  86.3387775  20.5154252  64.0805340  85.6453705  20.0283122  64.5256615
  86.0964680  20.4852390  63.1550026  85.7479858  16.0889161  38.2260990
  85.9584045  15.5257845  38.9709759  84.8583031  16.3954520  38.4013820
  87.0830822  10.3356004  67.9824114  87.8629112  10.7495093  68.3522558
  86.9639969   9.5410872  68.5027981  83.9508057  29.1737032  57.0166826
  83.2314014  29.6453094  57.4365330  84.3331814  29.8093915  56.4117670
  78.8709688  40.7727194  68.3853006  77.9487467  40.8020926  68.6399984
  78.8644171  40.3975725  67.5047016  78.3077621  52.9488087  39.4835496
  78.4323168  52.1330547  38.9985132  77.7293968  53.4716940  38.9282870
  73.4709883  11.1518884  41.5415812  73.7894011  10.6550777  42.2952557
  73.9619446  11.9730520  41.5712690  82.6715755  40.9211779  67.0235395
  82.3452187  40.5860949  66.1884117  82.9819012  41.8040848  66.8225336
  78.1000614  18.8891792  57.4659967  78.3403254  18.1675625  56.8848133
  78.7689495  18.8782024  58.1506157  78.0594063   7.5269061  45.9987640
  77.4184513   7.9634321  45.4376411  77.8193235   7.7909076  46.8869591
  76.6957045  46.6205645  82.2541618  75.9336424  46.3268566  82.7533913
  76.6141558  47.5740099  82.2313881  28.1814337 112.1160126  69.8455477
  27.3313069 111.9680882  70.2598381  28.0515671 111.8570805  68.9332294
  74.9642992  26.7409015  82.1634865  74.1502237  27.2381306  82.0842934
  75.0679064  26.3139939  81.3130474  82.5468540  52.4031878  43.0006361
  82.3772144  53.2669020  42.6245356  83.1767178  52.0010090  42.4025106
  90.6814671  23.0828118  59.0524292  91.6081429  23.2707739  58.9035130
  90.2263546  23.5537863  58.3543634  75.0159836   7.3115420  74.8514891
  74.7733831   7.4495220  73.9358807  74.3933201   6.6571844  75.1682520
  82.9687119  73.2800293  86.2368774  83.2627964  74.0144444  85.6980133
  83.5508633  72.5589609  85.9973049  91.4046478  55.6945133  45.0774193
  90.6876373  55.0816727  45.2403975  91.9874954  55.5865669  45.8290005
  88.2360458  35.3440905  74.6490383  88.9502907  34.7068596  74.6434116
  87.6604366  35.0649834  73.9369965  84.5204353  39.7410035  62.2375774
  84.9618816  40.1375389  61.4864969  84.5484734  38.8003373  62.0626640
  73.1426764   2.6890421  67.8569603  72.7340984   2.2540753  68.6053562
  72.4582767   3.2608652  67.5093269  80.1288319  39.6889901  41.4330912
  80.4821491  39.4778538  40.5689049  80.3558636  38.9338350  41.9757032
  70.2425098   2.5855660  58.0663061  70.9722328   3.1018257  57.7239466
  69.4603682   3.0584809  57.7819872  53.7431288 111.0323429  51.3201046
  53.5280657 110.3343964  51.9388533  53.5207796 111.8399620  51.7832899
  68.9226007  35.4376864  45.3943205  69.3316603  36.2045813  45.7952929
  68.3958149  35.0533509  46.0950470  74.8473978  30.1728964  53.1086683
  75.3730917  30.9211922  53.3913946  74.0171576  30.2738833  53.5742140
  75.1615810  39.2421222  46.2074471  74.6426249  40.0362062  46.0796022
  74.8620701  38.8928008  47.0467901 107.7659416  38.3367848  58.5156250
 106.9844913  37.8111196  58.6866236 107.5507832  39.2042542  58.8583040
 101.5217400  22.5620461  24.8340440 101.8285561  23.1305289  25.5403900
 101.6048717  21.6759825  25.1864839  77.5796890  44.6105576  55.6055069
  78.0913401  43.9563608  55.1296139  76.7530203  44.6633863  55.1258612
  94.7641277  24.1029072  72.7238321  95.7113457  24.1137552  72.5863647
  94.4962502  25.0157189  72.6177835  67.3925495  38.5404015  53.7206221
  67.1526718  39.4186306  53.4249783  67.2683668  38.5648322  54.6694183
  96.2173843   2.5549823  64.7629499  96.7324352   1.8070781  64.4603157
  95.9320545   2.9901192  63.9595318  97.8827000   8.6735177  45.3015566
  97.0340157   8.2382941  45.3823948  98.2401943   8.6681002  46.1894751
  29.7687697  99.2184258  35.8162284  29.9570036  98.9364910  36.7113876
  29.2677832 100.0273895  35.9202552  73.2363272  44.0045500  41.1651564
  72.5361395  43.7778521  41.7771864  72.7802658  44.3355608  40.3914213
 103.8798428  35.6369185  79.2643595 104.7081089  35.8804131  79.6777821
 103.5097027  34.9708438  79.8436499  57.8906107  29.5263171  60.2645350
  58.3010387  29.9811697  60.9999895  58.6127806  29.3415594  59.6640635
  65.3825808  36.5141106  52.8601456  64.8914623  36.1121178  53.5766888
  66.0959148  36.9836235  53.2925081  97.0775700  40.1755428  48.1800270
  97.3452091  39.3016028  47.8957129  96.4485359  40.0163078  48.8837194
  79.5315456  26.6114688  37.2456765  78.8459826  26.8104029  36.6079760
  79.2048454  26.9735026  38.0693460 117.5808716  53.9310837  40.3307533
 117.6172733  53.6886072  39.4054890 116.8118763  54.4968367  40.4000139
  60.6708717   8.8334715  64.8481464  60.9358549   8.1471765  65.4605293
  61.3767481   9.4785374  64.8912525  64.4379616  24.1477990  62.7641535
  64.2211723  24.8707461  63.3528662  63.5899830  23.8226795  62.4617195
 102.1175003  21.3071632  60.1294851 102.4929714  20.9259725  59.3357897
 102.8041458  21.8824077  60.4668903 114.0143204  39.4488931  52.7711391
 114.1990280  39.4778705  53.7099028 113.8479328  40.3605556  52.5315237
  93.4031010  42.9322577  59.0174961  93.5283375  43.8575268  59.2282724
  93.3236790  42.9124832  58.0638027  99.3562603  47.8103161  55.9689426
  98.9900684  47.4944448  56.7949963  98.5979939  48.1203508  55.4738188
  87.7288818  30.9671640  18.4936476  88.5518169  30.7992029  18.9527774
  87.8827572  31.7827916  18.0168808  85.2165794  18.9658523  46.5130281
  85.2827549  18.2486212  47.1434498  86.1092567  19.3034589  46.4397478
  75.2508926  14.1988564  76.2664604  74.6949100  13.4699297  76.5417433
  74.9687099  14.9340868  76.8105555  41.9488096 107.4888039  55.8806658
  41.1185026 107.9383659  56.0378695  42.1738100 107.0989990  56.7254496
  95.3065872  49.7539234  66.4985275  95.2776909  50.2099228  65.6574202
  94.6875000  50.2310705  67.0510530  78.6650610  40.5652952  76.9796991
  79.4254971  40.3121090  76.4563751  78.9477777  41.3503122  77.4487972
  74.7327089  53.4889984  44.6289635  74.1960764  52.7135420  44.7930574
  75.5057621  53.1536055  44.1749477  90.1064205  20.3737140  59.6304321
  90.8072472  19.9237311  60.1022196  90.3509140  21.2985754  59.6634150
  50.9707975 104.9541664  37.7122760  50.1743889 105.4244709  37.4657416
  50.7381344 104.4960499  38.5198879  74.7690153  41.8728971  42.9347658
  74.0769339  42.2623301  43.4691763  74.6950150  42.3140144  42.0884943
  73.0488062  31.2575912  57.0486736  73.8925600  31.2597990  57.5006771
  72.6222134  32.0656323  57.3338366 115.1994228  44.4016361  78.7021446
 116.1119652  44.6892691  78.6744690 115.1151276  43.9529371  79.5434475
  90.7303238   5.3016239  65.0974083  91.6834259   5.3898329  65.0912666
  90.4369926   5.9187073  65.7677794  91.9163322  44.5428801  69.3735886
  91.4893150  45.3891945  69.2408133  91.4519978  44.1539812  70.1147938
  89.0046310  40.1824141  62.2551918  89.4823933  40.6093788  62.9663038
  88.1372547  40.0077438  62.6204157  79.2442894  44.3531656  59.1326284
  78.9527750  44.7411013  59.9577093  78.4752131  43.8897991  58.8009024
  62.2476578  31.5289140  59.3367815  63.0103207  30.9742522  59.1726875
  62.4591684  32.3592806  58.9101887  83.2494926  31.4056301  44.1729069
  83.5484123  32.1990395  43.7286234  84.0461731  30.8928132  44.3091345
  63.3123159  41.0958576  74.9083185  63.3129835  40.1618290  74.6989918
  63.2693195  41.5319967  74.0573359  68.9590120  25.5772972  66.2605238
  68.7228441  25.2910590  67.1428633  69.8761415  25.8418703  66.3320017
  56.9018173  27.4098516  49.0437984  56.3695288  27.7493954  49.7632504
  57.8026152  27.6133704  49.2955399  89.3443203  47.7888441  46.6606569
  89.7806835  47.0125866  46.3095999  89.8907566  48.5207844  46.3744593
  57.7702570  23.0288553  58.8992357  58.3251429  22.4172997  58.4151554
  57.5487232  22.5640202  59.7061348  61.4634609  15.7834303  58.4028053
  62.2570467  15.9934878  58.8950729  60.9036589  15.3299475  59.0330458
  65.1385784  23.9434552  65.7779264  64.6999741  24.5194483  65.1517534
  66.0684586  24.1492772  65.6820440  83.9552116  18.8558149  51.5130472
  84.5707321  18.1240511  51.4696407  83.9243698  19.0881264  52.4411201
  51.8940639  69.8968267  83.1744289  51.0597944  69.5992804  82.8115368
  51.6542196  70.3633308  83.9751053  69.2952728  38.4568286  30.9074855
  69.2135143  39.3184090  31.3164186  70.1910210  38.4355807  30.5707097
  93.3596420  50.4113531  68.3952236  93.4958839  49.6213627  68.9182758
  92.6531792  50.1803827  67.7920723 100.6018448   0.4539952  49.6570683
  99.7839832   0.8917268  49.4210005 101.1695576   1.1589297  49.9685192
  75.5318213  25.3724599  79.4070673  74.8366880  25.5639887  78.7775087
  75.6790304  24.4304705  79.3220997  94.9906731  55.2239847  60.8177567
  95.0046253  54.3158913  60.5154228  94.2675781  55.2568150  61.4440870
  71.9268513  28.8837242  63.3750629  71.2272739  29.2333007  62.8231382
  72.0795822  28.0010319  63.0377817  98.6565304  34.8372555  54.2295456
  99.0193176  34.8825169  55.1141739  98.8663483  33.9528179  53.9295864
  86.6025352  37.1882105  67.2991371  87.2940159  36.6071129  66.9822693
  86.5490818  37.0074034  68.2375860  87.9402733  41.3462114  41.3973331
  88.0734730  42.2704649  41.6076660  87.2560787  41.0591459  42.0020723
  90.0395298  22.0494556  50.5442095  89.1999912  21.7093229  50.2348375
  90.4363441  22.4483681  49.7698450  88.1984043  52.3031187  75.7870388
  87.7412510  52.0851183  74.9748039  89.0289021  52.6827192  75.4999781
 111.2474918  41.3786507  59.3405151 111.8353176  41.9118690  59.8756504
 111.0573387  40.6135321  59.8833466 104.7155666  50.6162310  49.5490837
 105.3482533  51.2406969  49.1941547 105.2370262  49.8427677  49.7637224
  80.5227852  21.7497110  63.8681173  80.5876541  21.5583014  62.9324961
  79.5928907  21.6457653  64.0699434  87.9858398   7.9166168  62.3358965
  87.3708725   7.1853286  62.2788143  87.6298809   8.5759562  61.7402506
  66.3874578  33.0674767  44.5508671  65.9823275  32.2286916  44.3305492
  65.7753944  33.4755635  45.1633024  75.3892183  15.3405380  38.7991071
  75.8435583  15.9453869  38.2126236  74.7360325  15.8819401  39.2423534
  93.7135792  58.4413147  57.4376583  93.9324665  57.5098753  57.4649286
  93.4084034  58.6416435  58.3225155  81.9606209  57.9877996  63.5018015
  81.1313629  58.1846762  63.9374685  82.4329948  58.8203192  63.4984827
  87.4179554  36.1873269  59.6338320  88.0100632  36.9244003  59.4843054
  87.6640320  35.8536243  60.4965734 104.4406700  54.2162180  87.0105648
 105.2003193  54.7953081  87.0723057 104.1912174  54.2460251  86.0869217
  90.9506035  46.4326382  58.4713173  90.0202179  46.3561106  58.6828613
  90.9697342  46.9214344  57.6485491 113.5475445  42.0580292  30.2877092
 113.0169678  41.8433952  31.0549474 113.7109947  41.2144518  29.8659372
  67.9807138  26.0777617  70.9182835  67.4061775  25.9933114  70.1573610
  68.6624098  25.4206586  70.7777882  90.9895611  28.6843872  55.7118082
  91.3200665  29.5354509  55.9993601  91.2269211  28.0840349  56.4185333
  55.4515934  30.6199360  59.3260241  56.2627649  30.1748037  59.5711565
  55.5158377  31.4803290  59.7405434  85.8158016  35.2371836  37.2307086
  85.9549046  34.3623638  37.5934386  85.0315952  35.1498771  36.6888380
  66.3796091  35.2270246  58.9469004  67.2620440  34.8564482  58.9322662
  65.8095217  34.4808364  59.1324615  73.3404303  42.0988655  61.3184452
  74.0340710  41.4622355  61.1458254  73.3214664  42.6503849  60.5363369
  88.9233780  38.2497287  58.2694197  89.3480206  38.7927079  58.9335632
  89.6401215  37.7594185  57.8668022  87.0304775  45.2952337  71.7703724
  86.8996525  44.4426012  71.3554859  87.8262806  45.6393719  71.3647842
  62.9806757   7.3979622  72.5150061  62.8542042   6.5630150  72.9656744
  62.7056646   7.2279161  71.6140699  85.2774048  26.2150812  62.4303198
  84.7132683  26.2882185  63.2001543  85.9863377  26.8373370  62.5929070
  87.3916721  28.5482621  45.9215879  87.5653172  28.5388422  46.8628597
  88.2526875  28.6662197  45.5203724  92.1975517  24.5915556  66.9555235
  91.6878891  25.3762507  66.7537212  91.7257881  24.1790581  67.6790714
  67.8478622  20.9475303  66.2815714  67.6608133  21.8352389  65.9762573
  66.9865942  20.5415821  66.3798237  96.4476109  36.3168550  60.2940655
  97.0696735  35.6071258  60.4539442  96.1830044  36.6047740  61.1677456
  90.8173752  42.7940321  73.5061121  90.3163242  42.0210266  73.2460308
  91.6572952  42.4456072  73.8050556  95.2798462  32.6170421  85.5335522
  95.7644463  32.5557685  86.3567352  95.4750538  33.4948158  85.2054691
  84.7610855  35.5551481  48.9344549  85.1096439  35.4457283  49.8191929
  85.5350590  35.5623913  48.3713007 101.8413258  47.2611952  61.9761944
 102.4459171  48.0015326  62.0271826 101.1814404  47.5343037  61.3388681
  89.9639416  27.9210448  53.3922863  90.1417828  28.5236931  54.1143799
  89.9257088  27.0579958  53.8044930  79.8097801  54.7336626  60.2171850
  79.4438362  55.0677586  59.3982267  80.4309273  55.4071617  60.4943275
  71.3819361  48.7398434  97.0835781  71.9423628  48.5668516  96.3271236
  70.5409098  48.3446503  96.8539524  88.0448151  32.5595164  35.2220345
  88.8539982  33.0705833  35.2386117  88.3297443  31.6554737  35.3552699
  78.2471752  36.8167424  50.2290583  79.0946722  36.3941216  50.0898504
  77.6535749  36.3669014  49.6277952  93.9213562  45.2571774  79.8936129
  93.0667019  45.4369307  80.2853870  94.1206169  44.3583298  80.1555252
  88.9979076  25.0452161  43.5542917  88.1228352  25.1225901  43.9344311
  89.5205307  25.6969094  44.0216112  70.0243139  33.5240221  29.4914699
  69.4492102  32.8878450  29.0663052  69.7774553  34.3648791  29.1064358
  66.3961601  29.6623302  30.1840329  67.0905113  29.2893600  29.6408939
  66.4060020  29.1335225  30.9818411  79.1137552  35.9334588  60.5052805
  78.7282848  35.8022785  61.3715553  80.0564194  35.9744906  60.6663036
  88.4222031  26.9762373  32.4298096  89.2064190  27.4064064  32.7706718
  87.7465916  27.6537824  32.4565244  88.7400436  42.9184961  88.5935688
  88.8733578  43.6528969  87.9943085  87.8518105  42.6148081  88.4063721
  95.4955769  16.2357593  61.9153452  95.8412552  15.9759295  62.7692938
  95.8927631  15.6205535  61.2989092  99.9163914  43.6095619  56.1786127
 100.5200768  44.3511724  56.2211609  99.3870544  43.6857700  56.9724798
  83.3034229  32.9748797  78.7384939  83.3821774  33.2941246  79.6374416
  84.0198994  32.3472857  78.6435652 108.8231754  46.7588854  63.0261230
 108.8964939  47.6634645  63.3304119 108.1329250  46.3786268  63.5694361
  80.9674931  19.5541632  38.1173277  81.4058304  18.7033176  38.1295013
  81.5269279  20.1194453  38.6499834 118.9499283  30.5447674  81.9552326
 118.2531738  31.1867833  82.0915318 118.5587692  29.8846507  81.3829803
  88.8870907  38.4222269  48.7762976  88.2099819  38.1711721  48.1480312
  89.7073174  38.3412981  48.2895517  93.7346935  21.0404992  58.2099056
  94.2226028  21.8206525  57.9462004  93.3679867  21.2650418  59.0650892
  66.9779015  21.6351938  50.1322222  67.2336817  22.0326614  49.2998600
  66.0448980  21.8323493  50.2150917  77.2187573   0.8712268  51.7189550
  78.0794317   0.4606700  51.6357851  76.6074497   0.1367831  51.7748785
  88.1408119  30.1631141  60.9391642  87.9297256  30.7126689  61.6939259
  87.7795696  30.6364775  60.1897240  69.5507669  10.1785088  58.8324690
  68.9914608  10.6755686  58.2355261  70.4200888  10.5638635  58.7228870
  83.6826801  28.4007525  47.9485464  84.4397926  28.9810061  47.8690910
  83.4126377  28.4832406  48.8631535  95.7672977  35.4164696  55.0770140
  96.4553738  35.7369709  54.4938707  96.2365150  34.9405408  55.7622528
  85.9791851  47.9167461  84.5157337  85.8496284  48.6942673  83.9726830
  86.4156532  48.2439661  85.3022766  87.5821590  34.7210145  89.0655041
  87.0428848  33.9765573  89.3323517  88.3965111  34.6153569  89.5573235
 114.6090889  15.9911788  29.8717570 115.3437901  15.8069980  30.4570150
 114.9981785  16.0096097  28.9973974  67.7876949 110.0465393  87.0868111
  68.5585070 110.6126690  87.0471287  68.1010485 109.1938019  86.7853355
  87.8739929  40.0313425  50.9965038  87.6604939  40.9580660  50.8877039
  88.1765175  39.7521925  50.1323366 110.3609848  46.0768414  59.7263193
 110.1970196  45.2029371  59.3718672 110.1633072  46.6701841  59.0016842
  18.8333402   0.2386546  74.9107456  19.7485242   0.2769828  74.6329069
  18.3896242   0.8868670  74.3637800  88.5140228   7.7583444  78.1846285
  88.7601948   8.2084358  77.3765135  87.6591969   8.1242943  78.4117508
  73.2461119   5.7207227  54.6175289  74.0581751   5.3982240  54.2266512
  72.5662088   5.1461977  54.2655611  74.5998812  23.6338568  74.6398735
  74.0655613  24.1539478  75.2400732  74.9274445  22.9113770  75.1755571
  75.6078434  28.3545065  51.1769390  75.2925205  27.5244761  51.5345001
  75.2797699  29.0171885  51.7847633  97.0456028  23.0179620  54.0203428
  96.3756180  22.3675847  54.2309713  97.4833012  22.6682258  53.2442379
  89.2566109  14.5347023  36.7250466  89.6661282  15.3926122  36.8369198
  88.3307362  14.7285211  36.5786672 105.1846981  39.6304202  82.0209503
 104.7268772  39.3919754  81.2148666 105.1195049  38.8511133  82.5729179
  82.5082493  10.6995511  41.9033575  82.6970673   9.8516357  41.5013361
  82.4484539  11.3064301  41.1655521  89.5854855  33.1290722  68.2526064
  90.2860832  32.9350233  67.6299143  89.9182129  32.8144598  69.0931702
  92.6619720  31.4970422  85.6750011  92.3889637  30.7235456  86.1683655
  93.5850048  31.6117930  85.9009838  99.8031425  28.2321715  58.0488014
  99.2905712  27.6556802  57.4820900  99.1569710  28.8206577  58.4391499
  80.4938602  13.2932568  78.5238981  80.0537586  14.1432786  78.5268784
  79.9351025  12.7323639  79.0618753  76.8822861  20.4094601  55.5749798
  76.8500519  19.7930777  56.3065958  77.8125191  20.4773998  55.3598404
  81.0110474  46.1069965  45.4746056  80.0772572  46.1460114  45.2678251
  81.0687160  46.4112902  46.3803148  69.7933626  41.4313364  91.7815971
  70.0275373  42.1142101  92.4101448  69.5891762  40.6681585  92.3220634
  91.6084766  45.1932240  48.3495045  91.3595963  45.8172941  49.0312910
  91.7284203  44.3653679  48.8147974  83.3394146  49.2041492  79.3376064
  83.1767082  48.2821035  79.1386366  82.7721500  49.6832514  78.7335396
  85.1795578  15.3527915  69.2096996  84.8745728  15.4754400  68.3107138
  86.0894871  15.0703776  69.1175032  74.5584059  22.2439098  64.8956013
  75.2056313  21.7758274  65.4230738  74.9292183  23.1191039  64.7826147
   4.3962052  64.1534328  55.3580379   4.8976713  64.9158049  55.0689793
   3.6351243  64.1333580  54.7778797  75.7691050  42.1025515  67.4901199
  75.3518534  42.8392649  67.0435858  75.3030014  42.0323229  68.3232117
 101.0354996  16.5089822  74.1667414 101.4207745  16.8723166  74.9640989
 100.3890991  15.8762479  74.4798708  82.5706387  32.5108695  61.2579298
  83.1331348  32.3751211  62.0204353  83.1540394  32.4001360  60.5071831
  86.6685581  60.7950783  45.1835251  87.5946236  60.8013105  44.9414587
  86.6485691  61.1705303  46.0637951  88.8010120  45.9521627  40.1768398
  88.9664459  46.2880468  39.2959046  88.7985134  46.7308378  40.7335138
  79.4688940  13.8126361  25.5102158  80.0234890  13.2653427  26.0662055
  79.1568232  13.2203186  24.8261094  62.3081732  16.5811062  79.7070265
  61.7277670  16.2259948  79.0337896  62.9199266  17.1385407  79.2261314
  94.2707634  33.4496117  88.5845947  94.3715668  34.0684891  89.3078232
  95.1652622  33.2762456  88.2912731  85.6089115  22.9081202  49.9344254
  85.1016235  23.3944082  50.5843592  85.5502796  23.4380174  49.1394424
  79.6114731  44.8956490  35.7802367  80.0495052  44.1907883  36.2572384
  78.7058306  44.5985174  35.6921911  86.0591412  33.4569073  60.7426023
  85.5015182  33.5572624  61.5141106  86.7992115  34.0420651  60.9042215
  64.4660664  11.2547433  50.3608179  64.0062475  10.6796372  49.7492218
  65.3933096  11.0673523  50.2147532  60.4550028  34.0829635  60.8434629
  59.6970272  33.6861348  60.4142427  60.6168556  34.8864007  60.3489685
 108.3103561  38.6496615  64.7218227 108.9107418  38.8364387  64.0001011
 108.7056637  37.9053903  65.1757193  92.0127487  52.5627136  45.3746653
  92.6065159  53.3021545  45.5046797  91.1457539  52.9617071  45.3015614
  90.3007126  42.6690865  55.1782513  91.1721897  42.8621721  54.8326015
  89.7372246  42.6407909  54.4050074 102.1485806  55.9607172  69.9640894
 101.7638779  55.0873566  70.0380707 103.0821133  55.8258104  70.1270342
  87.9517746  48.8468361  55.4110384  87.3869514  49.3263054  56.0171080
  87.3482609  48.3202028  54.8869562  99.1412640  44.5043278  39.0027642
  99.1615105  43.5902166  38.7195277  98.2767391  44.8181629  38.7375355
 104.0526581  52.2201681  89.4786549 103.7654114  52.0047426  88.5913467
 104.4633007  51.4170933  89.7990704  81.1510849  60.5868673  70.0238848
  81.0555458  60.7916498  70.9540272  80.6924629  59.7539520  69.9136734
  99.5602608  62.3249292  71.8542480 100.1966858  62.2862625  71.1403131
  99.8913574  63.0114174  72.4333382  85.7728672  64.9492502  38.2158184
  86.2097168  65.7357788  38.5425735  86.4683533  64.4487381  37.7891684
  80.2314091  47.5882339  58.8610172  80.4643631  46.8530655  58.2940102
  80.9476948  47.6388979  59.4939470  96.5642262  55.4910135  72.6241589
  96.7010117  56.3716984  72.2749901  95.6247616  55.3370810  72.5244522
 103.0035686  38.4012842  67.3032808 102.7874660  39.2218804  66.8603897
 103.9179230  38.5049200  67.5668001  90.6813526  41.1573505  76.5152788
  91.0975361  41.9564486  76.1920691  90.0115204  41.4660883  77.1253967
 109.7067356  47.1445799  57.2803974 109.7066689  48.0148888  56.8818998
 108.8546467  46.7750597  57.0488214  96.4775085  49.2288828  42.4725771
  95.5648899  49.1335964  42.2000122  96.4265919  49.5038795  43.3880091
  86.7215729  79.7936773  31.5519977  85.9452057  80.0226116  31.0410380
  86.4237881  79.8123169  32.4615049 104.3095684  56.5180635  77.4403906
 103.9789200  55.6981707  77.8073788 104.4777107  56.3177347  76.5196133
  81.7776680  17.4410641  57.0287991  81.5467548  16.6677511  57.5434828
  81.0299397  17.5728512  56.4459038  84.3401909  41.5862513  73.0041265
  84.7266579  40.8139133  73.4168816  84.8586369  42.3195457  73.3353758
 114.3295097  44.7635651  29.7962141 114.2150879  43.9130783  30.2202606
 114.1440582  45.4016113  30.4852247 111.4606190  45.3791285  56.1920977
 110.8066177  44.6891165  56.3034439 111.0760403  46.1447620  56.6188717
 101.3922024  59.1573524  52.2126007 101.5837860  59.7554493  51.4902353
 101.3210773  59.7243118  52.9805374  96.8381786  61.4815187  76.0006189
  97.0744038  60.7520008  75.4276943  97.4565792  61.4240026  76.7289782
  90.9505177  39.7622252  64.8107004  90.3317070  40.4885292  64.8867607
  91.7974377  40.1439905  65.0413895 108.6234856  45.7103395  74.0006638
 108.4330082  44.7752762  74.0755415 109.0801430  45.7954788  73.1637383
  95.5449581  46.0672426  94.8523712  96.0015488  45.5566788  95.5210114
  94.6554279  46.1654854  95.1919365 104.8393726  51.9365168  70.6479502
 105.3022861  51.1286783  70.8700895 104.7337341  51.8983793  69.6973610
 110.3163910  58.4719896  69.7441769 109.3771362  58.3495903  69.6061754
 110.7241917  57.7433395  69.2761946 101.3001919  35.6450033  52.1376514
 101.4068604  34.7656059  51.7749977 100.3550816  35.7435441  52.2528982
 117.9651928  23.6368537  48.6515331 117.0491123  23.8702607  48.5013676
 118.4589863  24.2250609  48.0802011 105.2947521  25.7801270  76.4960957
 105.2208900  26.7067838  76.2678766 104.3904495  25.4675961  76.5243340
 112.5444889  34.7048521  69.7142220 113.2740784  34.5749593  70.3200769
 112.8961563  35.2815032  69.0359592   1.4076440  39.8545575  79.5342255
   1.0851600  38.9582157  79.6280766   1.0417709  40.3206730  80.2859592
 102.1078300  60.1292610  75.3351116 102.6395416  60.8355999  75.7019949
 102.0442390  60.3367901  74.4028473  85.2768993  47.1923351  63.8670254
  85.6112099  46.9026232  63.0181789  84.3260002  47.1154881  63.7888479
 105.7842636  61.2560749  48.6039925 105.5111790  62.1659660  48.7212467
 106.1352253  60.9995461  49.4567823  89.7443676  31.9887972  56.6874743
  90.5992031  31.6375470  56.9366932  89.1770554  31.7891836  57.4321508
  89.8448181  49.7749376  50.0668859  89.6498394  50.3599548  50.7989883
  90.1598930  50.3552485  49.3739271   3.2464170  63.2782984  44.8207474
   3.2384551  64.2328978  44.7506714   3.6623222  63.1035757  45.6649780
  78.7008476  53.5506916  74.9373102  78.2000828  54.3664503  74.9346542
  78.1758451  52.9490948  75.4652214 111.6121387  43.8051510  66.1485863
 111.6761208  43.0127954  65.6153774 111.8939114  44.5098066  65.5652332
  84.3523788  41.3022757  79.4809818  84.6817207  42.1555853  79.1987991
  85.0465107  40.9498787  80.0379658  86.1931229  26.1294580  66.8307257
  86.2549496  25.2967834  67.2987700  85.3433132  26.4866304  67.0885849
 107.9477119  56.3433409  48.9722919 108.7305164  56.2635851  48.4272385
 108.0637932  57.1712446  49.4384813 114.6507359  26.2769890  80.2130508
 114.3883419  27.1697140  80.4376030 114.9104404  26.3278961  79.2931652
  96.6203880  49.2566013  79.3891859  96.4955711  48.3084583  79.4301701
  95.8444118  49.6190310  79.8166704  98.8788700  48.9734316  94.0957260
  98.1393528  48.6333370  93.5920715  98.8207245  48.5247612  94.9392605
 101.3735390  40.1154327  95.1676369 102.1201515  40.4659081  94.6818638
 101.3127136  39.2022419  94.8872566  95.3405476  45.3528261  60.1351929
  94.4597721  45.2796459  60.5027676  95.2628803  46.0263014  59.4594526
 115.6790924  42.9664755  64.1837835 115.5639744  42.0593357  64.4667530
 115.9437466  43.4329367  64.9766350  81.4103985  54.8992205  76.0685968
  82.0299816  54.5221758  76.6932487  80.7547855  54.2140722  75.9383059
 103.4796238  58.9212704  86.2450886 103.3138466  59.1888046  87.1490669
 104.3661404  58.5606194  86.2607765 108.0703545  59.4854212  44.8539019
 107.2083759  59.0706491  44.8883200 108.5277843  59.0289497  44.1477633
  74.7651529  43.9371395  51.6767645  75.5965281  44.1796589  51.2690496
  74.0978336  44.2821026  51.0835314  98.2991600  20.5953550  38.4049582
  98.9276218  21.3035226  38.2643747  98.0649281  20.6632352  39.3305731
  80.5749702  39.4517183  55.8954859  80.3119659  39.1325259  56.7587233
  80.9503365  40.3160000  56.0638475 116.3748741  60.4397440  44.5342398
 116.5392494  61.3590574  44.7441912 116.8665791  59.9516106  45.1946878
  97.4877930  66.6286945  52.3580980  97.0070267  67.1852350  51.7454386
  97.0225334  66.7290497  53.1885719 105.5904770  57.7251959  41.2066412
 104.8003101  57.4468660  41.6696787 105.2748203  58.0294514  40.3557444
 109.1586399  44.2053795  55.9957647 108.2380581  44.3936968  55.8132696
 109.2415047  43.2614899  55.8600092  88.1056309  58.9202833  47.9026175
  87.9165363  58.3931828  47.1263170  88.3463669  58.2811403  48.5732698
 117.1037483  68.4592152  51.7499018 117.4703217  68.4917736  52.6335239
 117.7912712  68.8226700  51.1918259 100.9354305  24.4790101  57.9196596
 100.7596970  23.7290287  57.3514318 100.2855682  25.1326299  57.6614189
  81.0705185  35.0220466  54.6039963  81.1567307  35.7112789  53.9453936
  80.8270264  35.4855633  55.4053020  79.0220022  30.9128213  43.2625246
  78.3597898  30.4912210  43.8102150  79.2534733  31.7106891  43.7379837
  79.3008471  26.3312984  71.0104275  79.1964293  25.8154750  71.8099594
  78.4898710  26.8352723  70.9429073  84.1580105  54.3141747  41.7466927
  84.7505569  53.5852766  41.9306183  84.7264004  55.0838614  41.7193508
 108.3117390  30.2019858  26.4464021 108.4371948  31.1472821  26.3632846
 108.8123512  29.8292112  25.7206893 113.3579445  39.4911671  38.5662580
 113.2409954  40.2518845  39.1353512 113.9336872  39.8012304  37.8672528
 100.2389145  45.7987738  52.9926968  99.5067310  45.8162642  53.6089993
 100.7761383  45.0604391  53.2799006 103.2510376  51.8410683  32.2552919
 103.8655567  52.0073986  32.9700851 103.1284523  52.6952982  31.8411732
 100.7209778  60.6583500  49.3246078  99.9339104  60.6680536  49.8692751
 101.3708401  61.1423874  49.8341370  82.8408337  49.5230436  82.3267651
  82.6371384  49.4063044  81.3988018  83.7904930  49.6405363  82.3505878
 108.4086990  47.9352903  30.6218410 108.7512207  47.4005890  31.3380837
 108.2559776  48.7941265  31.0159373  94.3161678  10.0429106  44.8364210
  93.6142921  10.5882692  44.4811869  94.6397305  10.5318189  45.5930614
  79.3828249  44.0400887  51.7753601  78.5900784  43.6611414  52.1550703
  80.0859547  43.7625456  52.3625612 117.2555351  33.0488610  72.0585537
 117.6941204  33.8874054  71.9146204 117.9531193  32.4600124  72.3464203
  98.2117367  49.9827385  39.7005200  98.7310505  49.5263958  40.3625631
  97.4864674  50.3703928  40.1903486  65.7232380  60.3115654  49.5689344
  65.7360697  59.7026014  48.8305330  66.1651611  61.0948181  49.2411423
  12.6589537  42.3419380  56.0733414  12.1972620  43.1002140  55.7154417
  13.3710730  42.1809959  55.4542971 110.4399395  45.0761414  76.8702316
 110.5512524  44.3145084  77.4392271 109.5525742  45.3845692  77.0537519
 109.0353298  59.3953609  54.4031715 109.5840740  59.0798950  53.6851215
 109.1652679  60.3436995  54.4051170  91.3558197  52.4494886  49.2602587
  92.1667290  52.7831984  48.8764524  91.4383698  52.6372099  50.1952314
 104.6277428  57.5525427  67.1166706 104.9333763  56.8264103  67.6603127
 103.7650681  57.2746420  66.8087626 117.3404789  58.4700108  35.0267434
 117.1321964  58.8743925  34.1845298 118.1314659  57.9581928  34.8575974
 113.2786179  45.6706619  73.7795639 114.1606522  46.0422134  73.7931681
 112.7922153  46.1847115  74.4240761  84.3472862  50.6588602  33.5618591
  84.7099590  50.3282642  34.3836904  85.0750065  50.6097269  32.9419899
  97.7141666  49.9213696  37.1367717  97.9933071  49.9391890  38.0521941
  97.0239353  50.5824423  37.0839310  70.5334282  41.4765072  82.2863197
  69.7138453  41.6849232  81.8379116  70.2630949  40.9931231  83.0670261
  92.0237064  20.0787044  55.5281448  92.6174259  20.0962138  56.2787628
  91.1523914  20.1869106  55.9093761 100.2742290  33.5701680  61.0471582
 101.0166264  33.9507008  61.5164852 100.1618099  32.7040100  61.4387751
 102.2776127  44.7111225  78.8320732 102.3890877  45.6563663  78.7305117
 101.3345432  44.5918846  78.9445114  68.7551212  50.8008671  51.9801283
  69.6422434  50.6527376  51.6525602  68.2281780  50.9348822  51.1923456
  92.2997284  34.6568441  52.0414543  91.6097260  34.3362141  51.4606667
  92.0069599  35.5301619  52.3019028  76.5390253  46.8355894  38.7698865
  76.7264557  47.0066929  37.8469419  77.3324966  46.4152622  39.1014957
   5.9313238  38.8200831  53.1477547   6.2056988  39.4403839  52.4723482
   6.0113704  39.3077016  53.9675426  89.2867279  52.1469975  82.1385288
  90.2205753  51.9438362  82.0848942  88.9585876  52.0014286  81.2511921
  99.7225952  79.8858786  43.8615704  98.8690090  79.8441744  44.2926931
 100.3456497  80.0177860  44.5761585 111.8736076  47.3853302  78.9013767
 111.8792725  47.7745724  79.7758389 111.1747456  46.7320919  78.9344978
 108.4620762  45.3686905  69.2817163 108.4795094  44.9782228  68.4079552
 108.6876678  46.2877369  69.1378975 109.1898060  65.7830715  63.5482454
 109.7700310  65.4073620  64.2103767 108.4391880  66.1090851  64.0447474
  81.7364502  16.8641877  38.0279469  81.9686699  16.5679085  38.9080191
  82.0327473  16.1594057  37.4519944 115.0183773  37.6293397  49.8048496
 115.1981258  37.3132205  50.6902790 114.7444439  36.8489885  49.3229342
  75.1869535  33.2707143  51.2263727  75.3534889  33.8162732  51.9950485
  76.0576916  33.0571032  50.8910799  68.9053297  12.0209050  57.2552109
  67.9522610  12.0570374  57.1740341  69.1499281  12.8830826  57.5914478
  94.9002934  66.7547989  42.5980997  93.9544582  66.8879175  42.5357056
  95.0056648  65.8047390  42.6482296  98.4322357  53.8490009  54.9833441
  98.6413670  54.7361755  55.2756023  97.7859116  53.9719725  54.2880869
  75.6357193  65.7789087  54.6633530  75.3082323  65.7103395  53.7665319
  75.7584906  66.7179680  54.8023558 105.7355976  60.4533386  42.5041151
 105.3013039  59.6239042  42.7032471 105.2651882  60.7933092  41.7429495
 102.8465271  30.9917593  58.7521267 102.8278923  30.0836539  59.0541697
 103.1970310  30.9412456  57.8628445  99.7874737  41.4636326  72.9837132
 100.7118607  41.3277483  73.1917143  99.6004391  42.3503208  73.2919884
  98.7882233  25.0270414  67.3519611  98.0108166  25.3605127  67.7999163
  99.2159367  25.8081341  67.0009804 102.9824638  61.6757965  62.7345705
 102.2331715  61.3506031  63.2336140 102.7540207  61.5049887  61.8208599
  84.5620346  52.8729916  66.5192604  84.6227741  53.8062763  66.7230129
  84.4640636  52.8414822  65.5676079  91.2816811  30.8208418  66.9580841
  92.1701813  31.1733580  67.0083952  91.3006783  30.0430250  67.5156450
  91.3569260  34.5157528  75.5364704  92.1704292  34.2159939  75.9421730
  90.8268642  34.8321366  76.2680197 100.2725792  24.0623355  45.8020496
 100.4697418  24.2512107  44.8846149 101.0093021  23.5290146  46.1004686
 109.7075081  77.9623270  26.8486810 109.2812443  77.4704552  26.1468339
 110.2773190  78.5829067  26.3943386 110.2638817  37.8856182  47.0775461
 110.6403160  37.3727107  47.7927017 110.5021572  37.4034429  46.2857342
  85.0485611  43.2219744  56.4650774  85.3197002  44.1399670  56.4683819
  85.4504776  42.8506947  57.2504759 115.4218578  64.4123745  81.6856194
 115.8273888  64.2555857  82.5383759 115.1922798  63.5399723  81.3655472
  75.4886293  61.1365414  36.7127347  75.7323885  60.9344387  35.8094239
  74.5762300  60.8558178  36.7831302 101.2837982  46.9715166  74.4366550
 100.7197952  46.2281227  74.2233515 101.6343498  46.7653275  75.3031588
  73.4127998  42.1257734  68.9462519  72.7082825  41.4790201  68.9862061
  73.6162901  42.3151684  69.8621988 115.6828308  53.8755465  43.5649633
 115.5089951  53.2462931  42.8649282 115.2690315  54.6856356  43.2670403
 101.9162083  49.4480467  39.1359091 101.5745831  48.5781574  39.3428302
 102.4106884  49.3246746  38.3256626 106.4885807  46.4699125  43.4532118
 106.7882347  46.0316610  44.2496872 105.5649281  46.2294292  43.3805466
  82.3807812  41.6064262  75.8064508  82.7569962  42.4045849  76.1774540
  83.0319977  40.9284496  75.9867144   1.2748127  41.0816193  87.2546387
   1.5403472  40.4308939  86.6048050   1.1535700  41.8868637  86.7515373
 110.3116035  15.4327404  47.7371264 109.4883442  14.9918365  47.5271416
 110.6977081  15.6373847  46.8855000  89.8741913  25.4943299  73.6517143
  89.3152523  26.0462832  73.1047440  89.5568466  24.6045685  73.4972811
  87.2282124  35.0689054  64.4178057  87.7038860  35.3446221  65.2013588
  86.8066692  34.2474222  64.6701860  95.4869556  74.4034958  42.7602434
  96.3825893  74.1786575  43.0122900  95.3189373  75.2400827  43.1939697
  80.2529144  57.8288698  61.0568523  79.4720030  57.9041004  61.6052580
  80.9746742  57.7381945  61.6790056  87.2925472  46.8094158  88.4830093
  88.2057381  47.0963001  88.4787273  86.9974518  46.9630051  89.3805313
 108.2770920  34.3677831  43.8481617 108.7970161  35.0249934  44.3107605
 107.6683044  34.8771119  43.3131981  70.7314205  60.0122499  39.3516803
  70.1796198  60.7941389  39.3318391  71.5564823  60.3110123  39.7341061
   2.7466261  49.0448284  43.6854029   2.6185861  48.8338232  42.7605724
   1.9980016  48.6451054  44.1281414  85.9382248  43.9756584  42.7094793
  85.3300095  43.2795763  42.9580259  86.7918968  43.6678505  43.0140114
 109.1621304  31.5228629  46.7956781 109.5300961  32.4056339  46.7562866
 109.8492908  30.9607625  46.4377785 104.7556019  48.2270813  47.5602245
 103.8795757  48.0976343  47.1968222 104.7202778  47.8144836  48.4232140
 109.9423504  50.4127693  46.9925451 110.0548363  49.4675112  46.8922186
 109.1518116  50.6143713  46.4919138  86.7631912  56.3783073  51.8175364
  87.1121979  56.3357449  50.9272480  86.6854477  57.3147774  51.9998026
 111.2226677  57.8234625  49.2176867 111.9209576  57.3125505  48.8083076
 110.7290268  58.1866598  48.4824038  82.2381592  35.8566976  42.0072794
  81.9017315  35.9361315  41.1146736  82.6080132  34.9746990  42.0462370
 101.8468857  18.9960957  36.9029069 101.0821438  18.6727762  36.4266014
 101.5192604  19.1845560  37.7823257   2.5740668  37.1483159  55.5407381
   2.9272276  37.8560638  55.0016642   3.0637795  37.2049689  56.3612270
  81.7546940  61.4287567  42.3976564  82.5057316  61.7841244  41.9223785
  81.8943977  61.7012739  43.3045483 115.6319809  33.2990718  50.5997419
 115.1327896  34.0410376  50.2583885 114.9698734  32.6388645  50.8046103
  99.4027519  45.6264591  41.8031693  99.0188122  44.8969984  42.2896957
  99.1842270  45.4459667  40.8888912  92.3742199  84.1646194  81.7554283
  92.7687836  83.9106274  80.9211445  93.1058693  84.1769695  82.3724937
  99.3089294  58.1785393  92.8077888  98.9603996  57.8158855  91.9933891
  98.5400009  58.5130596  93.2693958 105.4434204  47.0913601  52.1989250
 105.3430271  47.0510626  51.2478590 105.5598259  46.1796713  52.4663258
  82.4849129  55.8041239  58.9404774  83.3009243  55.7416868  59.4369268
  82.3390198  56.7444372  58.8367367  72.8365517  19.3239117  70.7784605
  73.1809998  19.7123551  71.5826368  71.8877840  19.4293344  70.8488321
 104.0240479  64.9098206  54.3735933 103.3119011  65.4904556  54.1053677
 104.7336197  65.1020813  53.7605906 115.1715469  17.8331542  67.9492760
 115.3181839  18.2690918  67.1098185 114.6022797  17.0930386  67.7385950
  98.2734013  61.6532230  78.4182405  99.0649986  61.5256739  78.9410639
  97.5598717  61.6368580  79.0560818  94.3871021  48.1860971  52.4887037
  94.8308468  47.3402214  52.5505257  93.6583614  48.1199360  53.1057835
   0.3319575  54.5421982  76.5527582   1.0783394  55.1049709  76.3467693
   0.4447643  53.7782097  75.9872293 108.2191849  28.0641675  80.1090336
 107.8756618  28.4113359  79.2858076 107.4672604  27.6398945  80.5223560
 100.4242039  64.9105167  60.1185131  99.7437763  65.3421116  59.6018219
 100.4588413  65.4103470  60.9341145  74.1357708  42.6959372  48.3214426
  74.9620390  42.3804522  48.6874723  74.1990089  43.6495829  48.3743095
  96.1983490  41.2221003  38.9441037  96.4190674  41.0246897  39.8543501
  96.0154724  40.3685093  38.5514593 100.9797573  38.9956498  64.1151667
 101.5967083  38.4693527  63.6066246 101.5263557  39.4583154  64.7503042
  93.1083298  38.9621854  58.6965179  92.9888248  39.3392682  57.8248739
  92.4846077  39.4334149  59.2489100  97.6567173  45.3875446  61.8734980
  97.3321724  46.1862803  62.2893381  96.9277096  45.0867414  61.3310003
  93.4365368  21.8818021  31.5922403  92.5762749  21.8207169  31.1769652
  93.2562733  21.8043709  32.5291181  97.6924038  44.4233370  47.7726173
  98.3671188  43.9123154  48.2196474  96.8662167  44.0567923  48.0877352
  98.5658550  28.2314682  82.7000999  98.6043167  27.2756457  82.7341080
  99.4374180  28.4959221  82.4057007  99.0485764  37.6014185  40.6214142
  98.2973003  37.0315957  40.4567289  98.6734962  38.4797263  40.6855965
 105.6769753  32.3085642  42.0614386 105.5701351  33.2139921  42.3530149
 105.1061726  31.8019557  42.6391506   6.9769615  46.7559052  59.4916964
   7.8954309  46.9912577  59.6230555   6.4919347  47.5506830  59.7137594
  99.8409271  44.2561769  49.8191071 100.1638603  44.1236877  50.7103920
  99.7510147  43.3722210  49.4630575  14.4027948  50.8424807  55.0160170
  15.2056456  51.1456251  54.5920277  14.2538965  51.4699268  55.7233906
   0.9627097  37.1286893  79.3331766   0.6931572  37.0512247  80.2483654
   0.1493391  37.0430493  78.8358593 115.9451485  35.5974221  65.8527088
 115.0825310  36.0111713  65.8220577 115.8319569  34.7723651  65.3807974
  93.4445667  36.2425900  91.9101429  94.1570568  36.8730712  91.8048573
  93.8762951  35.3884292  91.8942738  74.4811678  55.4408216  77.0400286
  73.7483501  55.5455971  76.4332056  74.7080421  56.3342190  77.2981071
  80.9555244  38.5594654  60.5629158  80.6916523  38.0735421  59.7815847
  81.7633438  38.1329250  60.8487940  90.2928257  48.3791256  43.4126520
  90.3207016  49.2989159  43.6761713  89.5100212  48.3101845  42.8661108
 102.6591110  36.3200593  44.4990635 102.3200989  36.7868805  43.7352753
 101.8820286  36.1157942  45.0193024 100.1229382  40.1439381  51.1689901
 100.9459496  39.7435927  51.4493513  99.7504711  40.5120039  51.9702578
  89.4418812   2.0123196  48.0258417  89.1857815   1.3015437  48.6135864
  89.4443321   1.6141933  47.1553707 102.1911335  41.1478090  89.2836571
 101.5427971  41.8407583  89.4090557 103.0266094  41.6103935  89.2187405
  81.9856644  18.0792010  47.5520563  82.1698284  18.8246155  46.9805050
  81.0655785  18.1845474  47.7940941  72.8429317  39.8592138  53.6404610
  72.0126009  40.2085161  53.3167744  72.6826239  39.6804547  54.5670557
 101.1731339  40.0317144  58.7885284 100.5302715  39.3590260  59.0131426
 101.5852165  40.2571917  59.6225405  86.9389629  40.8345175  57.2430229
  87.4849892  40.2834940  56.6822577  86.0923004  40.3885460  57.2656679
  91.3353729  39.5316601  70.7494450  90.5675220  39.6513796  71.3082886
  90.9741688  39.3438983  69.8831272  84.6630669  45.7236433  58.7428284
  84.3949604  44.8297739  58.5298824  85.1016808  46.0370016  57.9518461
 100.3500080  23.5837245  84.4369602 101.0496998  23.1096506  84.8863029
  99.5464897  23.2851124  84.8628998   0.9539730  50.6403875  95.4639721
   0.9851361  51.2630081  94.7376060   0.9595902  51.1878633  96.2491226
  98.4850502  74.2173004  43.2254744  99.0237904  73.7228870  42.6077843
  98.8813972  75.0883675  43.2450962 109.6199226  53.3447456  89.7035885
 108.7811184  52.9124355  89.5430946 109.4083500  54.2780495  89.7238541
 103.8091946  48.7069941  43.7773895 104.0255165  47.9025507  43.3058929
 103.3246326  49.2340565  43.1420660 108.8088799  71.9563818  47.2858191
 108.2351017  71.9542456  48.0519819 108.8347149  72.8721571  47.0084810
  96.7494297  52.3737621  58.3965588  97.4776745  52.5729895  58.9849472
  96.1174870  51.9101572  58.9460468 101.4633179  45.8705139  56.1359501
 100.8577347  46.4641237  55.6919527 101.5880871  46.2591743  57.0017481
 117.0096016  51.1673117  41.5166187 117.3011303  52.0417261  41.2584591
 116.1012650  51.2894726  41.7927170  79.0627003  32.5058722  55.6762695
  79.9289370  32.4553108  55.2721500  78.9097404  31.6279030  56.0255623
  97.2315598  48.5971594  67.9186249  96.5245819  48.9031363  67.3504782
  97.2132778  49.1943073  68.6664963  86.4413452  39.7392535  53.6025143
  87.0333195  40.2202511  53.0242014  86.2102699  38.9527726  53.1082678
  97.6524258  29.5384455  48.5278320  97.9589272  28.8414073  49.1078520
  96.6991425  29.5181584  48.6119318  71.4413691  68.3988142  32.1752214
  71.4167309  69.3549633  32.2126889  71.3124275  68.1201887  33.0818510
   2.5189906  36.2801981  33.4070897   2.3549408  35.3434348  33.5157061
   2.5163516  36.6287613  34.2985654  91.4274406  51.6741705  75.0311756
  92.2185993  52.1510792  74.7804642  91.5384102  51.5007830  75.9659767
  92.4687958  59.7092152  80.6229210  92.7056026  60.0744390  79.7704172
  92.5805187  60.4369211  81.2346363   0.7455456  66.8654585  66.7340136
   0.0555356  66.2125635  66.6163445   1.5596540  66.3637495  66.6922140
 109.4302082  70.1638603  59.0710688 110.2305984  70.5003166  59.4740534
 108.8427830  69.9970198  59.8081827  99.7165871  89.6272659  46.7522240
  98.9161587  89.8929596  47.2049475 100.4215336  90.0447559  47.2471762
 116.9468403  70.9595203  64.8721457 116.6013145  70.3296614  64.2395973
 117.8970623  70.9036446  64.7711706 106.9211292  82.8334045  44.4070005
 107.1923351  83.7411976  44.5433569 107.4931240  82.3237801  44.9808741
  92.9610634  49.3605471  48.7393284  93.7838936  48.8714838  48.7397861
  92.9734421  49.8509216  49.5612812  94.1184616  54.2924881  69.3806982
  94.3498707  53.4215546  69.7034359  94.9596310  54.7138023  69.2041540
 106.0978699  54.6177673  47.6357126 106.9044781  54.9306202  48.0452728
 105.7429218  55.3858900  47.1882486  74.9396372  57.7160692  46.0358238
  74.8505020  56.8617725  46.4582777  75.5622578  57.5675344  45.3241301
 112.1629333  65.6386375  63.0406952 112.9296017  65.1467991  63.3348751
 111.4313030  65.2521467  63.5219240 105.0160503  66.5823174  47.6930666
 104.7740650  67.4977255  47.5527096 105.9443760  66.6127396  47.9244328
   0.7871848  47.3381138  44.7100401  -0.0350221  47.7889729  44.5178604
   0.7157054  46.5025520  44.2485571 107.3090553  75.7123470  40.0699091
 107.6285267  75.1760101  40.7955170 106.4899349  76.0882092  40.3924131
 109.3439198  75.5723095  53.0756187 109.6341991  74.8138571  53.5822916
 108.4671593  75.7621050  53.4095478 104.0054798  51.1249924  57.8006172
 103.6629963  50.3895998  58.3086872 104.7458172  51.4471722  58.3147526
   2.4300325  42.5446367  57.7716732   2.2003685  42.6951551  58.6886406
   3.3444765  42.2628832  57.7969313 114.0221214  67.0470858  60.0293732
 114.6553326  66.3357449  59.9331141 113.6246777  66.8994522  60.8875561
 109.8579121  60.9068298  62.4826241 109.5635033  60.5763912  63.3313704
 109.0503311  61.1240196  62.0169353 103.8325405  40.6712627  57.9144382
 102.9731083  40.6947041  58.3352137 103.7693214  39.9571180  57.2802210
 111.0346222  82.9940319  28.6324477 111.4572144  82.1691608  28.3932161
 111.4817429  83.2688713  29.4329333  90.5110359  73.6755848  86.1983109
  90.5685902  72.7253294  86.0986519  90.7835960  74.0224409  85.3488159
 108.3720493  52.9266500  69.8478317 107.7013397  53.0323601  69.1731358
 109.1511440  52.6440811  69.3688774   0.2901343  28.8498092  74.8133802
  -0.4134008  28.2565045  75.0765562   0.7573203  29.0427971  75.6262302
  93.7365246  67.2771072  36.2675357  92.9167461  67.2377729  35.7749438
  94.1647911  66.4403057  36.0870314   1.1565445  71.5357828  62.2854614
   0.2209393  71.5848637  62.0893335   1.5598933  71.2619257  61.4617252
 105.5802441  60.7253790  73.2270813 105.7346058  60.5185366  74.1488314
 105.8304596  59.9294901  72.7578497 114.2380238  61.4210749  71.5692759
 113.6464500  61.1613512  70.8630133 113.6601830  61.7578506  72.2540522
  92.5731850  76.6953945  44.9540186  93.4497929  76.6113377  45.3291464
  92.0032692  76.2378263  45.5721331 100.9182358  55.0562954  34.0525317
 101.6898727  54.8814344  34.5912623 101.0799980  55.9213543  33.6760521
   3.7226942  77.5533247  72.8621912   4.3279356  76.9745159  72.3986292
   3.8829210  77.3748064  73.7888479 104.5653343  55.3723001  62.5170088
 104.7090530  55.6461811  61.6111565 105.1374722  55.9405899  63.0326939
 110.4252625  81.7593861  51.1093283 110.8228588  82.6183891  51.2516928
 109.6391487  81.9416809  50.5945253   4.4682732  68.1490088  59.6874619
   4.6528590  67.4251747  60.2859879   5.0149822  67.9721403  58.9219189
 103.0646133  66.2729645  66.2879181 102.9293346  67.0441723  66.8385315
 103.6429596  65.7098484  66.8023539 107.0505714  95.1574326  37.8309441
 107.8970146  95.1039410  38.2746840 107.2487736  95.5580425  36.9845080
  98.7349606  51.1275864  74.8753262  98.1668377  51.8701744  74.6703434
  98.5230160  50.9070730  75.7823420  27.7261114  94.7606564   1.3982172
  27.8790045  93.8606930   1.1102474  27.1970701  95.1485634   0.7011703
  84.2962265  78.4388590  84.0351009  84.8457432  78.4186554  83.2516098
  84.9089050  78.5969543  84.7533417  79.0155125  49.2492199  50.1682091
  78.9629698  49.5055437  49.2474651  79.9136162  48.9372158  50.2790928
 114.3799973  82.0200443  73.9709234 114.9381256  82.7534580  73.7124443
 113.6315536  82.0673752  73.3760834 112.0097828  39.9075603  47.9281235
 111.5437126  39.9935579  48.7597561 111.4121151  39.4114041  47.3687983
 111.0289955  37.4651051  68.9380836 111.6036320  36.9108391  68.4100533
 110.6148624  38.0520606  68.3054590 108.7158871  54.1543579  53.4502268
 108.1969452  53.3899307  53.7003994 108.6821365  54.1641283  52.4936676
 102.9160976  43.6945248  47.3275757 102.2084618  43.1674957  46.9564819
 102.5213718  44.5534325  47.4782515  86.3372707  37.3921156  51.3513088
  86.7719460  38.0942822  50.8673239  85.4191971  37.6602745  51.3894987
 110.3181934 109.0909290  77.7762222 110.9959888 109.4512844  78.3480358
 110.0790882 109.8175240  77.2007990 112.5941944  67.0204782  53.1926441
 112.0012760  67.6039791  52.7191401 112.0158195  66.4566898  53.7063026
  92.7964020  48.1841278  42.9424191  92.0092487  48.2285261  43.4852314
  93.5078621  48.0313158  43.5642767 111.1524105  68.2364798  70.4264069
 110.6420612  68.8451767  69.8923111 110.6050110  68.0751753  71.1948872
  86.4902401  47.4021339  80.7203484  87.4384212  47.4626493  80.8366299
  86.2395096  48.2494354  80.3523159 102.6459217  65.9217691  45.1281834
 103.5256004  66.2189722  44.8956394 102.1915245  66.7157412  45.4098892
 105.4099751  50.4465103  30.2909160 105.2561951  50.9355927  29.4825959
 104.6348476  49.8932123  30.3872299 102.5004768  40.7645226  65.8758545
 102.6673603  41.4715862  66.4991045 102.0978069  41.1983824  65.1236200
 100.6554222  66.2717867  49.0083313 100.9722519  66.7715073  49.7607517
  99.7050190  66.2479734  49.1196394 117.1893978  67.4480200  71.6113186
 117.6758862  68.2720184  71.6354370 117.7243328  66.8390560  72.1204710
  17.6619518  54.0792418  21.9503403  18.4102654  53.6849689  22.3984551
  16.9849253  54.1415453  22.6241231 106.1062241  79.6458769  54.0634632
 106.5958500  79.0410280  54.6208239 105.4728127  79.0918350  53.6073160
  96.6676235  90.3146076  47.5890732  96.0326576  89.9015045  47.0039272
  96.8676662  91.1526871  47.1721315   0.7936388  55.9580374  71.7503786
   0.2959155  55.5786133  71.0261250   1.6606611  55.5585337  71.6803837
  -0.1172444  65.8492374  32.6932263  -0.3591480  66.3474464  33.4739304
   0.7260535  66.2156200  32.4270582 102.4316502  54.8411369  49.2801666
 102.6122570  54.0909719  49.8466158 101.8207645  55.3795767  49.7832775
  94.3873596  35.8484840  75.1832867  94.7563457  36.6827250  75.4733276
  93.4958744  36.0633874  74.9088573  83.3137226  37.7361846  57.8657818
  82.4039078  37.4696112  57.9977322  83.8286877  37.0431733  58.2790279
  98.9164448  62.6802206  47.6457071  99.4816589  63.4321022  47.4684000
  98.5440636  62.8588629  48.5092163 114.3954372  79.7927332  43.7646723
 114.4484806  79.1642618  43.0446434 113.5327530  80.1959419  43.6675835
 101.6838455  58.3012533  46.4682293 101.9802189  59.1445780  46.8105698
 101.7069530  58.4073400  45.5172062 105.8232307  62.4367714  55.7128429
 104.8699760  62.4115658  55.7958698 106.0872269  61.5167427  55.7032681
 113.1295490  79.0350628  40.2124500 113.7264633  78.4358311  39.7642970
 113.6793709  79.7770357  40.4642534 109.7358608  60.0457382  46.9975281
 109.0747929  60.6890631  46.7418909 109.6275520  59.3294573  46.3718748
 105.7584381  70.7868767  64.9689722 105.9203720  70.3964901  65.8278131
 105.1215172  70.2031994  64.5568037 114.5616055  75.5231905  62.5363350
 114.5269966  76.3628912  62.0781469 114.7340012  74.8813677  61.8474436
 102.8762436  41.6128016  24.9093533 102.4164963  41.1630535  25.6182885
 103.0427265  40.9292603  24.2602873  96.0176086  59.6492577  59.3101788
  95.0790215  59.6698475  59.4968510  96.3230705  58.8339138  59.7078466
  93.6437702  60.8142376  51.6465998  94.0954399  60.4957247  50.8650732
  93.6617947  61.7675114  51.5618563   7.4065751  71.0929632  40.3600931
   7.3074204  70.8485126  39.4399619   6.5155810  71.2803125  40.6554985
 100.2320957  54.3730736  58.3288527 100.7288933  54.4442415  59.1439342
 100.8604717  54.6033144  57.6444769 112.7023983  76.0515594  57.3251486
 111.9292450  76.5548182  57.5804853 113.4262753  76.4731121  57.7883148
 112.7796841  64.3271446  92.3686600 113.1910706  63.8546610  93.0923748
 111.8521214  64.0989590  92.4301624 111.2805080  34.2345381  49.8794746
 110.8528423  34.1909027  50.7347155 110.6042194  33.9619780  49.2593288
  98.7186050  87.3139000  84.6167660  98.4813786  87.1623707  85.5316353
  97.9351139  87.7020931  84.2273045   4.8907572  85.6502628  78.4651089
   4.9033231  85.3550148  77.5546646   4.9575689  86.6034603  78.4087372
  96.3584042  79.3839407  60.2845144  96.6499043  78.9401054  59.4881058
  96.0899830  80.2540016  59.9892521 100.4980469  61.8281746  59.6355343
  99.6818256  61.5423298  60.0457859 100.6244087  62.7228498  59.9514818
  91.9447517  72.4473286  44.8738718  92.4280071  71.7355299  45.2934504
  92.4208355  72.6129770  44.0601540 106.8740463  53.0418587  56.8005323
 107.2670078  52.4969864  57.4823856 107.1457863  52.6313400  55.9796429
  91.9244671  56.0397196  77.9471111  91.1543274  56.5378952  78.2208443
  92.0131016  56.2297344  77.0131540 110.2732086  62.9851246  54.0957451
 110.1103115  62.6284647  54.9689484 110.8556080  62.3482370  53.6817074
 113.2089996  64.2819595  75.1561546 113.7646675  64.8498821  74.6223688
 112.3856926  64.7629118  75.2403069 115.6129265  62.3942804  58.3842230
 116.1887932  61.6951084  58.6936951 114.9715519  61.9488716  57.8306198
 110.1490879  72.9203367  54.7779942 110.2037621  73.6498451  55.3952980
 110.8612537  72.3348618  55.0354242  95.8650875  72.0415449  29.1618443
  95.1158142  71.6908264  28.6803746  96.6192341  71.8488503  28.6047435
 117.3789978  94.3456936  23.4350085 117.4461079  93.4330273  23.1543612
 116.9407177  94.3033218  24.2849159   7.4369526  74.5333815  69.5221519
   7.2044325  75.3147221  69.0204811   7.2905684  73.8071918  68.9159775
  10.1560605  89.8731613  48.0208588   9.5431501  90.4415798  48.4872055
  10.2871537  90.3041172  47.1762705 113.5264111  69.7548246  69.0025616
 113.6861801  70.1674557  69.8513508 113.9003468  68.8778782  69.0883923
 114.1530800  64.0070486  48.5460758 113.4980965  63.7164831  47.9114103
 114.9925709  63.7947941  48.1381130 110.1575375  36.5889430  54.4861698
 110.4589272  35.7207417  54.2185497 110.8610725  36.9263124  55.0406599
  97.3424149  64.2784023  62.1778107  98.0635262  64.4948483  62.7689028
  96.5827084  64.7228765  62.5540066   9.0482569  59.6811628  54.7078037
   9.0170664  59.2640591  55.5687809   8.5282755  60.4784250  54.8089218
 110.2132130  79.7873068  54.8642635 110.3857803  80.7286930  54.8489285
 109.2592716  79.7180223  54.8264122 103.1420803  68.1615686  53.4220552
 102.3611450  67.8141165  53.8529205 102.9544067  68.0833244  52.4867010
  94.9549866  53.1444263  56.3431883  94.5106411  53.9752674  56.5120125
  95.5670643  53.0475950  57.0727205 109.7680855  56.8226767  46.7410135
 109.5366859  56.0164118  46.2798977 110.6755447  56.9915247  46.4875889
  94.5911503  37.6041460  68.3599281  94.7285271  37.2060847  67.5003290
  95.2297115  38.3161545  68.3989668  10.9341836  44.3568468  65.5114412
  10.3041327  44.5328856  64.8126698  11.7721617  44.6572924  65.1596498
 109.8871613  81.7507744  58.8811922 109.4833946  81.2112904  58.2013750
 110.7997799  81.4630032  58.9047623   2.5002337  86.0418510  52.6184416
   1.9162545  86.2913418  51.9022322   2.6965046  86.8652534  53.0653381
 105.4818916  58.4591198  44.9941444 105.4863358  57.8985262  45.7700014
 104.7075653  59.0113831  45.1021290 101.0379124  51.5263033  61.2081623
 101.4503098  52.3897076  61.1817646 101.7171001  50.9469175  61.5534782
 108.2343864  66.1820364  55.9725571 108.6410713  66.4759970  56.7876816
 107.5485229  65.5756950  56.2521553 109.0506172  82.3531914  26.8152213
 108.7627220  83.0405235  26.2144470 109.6195793  82.8035736  27.4394536
 108.6025715  74.1540813  64.0150642 108.4176636  73.4250927  63.4229326
 107.9129696  74.7921801  63.8319969 108.5791302  72.2828627  52.5216150
 107.9891300  71.5771389  52.7863455 109.1122055  72.4533558  53.2981491
 102.3438644  81.0392284  52.3077536 102.7702808  80.7916832  53.1281948
 101.7312431  81.7316723  52.5556469 112.1292400  80.9476757  43.5081100
 111.9939423  81.3318157  44.3743467 111.2857246  80.5531311  43.2866573
  90.2252197  60.0107384  75.9297752  90.8396149  60.7383966  76.0260010
  89.5633411  60.3352690  75.3191805 109.3070698  59.6162271  64.8062181
 109.4168377  58.7581778  65.2160168 108.4679699  59.9348974  65.1387644
 103.9612198  95.6957340  63.4562874 104.4779682  95.2054024  64.0956402
 103.3852768  96.2470245  63.9860010  81.4982700  68.9256191  94.6107960
  80.8691216  69.5864773  94.3215370  82.3428631  69.2427778  94.2909527
  90.1239395  51.2155390  79.5279884  90.1022911  51.9726801  78.9427471
  91.0345745  50.9214687  79.5055962   5.9909767  72.7697372  61.8429279
   6.0591763  72.1365976  61.1282873   5.9146982  73.6176062  61.4052820
  81.6874790  54.3385363  56.4455652  81.6913128  55.1475048  56.9572210
  82.2676373  53.7482595  56.9264174 106.7885780  85.9376621  77.9812241
 106.2113285  85.6954193  78.7053299 106.4011955  86.7362976  77.6229620
  94.2575264  50.6476831  51.7150259  94.3125534  49.7755861  52.1057272
  93.5352516  51.0723448  52.1778679 108.4289742  43.0109453  94.1767979
 107.8754425  42.2493172  94.3493080 107.9058933  43.5597849  93.5925102
 115.5893803  52.8033495  58.6470270 116.1531925  53.4801388  59.0215969
 115.0307178  53.2728386  58.0275869  90.6045341  49.5104408  53.8657141
  90.1162338  50.1976871  53.4124136  90.1085854  48.7102604  53.6925793
 109.5554447  74.2200279  28.7662363 109.4064713  74.9730921  29.3380165
 108.6797333  73.9581394  28.4820271 110.2474594  47.4319077  47.6880741
 109.3107033  47.4637079  47.4939108 110.3526211  47.9963589  48.4539509
 116.4816189  69.9523640  42.6733828 115.8240509  69.4146442  43.1146145
 115.9727097  70.5779743  42.1577692 104.2643070  46.6132736  60.0957537
 103.5028076  46.6126776  60.6757021 104.3396091  45.7065582  59.7983789
  90.4446602  53.5022497  77.9331017  90.2980232  53.7947083  77.0335484
  90.8396530  54.2573357  78.3690643  18.8574624  59.7538424  68.0706406
  18.9551151  58.8145494  67.9143715  19.0486240  60.1585579  67.2245359
 106.8000031  32.1618533  45.4692602 107.4853897  31.9182348  46.0914612
 107.1799564  32.8802681  44.9635458 110.3983974  18.0792701  33.5391188
 111.2446022  17.6677656  33.7147045 110.5363274  19.0052044  33.7387562
  12.1953833  63.9991713  44.5947647  13.0004764  64.3286657  44.9941254
  12.4662244  63.6888647  43.7307119 100.0350475  47.0368767  82.4848652
  99.6742344  47.4556398  81.7033958 100.2978230  47.7654505  83.0473232
   6.6839004  52.8355885  91.2341785   7.6257789  52.8472757  91.0639954
   6.5196544  51.9720316  91.6130161 102.9361343  61.9591331  50.7995749
 102.4293900  62.6430893  51.2373447 103.8486099  62.2195864  50.9252024
 112.7160454  54.8895359  54.5234776 112.0799637  55.5726624  54.3114138
 112.5046253  54.1717625  53.9265442   6.4575469  84.9005413  58.8971472
   5.9534764  85.3756809  59.5577478   6.3352245  85.4057598  58.0933905
 117.6230240  78.6232233  47.9402161 117.4761200  77.7721548  47.5274992
 116.8804359  79.1574383  47.6583958 113.3420467  56.5398836  42.7463245
 113.7782955  56.9636297  43.4854889 112.8411674  55.8260393  43.1410074
   5.1493323  85.1571178  51.9537210   4.2274421  85.3907967  52.0621014
   5.1306337  84.2845726  51.5606022 101.5493965  62.2899485  70.0258160
 102.1872902  62.8712368  69.6117783 101.3534927  61.6339970  69.3567991
  14.0859115  66.8144369  58.8278198  13.4625995  67.5244284  58.9815235
  13.5483134  66.0225868  58.8138676  14.7771358  52.8909588  74.5544624
  14.4199228  53.7493086  74.3267202  14.0254200  52.3984671  74.8840141
  99.8656273  68.4864616  79.5617390  99.3031883  69.2200661  79.3133163
  99.2838764  67.7263498  79.5570850  37.4749708 107.8632164   8.5832459
  37.9040289 108.3853912   9.2610860  36.9660425 108.4975815   8.0784678
  98.1692219  56.8509340  57.7993774  98.6034393  56.0135984  57.6364183
  97.7371693  56.7359686  58.6457443  79.8591185  49.9594259  80.2907944
  78.9110422  50.0226212  80.4064941  80.0551701  49.0318060  80.4224014
 104.1041851  44.5265722  30.6085467 104.1463566  44.4997168  31.5644407
 104.1791916  43.6109781  30.3396773 102.4343109  54.6569777  95.3891754
 101.9785404  55.2528429  94.7946644 102.1865654  54.9557209  96.2641621
   2.7565593  88.9901733  40.2133083   3.5644454  88.6442471  40.5926418
   3.0405766  89.4497871  39.4231725 104.8591805  83.2849121  36.9367051
 105.5342484  83.0875111  37.5859761 105.3266907  83.7388039  36.2355280
 100.5730629  71.2152052  62.1504545 101.2095070  70.5003691  62.1635628
  99.7316456  70.7897997  62.3156404 101.7387772  71.4481401  52.1941710
 101.3822174  70.9508896  52.9302740 101.6368771  72.3642540  52.4522161
  71.5501595  54.2234230  41.7477036  71.7838764  54.1814661  42.6749802
  70.5953074  54.1570711  41.7381239 109.1587925  65.7782698  71.6658306
 108.3096981  66.1521530  71.4302826 109.4076824  66.2361431  72.4687243
 109.1373825  62.7318335   5.4064977 109.0175056  62.5515079   6.3388842
 109.9465179  63.2413960   5.3631866  87.0005417  46.0878992  36.3859177
  87.8456020  45.9529972  36.8147659  87.1976376  46.6570807  35.6419969
  16.0830033  69.0300131  70.5986071  16.7884755  68.8276482  71.2130880
  16.4111769  68.7314796  69.7504234  16.8050134  86.3541603  55.7175589
  16.3149452  85.8207417  55.0918341  16.8782806  85.8028221  56.4965820
   4.9845979 108.0476570  61.1536646   5.0865448 108.7497330  60.5110693
   4.0838742 107.7453709  61.0372686  95.4755974  63.2852173  72.2074699
  95.4131126  63.7387848  71.3668728  95.9506798  62.4781799  72.0094299
   4.8879594  52.3592949  51.6634369   4.0262616  52.0048285  51.4442015
   5.3006852  51.6760349  52.1916819 116.5863800  63.5461664  62.0444775
 116.6864967  64.4905519  61.9247055 115.6409359  63.3997440  62.0138407
   2.0617470  28.7781024  77.0399904   2.6599377  28.0356240  76.9555712
   2.6262274  29.5486784  76.9782925 105.2546215  69.3694973  77.5786638
 105.7279873  70.0032473  77.0396662 105.8823967  69.1135693  78.2544184
  85.6016064  47.2139168  54.1898537  86.2204647  47.1047688  53.4678268
  84.9981308  47.8926325  53.8875341  78.1956005  50.2946854  38.5658622
  77.8450966  50.6535435  37.7506351  78.2998896  49.3594694  38.3905697
  12.4548960  42.7614164  47.3646212  11.7067981  43.1370211  47.8288412
  12.0967889  42.4771261  46.5236902 100.6484222  58.0103159  70.1501751
 101.0119152  58.5980988  69.4878960 101.2105751  57.2362566  70.1178932
   5.7487828  47.3803711  72.2079086   5.7668746  48.3151531  72.4130726
   5.1699990  47.3129892  71.4485025 119.1221142  38.3565927  50.1496983
 118.3409405  38.1228089  50.6510496 119.8530388  38.0776048  50.7011938
   2.0534572  41.5183592  72.7946234   2.8939131  41.5314436  72.3366976
   2.2750355  41.7034721  73.7072372 109.8133183  58.8343525  72.8619432
 109.9711704  59.0482187  71.9423914 110.5174637  58.2277918  73.0910635
 110.9689999  46.2356472  14.7686315 110.4446125  46.8990612  15.2171123
 111.3864899  45.7426023  15.4749179  23.2740545  42.1113873  58.6221313
  22.6330066  41.9098806  59.3038082  24.0865278  41.7108393  58.9314508
 102.3012638  73.3032274  58.4782267 102.7446270  72.4609613  58.3769894
 102.5553131  73.8024473  57.7020359 108.0150127  66.1622524  80.8019257
 107.8436756  66.5085411  81.6776943 108.8901615  66.4832544  80.5844307
 118.5701656  75.8727026  67.8575993 118.0864429  75.0603628  67.7081347
 118.4433937  76.3781548  67.0546818 117.8257084  49.1173792  45.0883818
 118.2481480  49.7937250  44.5589113 116.8888474  49.2889786  44.9931049
 103.6849022  68.9031935  55.9665823 104.5951462  69.1973686  55.9329176
 103.4878349  68.6310387  55.0702953   3.6742356  59.6623707  48.6317301
   3.3099827  59.0362883  49.2574883   4.5998037  59.4267082  48.5683393
  99.9295616  76.9604445  81.6853809 100.5805111  77.6599646  81.7417240
 100.3127289  76.3248205  81.0809040 102.0387745  38.3437467  51.7477894
 101.6379070  37.4961352  51.9403839 102.9702377  38.1498528  51.6428089
  81.4482021  55.0179052  83.9810371  81.9041061  54.1823339  84.0820789
  80.5333328  54.7757626  83.8375282 101.1566353  49.8657608  56.0697889
 100.6076908  49.1654444  55.7170105 100.5382729  50.4735947  56.4752388
 116.0513973  68.0472517  57.8014851 115.2294350  67.6838541  57.4720001
 116.1105061  68.9122343  57.3958492  96.0158730  61.8973589  63.7983370
  95.9040070  61.7547560  64.7382212  95.2652836  62.4354410  63.5467196
  13.8286138  52.8042936  57.1295929  14.5784783  53.2580471  57.5143576
  13.2249856  53.5052299  56.8835306 113.0358028  59.2286158  75.3031445
 112.8249359  59.9316931  74.6887779 113.0716324  58.4401131  74.7616577
  96.3984299  76.8262053  43.9811993  96.1915207  77.6319838  44.4546318
  97.3550320  76.7992830  43.9608335 118.6847305  86.6791153  78.5563517
 117.9495621  87.1338272  78.1452608 118.2935429  86.2070179  79.2914248
  16.8808317  69.0065813  58.1086683  17.3275268  69.3140364  58.8974428
  17.5724578  68.9467764  57.4496460   7.2175175 101.7965317  88.5890579
   6.5766668 102.2505283  89.1362572   7.8939217 102.4519730  88.4184551
 103.2127666  77.6029301  33.4487295 102.8781509  77.4282408  32.5690985
 104.1396999  77.3684978  33.4033084 117.2779369  65.4984951  66.6976547
 116.8738556  64.7773838  67.1802998 116.7000866  66.2452793  66.8546104
 117.0271778  94.5130920  70.0399685 116.2361622  94.6704960  70.5554676
 117.5055218  93.8463688  70.5328178 102.2982025  73.9719009  86.8875408
 102.8817081  73.2578897  86.6307640 102.7555466  74.4082546  87.6063347
 105.4968834  62.2411108  61.8881130 105.6832504  63.0407667  62.3800898
 104.5761108  62.0555735  62.0724869 108.3588886 106.7314243  65.7809639
 108.1223583 105.9282017  65.3171539 107.5417995 107.2272778  65.8332348
   2.2544020  59.9403572  17.4524605   2.1598502  59.6497297  16.5453613
   2.0346494  59.1691875  17.9751825 110.6168079  84.4426632  58.2450962
 111.0407352  84.3841743  57.3888826 110.6556892  83.5517693  58.5929728
   2.2278740  85.9381676  72.4214411   2.6619244  86.6455650  71.9445515
   2.8586975  85.2183533  72.4086046  92.8706646 101.1993790  70.4150534
  93.6653709 101.2935066  69.8898697  93.0668640 101.6597843  71.2309933
 112.8649139  77.3519850  63.6910915 113.1994343  76.4849234  63.4618902
 111.9910336  77.1858072  64.0445805   7.4037969  92.3333073  89.8610306
   7.6310980  92.9848099  89.1976166   7.3994619  92.8213787  90.6844330
 103.2059860  66.7219639  76.0645199 102.3025322  66.5168667  75.8238125
 103.5217667  67.2814846  75.3549814 114.4337654  65.1895809  72.4120855
 114.3990612  66.1243725  72.2091150 113.5218906  64.9014854  72.3706579
 106.4257336  87.1583080  52.0744944 106.4738464  86.2152004  52.2309208
 107.1953392  87.3518753  51.5392637  14.5269156  73.3050966  51.0312843
  14.4620824  74.1795635  51.4151287  14.8234177  72.7487469  51.7515564
  93.4345436  48.0207729  60.1435518  93.0337906  47.1693754  60.3189278
  92.6933670  48.6100292  60.0033140  12.2660732  89.0620327  65.0003576
  12.3737895  89.4852543  65.8521271  13.0663204  88.5497665  64.8845339
   2.8660092  62.7574921  80.0684738   2.0411387  63.0178833  79.6585751
   3.3146772  62.2425842  79.3978024  14.1331923  63.8745499  64.3997097
  14.8452711  64.0105343  65.0247574  13.3379698  63.9090109  64.9313688
  26.1827207  86.4985275  82.8398132  27.0983720  86.2996960  83.0354786
  26.1852050  86.7557526  81.9178295   0.7232144  59.1403198  57.6603031
   0.5873052  58.3993721  57.0697403   1.3214898  59.7178555  57.1862221
   5.4539526  55.0948811  62.2949743   4.6641195  54.5657110  62.1837330
   6.1694050  54.5151997  62.0335722 106.2377644  63.2294416  71.7468834
 105.9338856  62.3953342  72.1048641 105.5414772  63.8501549  71.9616842
 104.3244553  58.8954639  38.7919760 104.6725368  58.0836487  38.4231639
 103.5247517  59.0617085  38.2929015 107.8291798  95.7223320  57.4945068
 106.8921947  95.7318020  57.6899242 107.9342842  95.0137424  56.8596172
 106.4407349  67.8629255  63.2417297 107.0489693  68.0267954  63.9624500
 106.9380474  68.0827713  62.4539566  91.4608955  59.7085524  72.4989319
  92.3613644  59.6351910  72.1826982  91.4120579  60.5845547  72.8816319
  38.2925630   1.2111270  27.9944158  37.8952146   0.7036075  27.2867656
  37.6498294   1.1781184  28.7029624 108.6859417  88.1532574  50.7188988
 108.8518238  88.9465904  50.2096605 109.5566750  87.8032112  50.9074163
  89.6015263  61.6206980  91.6395187  90.2082729  61.0923052  92.1580696
  89.2888069  62.2913504  92.2467041 104.3643475  70.0054359  37.6947498
 103.4845066  69.9335527  37.3246908 104.8169518  69.2185831  37.3910308
  98.5985184  98.1631184  35.3108931  98.2770348  97.2649479  35.3894687
  98.8292599  98.2549095  34.3864632  44.3114376   0.6606318  74.5787859
  43.3550882   0.6551194  74.5387411  44.5754528  -0.1294789  74.1073513
  94.9159718  72.4428511  71.9753599  95.1620197  73.0581760  71.2846613
  95.2502632  72.8395605  72.7797890 117.6598358  86.6257095  49.9912834
 117.4951363  85.8824444  49.4110680 116.9982719  87.2724438  49.7457409
   5.4339558  62.8407526  46.5752459   5.8059847  62.1749926  47.1536827
   6.1930794  63.2406521  46.1509275  95.2030945  70.7939768  36.0749292
  94.7979927  71.2052536  35.3114009  96.1397457  70.7928991  35.8776569
   8.8932794  82.2535610  49.6841192   9.4874614  82.6289654  49.0343142
   9.4227922  82.1789742  50.4780245   0.5891821  53.4884596  52.9672480
   0.0222957  54.2022181  53.2595110  -0.0003040  52.7414465  52.8637695
  98.5527611  60.7418442  55.5309582  98.1729889  61.3779688  54.9248648
  97.8038788  60.2380562  55.8497143 115.3598022  49.7318792  51.4887476
 116.2187958  49.8417044  51.0809374 114.7362900  49.9561739  50.7979870
 110.1685715 104.3506622  44.3108702 110.4620552 103.7783051  43.6019945
 110.9241962 104.4153595  44.8948908 105.0018120  83.4433174  48.5416222
 104.7495556  82.9759979  49.3379879 104.1789818  83.7896252  48.1963110
 106.2337399  56.1468124  74.7833490 105.6371975  56.8819046  74.9248028
 106.4871979  56.2177086  73.8630390 109.7356987  94.2173004  40.8930635
 110.2976036  93.4912109  41.1637640 109.0268898  94.2243385  41.5363121
 102.2138405  49.0326881  59.5785284 101.3927841  49.5177126  59.4957972
 102.0753574  48.2377529  59.0636110   2.3660548  65.4905081  62.3785782
   1.4313757  65.3369617  62.2406244   2.7805012  65.1861286  61.5712261
  94.1499901  90.8857059  26.5734029  95.0314713  91.2365055  26.7005205
  93.8413620  91.2997246  25.7674432 118.8900375  75.7969904  57.8049898
 119.5208359  76.4581108  58.0900192 118.0723095  76.2806892  57.6884460
   1.1188680  78.0410624  61.3801670   0.3086339  77.5450611  61.4973545
   1.5557568  77.9904747  62.2303438  14.5457411  67.0220804  39.8161483
  14.8535907  67.9216337  39.9268985  13.8504517  67.0857811  39.1613603
   6.1409241  80.4747868  66.7784691   6.8597883  79.8777771  66.9859409
   6.1806214  81.1440277  67.4616814 110.1661682  88.7269497  65.3327370
 110.2280140  89.2154121  64.5118713 110.2057457  87.8079033  65.0681210
  95.6940556  81.9857788  79.2533112  95.6841946  81.3179302  79.9389601
  96.3434124  81.6728878  78.6234999   8.5734069  85.9311581  69.2830849
   8.4851575  85.1486969  68.7388468   8.4864330  86.6607094  68.6695528
 116.8138981 110.6868935  80.1074028 116.7711735 111.6197300  80.3176880
 115.9106541 110.4462051  79.9013519 105.6343460  96.9544411  73.3994389
 104.9703121  97.5558186  73.0623484 105.1419449  96.1768246  73.6622620
 101.8469429  64.8786545  57.4922514 102.3104095  65.7151461  57.4508953
 101.8429852  64.6527624  58.4224081 111.8073940  68.2597923  62.0012808
 111.9363880  67.3182583  62.1157885 112.1441650  68.6476612  62.8089809
   3.2599616  65.2231407  77.1541357   3.4269196  65.0645542  76.2250471
   2.7200696  64.4825411  77.4302912 109.9781609 106.8671513  58.6577320
 109.5669460 106.0085106  58.5583878 110.8898544 106.6724205  58.8748026
  15.9682906  72.1977377  46.1802721  15.0735533  71.8915510  46.3283539
  15.9136808  73.1492090  46.2694407 100.2948570  91.0145187  55.2944565
 100.9176922  91.6613674  55.6259584  99.6064091  91.5350819  54.8805952
 114.9349785  76.6963339  58.5888910 115.0716019  77.1629095  59.4134378
 115.4785061  77.1650553  57.9555559  99.2066002  73.3106041  76.8504333
  98.8609219  73.7444878  76.0703802 100.1134396  73.6112165  76.9096899
   1.2464771  80.0069618  42.6064205   1.7077810  80.2298355  41.7978668
   1.8865824  80.1681805  43.2996035 100.1396465  64.1765118  73.9169359
 100.9752941  63.7741995  74.1537476  99.8244953  64.5705605  74.7303438
 113.5597134  82.9123402  68.9440727 114.0930843  83.7063503  68.9081097
 112.6685810  83.2289124  69.0920448 116.6208553  60.0901222  71.0014725
 116.1106777  60.8878326  71.1415100 115.9661961  59.4160986  70.8188629
   9.1521925  50.6636810  51.2216187   8.7237763  51.4327335  51.5974569
   9.8600894  50.4610348  51.8332148 107.5482559 105.6583118  55.1819324
 107.5511074 104.7061443  55.0839090 107.9095840 105.9849930  54.3579483
 106.5343666  60.3743076  76.1538363 107.2479057  61.0111952  76.1921787
 106.9717026  59.5317650  76.0309744 105.7688618  74.4569969  69.3927383
 105.8581734  74.5541525  68.4446764 106.3171005  75.1517582  69.7573996
 108.4780693  79.8583937  57.5030327 107.6928329  79.7714281  58.0434752
 108.1979656  80.3889942  56.7572260 109.6089172  94.5714378  38.3323193
 110.3597164  93.9785385  38.3007693 109.4089031  94.6552277  39.2646313
 111.7330551  53.3009291  64.6847534 112.1634579  53.4651566  65.5238104
 111.2017918  52.5193834  64.8370028 109.8313332  51.2909317  65.0143862
 110.0615215  50.5741119  65.6054974 108.9679050  51.5783072  65.3112507
   5.3936368  58.1738472  64.4930172   5.2597231  58.4594154  65.3967571
   5.5886781  58.9791489  64.0137720 104.6936989  82.9691696  87.7734852
 105.6142616  83.1072140  87.9965305 104.2288971  83.0648232  88.6047745
  12.4946415  60.4369926  57.3768282  12.1120703  61.2667942  57.0916891
  11.7504549  59.9281597  57.6985550   3.9069816  71.3193417  66.3112068
   4.5389676  71.8375826  66.8094587   3.4317753  70.8188105  66.9744396
 102.4289894  77.6803589  58.1344175 102.7980423  77.3781681  57.3045349
 102.0568180  76.8930960  58.5318422 100.9406471  76.1679363  59.8575354
 101.0588932  75.2575493  60.1285410 100.0499249  76.3858080  60.1321125
   3.7247103  60.7535267  60.7069397   3.7457058  61.3086462  61.4864492
   3.0911961  60.0677824  60.9182453 114.3129158  57.0998859  37.4199367
 113.6483765  56.7430639  38.0092645 113.8151550  57.5957489  36.7698717
  91.2493896  88.6319160  44.1802406  92.0640945  89.0234566  43.8653040
  91.4219666  87.6904106  44.1841269 116.4699841  86.7046070  52.4067688
 116.6033077  86.4484501  51.4941692 117.0338917  87.4688339  52.5258589
  94.5258904  95.4978275  47.8805065  94.3362427  95.4232216  48.8157606
  93.8074875  95.0320339  47.4525356 110.4176235  89.0986252  53.1433439
 109.5562649  88.7313366  53.3418465 110.4504395  89.9152088  53.6416817
 102.0731735  77.9062223  75.2848291 101.3236427  78.3484221  74.8862028
 102.6375389  78.6175013  75.5878305 104.9458885  63.0231571  78.6568069
 104.1684151  63.3828831  79.0838432 105.6190872  63.0330992  79.3372107
 114.5994759 101.3743305  60.4361200 113.6548901 101.5240955  60.3965712
 114.9857903 102.2242451  60.2248573 101.5286446  72.7646065  72.7525568
 102.1748352  72.6666784  72.0532179 100.6908226  72.8395319  72.2957468
 116.9104862  63.2611227  50.9955454 117.3273659  62.4359608  51.2436533
 115.9761620  63.1098652  51.1383533 112.1511555  88.7702179  46.4211893
 112.0118713  87.8243160  46.3754082 111.9486713  89.0850449  45.5402136
   9.4130504  88.6953735  21.5685105   9.8606300  89.4284630  21.9909763
   8.4828120  88.8646603  21.7176056   2.3767188  71.8205261  52.9429865
   1.7390019  71.7070770  53.6477375   1.8648320  72.1609497  52.2092819
   3.4569275  63.0027008  52.1294594   3.2670134  62.2703362  52.7158117
   2.8909963  63.7100554  52.4386597 108.4068203  59.3780470  25.0191522
 107.8807163  59.7967386  25.7004309 109.3090153  59.6154499  25.2334428
 106.5766335  94.5654488  90.5924320 107.4401760  94.7264671  90.2121639
 106.7595768  94.1460514  91.4331818   5.9148026  89.6142292  71.4987087
   5.9007478  90.3905964  70.9389782   5.3504306  89.8414803  72.2376728
 112.4308586  57.0554161  45.8632469 112.8619957  56.2182426  46.0349846
 113.1178284  57.6059723  45.4874945   8.5340118  87.4982166  83.3604050
   8.8798279  88.3566380  83.1159496   8.0202168  87.2220039  82.6014900
 104.7144699  56.3077211  50.2063084 104.3969822  56.5630484  51.0724735
 104.1217899  55.6085157  49.9304914 101.6720676  73.8050222  67.5777054
 101.7118454  74.4015408  66.8301678 100.8070564  73.3999729  67.5151491
  66.5690184  43.7462997   5.6070870  66.7536402  43.1732082   4.8629683
  66.5135956  44.6227884   5.2263951  71.5231228  16.7040324   2.8755417
  72.1223688  17.3730838   2.5446263  70.6694841  16.9494879   2.5187767
  95.8590698  75.4192305  86.3771248  95.4855537  75.1549482  87.2178841
  96.7148876  75.7855988  86.5998077 101.3120461  93.1056309  61.4296293
 101.5361977  93.8740826  61.9544840 100.5025959  93.3498859  60.9808969
  19.2039847   2.8186548  62.4914217  18.2917333   2.5562158  62.3683119
  19.6359611   2.0331949  62.8271008  16.0578251 105.5962086  59.7910595
  16.5696919 105.8807659  59.0339279  15.3157783 105.1231956  59.4144201
  93.9735222 109.9884796  63.6036730  94.1195107 109.3938732  64.3394518
  94.2565727 109.4927597  62.8353167  89.6062946  53.9356184  46.0233021
  89.1905022  54.2776537  46.8147326  88.9012623  53.9046478  45.3766108
   6.2241650  88.3127403  63.3477592   5.3836268  87.9164791  63.5773325
   6.1192453  89.2392349  63.5641813 114.7556210  82.5485134  80.9950638
 114.8171616  82.1091652  81.8432522 113.9663792  83.0861378  81.0605145
   5.3021228  86.8719959  60.5879641   5.3871882  87.3636913  61.4048100
   4.3841177  86.6018295  60.5655289 110.7389164  69.1136837  37.7786279
 111.1763763  68.3301020  38.1115842 111.4537525  69.6977854  37.5254989
 111.7232990  95.3052425  49.3864441 111.4407635  95.8569527  48.6570454
 111.1788273  94.5209217  49.3184042 111.2577057  79.5718718  78.0096769
 110.3934479  79.8853779  77.7432060 111.2591267  79.6550131  78.9632559
 111.0205460  99.4198990  39.2589521 111.9534302  99.2331696  39.3642402
 110.9941959 100.2209854  38.7357068 111.6844940  86.4051819  67.5639534
 111.6066265  86.3973045  68.5179472 112.4397469  86.9668961  67.3899221
 105.1682472  94.8604965  56.9599295 104.4435024  94.7655964  57.5779676
 104.7690201  95.2459908  56.1800241   6.2406969 109.6097946  63.0410719
   5.6761158 110.3827190  63.0332851   5.8455247 109.0180779  62.4007988
  89.0054321  12.7621031  34.5403099  88.0617332  12.7808571  34.6994042
  89.3664074  13.3896244  35.1665235  72.0704556   1.2344002  59.4387341
  72.6504946   1.8898162  59.8263168  71.2960958   1.7287838  59.1700602
  64.3095493  19.2181408  33.5093379  64.4734955  19.1136265  34.4465852
  63.7538099  18.4736347  33.2789159  56.2649536 101.2384319   6.6994125
  55.3371525 101.4317322   6.8337667  56.3471508 100.3064346   6.9015652
  68.4646940  21.6861510  56.5812922  68.5714102  20.7349920  56.5930462
  69.1287756  22.0092177  57.1902704  42.5642872 110.8739281  27.7507949
  41.6800022 110.7449436  28.0937767  43.0731535 111.1698246  28.5056043
  75.9621477   7.0255548  53.8867855  76.6115761   6.3356447  53.7507772
  76.0947657   7.3040593  54.7929192  34.1270852 102.6944065  38.5475707
  34.9339986 103.1392288  38.8068986  33.4753466 102.9909134  39.1828299
  76.7731285  39.2616487  53.1404972  77.2345734  39.3197465  52.3038864
  76.1619282  39.9982142  53.1285667  72.5514555  32.9170442  44.1557217
  72.0958281  33.7587881  44.1455555  71.8874121  32.2886658  44.4393015
  40.0214624  88.7118053  50.1232576  40.3886032  88.9182854  50.9827948
  40.4350710  87.8839397  49.8787260  66.4824677   5.0100332  44.4471693
  66.1635017   5.5101132  43.6958981  67.4181795   4.8972434  44.2799854
  12.5318158  48.1772089  95.9695244  11.9377029  48.7983322  96.3908005
  12.8044021  48.6155558  95.1634407  48.6659956  93.9567852  31.9849539
  47.8939533  93.3920765  32.0208645  49.0195560  93.9359379  32.8742170
  70.5682182  14.6078825  57.9237556  71.5134525  14.4670665  57.8695536
  70.3262949  14.2788243  58.7894487  33.6898375  96.1973667  40.6793070
  34.6085882  96.3703918  40.8847141  33.5529780  96.6108990  39.8269629
  91.7684364   4.3677822  26.4838624  92.2507858   5.1302421  26.8035841
  92.1848488   4.1537485  25.6489849  94.4320202  23.6181760  36.4195704
  94.9241829  23.5691500  37.2390819  94.0328217  24.4880772  36.4316010
  84.1979504  14.5304060  44.0644884  83.9122105  15.1876318  44.6990252
  83.3874130  14.2153358  43.6645174  71.0661077   1.3080356  34.8055291
  70.6822062   0.4846860  34.5039511  70.8425093   1.9407538  34.1229582
  70.5041170  19.5825481  46.2802029  69.6432352  19.9969816  46.2222147
  70.3544903  18.6794186  46.0005569  73.0808592  19.0425551  47.2990990
  73.0722952  18.2983506  47.9010296  72.1889830  19.0815461  46.9537449
  85.4688549  12.4604535  38.5818720  86.0457325  12.3594189  37.8247428
  84.7776699  13.0495405  38.2794356  73.0580616  26.2118697  50.0536871
  72.6080275  26.1670423  49.2100668  72.8156376  27.0668387  50.4093409
  65.8925486  15.9171617  45.2036381  66.7702055  15.5355287  45.1861238
  65.9093285  16.5224743  45.9449482  41.0146284 111.9905186  59.3700886
  40.7185555 111.4131165  60.0737810  40.2566195 112.0706272  58.7910938
 100.8407497   8.2961583  15.3831565  99.9174786   8.1285155  15.5720925
 100.8705235   9.2201859  15.1351285 110.1066780   2.5808892  41.5214348
 109.8856258   1.6535839  41.4349985 110.9963417   2.6483500  41.1747694
  82.4812698  36.6388035  48.1482649  83.2718468  36.2524152  48.5249901
  82.4208260  37.5037861  48.5537052  72.5329733   8.5980898  45.6668901
  71.8644238   9.2745048  45.5585575  72.8914928   8.7534553  46.5407085
  65.8153629  19.0087545  46.3247919  65.8920145  18.2802653  46.9409609
  65.4200888  19.7146094  46.8364191  57.5931931   2.2496668  21.7454219
  57.2557926   1.5365268  22.2874784  56.8821573   2.4431993  21.1345124
  89.6131802  18.6018455  77.8680134  89.2313671  17.7714419  77.5836229
  89.5772076  19.1604018  77.0915127  40.9487963  93.1918716  56.2010574
  40.0341749  93.2676792  55.9291029  41.4502478  93.4759331  55.4368019
  65.5636215  24.9415588  47.7652264  64.8499346  25.5789351  47.7401114
  65.7298565  24.7317910  46.8462086  54.7526407  99.5190144  28.4382939
  54.1456747  99.2822266  27.7370381  54.6086407 100.4555988  28.5736132
  86.1102772  16.7023492  31.7528200  86.1839962  17.4773884  31.1959457
  85.8720589  17.0474529  32.6132798  41.2029600   9.6696442  38.8052750
  40.2473927   9.7231394  38.7892175  41.4111948   9.3691367  39.6899009
  35.9072113 112.2902107  46.2010002  36.5812492 111.8555546  45.6785250
  35.5504727 111.5969467  46.7563057  69.8338079  33.4315467  16.8840683
  70.1046085  34.3224096  16.6621184  68.8827372  33.4363866  16.7760324
  73.7903118   5.5729151  28.5523415  74.3752098   5.4618847  27.8028083
  74.1536474   6.3177037  29.0314126  58.1940413 111.5708828  34.6296191
  58.6514235 112.1696663  35.2199507  57.6746368 111.0134888  35.2090669
  88.1687546  13.4734797  62.9416227  88.4439945  14.3592548  63.1780100
  87.4190521  13.6026442  62.3606777  86.9302177  22.5387979  59.8183489
  86.1827278  22.5509381  60.4161406  87.6435566  22.9349709  60.3187656
  87.4137020  18.2096565  38.8255525  86.6319180  18.7412858  38.9752316
  87.0940399  17.3074162  38.8288093  68.9491415  30.9952855  42.8094912
  69.0996408  31.9326830  42.9314375  68.6527252  30.9162593  41.9027805
  84.2510796  10.1281631  53.6853266  85.1200867   9.8715669  53.3767748
  84.2659283  11.0851848  53.6743069 115.0847149  11.5116334  34.8739100
 115.5735016  12.2725868  34.5604300 114.7889328  11.0719573  34.0767694
  71.6682529   3.6845186  53.9060211  71.5710497   3.6928236  52.9538059
  70.9355831   4.2107642  54.2261648  94.6266270  12.5011563  41.8035507
  93.7552834  12.1491838  41.9854927  94.4803905  13.4342968  41.6483212
  81.8643665   7.0987159  29.5590186  81.7147827   6.8893820  28.6370444
  81.5705490   6.3201994  30.0321126  98.3050346   6.0264629  37.4017262
  97.3897362   6.0661632  37.6790261  98.2712746   6.1218071  36.4498854
  78.7093687  40.0966883  65.4461193  79.3314409  39.5031261  65.0254679
  77.8645515  39.6536994  65.3668690  69.1258955 111.8407917  17.8810477
  69.9574995 112.2858047  17.7178562  68.9720058 111.3233280  17.0906162
  80.7673836   5.9113097  27.1364570  80.3115749   6.7356712  26.9664669
  80.0946140   5.2389938  27.0287061  73.3163786  15.2192497   7.7749652
  72.6823425  15.9322393   7.6983273  73.2099390  14.7162580   6.9675618
  93.8793564   7.3175532  57.7431297  94.2888355   8.1703013  57.5969124
  93.1897163   7.4897820  58.3841944 103.1748676  17.3119414  64.3871498
 102.4745274  17.8355038  63.9977455 103.3859444  17.7639854  65.2040577
  61.7723751 109.3220425  24.4685197  61.3529253 110.1308537  24.7619867
  62.4694395 109.1686630  25.1063347  53.8168192 105.3827953  51.4200306
  53.9258766 106.1517525  50.8605242  54.0824127 105.6801510  52.2902393
  92.2654438  30.0228930  49.2904139  91.6571140  29.9088931  50.0205994
  91.7175198  30.3291202  48.5677576  24.2423820 105.0526428  28.1678510
  24.0943909 105.9904861  28.0462790  23.3706141 104.6914387  28.3284235
  70.8723450  12.6055372  23.5949755  71.4345646  13.3794260  23.6302018
  71.4735270  11.8678510  23.6980844 104.5037174  16.1935246  74.2923069
 104.1954136  17.0898163  74.1587353 104.4923306  16.0753620  75.2421188
  95.5592728  23.6810565  57.7614927  96.0839653  22.9269099  57.4928093
  95.5204487  24.2356515  56.9822979  49.3370438 105.3956509  44.8181629
  49.0463591 105.1710129  45.7020569  50.2412224 105.0841999  44.7769880
  77.1087027  35.6893134  31.3247800  76.6473627  36.2917018  30.7412338
  76.9084692  34.8197675  30.9783316  83.4798336  24.2665768  54.6099043
  83.7789059  24.9892592  55.1617336  82.6617432  24.5814633  54.2254448
 103.8705540   2.5010547  51.3310909 103.9921761   2.1459651  50.4505491
 104.3641853   3.3211508  51.3289213  27.4597263  95.8938217  33.5106516
  28.0804682  95.9802532  34.2341447  27.4546504  96.7561054  33.0951118
  76.0618496  20.7726216  66.6799688  75.9874487  21.1691189  67.5480032
  76.6833973  20.0541878  66.7972898  66.7487240  31.1627936  60.5891657
  67.1033573  30.3667331  60.1932478  66.8903351  31.0466051  61.5286779
  29.1720963 106.8870354  65.5532360  28.3774924 106.3615608  65.6465769
  29.8828769 106.2460709  65.5395222 103.2252884   6.3061088  50.1000118
 102.3066711   6.3899511  50.3556538 103.7130642   6.4365280  50.9132099
  20.1477695 111.0818005  49.3882179  20.7615185 111.1778450  48.6599922
  19.5407736 110.3994751  49.1014767  93.6896801  28.1823254  74.3715382
  94.1163921  29.0143895  74.5760489  92.7890587  28.2938337  74.6759701
  75.4808044  14.4134140  27.9210496  76.3803530  14.6916699  28.0931520
  75.0466871  14.4662941  28.7725043  81.8509293   1.9845410  52.2899961
  82.3264217   2.3701520  53.0258274  81.9884682   2.5979012  51.5681219
  80.2182770  11.9505835  43.8323402  79.3709755  11.5497541  43.6383200
  80.8170700  11.5668941  43.1916666  74.1148043   1.4172152  39.8547101
  73.1862831   1.6235878  39.9619269  74.3901730   1.0986548  40.7143164
  33.1461024 102.0740700  48.0607843  32.4395132 102.4723530  47.5525188
  32.6979780 101.5735817  48.7426376  97.1867371  29.3848038  35.1419854
  98.1428528  29.4292736  35.1510787  96.9708538  29.0488839  34.2720532
  94.0348339   1.1179455  40.1486731  94.1686630   1.9854540  40.5304432
  94.7102833   0.5722328  40.5514145  71.8770075   8.6381352  67.8339863
  72.2888994   9.2268384  68.4664440  71.9550371   7.7697390  68.2289934
 112.5019836   6.9823802  49.7728777 111.9924450   6.6070354  49.0547466
 111.9579983   6.8471557  50.5487776  83.1107807  44.3215370  45.1365471
  83.2208252  43.4862518  44.6822071  82.2695732  44.6549654  44.8244143
  24.4459343 101.7298603  61.5653658  24.5781016 101.7319489  60.6173325
  24.3671370 100.8037567  61.7941713  46.3644314 100.4710960  50.4582453
  47.1212435 100.3796577  51.0371304  46.6828346 100.1877308  49.6011829
  88.5804081  27.8989482  39.5080423  88.4700680  27.5331807  40.3856945
  88.0697632  28.7084723  39.5199990  74.1700697   3.7212950  30.8480954
  74.1665888   4.6774116  30.8027029  74.9928236   3.5053456  31.2870431
  73.9289474  10.9625459  51.6519165  73.2320404  10.6878054  51.0560417
  74.0266752  10.2299285  52.2601557  88.5669708  11.4589381  50.6240892
  89.3857098  11.8280447  50.2929306  87.9221725  11.6593957  49.9456549
  58.4702015 106.1223316  57.0952892  59.1516256 105.6425095  57.5661087
  58.9052343 106.4425755  56.3050890  65.5380630  32.2827435  13.5175097
  66.1863136  32.1125245  12.8341162  65.1541758  33.1264424  13.2786870
  53.8100433 111.1935425  65.0342321  53.2944489 110.7993793  64.3306446
  54.7109270 110.9289646  64.8481131  54.0196753 111.3549232  57.1802950
  54.6718025 110.7784939  56.7819309  54.2994976 112.2373772  56.9369745
  23.5742521 104.6722317  41.0323858  23.7513447 105.0787735  41.8806744
  24.3511510 104.1423321  40.8538866  82.6612568  12.8744388  32.0569825
  82.1898651  13.6281037  31.7020106  83.5130596  12.8976440  31.6209364
  70.8130884   1.0633285  14.8870099  71.6589689   0.7845416  14.5362985
  70.7923126   2.0087934  14.7390342  99.2863655  16.4248192  21.9964814
 100.0455093  16.0457075  21.5535402  98.5886002  15.7822561  21.8681455
  29.4739103  93.0841064  64.0961075  29.7880602  93.9524364  64.3482018
  30.1990342  92.4962521  64.3078995  77.7732277  24.5997596  63.2093906
  78.1039858  23.9728236  63.8526535  78.4060812  24.5634198  62.4921656
  57.5600529  93.2806587  59.7832012  57.2450352  94.1818905  59.8523521
  57.9585505  93.1002426  60.6345940  34.3438125 104.3690586  49.3175888
  34.5974827 103.4477043  49.2630339  33.9684892 104.5653820  48.4592009
  76.2034702  31.5411305  38.0373168  76.0549355  30.7647681  37.4974751
  76.6862679  31.2157512  38.7970972  91.5811825  35.6338954  49.1310072
  92.0584965  34.8527813  48.8512564  90.8068657  35.2936983  49.5792627
  40.2879715 107.0733070  49.8741150  40.8017445 106.5665531  50.5029774
  40.7420969 106.9514561  49.0403557  84.0745068  18.4234703  20.7707977
  84.5384312  18.4959412  19.9366772  83.2087231  18.0901229  20.5351591
  71.9913960  38.4999514  59.9770498  71.7756939  39.3940449  59.7119141
  72.9363394  38.5165191  60.1288366  64.9008846   2.5275511  39.5815396
  64.4319201   1.7058137  39.7266340  64.2705059   3.0859619  39.1265321
  97.0994854   9.9660534  38.1474614  97.1717167   9.3028414  38.8338757
  96.4932442  10.6151319  38.5043955  89.3270206  30.2793217  35.8350325
  89.0118408  29.5124888  35.3566408  89.8299408  29.9166512  36.5642619
  97.8465557  14.7951710  54.8022604  97.5895691  14.3499088  53.9948416
  97.3859406  14.3208086  55.4943991  83.9905357   4.9645981  54.6602583
  84.3037605   4.0728664  54.5088243  84.7392750   5.5210936  54.4459581
  57.9068995  17.2498655  33.1527257  57.6759434  16.4846730  33.6793876
  57.9172182  17.9757547  33.7765932  83.7949562  27.0277834  45.4480600
  83.3801079  26.2378478  45.7946682  83.8099575  27.6348090  46.1880112
  77.4596024  11.4822221  33.4724879  76.9479227  12.1580064  33.9171553
  76.8056250  10.8715343  33.1324744  78.3873701  -0.1937078  57.4835062
  78.0391359   0.6752403  57.6832438  78.3321333  -0.2605622  56.5302420
  22.5565219 110.4726601  38.0478334  22.0035768 110.2417755  38.7942767
  22.8829479 109.6335411  37.7229500  31.0340595  78.7529087  56.7082548
  31.6477776  78.4747553  56.0283995  31.5066242  78.6138296  57.5289726
  33.2464957 101.7358112  59.4366074  32.4033570 101.3168049  59.2640448
  33.0624366 102.3667145  60.1325369  59.7011709 111.0395527  65.8410740
  59.2443800 111.7045784  65.3259802  60.2609682 111.5394783  66.4351559
  79.6299553   8.9533019  49.8392105  79.0640450   8.2349056  49.5565748
  79.2183256   9.2823076  50.6382990 101.1126328   2.7361658  51.7695141
 102.0128918   2.5001442  51.5457678 101.0363388   2.5327787  52.7017403
  46.0048723 105.2460194  39.8741531  45.9586096 106.0510635  39.3584061
  45.3142977 105.3417397  40.5300331 107.9370117   4.9347717  54.0593910
 108.6970043   4.4154632  54.3219948 108.1112099   5.1703829  53.1481457
  28.5688210  87.2162533  43.8625574  29.0350699  88.0511093  43.9056110
  27.8047013  87.3966217  43.3150005  71.0816383  41.2742138  52.0169353
  71.7523384  41.1161232  51.3525581  70.3803778  40.6597757  51.8002939
  47.8224707 107.4659348  65.8525658  48.0883455 108.1467438  65.2344704
  48.2794142 107.6874065  66.6639757  73.0324173   5.0920367  35.4945374
  72.9922915   5.5743247  36.3203812  72.7650976   4.2019594  35.7237411
  72.7122784  27.4008417  54.2055941  72.0451069  26.7756939  54.4889736
  72.2168112  28.1743336  53.9364290  89.9067974   7.8035945  69.8636389
  89.0278149   8.0122316  70.1800108  90.3433514   8.6524367  69.7920847
  47.7857113 110.2700520  52.8532362  47.8289080 110.9625912  53.5125923
  47.2972918 109.5649529  53.2781172 102.2249222  11.7562270  50.6999779
 102.5450516  12.4882591  50.1728344 101.4193058  11.4804888  50.2627420
  88.8560009  32.2296906  39.8780632  89.6996117  31.9576812  39.5167398
  89.0425682  33.0538344  40.3277397 101.2204647  28.9956021  41.4311647
 100.9020138  29.1406822  42.3221016 102.1575642  29.1850662  41.4779377
  97.9228115  26.4067054  28.4016895  97.5517368  27.1962833  28.7955165
  97.1685982  25.8366895  28.2517362  86.8672276  52.2526932  50.6299496
  86.4111996  52.5943327  49.8608255  87.4799728  52.9467392  50.8730030
  80.0547981  44.4302225  42.0306206  80.7593632  44.6037579  41.4063549
  80.1848888  43.5184145  42.2912216 103.0858326  37.2467113  40.9760571
 102.7038193  36.6910863  40.2966642 102.3338795  37.6709223  41.3893890
 105.8491135  14.3359208  52.4424124 106.3672256  14.9400270  51.9105721
 106.3352776  13.5119677  52.4111843  86.6294765  30.1304674  54.3844557
  86.9231319  29.4759059  55.0181341  87.2837353  30.8270335  54.4389915
  98.9810753  28.8602924  60.8233976  98.3059025  28.9213085  60.1476288
  99.1280174  27.9205799  60.9309959  93.3876705  33.6788630  39.2560053
  93.5636806  34.4899249  39.7328997  94.2491245  33.2786155  39.1380191
  90.8001804  18.2938564  53.7007666  90.1102829  17.8198504  54.1650867
  91.3208199  18.6990833  54.3942785  95.9173012   4.4860280  46.0823631
  95.5069447   5.1946795  46.5779972  95.9593105   3.7553582  46.6992807
  56.9616938 104.8067951  48.1255341  57.2083092 105.1733208  48.9746952
  56.2407398 104.2089081  48.3229971  92.8848267  30.5440497  41.5222692
  92.1379948  30.0152493  41.8030691  92.7687836  30.6394935  40.5769348
   7.8776115   6.1330676  46.8886995   7.7451611   6.6029918  47.7120209
   7.6703954   6.7756218  46.2101603  99.7164440  10.8402598  35.7098699
  98.7738991  10.7521069  35.5682182  99.8305607  10.7084072  36.6510534
 105.3993702  33.7711406  38.4430575 105.0437260  34.2343593  37.6846528
 105.7300091  34.4647074  39.0139174  79.1101074  27.7332735  48.4662485
  78.1542301  27.7069521  48.5091591  79.3967915  27.0914388  49.1159296
  84.2057800  39.4479442  46.1185837  84.6787739  38.6157751  46.1205578
  84.5778942  39.9331951  45.3821754  97.1271801  50.5602121  69.8524046
  97.7970028  51.2429237  69.8907948  96.3103867  51.0141087  70.0599146
 116.5755272   0.5481621  50.5700493 116.8182945   0.2086451  49.7086382
 115.6782627   0.8626436  50.4593706  63.2495260  15.2915704  10.5710971
  63.3837366  15.4682100  11.5022349  62.6218033  14.5691812  10.5523968
  75.4170036  33.5443091  59.9306107  74.9281073  34.2544651  59.5148134
  74.9092102  33.3301210  60.7132339  97.7121258  37.9856062  65.4883003
  97.9263020  38.6057043  66.1853218  96.9124889  38.3346152  65.0945997
  88.2803440  15.6284785  51.9404745  89.1926003  15.7537699  52.2018862
  87.9724884  14.9039733  52.4850368  91.2611771  11.7862070  30.2427745
  91.5258980  12.6150227  30.6418014  91.5160465  11.8705308  29.3239927
  86.1666584  18.6450291  25.2193046  85.2204418  18.5559976  25.3332186
  86.5424061  18.1938779  25.9752822  96.8243027  21.2205887  57.1552086
  97.7202606  21.0179615  56.8860531  96.6866970  20.6959224  57.9438877
  18.2948709  18.1689703  47.5439930  18.2374263  17.2544491  47.2672558
  18.9856529  18.1757736  48.2065678  87.6153755  24.7626901  51.2989140
  87.0007515  24.1777706  50.8558130  87.3269939  25.6422806  51.0552216
  99.3560696  28.1972575  26.4231706 100.2219105  28.3846521  26.7857003
  98.8129330  28.0047226  27.1874809 100.7963943  24.3547416  50.8444214
 101.3906479  24.0649366  51.5365934 101.3719082  24.5806289  50.1136780
  99.8304272  19.9382174  27.1481085  99.7468472  20.5288363  27.8967166
 100.7452011  20.0209522  26.8787217  96.9989967  11.1927128  33.0676723
  97.1923828  10.4462314  32.5005770  97.0671272  11.9546163  32.4922657
  62.3920107  38.8879728  23.8776731  63.3337259  38.7314487  23.9477158
  62.0426416  38.0812526  23.4990215  86.9244385  37.0516610  24.9329305
  86.8549347  37.8719592  24.4445539  86.7112064  36.3728809  24.2926002
  93.4046841  33.2459474  25.7464170  93.0898666  33.8983417  25.1207161
  92.6082802  32.8667450  26.1181450  87.2134686  27.2705531  52.7720690
  88.0523109  27.6356888  53.0535889  87.0494747  26.5501857  53.3806849
 100.1832581  47.1148729  35.0283194 100.9941673  47.3387098  34.5716476
 100.4668999  46.8452740  35.9018731 103.5468769  57.1977329  52.5594664
 102.9383755  57.9257059  52.6859713 103.0076313  56.4138508  52.6642323
  78.1221533  15.8352876  21.9197750  77.3326969  16.3727808  21.8558025
  77.8490543  14.9710131  21.6120744  89.9310684   6.2929457  67.6679707
  89.9905968   6.8052298  68.4743500  90.1317692   5.3968596  67.9381180
  59.7523546  30.9999847  61.4759588  59.7336435  31.7031360  60.8267593
  59.8748016  31.4493036  62.3122311  94.8859882  25.9771943  40.2334499
  95.3607368  26.5661216  40.8199739  95.5663776  25.4297709  39.8415041
  85.0194168   4.4920009  47.2834730  85.8244610   4.9131370  47.5847626
  84.3309975   4.8742557  47.8277016  81.7137432  24.0205121  62.4533558
  82.4696445  23.7224531  61.9473791  81.0125732  24.1076922  61.8076086
  95.9118176  15.6566834  67.4046707  95.4869938  16.0857558  68.1474018
  96.3658619  14.9067354  67.7889395  85.9173965   7.8447092  59.4249773
  86.2308598   8.7488198  59.4014025  86.5477943   7.3587036  58.8933516
  92.3844719  24.6952248  38.3028030  91.4445496  24.8525906  38.2132077
  92.7661228  25.5685282  38.3917689 103.4398746  52.6417828  50.9098721
 104.0565014  51.9527292  50.6624699 103.6211395  52.8043413  51.8355846
  99.6882248  13.2753181  41.7324829  98.8418961  13.2085001  41.2903404
  99.4677448  13.3624196  42.6598644 106.8370819  15.3503466  66.9889164
 107.7030087  15.3332925  66.5813446 106.9845009  15.7457554  67.8480721
 103.7156677  19.0528917  28.9118052 103.7667751  19.7713375  29.5422435
 103.4634399  18.2923007  29.4353676  54.3538809 101.6799641  47.9104948
  54.1789484 101.6877365  48.8515425  53.9720345 102.4967670  47.5891495
  53.4071159  80.8909035  41.3907957  53.3799648  80.3332329  42.1682930
  53.9839458  80.4273891  40.7836199 103.5525131  17.4337292  60.4984903
 104.0575600  17.0461106  59.7837114 103.3063793  18.3004487  60.1753044
  59.3610525 108.4486103  29.0315056  60.2223969 108.1365299  29.3088698
  59.5494509 109.1250706  28.3810043 105.5986691  10.0043976  27.9818058
 105.5130672   9.4927877  27.1773434 104.8036766   9.8069006  28.4769869
  68.9148140  20.3804493  40.6857777  69.7499275  20.5320644  41.1283016
  69.1462708  19.8833072  39.9012351  92.5509167  15.4458857  56.5228081
  93.3822823  15.8791256  56.7161036  91.9083500  15.9105635  57.0589256
  81.2746811  30.2316070  41.9686127  80.4367065  30.5156565  42.3337841
  81.6094685  29.5972681  42.6024580 102.9569054   6.1222374  59.3931484
 102.8060150   6.7250061  60.1212502 102.5860119   5.2910697  59.6895027
  97.2336006  12.2370088  49.7278309  96.4953709  12.0391107  49.1515732
  96.9794273  13.0449057  50.1738453 101.1586094   6.4746630  75.3955078
 101.9950771   6.5776819  75.8493185 100.4989338   6.6024882  76.0772133
 103.0395222  12.5844896   6.6861433 102.6439476  13.1628382   6.0340202
 103.9820290  12.6726878   6.5442079  85.2448082  10.5437779  40.6085443
  85.9727383  10.4700816  39.9913549  84.9631310  11.4559388  40.5388737
  72.1987772   9.0082341  63.1199646  72.3563290   9.6838421  62.4604464
  71.9190216   9.4924712  63.8968039 113.5077095  13.3974445  31.6545415
 114.3758965  13.0551291  31.8673658 113.3778000  13.1659365  30.7348895
  91.7895222   1.4502151  30.6468916  92.2560406   2.1963534  31.0235500
  91.0440731   1.8397215  30.1899266 112.3525715  43.9946890  38.3001256
 113.2916260  43.9080000  38.1361318 111.9401932  43.4691477  37.6145744
  91.9867420  28.5314941  62.1242428  91.3341331  27.9601693  61.7193747
  92.4357891  28.9430809  61.3858700 103.9080048   3.5546827  79.6448040
 103.9679623   3.7133163  78.7027454 103.8254356   2.6042515  79.7228670
  73.7460184  23.6197996  43.8900709  74.2671680  24.1808629  44.4643879
  73.2848072  23.0295658  44.4860125 104.1709423  14.0539873  60.3798676
 104.3023205  14.5515060  61.1869907 105.0557709  13.8432741  60.0816822
  84.5959473   5.2847797  24.8641086  84.2449284   5.4804736  25.7328558
  84.6265030   4.3287522  24.8279119  95.5966377  39.3188071  64.4496727
  94.7258091  39.4299579  64.8311663  96.0326195  40.1576757  64.5995045
 113.7346649  15.9159708  44.3339777 114.3537998  16.6453278  44.3646193
 113.7166405  15.6556249  43.4130430  94.1088009  31.2969947  67.0884180
  93.9095783  30.6187129  67.7337694  94.6624279  30.8579898  66.4426661
 111.9533157  28.3106732  31.5562797 111.0098743  28.2887363  31.3960886
 112.0718098  27.8030324  32.3590803 103.6678219  26.8225503  46.3786554
 104.5727539  26.6094589  46.1508083 103.1869602  26.7365074  45.5554914
  81.6098118  32.9332376  67.8797102  80.7197094  33.1740808  68.1365252
  82.0807743  33.7655520  67.8387737  85.2276611  46.6897583  38.4686184
  85.7567883  46.4466238  37.7089214  85.2879047  45.9347963  39.0539718
  10.6484365  19.6824050  39.1292453   9.8636395  20.2302003  39.1449642
  11.3357496  20.2380180  39.4968414  95.2567577  11.6797042  25.0307631
  95.7978058  11.8655276  24.2633224  95.6824970  12.1544743  25.7446051
  64.7856760  29.6711826  47.0500612  64.6615267  29.2269945  46.2112999
  64.8970985  30.5932665  46.8185854  61.7646265 108.5190392  52.7477407
  60.8629274 108.8401031  52.7572107  62.2153568 109.0892220  52.1248722
 105.0242996  30.0756192  13.5631287 104.3070698  30.1124477  14.1959453
 105.6894302  30.6639743  13.9204514  87.7771950  13.1947875  52.8955746
  88.2100201  12.4555206  52.4685192  87.8376293  13.0000341  53.8308001
 114.1758728  41.4824438  43.0896044 114.8560715  41.8599224  43.6473417
 114.6495628  40.9024811  42.4933720  92.4633121   2.2297995  43.3755398
  92.9915905   1.5217084  43.7439966  93.0537510   2.6795727  42.7711296
  91.5440083  22.7535725  48.3285809  91.8018150  22.2604990  47.5497055
  91.4614010  23.6571169  48.0235863 113.7811089  36.4043593  39.1640902
 113.5641670  36.5318465  40.0876236 113.9483547  37.2868800  38.8333058
  95.2154541  47.4332523  49.7285843  95.8694744  46.7884350  49.9982071
  94.6946907  47.5899601  50.5162907  97.1713924  42.8291988  57.1914148
  96.4987659  42.2034121  57.4600983  97.2603321  42.6948500  56.2478733
  78.4635687   4.8856181  45.2791309  77.8233814   4.2711866  45.6381083
  78.2318449   5.7282925  45.6695604  91.8072796  22.6664782  41.4144373
  92.2198009  23.5028839  41.6300344  91.2645435  22.8572559  40.6493998
  98.6804581  39.9226594  62.7346849  98.1757736  40.3532839  63.4246778
  99.4962978  39.6617699  63.1619740  58.7485504 108.9087772  54.7628927
  59.0503216 108.0010414  54.7973776  58.9037371 109.2464447  55.6450081
  67.7835369   7.4713922  54.5761919  67.2610998   7.3285663  55.3654289
  68.3910894   8.1715935  54.8145914  73.9137363   1.6674474  51.4184332
  74.6758366   2.1800208  51.6880608  73.9336014   0.8941019  51.9821453
 108.3648396  33.5546947  40.2993155 107.6685238  34.1363692  40.6043339
 108.6554146  33.9415002  39.4733739  88.3451080  28.6026335  55.9282970
  89.2900467  28.5588026  56.0746336  87.9621410  28.4739232  56.7960501
  35.4309416 109.6028519  41.6018343  34.7666669 109.7780323  40.9352922
  36.2436676 109.4956398  41.1076546  96.9894314  28.4165072  51.6239882
  96.0548401  28.2872152  51.4625931  97.2931385  27.5736570  51.9610357
  81.2289619  25.2735853  32.2852921  82.0941734  25.5077100  31.9494128
  80.6230640  25.8278632  31.7934561  81.5412331  30.4525137  51.9824123
  82.2912025  30.8293414  52.4426126  80.7934666  30.9722662  52.2772551
 103.3844280  25.7158232  57.7916718 103.9084721  24.9156451  57.7552795
 102.4906158  25.4099536  57.9458475 100.8415508  38.6265922  56.2703800
 100.1072598  38.7790442  55.6755686 100.4906464  38.8223195  57.1391678
   1.0658305  23.4391618  30.4148650   0.8682129  23.9222693  29.6125031
   0.3327873  22.8319144  30.5155158  80.4489040  31.0062218  60.5891848
  80.9313393  31.8082881  60.7896185  80.6908035  30.3999281  61.2892723
 117.9258251  27.5256014  26.8045139 118.2278061  28.4064364  26.5827703
 117.0150375  27.6452923  27.0735121  66.6813278  34.0996385  51.5422916
  66.1209536  33.3250570  51.4949656  66.1750031  34.7306681  52.0538282
  99.3802547  12.0148063  60.9257746  99.2402363  12.7252960  61.5517378
  99.7698784  12.4413300  60.1625586 110.9397125  37.3056746  85.3902245
 110.7129097  36.5525818  84.8446655 110.5446148  37.1130919  86.2405396
  95.2285194  28.2833672  60.6171656  94.4316196  28.4269738  60.1067305
  95.5759907  27.4534869  60.2903652  91.8784332  45.4102468  39.7216129
  92.4746037  45.5546808  40.4564285  91.0042095  45.4875517  40.1036930
  99.2873001   7.7099556  25.1583099  99.1428471   6.7709017  25.0419378
  98.5503197   8.1232065  24.7085142  82.3754692  15.7788455  46.2668324
  82.4394703  16.4822674  46.9128418  82.0528889  15.0265539  46.7630482
  66.1755991  33.7711620  54.5108223  67.0276833  33.6513138  54.0915155
  66.2125826  34.6532726  54.8806095  88.4481335  39.0699005  20.9615159
  89.0552711  39.4728708  21.5821838  88.1450462  38.2768106  21.4035344
  98.7108612  25.5731773  56.3202953  97.9115486  25.7215548  55.8149958
  98.8873482  24.6377373  56.2201357 105.9405708  13.5780001  37.8219271
 106.0672379  13.5773754  36.8731451 105.6377697  12.6926601  38.0237198
  93.5302448  31.1182904  61.1974192  94.4315147  31.1260009  60.8750916
  93.0809021  31.7771387  60.6680441  79.3095827  11.3378561  71.9105101
  79.3436146  12.2529662  72.1891642  79.0270996  11.3760793  70.9967375
 109.6528816  48.0247068  37.2002792 108.7321568  48.2098198  37.0152426
 110.0142384  48.8651180  37.4819779  77.6584959  12.3791683  13.3358943
  78.5279417  12.2521460  13.7155735  77.6079988  13.3191144  13.1621635
 102.7773190  36.6992617  48.6470890 103.4513855  37.1008730  49.1953373
 102.0346260  37.3006582  48.7015057  75.9905434   7.3870295  39.2430735
  75.7122326   8.2984596  39.1532540  76.6472912   7.4046379  39.9392080
  86.0081863   6.5900469  53.7274456  85.9556770   5.9895176  52.9839134
  86.4813614   7.3499918  53.3885813  73.4260178 108.9320374  42.2588301
  73.8939714 108.7614727  41.4414215  73.1287384 108.0696964  42.5490475
  79.0551472  14.2718196  15.9886646  78.7828302  14.5733464  16.8553579
  79.8481607  14.7731662  15.7988882  84.7139168  33.5767579  63.1949043
  85.3817463  33.3887553  63.8543653  84.0146255  34.0145683  63.6802292
  88.8698578  37.3929238  39.8700690  88.0839729  37.4963117  39.3334889
  89.5514011  37.1349716  39.2494297  88.5873604  18.4695470  46.1980295
  88.4469318  18.7502718  45.2937603  89.5388985  18.4630322  46.3017702
  86.1376953  27.8482413  43.4883308  86.7190075  27.8114200  44.2479038
  85.3081512  27.4898338  43.8039923  80.6342030  34.8216987  32.2529435
  80.2550793  34.9989462  31.3920832  80.2550125  33.9822984  32.5134277
 100.4644680   1.6835658  65.6650162  99.7277832   1.4012882  65.1229382
 101.2388039   1.3630432  65.2025270  19.1514456 105.7963848  29.4597626
  18.2078230 105.9253883  29.3640256  19.2329693 105.0958061  30.1068974
 100.0670147  37.4404240  31.7237496 100.9359837  37.6547527  32.0631480
  99.5472050  38.2285714  31.8814158  91.2661266  37.7581573  47.0834351
  91.2620640  36.9744897  47.6330519  91.7805481  37.5094485  46.3154888
  64.3988562  11.0088277  59.0474701  63.9489841  10.9269750  58.2065487
  64.1434336  10.2245033  59.5330906  93.8450909  47.1932459  39.4205356
  93.6789894  48.0910873  39.1332650  93.0332565  46.7252350  39.2252755
 117.8167439  25.5370831  31.4059687 117.1923256  24.8935366  31.0710287
 117.3776340  25.9256005  32.1625829  64.7376442  22.5432944  48.9126396
  64.4567966  22.3064613  48.0287457  64.9495029  23.4749770  48.8550615
 106.4677715  16.0876143  50.6513643 106.9274616  15.7231402  49.8950052
 106.7291546  17.0082545  50.6696939 101.6429424  26.3375497  32.6756406
 101.8933487  25.7590532  33.3959675 100.7166290  26.1476851  32.5268984
 105.2434349  30.9989405  39.2850065 105.6753063  30.8847380  40.1315737
 105.4420280  31.9012117  39.0346026  93.7283897  41.2559319  80.9780407
  92.9492760  41.8017197  81.0844326  93.5943794  40.5265856  81.5832806
  99.1393948  18.8736498  20.6160688  98.3106995  19.2760742  20.8759785
  99.0073967  17.9370868  20.7632351  84.9442673  35.6090283  58.9652777
  85.0271702  34.6836066  58.7351656  85.8004189  35.8445859  59.3227005
   2.8850657  50.4473066  56.1948490   3.0264729  51.0996723  55.5088043
   3.7521324  50.0737047  56.3524818  90.9407902  39.0294623  37.9149723
  90.7872772  39.5828009  37.1491528  91.8615913  39.1730356  38.1334949
  76.2979889  37.3866534  69.4201517  76.2318897  38.3006740  69.6966171
  77.0003653  37.3833108  68.7698603  73.5790348  17.1689641  33.6034608
  72.9924774  16.4232361  33.4766722  74.0840197  16.9462335  34.3855166
  90.2825356   9.6536696  60.6968212  89.6133709   9.5646453  60.0182009
  91.0947895   9.3821383  60.2693415 109.3647575  26.7067051  45.2469683
 109.3379402  26.9605827  46.1694956 109.1521454  27.5096774  44.7712994
 116.2342644   6.3129401  79.1186953 116.7584419   5.6438583  78.6784649
 116.5337563   7.1394259  78.7399292 108.2327843  48.0332708  42.0471811
 107.6287270  47.4786663  42.5409126 107.7434444  48.8410902  41.8915844
   0.9432783  21.8856359  52.7628326   1.1278102  22.2311091  53.6362362
   0.0173508  22.0808959  52.6187372  85.6826496  24.1099453  42.2494936
  85.0004196  24.7639322  42.0975065  86.1958504  24.1069794  41.4415073
   2.9194903  16.9945788  53.1024122   2.7128285  17.7840221  52.6021099
   3.6577290  17.2484457  53.6562967 102.1644497  28.3118987  59.1005087
 101.3142586  28.3919811  58.6680794 102.4017143  27.3907566  58.9936018
  63.9484262  14.5407224  41.4502096  63.1088972  14.7674632  41.8502235
  64.0832376  15.2108645  40.7801580  83.8956165  17.5236511  40.1448107
  83.2081223  17.6684809  40.7948971  84.6828270  17.3543251  40.6623745
  91.3613224   7.8534424  50.0355625  91.6501999   8.7041509  49.7052956
  91.1443615   7.3523945  49.2493629  44.8206711 100.4851246  53.9613771
  45.1176262  99.7584820  53.4136248  45.5787754 100.7011223  54.5043755
  94.6837997   2.7429366  49.3953514  95.4791164   2.7652699  48.8631821
  94.9327946   3.1679383  50.2160931  98.6475849  38.2093120  70.9698153
  99.0725708  37.3517275  70.9827662  97.7583313  38.0406713  71.2813187
  83.0127335   1.2826028  69.3624926  82.1167850   1.5760045  69.1969109
  83.5422230   2.0766251  69.2890024  87.5048256  20.5353284  50.7221413
  87.3183346  20.5230498  49.7833586  88.1599903  19.8484182  50.8451891
  77.4999285  40.3295517  45.0514507  76.7095709  39.9618626  45.4468918
  77.3279190  40.3103304  44.1100311 106.0549450   5.6082571  43.8082838
 105.9870529   6.5629923  43.8183975 106.5478516   5.4116184  43.0116558
  77.4881792   4.8717055  48.6751795  77.6498461   3.9953971  49.0247250
  76.6588211   4.7923386  48.2039070  81.1864853  14.9801469  58.2359362
  80.9790611  14.0576887  58.0866814  80.8502007  15.1623213  59.1134071
  81.4598560  32.3427391  54.3226433  81.5344143  33.2768607  54.5178032
  82.2606945  31.9587922  54.6796703  81.7889690  39.4933987  64.7327375
  81.2064457  39.1236925  64.0692472  82.5768661  38.9516687  64.6883821
  96.0350990  39.4681120  61.2418461  96.0517216  38.9016533  62.0132589
  96.9405079  39.4765663  60.9313536  84.5177269   3.5174692  68.7118864
  84.6141911   4.3439674  69.1849899  84.1670990   3.7699318  67.8577471
  51.9409800 108.3081245  18.2551849  52.7291870 108.3734703  18.7943423
  51.2876606 108.8292694  18.7218952  96.0696983  24.8898578  45.9184456
  95.9729290  24.6165872  46.8306875  95.7537174  24.1430259  45.4098892
  71.3261127  26.6819096  67.7531624  71.6597414  26.1517406  68.4769297
  70.9543943  27.4564981  68.1751442  16.1145353 111.3598824  48.0897903
  16.0228837 110.4691219  48.4279776  16.3679481 111.2435436  47.1741056
   1.4399680  26.4625907  35.5428982   2.3539379  26.5427256  35.8157897
   1.4347768  25.7207656  34.9380016  81.1226845   4.5111698  67.7673340
  81.1265659   5.2723956  68.3476353  81.1203575   3.7588522  68.3591461
  35.9174323 110.3984070  49.5959854  35.5792761 110.3402424  50.4895735
  36.5448356 109.6785164  49.5299911  60.3812933  27.7353668  60.5375576
  60.5657101  28.6645508  60.4002953  59.8622084  27.4790502  59.7752666
  91.3895512  31.7277336  38.8784552  92.0833492  32.3854399  38.9263773
  91.4707756  31.3575220  37.9994917  80.1241875   5.1962864  49.1056061
  80.3590775   6.0454702  48.7315130  79.1917229   5.0991505  48.9124727
  94.4973946  31.5464473  79.7311401  93.6347008  31.1368370  79.7960567
  94.8738575  31.1860228  78.9282751  81.2774086  36.1951256  67.4747610
  81.0510159  37.1143293  67.3331690  81.0948563  36.0435963  68.4020901
  96.6847897  26.1216712  59.1006136  97.4993515  26.3657188  59.5401192
  96.6373444  25.1703358  59.1951752 111.6021442  29.5999861  46.1991119
 112.2553158  30.2348304  45.9048748 111.5976620  28.9276838  45.5177736
 100.2830601  20.5712914  47.0310354  99.3504810  20.7501030  46.9103622
 100.3133774  19.9205852  47.7323866  91.0081482  12.4321723  49.5473814
  91.2762833  13.2763290  49.1844320  91.5821648  12.3028767  50.3023815
  93.5184860  21.7702985  50.8197689  93.3453369  21.3537145  49.9755526
  92.9442215  21.3135958  51.4344835  63.1418610  18.9284253  39.6471214
  63.6275387  19.7532487  39.6512866  62.7327538  18.8957334  38.7823701
  98.4996033  26.2236953  46.2290239  97.6204872  25.9332633  45.9860420
  99.0520859  25.4538083  46.0938740  93.5539246  17.8475356  25.1428795
  94.4104671  17.5060475  24.8860478  93.4497070  18.6463213  24.6258616
   5.7793486   8.8190609  38.8861799   6.6967338   9.0568179  38.7516165
   5.5877644   9.1003674  39.7808266 106.8684006  48.5110235  37.1279955
 106.2794304  48.5782194  36.3764477 106.8859863  49.3935680  37.4981761
 113.5281372  51.0096550  38.0054545 114.0188217  51.4969063  37.3436022
 112.7892971  51.5781593  38.2226205  91.3068581  40.1790142  48.1757212
  91.6656399  39.9559474  49.0346479  91.3182354  39.3543506  47.6898909
  84.1654491  16.9955719  23.2951832  84.3285179  17.5808954  22.5555634
  83.6253548  16.2942040  22.9310298  78.2246685  15.6773317  48.0855370
  78.8069820  16.3089609  48.5076571  78.2578182  15.9047842  47.1563435
  99.0867805  23.4809685  21.4432001  98.6314201  24.1663265  20.9541631
  98.6435127  23.4570551  22.2912407  38.1164193 107.5520802  41.6852522
  37.4341583 107.1480465  42.2214556  38.9095974 107.4857521  42.2169542
 103.3394146  55.2974987  57.5756693 103.4237576  54.7245884  56.8135071
 103.3394337  56.1825800  57.2111607  72.9405832  45.3289318  49.9938440
  73.6329174  45.9868860  50.0571108  72.7532625  45.2676678  49.0571547
  86.9608212  25.5643821  59.3250608  87.6760769  25.4737473  59.9546957
  86.3568401  24.8551035  59.5449591 101.6310024  20.2191424  33.4880781
 101.0706615  20.4489827  32.7468491 102.5000286  20.1022649  33.1041837
 108.5457325  25.7663155  29.8479891 108.5912895  26.7018223  30.0454283
 109.3404961  25.4005837  30.2363420  93.1583023  76.7065907  38.5862112
  92.7533913  76.2051773  39.2939258  94.0696144  76.4139175  38.5763097
  99.7216988  27.4874926  37.9376936  99.8712921  26.7459512  37.3512053
 100.5007076  27.5144243  38.4932494  93.1320095  36.6115594  36.8249536
  93.8732910  37.1983719  36.6753292  93.3854961  35.7922602  36.3998413
  97.4703979  32.1091413  48.4962416  97.5280666  31.1542749  48.5299063
  97.1672344  32.2996306  47.6085281 101.9812107  51.6434002  43.9714432
 101.5632629  51.3400507  44.7773743 101.5905476  51.1062288  43.2821941
 101.0759163  29.8315024  75.0260544 100.2235699  30.1508570  74.7298336
 101.5510082  29.6331286  74.2191076 116.7627335  19.6240318  50.3937912
 116.6727161  19.2948437  51.2880850 116.0163593  19.2507982  49.9249125
 109.3973064  50.9385347  53.2788038 109.7773743  50.1312733  53.6253786
 109.4277287  50.8288240  52.3284006  94.2337036  29.8690295  39.0958118
  94.0900326  29.6147704  38.1842518  94.8424435  30.6060266  39.0458012
   3.1746387  32.7002454  46.1436510   3.9275625  32.5484896  45.5724144
   2.6266339  31.9238663  46.0289431   8.1316036  20.8185983  54.8010349
   8.6031628  21.2073493  55.5377436   8.7901556  20.2949047  54.3446541
  96.6268539  18.2286823  47.0243216  95.8204079  18.6734915  47.2851086
  97.2509193  18.4370959  47.7195501 109.1345978  55.0155163  44.2047834
 108.5838699  55.7928085  44.1112852 108.6862183  54.3414497  43.6940765
  98.7866592  43.9303493  59.1648769  98.6642647  43.6776352  60.0799608
  98.3047581  43.2696390  58.6674213  94.0039158  23.6138821  61.5062904
  94.5481014  24.0148115  62.1840429  94.1433811  22.6728916  61.6126966
 107.7795029  48.5626030  65.5240965 108.6253166  48.6568785  65.9622002
 107.6420212  47.6168871  65.4697227 106.7660618  21.6692257  37.5572705
 106.7825508  22.5250888  37.1289515 106.0988331  21.7549944  38.2382154
 112.0498657  30.2423191  29.5056581 112.1407700  29.7532177  30.3234291
 111.2529182  30.7593346  29.6231151 114.0701866  29.9095106  45.0882292
 114.9836731  30.1201797  44.8948431 113.5886478  30.1973391  44.3126631
   4.3053415  28.8306475  43.9033318   4.2939040  28.0627322  44.4746494
   4.2088810  28.4737515  43.0204058 100.3867149  65.2758789  43.2251978
  99.6354294  65.8241320  43.4514999 101.1149883  65.6514645  43.7199497
 110.1260948  34.2515016  52.2566271 109.9236393  33.7674952  53.0572414
 109.2769241  34.5641971  51.9445801 108.2679462  36.7623711  42.5714922
 108.6805534  37.6249886  42.6147795 107.3408127  36.9475746  42.4219799
 101.5058899  21.8208456  39.7841048 102.1581841  21.1448765  39.6002126
 102.0177174  22.6201296  39.9082518 118.6825014  55.8058262  65.2945137
 119.5639288  56.1765909  65.3375340 118.7839243  54.9092817  65.6141281
   0.8860260  40.8489609  55.5518246   0.1869241  40.9733915  56.1936998
   1.0753437  41.7303324  55.2299881 108.4187412  44.2264032  39.3838906
 108.3137894  45.1647949  39.5408583 107.5896645  43.9553022  38.9897251
   8.4285742  60.7068682  35.7962728   8.2512188  61.6108084  35.5361319
   8.9874423  60.7853937  36.5694046 113.9067173  45.3867769  49.0219736
 113.7721825  44.4644642  49.2398548 114.4053078  45.3696394  48.2050610
  51.1293697  97.4436092  63.9945507  50.4149866  97.2917557  64.6132803
  51.1299610  98.3909035  63.8571930  99.9232388  36.7401075  59.9424171
  99.8849297  36.4033031  60.8375835 100.8168697  36.5537620  59.6544409
  94.0876389  47.0277643  21.2970853  93.4676456  47.4101543  20.6761026
  93.5515118  46.7847586  22.0519042  19.7151136  43.9976358  64.4151497
  20.5724812  43.9561510  64.8387384  19.9125934  44.0720367  63.4814978
   0.2984627  50.9155321  43.5853815   0.9512824  50.5350971  42.9977369
  -0.3169508  51.3612556  43.0032921  71.2788630  65.5883980  19.3153536
  71.8759966  65.4654074  20.0532794  71.7869949  65.3221226  18.5491085
  88.6023331  47.4123430  49.4192028  88.7995052  47.6009035  48.5017061
  88.5244560  48.2736969  49.8293638  96.0213566  20.9511495  52.3615789
  96.1336803  20.0025225  52.4225903  95.1093674  21.1008620  52.6107597
 112.7523613   5.4282087  61.3216496 112.6160240   5.0408232  60.4570246
 113.0356598   6.3244206  61.1405945 118.0171585  25.3023934  43.2321453
 118.2765293  24.7528958  42.4925423 118.7436485  25.9160686  43.3409595
 116.6941547  51.0655546  61.4474154 117.4202633  50.4418898  61.4539528
 117.0911407  51.8924809  61.1738634  90.5422688  42.1991920  58.1644154
  91.2497330  42.8337288  58.0500460  90.2374077  42.0175552  57.2754288
 113.2509518  72.2393608  36.5959454 112.7474976  72.3201942  37.4060273
 114.1523647  72.1014643  36.8869114  88.8395214  32.5821567  74.0563202
  88.3178997  32.1132326  74.7076702  88.4152985  32.3834777  73.2215786
   4.1696692  10.6058514  35.6198788   4.7846335  10.9633780  34.9793911
   4.4089141   9.6818221  35.6917357  10.2504897  68.1749630  61.4021730
  11.0643053  67.9365873  61.8461466   9.5597047  67.9073572  62.0083380
 117.6350212  42.1127081  70.7879019 117.2177505  42.3473167  69.9590015
 117.5628853  41.1592007  70.8309221  99.1432953  41.8392611  38.8425493
  98.2707787  41.4737415  38.9886308  99.6781349  41.0876751  38.5870099
  92.6563168  47.2860193  54.7088242  93.3100414  47.5575113  55.3531551
  91.8187428  47.5424623  55.0947475  11.6975462  52.6673841  55.3013754
  10.8911061  52.7473307  55.8107805  11.7578816  53.4911060  54.8175669
 115.4602718  39.4688869  48.0704689 115.7532978  38.8522887  47.3995209
 114.9691010  38.9312696  48.6917210  91.1922836  50.2927542  46.3873243
  91.5548992  51.0499620  45.9275579  91.8108845  50.1254749  47.0983601
  99.9798965  35.0293612  43.9250374 100.2920628  34.3014073  43.3875704
 100.0325966  34.7035193  44.8235273  86.0384750  38.4490442  41.8249655
  85.4622650  38.0889559  42.4991655  86.8255043  37.9058933  41.8674612
  96.4785290  36.0687733  77.9884481  96.5549660  35.2364993  77.5218534
  96.3468456  36.7189837  77.2984362  84.4836617   9.7035301  57.2588253
  85.1685238   9.0575957  57.0857143  84.2320728  10.0238514  56.3926125
  95.3472519  49.6898127  46.6451168  95.5708694  50.4781818  47.1397877
  96.1238384  49.1346407  46.7153883 113.0032921   4.8240393  58.6533213
 113.8868809   4.5588648  58.9086390 113.0603981   4.9696815  57.7089930
 104.8594475  27.2516847  52.6519060 104.4891739  26.5185976  53.1435537
 104.3939877  27.2386432  51.8156004 116.3320923  40.4674911  19.3042958
 115.9101868  41.3264084  19.2821801 116.1693668  40.1434517  20.1901555
  88.7398434  43.8883781  42.1828127  89.5447540  44.3054438  42.4900723
  88.5934067  44.2616320  41.3136339   2.0079407  34.7488236  42.2940540
   2.0441478  33.7942004  42.2339153   1.0763447  34.9477410  42.3878193
  91.6800976  52.1478462  52.1245003  90.7494545  51.9655895  51.9944429
  91.6962528  52.9135180  52.6987076   1.7500281  14.1382563  50.7785416
   0.8564553  14.3175578  51.0711336   1.7529006  13.2024717  50.5772161
  84.5599365  11.0894787  43.8269377  83.9695740  10.5896747  43.2631063
  84.8060513  11.8505633  43.3011913 111.8462372  27.0240712  39.2285562
 111.8861485  27.8497529  39.7111392 111.2636566  26.4705920  39.7486353
 118.3651924  19.5151842  42.7682018 118.4659481  18.5955560  43.0138922
 119.2263699  19.7704434  42.4373579  97.5958729  14.7451794  39.9859905
  96.8025780  14.8436105  40.5125093  97.6478481  13.8068199  39.8042965
 108.2712460  42.2825050  62.1785784 108.5610485  43.1940842  62.2142649
 109.0743828  41.7717123  62.2800446 106.9900227  45.7583046  34.5970488
 107.0846939  46.6907501  34.4025970 107.7465725  45.5499363  35.1451898
 107.7900028  47.7398872  21.5492535 107.9934216  48.1425095  20.7050109
 108.6444473  47.5736094  21.9473910  11.3348186  29.1534591  68.9048195
  10.9002101  29.9247384  68.5408497  11.1808634  29.2143631  69.8475933
  90.6667900  45.7839823  43.4485912  90.5816841  46.7354155  43.3872223
  90.4798603  45.5854845  44.3661356   4.1876575  28.7546873  32.3299193
   4.1695327  28.0737424  31.6574478   3.3552879  28.6568666  32.7923298
   1.2245038  15.7645607  48.0663157   2.1682814  15.8430219  48.2054520
   0.9812427  14.9591649  48.5228157 102.9987335  46.2119007  19.3584287
 102.7853775  45.7074022  20.1434088 103.5600185  46.9201040  19.6740770
  93.8415718   7.9815727  41.7937660  92.9397488   8.3011359  41.7652130
  93.8189602   7.1569592  41.3082457 115.2214718  28.8615012  34.8520732
 115.0748825  28.5371542  35.7406354 115.0568676  29.8026347  34.9104404
  89.8234272  34.4144130  50.7787371  89.2053890  33.8258481  50.3453207
  89.4002056  34.6379232  51.6076851  12.2522628  29.2395449  47.7969599
  12.4768221  30.1619816  47.9191017  11.3986349  29.1429162  48.2191133
  97.2999668  32.2222900  68.5443878  97.2386837  31.2972260  68.3062029
  96.5926552  32.6428699  68.0554628  13.5340810  26.7795324  43.5474300
  14.1083574  27.4429083  43.1648445  12.9743671  27.2670364  44.1518211
   8.4851456  37.0932269  77.6344824   8.0078882  36.2665606  77.7057695
   8.1852245  37.6082969  78.3834696 108.6102772  38.5687280  55.8416319
 108.8804436  37.8362584  55.2877998 108.5660076  38.1987333  56.7233229
  92.8067493  50.9134674  54.4958067  92.1278286  50.3035021  54.2072916
  92.4053478  51.3934851  55.2201605  94.8336220  57.6790857  54.8942900
  94.5601559  58.0152702  55.7477665  95.4903221  58.3052254  54.5894480
  86.7954159  50.6017208  38.2953501  86.8893623  51.2367010  39.0054250
  87.6504803  50.5951929  37.8651810 114.2825794  15.1263165  35.5477810
 113.6747837  14.9116707  36.2554121 114.0463734  14.5275724  34.8392987
 103.0511856  44.1167784  54.4460392 103.8459015  43.6671209  54.7332144
 102.7722931  44.6216154  55.2099705   3.7462053  36.0662699  88.7782955
   3.2133391  35.8467484  88.0140305   4.6001822  36.3012743  88.4153461
  95.2938080  13.6616254  51.9423437  95.7788181  13.0223978  52.4642420
  94.5222092  13.8661242  52.4705982  82.8415966   4.1162533  63.6636686
  82.9647636   4.2670634  64.6008539  83.1666851   3.2275957  63.5193205
  10.2003932  47.9790878  66.7745543  10.9206879  47.3490191  66.7540312
  10.5038154  48.7074757  66.2326908 110.9588432  25.5547023  31.2563801
 111.6686916  25.9510231  30.7511330 111.3791943  25.2471781  32.0594811
   6.8804288  57.6738214  60.3915691   6.0996807  57.1208096  60.3625965
   7.1343571  57.6815462  61.3144398 106.7537403  71.9593573  49.1075945
 106.7200470  72.5160360  49.8855495 106.5964508  71.0751581  49.4387913
  76.3992500  60.3175783  53.4221220  77.2414684  60.3719139  52.9705143
  76.3219213  61.1513472  53.8858891 110.4900074  52.4761343  31.0916471
 109.6393299  52.8841448  30.9300923 111.0662556  52.8522253  30.4262662
  81.9403076  35.0160575  51.1315107  82.8830147  34.8650885  51.0626411
  81.8650723  35.8892298  51.5164042 112.6824856  57.1868849  40.2478647
 112.6411057  58.1418848  40.1979160 113.0841255  57.0087004  41.0982513
 102.6238823  49.6365976  70.0761271 102.4818039  49.9827290  70.9571695
 102.4662304  48.6961985  70.1599407 118.5950375  48.1514597  41.9139242
 118.1860447  48.5817432  41.1630487 117.9148102  47.5725698  42.2580338
 113.6767673  21.6594887  39.7816181 114.3307686  20.9666729  39.6893024
 112.9700661  21.2561226  40.2857018  17.4711514  46.7918921  61.7103434
  18.1996930  46.8902349  61.0973310  16.6881037  46.8476200  61.1626577
  93.5435486  37.9724550  70.9992790  93.8212204  37.7068591  70.1225901
  92.8971577  38.6618614  70.8471966  69.9475002  31.3018584  31.6386342
  69.8780251  32.1473742  31.1953425  70.6743431  30.8601904  31.1994815
 116.6659451  23.6800575  54.5870924 116.9432926  22.7656126  54.6427536
 116.8697357  24.0449953  55.4482079 112.2561550  29.2678952  55.5847073
 111.4993954  28.7299490  55.3519773 112.2427559  29.9864435  54.9524593
  86.5181446  47.8650999  51.6048479  85.9118080  47.3731279  51.0511732
  86.8307400  48.5758400  51.0450554  15.5519021  41.8786907  50.1290321
  16.1523032  41.1391783  50.0348186  15.9414494  42.4172211  50.8178473
 105.8479977  40.3408861  47.9991436 105.6554413  40.0607300  47.1043444
 105.0012779  40.6145096  48.3518982  78.5713148  35.8458400  45.6861067
  78.2796764  34.9659586  45.9248257  77.7757120  36.3773751  45.7129002
  92.9094982  27.8100061  40.0858498  93.5038185  27.0598817  40.0677252
  93.4551525  28.5541058  39.8312664  96.4560318  19.2749143  68.5741377
  95.8460426  19.6279335  67.9264402  96.8466187  18.5135043  68.1452608
   0.0774458  37.6047397  43.1643248   0.1145152  37.3713231  44.0918922
   0.1919535  36.7736530  42.7034473  98.2463264  23.5485530  24.1760349
  98.7022400  24.3624902  24.3902230  98.2607746  23.0446625  24.9897385
  98.5705090  22.4858332  34.5363736  99.0750122  22.2551656  33.7563086
  97.7336025  22.8016210  34.1956329  88.9598560  34.7090936  41.1905479
  88.1801033  34.8934913  41.7142105  89.0348244  35.4589367  40.6003380
 118.4640217  44.6201801  65.6648064 119.1317272  44.3072701  66.2751150
 118.8127518  45.4469442  65.3315210 117.2486115  66.2347269  59.8698044
 116.4377880  65.7260895  59.8610306 117.2937298  66.6285706  58.9985514
  74.3684006  39.6041083  58.4086180  75.1269770  39.0255785  58.3305454
  73.8034201  39.3584442  57.6760340 108.4595013  64.5274830  46.2874079
 108.5384560  63.5894346  46.1140251 107.8654575  64.8473835  45.6084299
  82.3510361  58.1682396  25.3783798  82.0778465  58.7267637  26.1061478
  82.5333214  57.3200178  25.7827592  79.8194599  25.8002877  43.4695721
  80.5429268  26.4213514  43.3852911  79.8149443  25.5622149  44.3966818
  92.7663994  33.5988903  32.8159070  92.2605991  34.2989731  33.2285500
  92.1295357  32.9005194  32.6645160  93.6889648  39.8562217  55.6024075
  92.7318764  39.8683333  55.6108332  93.9145851  38.9872956  55.2702999
  88.3339214  20.1812840  48.3296537  88.1456852  19.5571887  47.6287222
  88.3562279  21.0326433  47.8927088  14.8673952  65.3758669  51.4231634
  15.5462551  65.3980255  50.7487059  15.0852168  64.6119595  51.9572306
  87.1580124  22.3113918  52.9702044  87.0792866  23.0873156  52.4152470
  87.4462318  21.6194224  52.3749399   3.2017237  15.1070631  55.6409597
   2.6080436  14.6601760  55.0375795   3.0980790  16.0360467  55.4348564
  96.4863873  41.9175816  41.6743088  96.1254597  42.7462864  41.3593245
  97.3955154  42.1205950  41.8945408  12.0034790  63.6406136  71.3816261
  12.8652179  63.3044720  71.1353683  12.1494651  64.0851212  72.2166920
 108.1132030  32.0917678  79.4024134 108.6496353  31.4640737  79.8866463
 107.7678299  32.6799321  80.0739861  99.0528870  42.7081108  33.0969501
  98.2411957  42.4589729  32.6549983  99.0528679  43.6650848  33.0762696
 108.1682205  37.1621013  49.2813396 108.7987900  37.4081755  48.6045361
 107.6937962  37.9712391  49.4722605 116.3420391  47.8062820  37.7780890
 116.8963432  47.0348167  37.8956199 116.7208481  48.4644127  38.3608437
   6.3646489  58.8726664  48.1063890   6.7816406  58.3475018  48.7894344
   6.8777305  58.6921644  47.3187351 116.4993382  13.6903000  34.0271568
 116.5182972  14.6122122  33.7703490 116.7311096  13.2146549  33.2294869
 100.2275372  48.2144451  64.2102289 100.2539635  48.2910776  63.2564640
  99.5153427  48.7954378  64.4775534  91.3398170  40.1402521  25.9663391
  90.4655647  40.4583597  25.7411408  91.8834305  40.3829241  25.2167892
 112.6770592  36.6795349  41.5267754 111.9144726  36.1053658  41.5976048
 112.7153778  37.1318817  42.3694754  92.7903366  42.4859571  40.4851532
  93.3267879  42.1767473  41.2151098  93.4203243  42.8441238  39.8598051
 104.8173332  36.9789934  25.8565497 104.0163898  36.6993546  25.4132462
 105.3554249  37.3587465  25.1619482  94.4701481  33.7450910  48.8030386
  94.1350269  32.9149461  48.4642410  95.3501225  33.5377002  49.1174698
 105.2348804  68.5276508  45.0651789 104.9910450  69.1817188  44.4102144
 105.9843159  68.9119720  45.5200052  81.5423870  50.1482344  44.3913078
  82.2275734  50.1567173  45.0596428  81.6562939  50.9741211  43.9210176
 111.9087887   9.2512828  23.5847688 112.7855873   9.6303874  23.6458921
 111.9505119   8.6728269  22.8232694  89.0945625  24.2954111  57.2907686
  88.2509422  23.8533878  57.1951532  89.3643951  24.4930863  56.3939142
  12.0053566  34.9092007  50.2529716  12.9256809  34.6879530  50.1105452
  11.5298522  34.1074157  50.0355577 115.1665115  49.0570879  45.7376957
 114.4633198  49.4054651  45.1896143 114.7893238  49.0205479  46.6166925
 102.6230907  45.7269573  40.3526592 102.4301243  44.7938490  40.2615356
 101.8122101  46.1654997  40.0950050 106.4749527  55.0294399  40.4342079
 106.1885834  55.9016752  40.7051897 106.9046307  54.6669722  41.2089491
 113.4094143  59.1944599  35.7484221 113.5501671  59.3864822  34.8213029
 113.1097984  60.0233078  36.1218834  88.7487984  54.3059874  57.9041767
  88.8722038  54.0711737  58.8238907  88.0189323  54.9252462  57.9109383
  88.3031368  35.9283924  36.2421560  88.8901138  36.0626197  36.9862461
  87.4834442  35.6281638  36.6348267 109.5678043  44.5158720  36.2891078
 109.9111938  44.1680050  37.1120930 108.7999630  43.9756393  36.1025620
  77.9765797  46.5004349  86.3621712  78.3424377  47.1313238  85.7422066
  77.9636669  46.9661951  87.1983147  90.8704185  45.5555725  52.1421146
  91.2360191  46.0586739  51.4144754  91.5997219  45.0189638  52.4526024
   5.4783142  53.6473465  72.7861595   5.3042608  52.9471016  72.1571970
   5.6788009  53.1909418  73.6033106 101.9809628  41.3274002  61.2303782
 101.4251709  41.0647392  61.9640970 102.7446938  41.7323685  61.6414118
  76.6747379 110.0607109  54.3603373  76.6917372 110.5097771  55.2054882
  77.5057697 109.5871162  54.3239975  18.0522227  44.9854708  38.5071230
  18.3659554  45.6995916  37.9522943  17.1335733  44.8768806  38.2611108
 106.3628292  31.7743802  63.7746477 106.6778088  30.9995842  64.2401743
 107.0333958  31.9455814  63.1133890 101.1112881  26.1805320  54.5590925
 100.7899666  26.5678310  53.7448549 100.3212357  26.0139060  55.0731754
  15.8464301  27.3076415  68.2131720  16.5962946  27.6049232  67.6978493
  15.2703202  26.8852401  67.5760651   1.0348390   3.1460285  59.1407442
   1.2769020   3.7672862  58.4539557   1.8449895   3.0019176  59.6297407
 107.8874683  24.0632415  24.4363689 107.5880718  24.1192532  25.3438139
 107.1074009  24.2518759  23.9147067 115.0999451  40.6106377  65.3989649
 114.1986561  40.3888178  65.6328678 115.6249809  39.9008489  65.7687902
  98.4245491  35.9155273  51.8343210  98.5008430  35.7733178  52.7778196
  98.0727100  36.8020320  51.7534018  80.2062225  23.8265133  37.9800773
  80.3268528  24.7488213  37.7541828  79.3912411  23.8074040  38.4817505
 118.8582230  52.4763489  35.2427149 119.2881012  51.6218805  35.2790380
 119.0781975  52.8184938  34.3762398  79.3069029  26.3617587  66.8807125
  79.9548626  27.0322537  66.6643429  79.5921469  25.5875731  66.3954210
 112.3919201  17.7954412  40.2525568 112.7650833  16.9756281  40.5764198
 111.4694691  17.7549040  40.5049181   3.8700241  35.3261757  46.6751862
   3.5391682  34.4640684  46.4231157   4.7854057  35.1724386  46.9090080
 101.5204334  33.1844711  42.1891689 101.2150288  32.5382018  41.5525436
 102.3782921  33.4556770  41.8624401 118.2448196  29.1182685  38.9670396
 118.8780975  28.4007430  38.9483619 118.4182835  29.5693779  39.7932577
  11.4619744   7.0050633  19.0547264  11.1779034   6.4991820  19.8160541
  12.0811522   7.6434124  19.4087899   2.1829453  22.0167089  64.3052578
   3.0274794  21.5696740  64.3614054   2.3623429  22.8038883  63.7910604
 110.2652454  22.3031998  45.4218674 110.8968925  22.3402739  46.1401129
 110.3691769  23.1395769  44.9681044  99.4897270  73.8741159  89.6074009
  99.6592522  74.1263580  90.5150700  99.1983700  72.9639816  89.6621609
  98.2804203  31.0734320  51.5701294  98.3573341  31.4760089  50.7051182
  97.7762794  30.2740455  51.4183092 102.2727680  49.6783924  51.2595320
 101.6642189  50.3436947  50.9381819 101.7565346  48.8726568  51.2824249
  96.6326618   2.0788234  47.3741150  97.5029373   2.3542820  47.0860720
  96.5021896   1.2257425  46.9600344 109.2702007  34.6594834  69.0584373
 108.9624882  35.5164480  69.3536615 110.1385975  34.5686388  69.4506931
 110.7830143  16.2270057  63.0863047 111.4787388  15.5814373  62.9620790
 110.9954453  16.9293547  62.4716425  88.7593746  39.5557570  74.8437595
  89.2815208  40.1538038  75.3784895  87.9380131  39.4586873  75.3256035
  88.3804607  19.1664553  10.3576577  88.5167599  19.5059025  11.2422085
  88.0155182  18.2915771  10.4904437  47.0096970 111.7731380  45.0557709
  46.7088795 111.7424393  44.1475868  47.3706245 110.9015846  45.2181196
  98.0772877  19.0752780  49.2053413  98.3282185  19.8850060  49.6498728
  98.5889149  18.3940470  49.6416855 105.7532597   4.1351333  57.4085855
 105.2328777   3.5040659  56.9114065 106.5946960   3.6989579  57.5426340
  93.7042904  33.0395603  76.6094542  93.7239361  33.2949352  77.5317478
  94.5331097  33.3607268  76.2542915  94.7895050  61.7924690  37.9282618
  95.0489426  61.0559082  37.3747253  94.9410343  61.4853621  38.8221049
  83.8320827  50.3257561  50.3629303  83.1126595  49.7105980  50.2206516
  84.5503712  49.9811268  49.8323441  79.9267006  49.7325754  46.5557337
  80.7569504  49.6195078  47.0184708  80.0547314  49.2826271  45.7206345
 113.5086632  10.5652893  32.7438211 113.0746841   9.7396046  32.9586244
 113.6485863  10.5233073  31.7978358  20.5204439  13.5735309  42.9371834
  20.5324936  13.9683604  42.0652866  21.3280416  13.0614388  42.9793930
 110.4481030  22.8779435  62.1042204 110.9725666  23.0801892  61.3294554
 109.5748711  23.2099271  61.8956709  86.2923050  40.4006529  14.5328176
  86.7512894  40.1972055  15.3477859  85.3956413  40.5956841  14.8051882
 114.3783188  46.7350101  23.6771560 115.0397682  46.8001461  24.3659782
 114.8236656  46.2850285  22.9592299 112.8119278  31.1565685  43.1532621
 113.2181740  31.2226152  42.2890711 112.0143414  30.6485820  43.0047894
 115.4606915  27.9770565  59.5671654 115.2312851  27.9582429  58.6380529
 116.0844231  27.2589493  59.6744585  98.2146835  41.7831182  46.2145185
  97.7984142  42.1238852  45.4227924  97.4960232  41.3987017  46.7164898
 114.6546555  58.2847023  44.4145203 115.2220249  58.0151987  45.1368046
 114.9541187  59.1658592  44.1906595  79.8773670  37.9560375  47.4728870
  80.4678249  37.2298598  47.6735401  79.3579721  37.6446056  46.7316246
  99.7642899  30.8197451  69.4648647  99.9705219  31.3356137  70.2443361
  98.8091946  30.8450603  69.4066811 116.4197445  29.1249895  54.9350977
 116.6045856  28.2359052  54.6324587 116.4086056  29.6524119  54.1363907
 100.1929855   7.4393249  38.5193753  99.4054031   7.0408803  38.1489849
 100.6090832   6.7329401  39.0134501 114.9207115  57.2995090  57.6300907
 114.9115944  57.2239208  58.5842562 113.9982510  57.2589397  57.3777866
  98.2541466  49.8814821  64.5468330  97.5733852  50.0313997  65.2028322
  98.3137894  50.7093477  64.0700579  95.2242756  17.5040734  31.0042572
  95.6788158  17.0269871  30.3099799  95.0933456  18.3818245  30.6455898
 111.9188786  49.8021078  19.2111826 112.6783943  50.1838017  18.7710893
 111.8847370  48.9005852  18.8913023  16.2090254  57.0946836  46.0553408
  15.3680038  56.8327761  46.4299393  16.3406539  57.9906893  46.3653088
 111.7726326  63.4082127  47.0837975 111.5799713  64.1923571  46.5697670
 111.8693638  62.7129889  46.4329958 106.8753242  70.8688736  30.9722781
 107.2504807  71.4456797  31.6376996 106.0129356  71.2422419  30.7903004
  87.6690006  31.3312793  58.2753658  87.4927711  32.2572803  58.1089497
  87.0828819  30.8650231  57.6792955 114.0536308  25.1466918  20.5944991
 114.6220684  24.5613265  20.0940371 113.7150574  25.7639909  19.9460101
   6.8868166  64.7194386  45.4906464   6.4180058  65.5493164  45.5787086
   7.6680535  64.9384117  44.9827528 113.7350464  69.0676546  43.2838583
 112.8687382  69.2909718  42.9434490 113.6059093  68.9795876  44.2282104
   7.3621845  54.4065332  37.0095873   6.5998656  53.8382006  36.8995976
   7.0151705  55.2936268  36.9153285   5.2748138  54.7719812  53.1827021
   5.3107971  54.0664005  52.5368738   6.1420006  55.1754808  53.1451750
  84.9868393  35.1720786  40.0532389  84.1186810  35.5274916  39.8629308
  85.4990292  35.3565574  39.2659259   3.4073955  51.4661455  65.0979376
   3.6685994  51.3757563  64.1815090   3.4275970  52.4091673  65.2608490
 109.6407413  76.8263149  29.4241333 109.3301201  77.0537090  28.5477543
 110.3502274  77.4457264  29.5949864  96.5161419  80.6783104  15.9283936
  97.3489952  80.2085304  15.8848000  96.3333130  80.9262943  15.0221336
 101.0930252  46.5425634  44.2258072 100.9610653  46.7390108  43.2983255
 100.2483845  46.2025642  44.5211506 115.8961773  63.3106327  34.4949460
 115.8268356  62.9083395  35.3607321 116.1985779  64.2020559  34.6685719
 108.6320305  34.2044163  63.8746023 109.2618752  33.7927651  63.2829285
 108.6469746  33.6563993  64.6592569   3.5919350  56.6842556  63.0917311
   4.1161764  57.2022438  63.7025452   4.2347911  56.2688971  62.5168896
   7.3118085  53.0971909  20.6253576   6.8869942  52.4974871  21.2386465
   6.5913975  53.5965776  20.2408433   5.9987086  66.8327808  36.5397835
   6.7630243  66.7895603  35.9651661   5.4123580  66.1518192  36.2100601
 105.2789307  31.2424088  32.4593544 104.5973110  31.2714195  31.7879438
 104.8335171  31.5064836  33.2644057   2.2911154  47.8055954  41.2186337
   2.2325435  47.5921154  40.2873802   1.3906550  47.7397585  41.5365458
 108.8886738  51.2175560  50.5252790 109.2537498  50.7962275  49.7471809
 108.0599689  50.7632113  50.6771231 110.4173565  57.0643520  28.3390260
 109.8756218  57.4946356  27.6775050 110.9770775  57.7616072  28.6807442
   6.6737664  37.2080779  50.5940199   6.5199482  36.3051820  50.3159046
   7.4336815  37.1540308  51.1735344 115.4064560 105.7717323  57.0778084
 116.0360909 106.4723778  57.2477627 114.5998573 106.2276554  56.8374968
  23.1584167  62.2849989  73.4005070  23.7380695  63.0267572  73.5737848
  22.4779344  62.3511934  74.0704298 102.1775913  49.7943926  34.6882558
 101.8017769  50.4893398  35.2286673 101.7916489  49.9288750  33.8226938
  10.5112875  50.8284283  53.5594893  11.0370970  51.4330149  54.0831614
   9.6302092  51.2021875  53.5748625   1.1254670  62.4550533  30.6196117
   1.2498949  63.0077744  31.3911319   1.4035887  61.5837145  30.9018350
   4.8999557  67.1612740  30.7337070   4.5146114  67.4402905  29.9031115
   5.2262747  67.9692841  31.1297679  88.5277939  25.4811406  48.0613756
  88.5253429  24.5330215  47.9298639  89.2994785  25.7870650  47.5847912
 108.1010914  34.9047852  50.7683706 108.0683994  35.5862999  50.0970316
 108.1287766  34.0845084  50.2758169  86.8973351  59.8978281  35.5054283
  87.2134495  59.0182590  35.2988720  86.1878300  59.7563028  36.1321688
 102.6035309  63.1994104  44.4369936 102.8815365  64.1071939  44.5589447
 102.4920177  62.8616285  45.3256464   6.8082249  75.4742622  25.7367444
   7.2949713  76.2929440  25.6414938   7.0826036  75.1299858  26.5866995
 110.7790852  34.8478603  41.5410662 110.1353455  34.2470598  41.1657429
 111.0518456  34.4276595  42.3567057  59.6751165 109.9884701  58.0112267
  59.0818739 109.3582439  58.4200287  59.2973423 110.8429527  58.2194996
 113.9315987  64.9570274  20.6456399 113.8886261  65.8709621  20.9268999
 113.0242634  64.7240448  20.4489589 113.9603901  47.1826458  31.2767839
 113.9283657  47.1674204  32.2333264 114.5999908  47.8639078  31.0693645
   7.4906462  59.4932508  21.7523670   6.8161803  59.1861868  22.3582053
   7.2212106  60.3831673  21.5250325  90.8486366  27.6525235  42.2435522
  90.7759190  28.5696244  41.9792271  91.4848518  27.2774792  41.6346169
   4.2604536  15.1459730  51.0451508   3.3509487  14.8475981  51.0429096
   4.4397953  15.3607869  51.9605350   8.3492786  56.1665010  34.7058511
   9.0403044  56.7610216  34.4138551   8.0510759  56.5357494  35.5370927
 110.3612709  64.5240259  34.2724872 110.7190323  63.8562059  34.8575211
 109.4871807  64.2038250  34.0496182 107.8401756  38.7442040  45.4255629
 108.3980846  38.2899356  44.7942066 108.4534740  39.1889262  46.0106516
  83.1996441  83.0606079  23.8089275  82.7927780  82.6677704  24.5811772
  82.4854946  83.5243320  23.3716893  31.9714046  52.7135897  35.0955153
  31.2718987  52.0892429  35.2881694  32.4665356  52.3066664  34.3845367
 107.2401619  77.6913166  22.6357269 107.3401451  78.3352280  21.9345760
 106.9111919  78.1961870  23.3794475   2.0734438  19.6748018  51.9845819
   1.6922244  20.5336428  52.1670485   1.4749219  19.2764437  51.3526726
 118.6428989  66.3065052  28.9847994 119.1672040  66.9258499  28.4771109
 119.2846774  65.8062315  29.4888616  12.3381042  49.9822998  37.6430774
  11.3925385  49.8673630  37.7375674  12.5465286  50.7265472  38.2077765
 115.9483624  51.2489080  27.8333831 115.4829884  50.9312773  28.6071873
 115.2559662  51.4564991  27.2059059 111.2549973  40.6432772  43.8521671
 112.1877193  40.7269478  43.6540365 110.8879471  41.5025043  43.6442232
 102.6580334  63.7115383  38.4453893 102.6590919  64.4029093  37.7833962
 103.2395077  64.0370131  39.1325521 106.8673229  58.0341816  35.2193904
 107.2527790  58.8205671  34.8330545 106.8507290  58.2127094  36.1596489
  27.8990793  80.8182144  18.8415706  27.9287219  80.8970928  17.8880870
  28.2899618  81.6313171  19.1614318   0.8997806  70.2075672  32.2512937
   1.4256150  69.5595932  32.7201796   0.9265012  70.9858370  32.8079057
   7.3444927  67.8363085  74.0282536   7.4179441  67.2598648  73.2676268
   6.4348805  68.1341171  74.0161324 113.4587574  82.0726204  23.7598157
 114.3316746  82.2978020  24.0815902 112.8604412  82.5330734  24.3482304
 104.1780281  53.2638025  56.0057831 105.0855923  53.2432938  56.3093138
 103.7748909  52.4922085  56.4037275 113.1255150  93.6563015  34.9856424
 112.2560310  94.0412140  35.0955009 113.4461021  93.5299873  35.8786726
 116.7555046  14.5828795  37.2068214 117.6505566  14.9107182  37.1194792
 116.2603664  15.0575030  36.5391397 106.0916710  73.6219645  73.8706636
 105.8845520  74.5504904  73.7649584 105.7729244  73.2123995  73.0663681
   7.1459365  85.6304836  17.8606343   7.3586535  86.5637302  17.8552246
   7.8559279  85.2258873  18.3590746  96.7859650  59.2506361  56.7848682
  96.4761448  59.4571257  57.6666880  97.0936489  58.3462143  56.8447638
 103.6726761  73.4985018  27.5788617 104.0452480  74.1215324  28.2027626
 104.2143726  73.5913754  26.7951703 109.1491604  26.5761518  63.4142160
 109.8951054  27.0178509  63.8200331 109.5283699  26.0884476  62.6830673
  91.6072941  77.0438671  51.9605398  91.9512177  76.1564493  51.8583298
  91.7073727  77.4406624  51.0952282  21.8142867  32.7919102  61.3123941
  21.9246244  33.6894989  60.9987259  22.6564455  32.3718691  61.1375570
  93.5997295  54.3598795  46.5428162  94.0654278  53.5314798  46.6573238
  94.2790699  55.0295162  46.6223288  99.9975872  67.0816851  36.7279196
 100.0542068  66.4687729  35.9948659 100.5699730  66.7075348  37.3977065
 112.6885223  74.8587322  11.8617618 113.1950283  74.9038935  11.0508072
 111.8553257  75.2783585  11.6474450 113.1760502  72.0067215  46.3602638
 112.4144745  71.7631769  45.8340311 113.3377266  71.2436676  46.9150972
 109.3634892  45.7909489  44.4507599 110.0254536  45.2075672  44.8218298
 109.5352936  45.7799673  43.5091686 110.6151581  35.9683108  71.3987541
 110.4128075  36.7746186  70.9242487 111.3792515  35.6099534  70.9471273
  16.3358986  41.4461470  59.9528360  15.4492629  41.1182022  59.8026323
  16.6348743  41.7322445  59.0897083 107.4232006  35.0251055  47.1598530
 106.6503620  34.7244883  46.6817570 107.0998955  35.7334208  47.7166271
   7.6238966  36.7093682  63.5467911   7.2327179  37.4113512  64.0668201
   8.4784126  37.0525265  63.2854939 108.1543350  42.0639992  13.0743599
 108.3299065  41.3987923  12.4088490 107.3183632  41.8020821  13.4600997
 117.9630566  25.6905651  77.9133892 117.7246952  25.7266021  78.8397408
 117.1523094  25.8989978  77.4491835 110.7841492  48.5039473  50.4543447
 110.0358868  47.9167891  50.5619383 111.5306568  48.0033970  50.7835913
  15.1210546  27.7014804  52.3616838  14.4373167  27.0494056  52.5150871
  14.9447274  28.0306077  51.4803123   1.1267474  53.3533144  63.3947325
   0.4297184  53.2095194  62.7546501   0.6662939  53.5093164  64.2192793
 112.4178791  50.7777548  50.4287100 111.9612122  49.9416256  50.5213022
 112.6409149  51.0293770  51.3249063 114.3485355  51.4916325  41.8499851
 113.4242725  51.7404795  41.8560266 114.3492031  50.5798721  41.5585613
   1.7464831  61.7153597  48.2269335   0.9133983  61.3479853  48.5222960
   2.3257625  60.9580183  48.1426430 115.1126289  47.9343843  58.8678122
 114.5513248  47.9914093  58.0945587 115.1176643  48.8219881  59.2261028
  16.2480366  44.0608644  41.8075132  16.4794147  43.5294676  41.0457325
  16.1101389  44.9395037  41.4536715  98.8441086  43.0745697  42.7082777
  99.7238827  42.7625704  42.9201174  98.3809185  43.0720425  43.5459423
 112.5219059  86.1579418  46.0788822 113.3144474  86.3395500  45.5737877
 111.8944550  85.8350277  45.4321480  17.3220861  68.4764910  45.8604050
  16.6351914  68.1864977  46.4606667  16.8520319  68.9236116  45.1565838
   6.8513227  62.2859764  49.2604780   5.9303254  62.2754049  49.5210218
   7.2316658  61.5220308  49.6940136 118.9386177  67.2476625  43.4192467
 118.5214806  67.4326181  44.2606878 118.4630585  66.4905167  43.0774593
  10.2836823  72.6116943  38.8370705   9.8061121  73.1440496  39.4732761
  10.6315124  71.8814230  39.3488812   4.7174421  64.8488188  48.2004213
   5.0402051  64.3269825  47.4657488   4.5517769  64.2098141  48.8935804
  96.0726833  79.5994186  45.8583450  96.6856766  80.2920723  46.1047220
  96.0113239  79.0458393  46.6368151   1.0756286  71.6794300  48.0079269
   1.7593130  71.1359310  48.3996058   0.2714790  71.1733770  48.1240463
  99.6241856  82.5609970  70.1024723 100.5531693  82.4805260  69.8862696
  99.2325974  81.7481518  69.7828293  21.2284780  66.2723541  29.8041630
  20.5009460  66.5174055  30.3758955  22.0080209  66.3795853  30.3491807
  85.5242443  56.3597059  38.1099629  86.3754463  56.7618322  37.9367876
  85.7267666  55.4445791  38.3042812  19.0349042  77.1156788  38.6899638
  19.5439887  77.1071100  37.8794146  19.0488756  76.2072182  38.9911914
 100.9340668  39.4536448  34.5188117 101.2112331  40.2006102  33.9882851
 101.4959431  38.7340212  34.2312789   1.6879618  65.3892136  70.1955748
   2.1311797  64.9156570  69.4916296   1.5394589  66.2648821  69.8386765
  97.7419090  34.8039222  26.3344765  97.7448177  35.7499123  26.1884475
  97.8979015  34.7060895  27.2737980 105.4948330  29.9388862  49.7882557
 105.5573273  28.9933515  49.6530199 105.3833485  30.2997780  48.9087296
   3.5001561  66.1089611  45.0943995   2.7440697  66.4715862  45.5559921
   4.2571068  66.4376020  45.5794287  87.0879078  62.7848101  36.8411732
  86.6430378  62.4224138  36.0750222  87.9560661  62.3819113  36.8268824
 117.9987526  40.8982754  64.1986084 117.7650356  40.1525784  64.7513628
 118.2425308  41.5874004  64.8165989  20.5087137  66.2397575  43.2798386
  20.8376765  65.3795671  43.0189037  20.0300694  66.0766888  44.0925789
 118.1464672  68.5977268  46.1548567 117.9981995  69.5433235  46.1646175
 117.3479939  68.2261992  46.5298700  36.4621997  53.1548977  71.6158915
  35.7583141  52.7863932  71.0820532  36.6926384  53.9734507  71.1764622
 110.9124279  74.9164534  26.6763568 110.7438946  74.5914125  27.5607657
 110.5703068  75.8104134  26.6804862 108.4518528  60.7222891  40.9021616
 107.6464176  60.7179403  40.3849697 108.2990742  61.3828897  41.5778065
   6.3475782  58.1992865  89.5072651   5.5731547  57.7181244  89.7987938
   7.0186192  57.5263596  89.3927765 102.6453781  67.0071602  25.9636998
 103.2420444  66.5715218  25.3550649 102.9634190  67.9089546  26.0066986
 105.3487587  59.2345619  78.4683084 105.9276581  59.6442556  77.8254557
 105.5016613  58.2954168  78.3641148   5.1492155  76.3236809  30.7407999
   4.5391515  76.9717932  31.0929394   4.6404499  75.5139828  30.6985879
 102.5283146  53.5350227  41.9138479 102.3527908  52.8895044  42.5984907
 102.3558807  54.3792343  42.3307514 116.1649036  68.5928440  28.4549999
 116.7721176  67.8900862  28.6866283 116.5412235  68.9844465  27.6668000
  17.2263169  65.8245659  35.0688481  17.2484779  66.3849211  35.8445692
  16.8357146  66.3728666  34.3883872 101.2514400  42.1879482  64.1827393
 101.3181591  42.9817295  63.6519957 100.3109264  42.0233345  64.2502642
  23.3579469  64.0308285  52.1369076  23.6467695  64.1110182  51.2278509
  23.5844660  64.8712349  52.5352097 112.3522377  64.0711308  51.9563532
 112.4934864  64.8584843  51.4306593 111.7711449  63.5283899  51.4234352
 113.8461304  49.9958229  29.0757275 114.4647503  49.5307779  29.6390033
 113.0092239  49.9330616  29.5360279 102.7470303  57.7146673  56.5710831
 102.4096775  58.6059999  56.6602659 103.6063194  57.8234529  56.1636209
 118.3352566  83.5124493  25.9439397 118.6114597  84.2689323  25.4265571
 117.9041481  83.8908672  26.7102098  17.8372884  37.7788234  55.6118727
  17.9619026  38.6397696  55.2125311  17.1035528  37.3957467  55.1311302
 113.4512615  48.8953114  48.1737661 113.3454323  49.5546103  48.8595915
 112.9657078  48.1355095  48.4949684  62.7060604 110.9350014  51.3535118
  63.6418772 111.1214161  51.2778568  62.2984123 111.4776325  50.6785250
  33.8162398   2.3406403  36.2706161  34.4458342   1.9177440  36.8545699
  34.2011356   3.1967315  36.0830140  75.5788755 112.0516396  46.4328671
  74.8138762 111.6832161  45.9909630  75.4611349 112.9991722  46.3655138
  94.4071484  36.2566805  29.6857452  94.7242832  35.3796339  29.9012518
  94.0570450  36.1735344  28.7987590  63.7845659 104.5870495  24.6073937
  64.1240788 105.3969574  24.9881887  63.4448671 104.8487377  23.7516165
  66.6263955 111.9867394  26.1697435  67.1640962 111.3937956  25.6448364
  66.2933057 112.6275058  25.5414867  91.3199997   0.1664666  33.1010842
  92.0680618   0.4263548  33.6387610  91.5115929   0.5253816  32.2346520
  75.8690166  12.9531062  34.9821997  74.9894810  13.2912421  34.8139381
  75.7294464  12.1933079  35.5474067 117.1562386  12.2610438  44.3298483
 117.3484993  12.6245368  45.1942205 116.3204575  12.6574731  44.0838003
  94.5451546  12.1640718  46.8670797  94.3422222  12.8881669  47.4593067
  95.2256203  11.6669142  47.3210001 112.6863003  26.0131550  47.9162502
 112.0921135  26.5587950  48.4314632 113.0138588  26.5962720  47.2314739
  96.0606766  10.0392747  47.8110981  96.8237591   9.5396829  47.5206757
  95.8700943   9.6989346  48.6852121 112.6531124  12.9999125  34.2383862
 112.6415157  13.3961809  33.3671403 112.8913593  12.0860040  34.0826845
  75.0125313  17.8336966   4.6254513  75.9647369  17.8105378   4.7203225
  74.7495079  16.9133437   4.6241492  10.9539425   4.9246672  57.3791361
  10.9337926   4.5139769  58.2435179  10.0783002   5.2954769  57.2696733
  52.5848866 108.4086704  60.0710917  52.2525454 108.7286663  59.2324162
  52.1062231 108.9150715  60.7273483 103.0574894   5.1200414  18.2998943
 102.6295853   5.7840335  18.8404858 102.3814106   4.8422489  17.6818490
   7.7549797   9.0486866  60.4552460   6.8333817   8.9465445  60.6928539
   8.0625945   9.7760123  60.9961748  59.8393059 110.2069855  37.8960705
  59.7908068 109.8024654  38.7622356  58.9269829 110.3689957  37.6559663
 111.7968178  22.6367664  29.4263792 111.2393379  22.2319293  28.7618899
 111.7324352  23.5759664  29.2532110  77.2190714  15.0481081  31.5809512
  77.2822142  15.5045497  32.4199414  77.8747320  14.3529463  31.6365385
  90.6177902  23.6000538  24.8587918  91.2862206  23.0461669  24.4554877
  89.9985409  23.7814474  24.1517901  83.3700180  31.4993548  47.3850298
  82.4855328  31.1624813  47.2420740  83.8132286  31.3721776  46.5462112
 112.1703434  24.7944880  27.7121186 111.7034054  24.3216705  27.0231748
 113.0207539  25.0030375  27.3253942  72.6321936 102.7107334  24.6828938
  72.0875120 102.8584957  25.4560184  72.1818113 103.1785202  23.9796448
 114.6898651  15.3233147  19.3158686 115.0344563  16.1927998  19.1121912
 114.8566341  14.8085821  18.5262668  66.5034866  98.2727337  32.1750832
  65.7495403  98.2975197  32.7643061  66.7707157  99.1878700  32.0894313
  72.3809719 111.6940308  30.9896588  72.7323723 112.3775101  31.5602684
  72.8619623 110.9044266  31.2374616  80.5476570  11.0617018  21.3787794
  81.4791203  10.8508968  21.3142204  80.1252079  10.4746652  20.7517529
 104.1091633  32.2001791  35.2009964 104.3378067  31.3467526  35.5692554
 103.2928276  32.4394655  35.6398296   2.6700199   4.7227651  34.5282125
   2.6799306   5.4984045  35.0890303   2.7393478   3.9867070  35.1361966
  94.6159267  19.9095380  29.4898772  94.0947914  20.4714680  30.0633597
  94.0054321  19.6327198  28.8065767  97.6338100   7.2783107  34.5192027
  97.6079655   8.1809878  34.8365927  98.3976936   7.2487539  33.9431429
  63.1936169  98.2567883  17.5039232  62.6934099  97.6259327  18.0216551
  62.7717590  98.2495594  16.6447270 104.3026543  42.3020124  44.4743967
 105.0916100  41.7602491  44.4579363 103.6420155  41.7503929  44.8933363
  76.6620827  19.2386699  22.3195815  77.3877001  18.7850547  22.7484727
  76.5110493  20.0138474  22.8604341  73.1722212 110.6600189  28.0387664
  72.2826147 110.5253601  28.3654189  73.1080246 110.5018997  27.0969033
  75.7840204  23.0762434  29.7558475  75.8430719  23.6344290  30.5312014
  75.9607506  22.1938324  30.0819612  94.2972851  26.4220238  52.9209614
  94.4557762  25.6741261  52.3449707  93.7787056  27.0270801  52.3906660
   7.9267591  21.8054652  41.1202431   7.0355994  21.7656922  41.4673471
   8.3988744  22.3659015  41.7360735  91.3998318  10.4366517  38.1352949
  90.6289005  10.2108324  37.6148129  91.6110039  11.3329840  37.8740931
 104.8428345  19.9132836  59.3007755 105.7851315  19.7624612  59.3753672
 104.6815872  20.6904817  59.8357487 112.3620319  10.4725528  42.4804449
 112.8139877  10.0876260  41.7295837 112.2608376  11.3963866  42.2512627
  86.9219208  21.8872571  67.7178144  87.0886326  20.9749150  67.4810219
  87.0280075  22.3705935  66.8984461 104.6015167   5.7349265  41.0577583
 104.8619366   5.7941461  40.1385689 105.3612900   5.3537500  41.4978600
  77.2489405   8.6185974  16.8069136  76.3113642   8.7982607  16.7369092
  77.4559927   8.1160408  16.0190058 118.5863113  22.1688676  35.6473088
 117.6364231  22.1129346  35.7512975 118.7868595  23.0963016  35.7733417
 111.5190887  23.4884524  20.9643102 111.6526318  22.8770280  21.6885734
 111.5203762  24.3522406  21.3767409   9.7955179  35.7211137  23.2258201
   9.4989747  35.7705355  24.1345835   9.8793602  34.7835922  23.0518866
 115.3030300  29.6164823  63.2881308 115.8438683  30.0673532  62.6397133
 115.9293175  29.2735076  63.9255953  88.2668400  32.3493052  27.4532890
  88.0471516  31.7031622  28.1244588  87.6785374  32.1481681  26.7255044
 111.3503265  20.2627802  18.1714439 110.6450272  20.2968407  18.8176835
 111.6580296  19.3568444  18.2002568   1.8990791  13.2850039  35.0644732
   1.5804517  12.4456513  35.3964305   2.6200438  13.0529678  34.4791508
  69.9442339  26.0808229  19.1476762  69.2994261  25.5554461  19.6214235
  69.6070242  26.9753146  19.1967523 116.7578697  16.2602222  32.9283953
 117.5732994  15.7712531  32.8178787 116.9052505  17.0810556  32.4585629
 105.0582695  10.4780614  40.8700037 104.4983101  10.8504176  41.5511990
 104.6348286   9.6518427  40.6369972 113.2032204   8.4314692  67.3834991
 112.6868439   7.7059025  67.7344084 112.7273178   9.2168057  67.6536703
   0.9735072   0.4643806  41.5370846   0.4090271   1.2011406  41.7711306
   1.6502067   0.8487132  40.9797716  27.1984482  19.8010731  42.4688053
  28.0977154  19.4860411  42.3776817  27.2392058  20.4391026  43.1811905
  73.1172085 103.6722851  35.0345993  72.6914549 103.0696964  34.4248009
  72.5094700 104.4081783  35.1076913 117.3471928  20.9845138  32.7416444
 116.7395973  20.4215121  32.2619653 116.8850899  21.2002730  33.5516739
   7.3527783   2.9325840  43.6899281   7.7398431   3.7479541  43.3712053
   6.7881811   3.2025465  44.4142103  74.3850136   6.7997378  18.7771630
  74.6792126   7.6056266  19.2016852  73.5908985   6.5549105  19.2522192
  95.2291679  16.2697673  56.6646719  96.0365868  15.7560933  56.6859007
  95.1475430  16.6243649  57.5500154   3.8720879  13.0388808  16.2367177
   3.8061780  12.8981829  17.1812236   4.4887215  12.3707092  15.9374833
  89.7369576  46.1055660  24.3726707  89.5382404  45.8685589  23.4668159
  88.8905430  46.3485575  24.7478557  21.4483190  63.4659529  45.8659983
  21.0172272  62.6113415  45.8712101  21.1955047  63.8668156  46.6976404
  88.6125183   1.7405686  32.4258995  89.1852665   2.2734152  32.9775000
  88.9914036   1.8101569  31.5496349 104.8247814  31.0163331  22.8690600
 105.7061958  31.2519836  22.5795507 104.3305492  31.8347406  22.8224206
   5.4422343  17.8556120  30.1093721   4.9325266  17.3164105  29.5046473
   6.2916225  17.9590440  29.6803331  89.1885376  27.8167987  24.0072274
  89.7687626  27.1562147  23.6288118  89.3171406  27.7354622  24.9522543
  93.1067276  29.6436977  16.9085515  92.4162292  28.9897776  16.7997217
  93.9079285  29.1925597  16.6425002  79.5191956   8.9131755  42.7148056
  79.1974878   8.0133885  42.6589632  78.8757992   9.4282228  42.2279787
 113.1206703  20.9542012  32.6415277 112.4012661  21.2790275  33.1829882
 113.7588692  20.6153679  33.2693219 101.8832970  42.4033356   7.3046553
 101.8390369  42.0556641   8.1953841 101.0680866  42.1149206   6.8941855
  91.9336319  42.5266647  47.1165514  91.3389874  42.6167679  46.3718939
  91.7309666  41.6655302  47.4820709  98.6199856  18.4910369  31.2069345
  99.2152023  18.2652903  30.4920959  97.7730083  18.1386018  30.9337139
  85.7044792   9.4792807  15.9173286  85.0477409  10.1554775  16.0837114
  85.2106857   8.7554812  15.5319464  45.9552288 111.7984486  51.6219425
  46.5449476 111.1424923  51.9936895  45.0857639 111.5391254  51.9269323
   7.4447507  27.0341849  39.8255301   7.8290045  26.5136719  39.1200876
   7.8517795  27.8959346  39.7363830 113.2383919  53.1152153  62.0971346
 113.2224369  53.8389015  62.7234364 113.0062962  53.5176039  61.2602043
 106.8378258  34.5277452  53.1305599 107.2382641  34.7583699  52.2922897
 107.5218391  34.0495086  53.5992241 116.4171314   5.0241798  32.2488976
 115.7705688   5.2978623  32.8995037 117.0392513   5.7505548  32.2092175
  91.3322830  27.4204755  12.0945227  90.8435059  26.6906142  11.7142260
  92.2513390  27.1889138  11.9605553 115.3727055  17.8147388  43.2193136
 115.3697300  18.6658454  43.6573076 116.2943459  17.5567412  43.2034826
 101.1438370  36.0783672  39.5148110 100.3858566  36.5103006  39.9086761
 100.7842827  35.5947804  38.7711072 102.9017067  14.6451294  35.6453180
 102.0806503  14.5734084  36.1320996 103.4004974  15.3141224  36.1142349
  72.8627777 108.2160378  30.8066297  73.3767509 108.7009716  31.4523029
  72.8664732 107.3137856  31.1262608  10.4000831  24.2462993  42.9043341
  10.3208864  25.1458502  43.2217741   9.5002848  23.9777350  42.7186775
  62.6092434   6.3505793  54.4743347  62.4794531   5.4895866  54.8719263
  62.0750046   6.3307357  53.6803389  94.9696827  29.7432971  48.7159300
  94.6659756  28.8414335  48.6127949  94.2793560  30.1721382  49.2216778
  98.4809875  13.5743415  29.5609403  98.8464451  14.4510305  29.4422698
  98.7889099  13.0815113  28.8003254 113.2165718  19.1810060  27.6691818
 113.2512665  19.9600673  27.1141195 114.1110897  19.0783548  27.9940486
  96.7078972  25.8865166  54.3586016  95.9406376  26.1454415  53.8482046
  96.8307018  24.9597549  54.1530275  67.8938961  23.6278462  54.6739435
  68.2085657  22.9360723  55.2558899  68.3119345  23.4420824  53.8331318
   6.3562399  23.8448381  34.3292856   7.1411550  23.8107538  33.7824965
   5.7304406  23.2720804  33.8859415 102.2505951  27.9593849  38.6797976
 102.2252941  28.5516095  39.4313693 103.0623341  27.4646711  38.7919044
   3.3096617  14.4262075  46.5831089   3.7214577  15.0932622  47.1323776
   3.7023997  13.6023903  46.8717527 117.5867558  11.5521812  29.7286725
 117.5094128  10.5994391  29.6783710 117.2104931  11.8667626  28.9066672
  82.8568935  22.4517870  18.2781458  83.3298206  21.8545556  17.6985896
  82.2120190  22.8750181  17.7113581  75.2258539 110.3011799  22.5472212
  75.5705881 109.6454430  21.9410944  76.0032845 110.7383060  22.8947186
 104.9280071  57.1542645  47.5229263 104.4563007  57.9840565  47.5947809
 105.0075626  56.8450594  48.4253073   7.2430122  31.6143942  43.0124426
   7.8240299  31.1622500  43.6241770   7.8267550  32.1636939  42.4892378
  72.8326321 111.2742615  48.6955309  72.9493952 110.9077549  49.5720387
  73.7016487 111.2243652  48.2973385  42.6248169 104.4852543  45.0085068
  43.2288456 105.2197266  45.1177454  43.1384897 103.7146664  45.2505207
 111.1288452  14.1800869  28.4558749 110.5839157  13.4213161  28.2471895
 112.0200920  13.8326502  28.4904599  74.0953541 104.2681694  48.1058645
  73.3457708 104.5065975  47.5604153  74.7893620 104.0585899  47.4808359
 107.0230961  51.7966413  54.2295218 107.7812195  51.3656616  53.8348961
 106.4118195  51.0837126  54.4147539  35.0321722 107.4695778  34.8667455
  34.2049432 107.0357609  34.6576524  34.7757769 108.2505226  35.3572869
  88.9368725   4.6091872  36.4599299  88.0906010   4.1976187  36.6350555
  88.9185143   5.4201859  36.9680381 116.8930531  18.5806155  52.8645754
 116.4985847  19.0566719  53.5953236 117.7199841  18.2482243  53.2137728
 106.8185043  10.7044947  37.4032998 105.9454155  10.7741916  37.0171857
 107.4122620  10.6941891  36.6525817 105.9100533  29.8527312  43.9543343
 106.1469364  30.7379270  44.2310095 106.2409782  29.2871070  44.6520329
 112.6187229  23.5419035  68.6081266 112.7757072  23.7978721  69.5170069
 113.3688354  22.9923511  68.3810854 104.6272469  24.7624207  29.8241234
 104.7997379  25.1667833  28.9738464 105.4014874  24.2264390  29.9959254
  98.5575771  37.0271492  45.5564690  97.9985523  37.3010516  44.8293447
  98.9623737  36.2140965  45.2542877 107.5365257  26.4118481  57.3877716
 106.9388771  27.1351099  57.5773239 107.1520996  25.9766269  56.6268301
  96.1858273  29.7408676  44.5709610  96.2780857  30.5823541  45.0177479
  96.9895744  29.2669201  44.7844982   8.1395048  50.4531622  30.9115458
   8.2850200  51.1250067  31.5776420   7.9368591  50.9448671  30.1156855
  97.9469776  31.4956236  56.3138151  98.7130928  31.5187001  55.7404327
  97.4232960  30.7651711  55.9845352 106.8686295  38.3529615  29.7818375
 106.4000034  39.0605569  29.3391967 106.5504837  37.5546050  29.3603659
   7.9638314  35.6052303  54.9544764   8.6186290  36.2608790  54.7144842
   7.1711302  36.1118650  55.1310492 114.3435383  45.1501322  35.4209900
 113.5118771  45.1540947  34.9471188 114.4774342  46.0625696  35.6774306
   3.5876361  23.9987731  40.8538151   3.8253140  23.0735636  40.7927418
   4.1321132  24.4299197  40.1951122 108.0090237  35.0458503  37.6707911
 108.4230995  35.5875373  38.3426142 107.4311352  35.6471062  37.2009277
   2.0900232  10.4835570  47.9465342   2.8044549  10.0810075  48.4402704
   1.8094821  11.2205839  48.4890461   7.1342647  26.0864162  42.3389435
   7.1669036  26.9682264  42.7098513   7.3436701  26.2081909  41.4129019
 112.0400238  54.4790363  59.6583414 112.0399761  54.6899128  58.7246609
 111.4079762  55.0873756  60.0413179 115.2526951  28.4431410  41.9816875
 115.5182171  27.7492762  41.3781261 115.7427311  29.2127895  41.6923046
  21.5547895   3.2567546  47.1740627  21.6242099   2.9171875  48.0663109
  20.8916330   2.7053377  46.7588568 116.2925434  15.2157664  26.7905331
 115.6146240  15.7859087  26.4277625 115.8614254  14.3675661  26.8950748
 110.2060032  53.4989357  14.6362722 111.0878849  53.1379986  14.7270322
 109.7618103  53.2528353  15.4476643  12.0387006  25.8082795  65.2042103
  12.5803447  25.1400948  64.7842360  12.5343776  26.0643196  65.9820127
 116.3154316  22.6785159  36.9408655 116.4059162  21.8249536  37.3645091
 115.7470512  23.1778765  37.5272250 115.8836079  30.8451152  25.5287790
 115.4161930  30.4133892  26.2438774 116.4872265  31.4460468  25.9655309
   4.9319422   9.5021039  31.8377686   4.5080855   8.8635564  32.4112105
   4.2163831   9.8712927  31.3201737  26.5536571  39.5471835  33.2045197
  25.6656861  39.6539378  32.8634286  26.4594483  39.6438217  34.1521573
   3.2119164  40.0799084  45.8400488   2.8781718  40.0416040  44.9437332
   3.0051911  39.2214131  46.2094879  65.9133530 108.8725758  38.9090514
  65.5338383 109.4123554  39.6024776  66.3378668 109.4991493  38.3230257
 104.5981789  23.7490320   3.0156043 103.6835098  23.6063504   2.7721891
 105.0044632  22.8859329   2.9367009  11.6142023  21.6200924  53.0377388
  11.1356938  20.8143210  53.2326555  11.0985518  22.0450377  52.3523474
   2.1579221  25.1241708  23.9681673   2.8532821  25.1817441  24.6234465
   2.1514165  25.9849644  23.5495710 107.0342445  56.8897676  28.2268953
 106.7402172  57.7788925  28.0288267 107.2514725  56.5137291  27.3738790
 110.6519985   8.8347262  25.9993339 109.8906803   9.3997967  25.8677530
 111.1602020   8.9260274  25.1933384   7.5888330  10.5477798  31.4352632
   6.9119257  10.0011122  31.8342400   8.3317351  10.4854345  32.0356321
  91.9820976  52.1926403  32.5878263  91.6114616  52.9997873  32.2309256
  91.6480255  51.5020657  32.0153475  93.7888908  44.0170097  45.4290962
  93.0804539  43.6952686  45.9866238  94.1858482  44.7278214  45.9324837
 103.7621117  28.3419323  55.7669544 103.9946651  27.8605676  54.9729538
 102.8258514  28.1784225  55.8806086   5.4373264  32.6859736  17.8399563
   5.5393827  31.8512297  17.3827708   5.8695638  32.5515366  18.6833608
  86.1082458  20.7599187  20.8689213  86.0102749  20.0437713  21.4964294
  85.4662895  20.5687261  20.1851368  18.8618255  13.1003356   9.1442245
  19.1443372  14.0088117   9.0389138  19.6338820  12.5816727   8.9180607
 104.1571045  29.1122317  28.5879946 104.6481609  28.8707328  27.8026462
 104.3665695  28.4262347  29.2218399   7.9088074  66.6165590  34.4142318
   8.7699807  66.9904184  34.2275786   7.6241869  66.2426138  33.5803318
 104.5223999  49.2993832  23.7462234 105.3862286  49.7006655  23.6512423
 104.4402790  48.7247133  22.9851437  81.0388088  14.4339418  39.5131969
  80.9744453  14.6526015  40.4428625  81.3214779  13.5195112  39.5012379
  66.4485312   5.8620381  12.0245469  66.6551733   5.2237600  11.3418090
  67.1818638   5.8035833  12.6369488 105.3626823  26.0764146  27.7432179
 104.9334812  26.4790320  26.9882894 106.2433147  25.8648658  27.4334145
 113.7340546  27.1582937  16.9304752 113.5467815  26.2935066  17.2955823
 114.3873501  27.5316978  17.5220823 110.6702614  24.4225764  53.4905672
 110.2008820  23.5884476  53.4788227 111.5142345  24.2168450  53.8925982
   1.6199884  22.1119666   6.2918395   0.7249938  21.8250227   6.1105114
   1.5153554  22.9254484   6.7853272 115.8369350  17.9185033  35.1904011
 115.5720520  17.0361638  34.9305010 116.7913914  17.9130721  35.1182055
  81.7188931  60.1524448  50.9022856  81.6170788  59.4223499  50.2916908
  81.7170525  59.7430897  51.7675352   6.4783329  19.8044956  34.4847441
   6.2872893  19.9321747  35.4139543   6.0020113  20.5077815  34.0434527
   0.4532348   6.6319424  49.7392225   0.7720730   5.9576577  50.3391504
   0.9744222   6.5120691  48.9453554 104.1426182  20.9023213  31.0091543
 104.3252182  20.1411533  31.5600705 104.9997902  21.3015437  30.8604717
 109.8061180  28.7320304  24.7848034 110.6171513  29.2386794  24.8266959
 109.9904060  27.9424405  25.2935386  87.7643776  55.7282448   7.1078825
  88.2213211  56.0919142   6.3494754  88.2713604  56.0314751   7.8610402
  93.4127235  23.5010028  54.0771961  92.6274014  23.0957818  53.7093782
  94.0456676  23.4918380  53.3591890  17.5327146  29.9034476  32.7017522
  17.1341121  29.0589619  32.9119682  17.1295953  30.1586366  31.8719316
  91.2164497  18.9435279  49.0563297  90.6472206  19.1758347  49.7899818
  92.0799732  18.8240588  49.4516611  88.3984852  38.1102943  34.9622154
  88.2998753  37.2444057  35.3581262  88.0675888  38.7159920  35.6254435
 112.3806000  43.1717157  23.4939194 112.5681210  43.5174751  24.3665719
 111.8486404  43.8495064  23.0769634  10.9876370  17.1110451  13.5004497
  10.1474369  17.5310266  13.3163011  11.4781427  17.1876085  12.6820517
 115.7678223  23.4091473  74.3837214 115.6237125  23.3053398  75.3243017
 114.9116516  23.2407880  73.9902115 108.2983398  15.7040989  24.8659134
 107.4533939  15.3864598  25.1843643 108.9246559  15.0338399  25.1392412
 111.9818783  46.2356186  53.7071896 111.9079399  45.8414316  54.5763159
 111.6225529  45.5761290  53.1137276   9.2702395  26.0769486  18.3184457
   8.4705222  25.9466028  17.8088427   8.9750224  26.5048933  19.1221499
  87.5480938  14.8528731  49.4022512  86.6268730  14.7341347  49.1710091
  87.5271797  15.2528822  50.2716112  12.9637790  52.8413200  12.8406262
  12.9047179  52.0052099  13.3028662  13.1278276  53.4849691  13.5298538
 115.2465725  24.0805554  42.1331453 115.5714989  23.3548760  41.6001892
 115.7238579  24.8457623  41.8123865  78.9816713  14.5501423  37.4916077
  78.7736368  15.4102588  37.1267080  79.8320150  14.6687925  37.9147720
   8.5149759  32.8384161  24.3888402   8.7876630  32.0944095  24.9258018
   9.0570337  32.7775455  23.6022663  86.2137222  15.6453228  24.7762322
  85.7128525  16.2134552  24.1909289  85.6200790  15.4708171  25.5065513
 118.1189346   9.8917288  31.9865870 119.0167809   9.5647514  32.0431209
 118.1767941  10.6516004  31.4073801  89.2969227  20.7250643  27.4243903
  89.2681694  20.9314990  26.4901567  88.3868408  20.7937384  27.7129674
   5.8166301  11.6206813  25.2282810   5.2603757  11.2065959  25.8880901
   5.8945829  10.9651601  24.5351386  96.2755966  36.9951820  38.9211655
  95.6230259  37.2196007  39.5845103  96.0967255  37.5947332  38.1967497
  15.6840813  17.7067304  13.8139963  16.4965367  18.1988931  13.6959994
  15.1624727  17.9162192  13.0392241 106.4847279  44.7723913   6.9542420
 106.7406368  44.2287493   7.6993591 105.6524086  44.4011593   6.6615558
 111.7629623  48.4494400  42.7673006 110.8426952  48.6851692  42.8846455
 112.2275829  48.9610386  43.4295893 105.7892990   8.5553378  44.1980553
 105.5145073   8.6650211  45.1083803 106.2557030   9.3647784  43.9894724
 103.1663990  40.0900698  38.4685445 103.3439255  40.9464931  38.8574600
 103.5735512  39.4654083  39.0687585   6.6614425  25.1035261  29.1668892
   5.8900923  24.5430708  29.0823865   6.7071003  25.3089571  30.1006699
  95.8999538  34.3450379  42.0233488  96.2549973  33.6184525  41.5112495
  95.6547546  33.9507866  42.8604126  96.1926556  32.3285604  44.9153280
  96.4820576  33.2409263  44.9075317  95.2476692  32.3757935  44.7703981
   1.5304352  34.0416074  29.2300081   0.7261015  34.2113924  28.7396502
   1.4399156  33.1382275  29.5332289 113.1175709  47.2061157  21.2988734
 113.5302830  47.9453087  20.8522201 113.5392094  47.1795511  22.1577954
 105.0547409  44.5471954  33.3661366 104.7885704  43.7553358  33.8334084
 105.7950878  44.8851871  33.8699985 112.7282238  40.5611897  16.4327550
 111.8489742  40.2175236  16.5910101 112.8355980  41.2537909  17.0846784
   3.8207994  -0.1338983  13.9431012   3.4179387   0.7184005  13.7771881
   4.2343507  -0.0403524  14.8012698 108.8294066  21.8289820   0.5989000
 109.3072642  21.0631815   0.9173795 108.8924421  21.7711989  -0.3544787
  10.1382589  17.1305370  57.0956135  10.6281126  17.9324448  56.9133520
   9.7204125  17.2921455  57.9414988 112.4267769  38.3313775  30.7003856
 112.5033569  38.5648775  31.6255045 111.4854050  38.3434200  30.5274558
  29.2665219  27.8031850  48.4355879  29.1239738  28.3109069  49.2344189
  28.6668611  27.0611501  48.5132074   6.8627053  28.3654451  15.2165151
   6.1879772  28.9401078  14.8549402   7.6874578  28.7408185  14.9081159
 108.5545444  21.2412190  55.8485031 109.0676308  20.8754039  56.5690279
 109.2080593  21.5291548  55.2111340  47.3671334 112.0706358  13.2839441
  47.1408170 111.8016208  14.1742504  47.3389524 113.0271115  13.3082831
 116.8988132  26.9233537  37.6154637 117.2128773  27.8113055  37.7861547
 115.9462452  26.9891763  37.6826167  90.6315994  18.8669312  31.0780168
  90.5512524  18.9185309  32.0304418  91.5638256  18.7135315  30.9242582
 117.9216862  34.1996813  51.4437389 117.8366947  35.1493669  51.5280294
 117.1599579  33.9359140  50.9275723 118.2994366   4.3563318  68.8843775
 117.5186825   4.3158680  69.4366646 117.9650497   4.5634672  68.0117273
 106.3762856  22.6777244  33.7444901 106.9130611  23.2130265  33.1600690
 105.5507278  22.5633311  33.2737398  95.6497097  21.8644524  27.6961827
  95.6193924  22.7155614  28.1331348  95.4590797  21.2324405  28.3893323
 108.5831642  11.6380751   1.4613728 107.8751373  11.9344914   0.8894732
 109.3734360  12.0247209   1.0842720 116.2232876  42.7895117  56.3856125
 116.3017941  42.7126884  55.4347372 115.3106213  43.0386543  56.5312386
  23.9419341  57.3977757  65.5644560  23.0726409  57.3942947  65.1637745
  23.9634514  58.2020855  66.0829639 117.7678680  22.6889515  24.4793534
 117.8482819  23.6398530  24.5538759 117.5233269  22.5401163  23.5659623
  98.4092999  50.5142117  45.5118084  98.2692337  50.8706379  46.3890600
  99.3605232  50.4450417  45.4304409 110.6446648  44.8662043  30.4674006
 110.9335518  45.7233763  30.7805085 109.7093868  44.8401594  30.6694245
  84.7424507  28.0441666  53.7465525  85.5533409  28.5420418  53.6426163
  84.5453739  27.7211237  52.8673267  44.7921371  42.0132780  33.5454845
  45.2828932  41.3456059  34.0246558  45.2946806  42.1496105  32.7423048
 118.7162209  54.0939140  49.4234943 117.9209232  54.4289494  49.8375988
 118.4017181  53.5946131  48.6698198   2.6564211  37.4863935  41.2503624
   3.5621426  37.2039104  41.1234570   2.3204426  36.9117355  41.9382000
 109.2797852  41.8172503  19.6554661 109.0109444  40.9041643  19.7566211
 109.3486023  41.9432306  18.7090921   3.6720732  31.5261889  33.4097886
   2.8469869  31.0765314  33.2273793   4.3101916  31.0960650  32.8405523
  10.3545952  25.1514864  47.2113276  10.6784654  24.2521620  47.1607924
  10.5311239  25.4193091  48.1131840 114.0134144  56.4524555  31.1028719
 113.3352470  56.8632984  31.6390944 113.8004589  55.5194187  31.1208868
  12.6150870  79.0798044  94.7784996  12.2899067  78.6223125  94.0031338
  12.3303699  78.5371113  95.5137920  17.2944093  97.7298927  13.5114336
  17.8120196  96.9647598  13.7622142  17.1722770  97.6372147  12.5665903
  72.8709030  27.9134536  15.3282249  72.3671293  27.3112249  15.8757305
  72.2151184  28.5001016  14.9513638  95.5640602  12.3368645  11.0059595
  95.7882690  13.0465770  10.4040718  95.2185249  12.7801108  11.7807984
  91.6938400  16.9172764  10.3929794  92.2808552  16.5263224   9.7458321
  92.1805477  17.6667452  10.7359648 115.3643131  40.6324339  85.4173374
 114.6371460  40.0605297  85.6630802 115.0519180  41.5153933  85.6148720
   1.7527050  52.4785948  78.4881496   1.1035941  52.0212412  79.0226698
   1.2390655  52.9130697  77.8072405  51.7350817  93.1827736  26.2190652
  52.6075172  93.1859779  25.8252740  51.8038368  93.7867069  26.9585013
   7.8452498  18.8192379  41.1222887   7.8567696  19.7703278  41.2296534
   7.2111171  18.5126984  41.7704725  66.9479752  34.9069214  24.3475175
  66.8821621  35.3693604  25.1830101  66.5939522  34.0359569  24.5272994
  24.8569536  77.0173979  94.7371960  24.1010118  77.6028585  94.6922493
  25.6137824  77.6034164  94.7423077  59.2543650  77.2388458   5.3627849
  60.1802921  77.2195959   5.6047118  59.1728640  77.9995966   4.7875929
   6.7091584  88.0532455  81.1628151   5.8365065  88.3149719  80.8691978
   7.1717954  87.8176594  80.3586388  64.3214560  84.4466972  15.5660188
  63.4266520  84.3285751  15.8847809  64.7164154  85.0621986  16.1835921
  71.2974644   6.5976703  29.9645925  72.1575880   6.3809711  29.6047854
  71.1163330   7.4790061  29.6379852  31.1989474  72.7886152  79.3647003
  31.7294049  72.3634768  78.6908245  30.8232689  72.0647717  79.8658466
  74.7414875  88.6526871  23.7014103  75.0332451  89.5070934  23.3834386
  75.2137327  88.0211735  23.1588221  25.4008532  88.2605457  92.2892857
  26.2935472  88.5863781  92.1745682  25.4220295  87.3729515  91.9315529
  55.0320578 103.8609314  45.1893854  55.4402781 103.4533024  45.9532070
  54.1250563 104.0127182  45.4549837  12.4144959  63.5237694  96.4857483
  12.4223995  63.8539553  95.5873299  11.4984775  63.3003569  96.6507626
  59.8377132  14.1826081  17.3228347  59.9293137  15.1352751  17.3392010
  60.7029295  13.8631678  17.0667255 108.2543373   4.5479122  11.4650714
 109.1498184   4.8328531  11.6471577 108.1866837   3.6891833  11.8824923
  63.9303446 103.6798668  13.7326765  64.1235447 102.7429676  13.6990130
  64.0091753 103.9734364  12.8250241  47.3723650 107.1348953   3.2946464
  48.2173491 106.9380665   3.6989924  47.1673870 108.0226326   3.5881406
   4.9155340  10.9179223  22.3287821   5.8717108  10.9614480  22.3367143
   4.7132248  10.0373864  22.6449442  93.7277412  15.5997574   3.6696708
  94.2547035  15.5878627   2.8706676  93.1665230  16.3693690   3.5750118
  89.2788792   7.7727032  31.9293308  89.4800854   7.5663972  32.8421187
  88.5059452   7.2447264  31.7292118  98.4851074  12.3432791   4.2083293
  97.7586365  11.9959044   4.7258231  99.2664909  11.9539940   4.6009240
  33.5272884  97.4684906  38.3575916  33.7683082  97.4272156  37.4321532
  33.2077193  98.3621120  38.4822440  31.8999887  80.2119732  80.2700138
  32.3466539  80.8556080  80.8199692  32.2519517  79.3684912  80.5544376
   7.0028114   4.3742195  31.8971419   6.9430679   3.4326831  31.7353630
   7.8334981   4.4855586  32.3595214  73.6795998   0.8376983  19.0449917
  74.6240616   0.7967763  19.1951740  73.4344006   1.7263745  19.3026018
 107.8489685   2.1342744  12.8429735 107.4636078   1.2611598  12.7695036
 107.7618694   2.3573078  13.7697434  32.2823930  33.4015203  84.7245407
  31.8674612  34.1785979  85.0989914  33.1104732  33.3206081  85.1978016
  95.5008125   4.6701995  11.1790526  95.9508610   5.5149961  11.1761975
  95.1364803   4.5899290  10.2975464  73.8761139 109.8122787  18.0827200
  73.4114504 109.4235611  18.8238096  74.5681047 109.1835880  17.8774774
 117.1839619  31.0021281  96.7769814 117.7917957  31.7334747  96.8861198
 116.3556671  31.4138103  96.5306473  48.1735992  87.9105949  25.0231171
  48.3726263  86.9756317  25.0728250  47.6391125  88.0000782  24.2340994
 115.1657963  54.5559978  85.5485344 116.0872078  54.7569370  85.3846264
 114.7648716  54.5445728  84.6794224  17.7903759  61.0874414  81.9193172
  17.1449745  61.6264105  81.4619350  17.5469875  60.1872683  81.7032528
  79.7192526  94.2205524  17.7108538  79.2170715  93.4070110  17.7577209
  79.0601873  94.9124241  17.7672291  33.2494950  31.4876676  88.3964634
  32.3009706  31.3759637  88.4601307  33.5612774  31.4062691  89.2978001
 114.3060780   3.6905444  19.8075318 114.8857403   3.8516569  19.0630412
 114.8980713   3.4999284  20.5351567   7.0099992  66.9279194  91.9984913
   6.8911701  67.8703356  92.1166420   7.4682856  66.6433048  92.7891827
  69.7066402  13.1017411   9.5600837  68.9779854  13.0274320  10.1763368
  69.3466187  13.5929191   8.8215977  63.6540413 110.5125713  11.2275696
  62.8275108 110.6795311  10.7745731  63.9882898 109.7096157  10.8278573
 118.3902931  62.6067400  86.9728851 118.0132484  62.6929235  86.0973072
 118.6302090  63.5000086  87.2193336  14.1435575  36.2507415  97.2611809
  15.0435364  36.0942435  97.5471497  14.1521621  36.0536385  96.3245392
  51.3244629 109.1962814  27.6859832  51.0856390 110.1188374  27.5961518
  52.0424366 109.0731716  27.0650220  88.3098602  15.7383144   1.1824231
  87.9007626  15.5674148   2.0307545  89.2242527  15.4814959   1.3013908
 118.4475708   5.6550628  25.5243516 117.9200077   5.7797527  26.3132501
 119.2885971   5.3316158  25.8472896 108.1315136  18.0783343   8.9889294
 107.8555489  18.3074987   8.1014854 108.6257362  18.8406181   9.2904240
  24.8445725  53.5673094  96.7928886  25.5953550  53.4231377  96.2168980
  24.3299937  52.7633619  96.7214108  96.4805031   7.6088601  18.0185699
  96.2806320   7.6963788  18.9505708  95.6246281   7.5400674  17.5955021
 101.5868950   5.9771210  23.3243442 101.3475990   6.8035811  22.9049063
 101.4355278   6.1293077  24.2571664 110.3446865  17.8891385  15.3357935
 110.1061535  18.7903094  15.5530977 111.2264538  17.9564703  14.9694753
 105.6319427  14.9003243  18.7313640 105.9781933  14.5974267  19.5707667
 105.9058475  15.8158016  18.6756051  67.0538092 105.9068871  10.8637810
  67.0771122 105.6546783   9.9406999  66.2890339 105.4523945  11.2170219
  64.8759937 103.3653736   8.3072644  64.7444582 102.4767113   7.9767954
  64.3834591 103.3911991   9.1276139  88.3560944  16.6429615  21.2386870
  88.7796974  16.5069795  20.3911614  88.0625439  15.7708848  21.5023947
  64.6531487   5.6147581   6.0148603  64.1385651   6.3544297   5.6918705
  65.3962660   6.0178256   6.4637935  14.2190182  41.0679197  93.7519455
  15.0069594  41.3260937  93.2736969  14.4945467  41.0360813  94.6680832
 118.1452465  73.3096695  95.9671402 118.9211750  73.4409857  96.5120411
 118.3857918  72.5965071  95.3757286  90.5850315  32.6924300   5.1214969
  91.1560822  33.3628511   5.4965526  89.7622299  32.7823496   5.6022739
  40.2057457  87.3823929  21.0873294  40.2189827  87.3716831  22.0443773
  39.8282480  88.2328033  20.8625197  91.2397003  23.0980062  30.8302760
  91.4954090  23.5872436  31.6122580  90.4277611  22.6562715  31.0789633
  98.6436939   4.1866955   5.0514638  98.6031628   5.0910598   4.7404745
  99.4425678   3.8341600   4.6593636  41.2530327  96.8894768  20.0220585
  40.8141899  97.3379898  20.7448912  41.8178463  97.5574017  19.6333504
  55.6896591 107.8946495  16.9875216  55.6506205 107.3879242  16.1763871
  56.5322876 107.6599216  17.3762465  91.0218620  12.5294197  19.9396610
  91.1315346  12.8825057  19.0567482  91.8025875  12.8186274  20.4119563
  25.0218034  68.8447857  73.8895893  24.1527247  69.2130089  73.7303877
  25.3050041  69.2458344  74.7112846 112.9512501  69.6878099  77.6409626
 112.4197769  69.4340372  78.3955288 113.7140560  70.1236296  78.0209780
  86.1227798   2.4655080  28.1110048  86.2243462   1.9173339  28.8890934
  86.5146351   3.3038142  28.3558083  87.3258972  24.7591162  28.0838609
  87.4497890  25.6809163  28.3100653  87.4117661  24.2945743  28.9163637
  90.7750607  17.7618515   6.7678130  91.6767979  17.4918020   6.5941298
  90.7892799  18.7148917   6.6798156  67.9118729 106.0823441  35.9305477
  68.0720711 105.8770084  36.8516374  68.1522894 107.0049477  35.8455038
  31.2622809  98.3823013  10.1464260  31.4459562  97.5677109  10.6143236
  30.3087044  98.4023571  10.0656807   1.3476470  82.3325062  96.0223389
   0.6357646  81.8371773  95.6172276   1.3818401  82.0097351  96.9228268
  97.3187542   8.7503898  27.5779438  97.8677750   8.2755834  28.2019353
  97.2652149   9.6377504  27.9328489  72.6208544  15.7825184  19.2295790
  73.5058451  16.0008192  18.9373970  72.4185658  14.9587488  18.7860525
  91.1023331   7.9193157  10.0302660  90.6548882   8.3969855   9.3318009
  90.8249474   7.0105100   9.9146825  21.6638017  54.0693903  95.5003738
  22.1752119  54.8387003  95.2496624  22.0023966  53.3658457  94.9466515
  73.0932331  23.5997343   6.6037601  73.5156965  22.9907918   5.9980005
  72.6263905  23.0374289   7.2219074  70.2370787 104.6445084   2.1647257
  69.8016882 104.0503883   1.5534218  70.6201315 105.3224564   1.6080511
 102.9931641   9.4899583  20.9657264 103.3771420  10.2819192  20.5894423
 103.6715317   9.1483617  21.5482807   8.6801159  78.4405088  90.0735569
   7.7259189  78.3947945  90.0131416   8.8707423  78.2601690  90.9940815
  55.4397678 103.3974457  50.3526211  54.8570585 102.6816654  50.6062746
  55.0663424 104.1712475  50.7745218  12.0106447  77.6787329  92.4823475
  12.5779474  77.1264601  93.0202961  12.5204849  77.8453207  91.6895390
  84.8357487  12.5504589   4.8696512  85.5954075  12.8586900   5.3637648
  84.2416477  12.2037923   5.5353040 104.8513508   5.6491399  23.8007832
 105.4937077   5.1399636  23.3064580 104.0571022   5.1152217  23.7824416
  25.8564472  45.4382610  93.7061119  26.4694619  45.0118876  94.3049812
  26.3676858  45.5962086  92.9124355 108.7749481  67.6422310  96.7375374
 109.5893288  67.3062134  97.1118450 108.5029602  66.9696999  96.1130714
  76.3117647   7.0299619  13.6286223  76.1804008   7.9780978  13.6250424
  75.4447269   6.6673458  13.4470105 117.2331047  78.3812571  87.0238876
 117.3277283  78.0123425  87.9020596 117.8160858  77.8533888  86.4782524
  34.2528534  66.9445324  89.0326977  34.3367720  66.5662909  88.1574154
  35.0160646  66.6176748  89.5090485  96.2179947   3.4130922  24.3028736
  96.3429260   2.6211521  23.7799430  95.3890610   3.7770736  23.9920330
  59.1336584 101.6576099   6.0368115  59.1863394 100.7020664   6.0170406
  58.2762146 101.8423367   6.4200848  73.5737181  26.2616849   6.2565500
  73.1935263  26.1591959   5.3840917  73.5154629  25.3897452   6.6471404
 108.7786865  30.9163356  17.0865035 107.8948879  30.8319187  17.4442649
 108.8840485  30.1484895  16.5247715 103.8872147  11.2798274  15.2254343
 104.2469311  11.3468778  14.3409359 104.6192360  11.5054166  15.7994425
  79.6436930  13.8957167   0.5671980  80.0409412  13.0277777   0.6386777
  79.6983290  14.1081345  -0.3645343  19.8111963  40.4874754  91.1694527
  20.3763318  40.7369852  91.9006157  19.1779530  39.8804259  91.5525055
  49.6329165 103.7932110   6.5994143  49.7703886 103.0389977   6.0262728
  49.3266726 103.4149933   7.4236715  78.5477352   7.2460121   7.6465338
  78.6626959   8.1391484   7.9710698  77.6884365   7.2531354   7.2248906
  30.9613681  60.2162123  84.6077538  30.5158234  60.8602858  84.0573883
  31.8908906  60.4261637  84.5175171  44.9706221 107.2608376   9.9531990
  44.0767622 107.6022911   9.9276042  45.2316904 107.2039413   9.0340483
 100.1853752   9.0473998   3.8501740 100.3769970   9.6773404   4.5449296
 101.0438347   8.8058221   3.5024464  38.1741881  53.4696293  84.6988773
  37.6034617  54.0535069  84.1992855  37.6025224  53.0883884  85.3652763
  30.6223655 111.1754990  19.8624682  30.7678771 111.6304493  20.6919742
  31.4950585 111.0938072  19.4778049  62.4312401  88.3117771  18.1344926
  61.6392994  88.8095570  17.9313421  62.7237225  87.9714775  17.2889864
  53.0520868  88.9797306  14.0369022  52.1404600  88.7856770  14.2548609
  53.0606222  89.9200058  13.8579118  67.5811052 107.0879459   0.8328041
  68.0642271 106.7389202   0.0838015  67.9280281 107.9722500   0.9505904
   9.7714329  63.1122398  96.8933678   9.7229493  62.2016287  97.1843338
   9.0787715  63.1913090  96.2374687  60.1418447  86.8684292  10.0934398
  60.5441666  86.4086151   9.3565935  60.8815050  87.2189140  10.5897260
 110.2101612  14.2820704   8.0998111 111.1664963  14.3128669   8.0730879
 110.0058937  13.9339018   8.9677322  97.8950787  25.2056575  19.7273326
  98.5468769  25.9012985  19.6409011  98.0619240  24.6272898  18.9830983
  97.1125507  13.2521701  19.6225202  97.8178310  12.6058066  19.6546233
  96.4803791  12.8863442  19.0038419 107.9387093   8.0865812   5.5575097
 108.3183289   7.2141814   5.6625652 108.2655430   8.3895850   4.7103959
   9.9739903   5.2201343  21.2345505  10.7860947   5.0000376  21.6909218
  10.0290227   4.7452858  20.4052591 114.4305325  12.3615646  43.7375498
 113.9093876  11.5588129  43.7529993 113.9989662  12.9394329  44.3668795
 117.1027184  45.0376701  27.7727914 118.0426216  44.9167252  27.6378965
 117.0045280  45.1113462  28.7220860 101.4429092  15.5652106  10.1494658
 101.4322090  15.6877053   9.2001963 100.7981586  16.1912453  10.4790306
 107.6725388  46.3879204  11.7695999 108.3355236  45.7515001  12.0372868
 107.6437569  47.0202017  12.4876714  89.9863434   4.8380786   7.8321892
  90.1826096   5.3249091   8.6326319  89.5452023   4.0449077   8.1363434
 108.5057545  13.8075101  32.2817111 109.3917179  14.1595244  32.1956968
 108.2437706  14.0336752  33.1741476 108.7323284   2.1608429  24.2797804
 109.0985966   1.2946829  24.1013336 109.0159416   2.6978841  23.5399270
  98.4719372   6.8490350   3.8233173  97.6144314   7.2267473   4.0188804
  99.0485954   7.6057464   3.7180412  50.5997181 106.4975739  27.7951455
  51.0143852 106.3230801  26.9502592  50.5492592 107.4521637  27.8445768
  90.8310223  28.4237313  37.9913998  89.9595070  28.1542921  38.2813883
  91.3697052  28.3826470  38.7815666  19.9093390  73.5651398  94.8209190
  19.6867490  73.3203125  95.7191086  20.8376908  73.7953234  94.8584843
  46.1947584 109.6225071  18.5568118  45.7166004 108.8757229  18.1963754
  46.8208742 109.2337990  19.1676390  62.9216766 112.0687675  34.1178584
  63.2876682 111.2453461  34.4407463  62.5588322 112.4912071  34.8963976
  17.2273302  74.4706059  97.1352100  17.0676684  74.2917728  96.2085247
  18.1516218  74.2579365  97.2644043 109.9339676  11.6858351  18.9026976
 109.9947929  10.7692993  18.6334527 110.8309841  12.0139468  18.8399315
 105.1123047  32.1618962  17.4263012 105.1911259  32.8804612  16.7988575
 104.8294258  32.5827622  18.2381392 106.5632248  19.9452960  28.1045103
 106.9122314  20.1975226  28.9593840 105.6461525  19.7299242  28.2742691
   6.0121393  76.9542360  89.9959564   6.0013145  76.1394358  89.4937515
   5.6813234  76.7076492  90.8596611 112.7113056  40.6907511  24.6657205
 112.9063892  40.1297235  23.9151049 112.6313305  41.5691280  24.2938471
 106.1101818  13.7998056  30.3717542 105.7370853  13.6501932  31.2404585
 107.0531273  13.6894023  30.4938102 109.5749187  13.7928271  10.7893693
 109.3754864  14.6854568  10.5071115 109.7928905  13.8781750  11.7175066
  99.4509983  34.6697164  32.3510289  99.6166897  35.6070065  32.2497153
  98.9318848  34.4337773  31.5822053  90.7291222  11.4058518   0.4588584
  91.4801979  10.8201253   0.3637331  90.9241962  12.1416509  -0.1214687
 118.5090256  30.3044152  27.2368932 118.4355068  30.0576282  28.1588054
 119.3935966  30.6606483  27.1541142  96.3732910  23.7562895  38.5268426
  96.6834450  24.2874479  37.7934241  97.1368599  23.2427740  38.7904501
  86.6868496  38.9637208   9.6844029  86.6039753  38.6373615   8.7883812
  87.0620537  39.8388934   9.5868003  88.9112759  16.4406836  24.8622847
  87.9644775  16.5780723  24.8318172  89.0399742  15.8174837  25.5773306
  92.4441147  21.1311984  23.4677029  92.2386742  20.3360128  22.9760695
  92.4017334  21.8324304  22.8175426  92.7084160  31.5633798  20.3547549
  92.2437096  31.7131662  21.1780691  92.0695591  31.1204219  19.7962916
  18.3560717  90.9856224  90.6286716  19.1393328  90.6982517  91.0978794
  17.9214478  90.1735306  90.3682137 110.6348419  36.5566969  11.6863239
 111.1304092  37.3255754  11.4044249 111.0833073  36.2597632  12.4781156
  12.8118598  87.2861290  96.8167591  12.1137500  87.9386139  96.7607307
  13.2795525  87.3637486  95.9852123   4.1967943  13.4527886  28.0405021
   4.3630439  13.1781924  28.9422727   4.2969772  12.6529872  27.5242543
 101.4734554  17.8304863  24.9013376 101.0138702  18.2474697  25.6301332
 101.2831593  18.3886826  24.1473913  89.5097828  25.4659700  38.1824398
  89.1210651  25.6419921  37.3256159  89.2140198  26.1908913  38.7331152
 104.2463912   7.5205723   0.4090425 103.9190377   6.9547239  -0.2901629
 105.1148237   7.7913824   0.1111814  21.1711836  65.8765697  90.4633427
  21.5251851  66.1465788  89.6159935  20.2344465  66.0636997  90.4021931
  84.5419884  10.4204726   8.9468282  85.3207016  10.9768081   8.9650130
  84.3151569  10.3562105   8.0191177 107.6685619  39.4546890  20.5811691
 107.2279930  39.8190284  21.3488865 108.3227634  38.8562894  20.9419537
  89.2103291   5.8421546  15.6279016  88.7419891   5.1958525  15.0995207
  88.5524940   6.5069425  15.8317220  94.9042702  35.1400256  34.9026060
  95.7931805  34.7869682  34.9404669  94.4991779  34.6899748  34.1612625
  21.8888903  72.2898102  90.9842300  22.0092845  72.3249626  91.9331837
  22.7781510  72.2734261  90.6304264  99.7376728  13.7274885  11.1389923
 100.3771400  14.3597817  10.8111000 100.2591705  12.9609299  11.3770306
 105.3441429   7.7531242   5.9503740 106.2937641   7.8512079   6.0199672
 105.0569248   7.5628823   6.8434262  57.9389858 110.2451706  12.1227407
  57.0357180 110.5619335  12.1212947  58.3751822 110.7683277  12.7952504
 111.0040474  30.9716392  22.3300815 110.7036304  30.4556704  23.0782485
 111.7964077  30.5241370  22.0331979  94.9158669   8.0011547   1.6009586
  95.0940800   8.9377165   1.6865380  95.1792336   7.7880514   0.7057194
  64.1716909  98.7072182  33.3936000  63.3486748  98.5623264  32.9268217
  63.9146662  99.1577435  34.1980886  90.3727818  15.5235112  28.0393767
  89.5212078  15.4052186  28.4601641  90.3814888  16.4420986  27.7703929
 114.8980045  37.4946809  12.9129004 114.8663330  36.6885543  13.4280598
 115.6016350  38.0064440  13.3119297   8.9735812   1.2567678  18.2811475
   9.1193563   0.4619913  18.7942874   9.7410536   1.3188504  17.7124977
   7.7449334  15.8423185   9.1992283   7.1441728  15.2292585   9.6228737
   8.6116791  15.4582286   9.3313557  20.5696869  60.5688524  82.8492641
  19.7629333  60.8632088  82.4264908  21.1721516  61.3067579  82.7556515
  95.3218174  15.9524190   1.2759370  95.8671379  16.7252052   1.1287603
  94.6554756  15.9953439   0.5901005  11.9839036  15.3065312  23.4031653
  11.7284465  14.8048294  22.6290393  11.2287247  15.2453995  23.9881420
 114.9937344  13.0820358  17.1523726 114.5573616  12.4661040  16.5637839
 115.8876514  13.1427944  16.8155551  10.6304443  34.8877764   9.7215217
  11.3184547  34.2241335   9.7710466  10.9445834  35.5099463   9.0654331
  81.4622402  36.8382287   2.8885847  80.7825279  36.1900115   2.7040893
  81.0066032  37.5353956   3.3603787  80.1002407   0.9611138  47.8016710
  80.5944633   1.6817756  47.4110126  79.7813272   1.3123626  48.6330271
  25.3405452  67.5519133  86.1362839  25.2880859  68.4460306  86.4739895
  26.2272406  67.4810553  85.7827568  99.3754482  23.7699151  39.3721628
 100.1718712  23.3957481  39.7489119  99.4327164  23.5648608  38.4389400
  14.0530074  61.2289858  89.0246868  14.4957304  60.5897141  88.4665108
  14.3552458  62.0781755  88.7025738  36.8674660 110.3931046  32.2297215
  36.1474538 110.9968758  32.4121571  36.6245508 109.9730110  31.4046526
  60.9107113 104.5071697   6.2473494  60.2076769 104.3110943   5.6280547
  61.2465715 103.6495018   6.5078163  94.7006226   7.9792660  35.2638865
  94.6542835   8.9231658  35.1117730  95.6378651   7.7880335  35.2989054
 101.5465736   9.7441661  26.9447136 101.9678974   9.4811147  26.1264706
 101.9057941  10.6116295  27.1309924 102.4331856  17.1853864  30.9960365
 102.5566578  17.2069550  31.9449949 103.2938194  16.9524848  30.6477571
  77.8385782  36.0547066  27.3807764  76.9525909  36.1311436  27.0266390
  78.3996487  35.9817314  26.6086984   2.9248315  53.1520081  91.9877148
   3.0162147  53.6533928  91.1774731   3.8244775  52.9773378  92.2640419
 108.4476757  30.2150702   5.7812673 108.4977818  29.8031402   6.6438425
 107.8743649  29.6401906   5.2742469 112.3254204  26.7845201  33.8040471
 111.8609142  25.9514737  33.7234235 113.1628609  26.5538502  34.2061830
  39.9944949 101.2818146  12.9210532  39.0749836 101.5471554  12.9030728
  40.2726746 101.3197899  12.0059538  59.2614651 105.9304714  34.9465632
  59.7063732 106.7655373  35.0913095  59.9681997 105.2860451  34.9082375
  81.4832020  27.8462315  35.6311965  80.7270050  27.4680829  36.0799861
  81.5194798  28.7503815  35.9433246   3.2212478   9.8521447  17.9457247
   2.6661301   9.6563655  18.7005401   4.1116220   9.6803737  18.2522535
  90.4056549  24.9131870  15.4552102  89.8530197  25.6793189  15.6097043
  89.7880363  24.1891766  15.3523302  11.4229226  11.0928965  14.7749400
  12.2076333  10.6351697  15.0765157  11.7535591  11.8976665  14.3758702
  16.7554188  29.2062449  22.6996994  17.4414337  29.8481989  22.8827524
  16.2533319  29.5905805  21.9810700  15.0187266  52.5828075  77.6025581
  15.5039489  51.9089079  78.0786324  15.1216364  52.3459625  76.6808462
  97.2651196  13.8955069   9.3835157  97.4386883  13.5358882   8.5135841
  97.9015636  13.4630132   9.9528253 104.3333530  19.2986369  24.7484732
 105.2223492  19.6370316  24.6417165 104.0960121  18.9709735  23.8809824
  33.5756063  75.4521275  87.8865051  32.9337811  74.8267603  87.5500393
  33.3752251  75.5222034  88.8198757   0.3308102   0.7716881  20.0825453
   0.2081664  -0.1737852  20.1678109   1.2737916   0.9010007  20.1840162
   2.6148206  84.0503216  92.2539425   3.5427061  83.8484955  92.1334171
   2.3113419  83.4079742  92.8954411 107.6142120  17.6152992   4.2678550
 108.0776691  18.4528196   4.2684868 107.3121738  17.5080216   5.1697940
 109.9283123  40.3667355   8.8187367 110.3341293  39.5049596   8.9129859
 110.3267860  40.8959770   9.5096499 112.6652145  21.6947269  10.8211112
 112.6921177  22.5835896  11.1752748 112.4857616  21.1398077  11.5801203
 110.8257961   5.3391951  11.4958358 111.1762810   5.5370969  12.3643005
 111.2617588   5.9618258  10.9140301 105.3138447  23.2899666   5.6354845
 104.5406055  23.1479025   6.1815161 104.9615574  23.5521817   4.7849709
   0.7746414  30.2231002  32.9352641   0.6912659  29.2757654  33.0440521
  -0.1029015  30.5625367  33.1111431  11.5718460  37.1043944   8.2991761
  12.0407462  37.3689628   7.5077426  10.8251965  37.7015090   8.3460969
  90.6173229  27.6754737  33.2741642  91.0146809  27.5249696  34.1318870
  90.9842682  28.5103559  32.9833770 107.8484344  53.8437939  95.8162117
 107.4705410  53.8998461  94.9385548 107.6143360  52.9675817  96.1222744
 103.7572479  24.4871521  19.3271124 104.2059231  23.9046216  18.7142670
 102.8671169  24.1391921  19.3802726  87.8106499   8.3984011  26.6804886
  87.0780087   7.8846788  27.0204353  88.5442734   8.1783283  27.2545910
 110.3865337  17.1534801  52.9389381 109.7451973  17.3037636  52.2444344
 109.8787212  16.7731512  53.6556768  93.9217567   9.7098106  17.5909674
  93.7509632   8.8384026  17.2336066  93.7967110   9.6103752  18.5347402
  96.2865734  39.2550206  13.0011547  95.7388401  39.8830104  13.4721649
  97.0204926  39.0867901  13.5921693 107.5805473  27.2064638  38.1921840
 108.0151463  27.5541902  38.9709258 107.7413177  26.2635827  38.2290840
  98.3625698   4.8756996  24.1856718  97.5314999   4.4103086  24.2803669
  98.4219646   5.0720143  23.2507062 113.8660526  60.0072098  19.3963647
 114.8201847  59.9702454  19.3292916 113.5542011  59.4415998  18.6899185
  97.6184750  32.8909707  10.2847230  97.7538681  33.6501169  10.8518195
  98.4132957  32.8441334   9.7533971  15.3248584  56.8693304  96.0537720
  15.1886249  56.3978434  95.2319717  16.1232543  56.4881134  96.4191055
  91.3225651  14.0975142  17.3710954  92.2012043  14.4765186  17.3950791
  91.1511421  13.9488578  16.4411771 113.5147285  27.7322292  10.2595592
 112.9167843  28.3261514  10.7133830 114.3873882  28.0195189  10.5281878
  62.1032667 111.9080544  41.8475199  62.5261068 112.6057434  42.3481846
  61.5643549 112.3679638  41.2038612  37.0880651 105.5236912  12.5275028
  36.2219739 105.1264095  12.4364948  37.5209618 105.0022030  13.2034290
  32.8409958 100.3157234  23.5877728  32.7661633 101.2528610  23.7677717
  33.7808871 100.1656342  23.4862590  96.4653015  19.7469115  10.8171201
  96.1076927  18.9057779  11.1014521  95.6966019  20.3021359  10.6865203
 101.9804764  12.8614342  21.7510605 102.5533581  12.2049594  21.3547230
 102.0729256  12.7223039  22.6935720  98.4109116   2.4810533   7.1156371
  98.3660889   2.7310836   8.0385166  98.5279846   3.3084249   6.6487497
 114.6764278  49.2276907  20.7296109 114.4185543  49.9081039  20.1077056
 115.6181240  49.1232300  20.5934954 118.0888844   2.9547569  15.1062405
 117.9545689   2.3575822  14.3703234 118.5571861   2.4316153  15.7568121
 101.1861610  32.5090504   3.9542985 102.1290302  32.5027394   3.7893981
 100.9491539  33.4364462   3.9539850 106.5254307  29.6471262  10.5586886
 105.7038879  29.9049950  10.9767842 106.2569809  29.2306352   9.7397256
 100.1935768  17.6594591  11.3921642 100.6022644  18.4502602  11.7440736
  99.5974636  17.9790306  10.7148433   3.7581766  83.5537624  95.3743744
   3.1458563  82.8882217  95.6879997   3.2865193  84.3803787  95.4766560
  70.0883913  28.5169363  45.8990049  70.8390379  28.1610203  46.3744831
  69.4192600  28.6474562  46.5709114  92.3605728  23.3218694  16.9284523
  91.6837311  23.9245057  16.6203105  91.8770695  22.6262975  17.3741424
   6.2814242  28.7682176  34.3192434   6.6368622  29.2111588  33.5487247
   5.7025564  29.4155431  34.7218752  60.9337616 100.4754639  94.0961456
  61.2251902 100.3483582  94.9989986  59.9780989 100.4633045  94.1489792
  73.0317545 106.4221096   9.7917849  73.9752054 106.2695599   9.7383052
  72.7872515 106.7200089   8.9155954 109.7969723  26.1663628   3.8882124
 109.8977280  25.4170012   3.3012378 109.8154736  26.9283438   3.3091840
  68.8667583  90.5094337  21.0591316  68.4484529  90.4785442  20.1987267
  69.3763685  89.7005844  21.1068702  85.4951191  21.2174964   9.2514342
  86.4141083  21.3339949   9.4925398  85.2895451  20.3212070   9.5172030
  89.2693043 106.3148785  24.5159459  89.0158176 107.2168159  24.3197775
  90.1374912 106.2195110  24.1242909 108.0180931  11.6110396  11.4083683
 107.6597691  11.5123010  10.5262733 108.4466362  12.4668884  11.3983905
 101.7207527   6.6547233  30.0127244 102.6128960   6.7223960  29.6725297
 101.1624050   6.8653357  29.2643070 108.7012863  24.6692729  32.6554942
 109.2548847  25.3262091  32.2333598 109.1802025  24.4257545  33.4476852
 107.2556591  21.0026789  21.6361690 106.4764214  20.7875633  21.1235762
 106.9179058  21.2238479  22.5040627   7.9266948  63.2334805  87.8488636
   8.7002623  63.0588722  88.3849049   7.5540483  62.3686600  87.6772499
   0.1636405  15.1130426  36.6429973   0.6132064  14.9909210  37.4791837
   0.7782336  14.7789919  35.9896088 108.4867764  26.7348099   6.3809580
 108.3570385  25.8654165   6.7598474 108.8708401  26.5662241   5.5205476
 102.2101688  23.6656523  29.3474317 101.6873741  24.2850280  28.8382268
 103.0287647  24.1300178  29.5220470  75.2604055  89.5897865  26.4303231
  74.9546289  89.4148731  25.5403018  76.1323452  89.9672222  26.3141704
 116.0486507  17.8622949  19.1315329 116.5133095  17.5376713  19.9028599
 115.8176327  18.7643814  19.3531263  86.6967487  24.8675919  31.7977834
  87.4021816  24.8015165  31.1541724  86.9372940  25.6184292  32.3405623
   3.2948315  14.6090412  14.1110253   3.4655619  14.2641211  14.9874461
   2.6067191  14.0432739  13.7608242 106.0526371  17.5049257  14.7137558
 106.4529514  17.3892069  15.5754912 106.7632198  17.8307664  14.1613674
  84.0815163   4.3846473   4.5928434  84.9717522   4.7033277   4.7417030
  83.6141491   4.5929429   5.4018039  27.9717135  72.0628548  90.7658386
  27.9632473  72.5318766  91.6002178  27.9322982  71.1382627  91.0104084
  49.2907238  94.9706268  21.2935376  49.4238520  94.0722370  21.5958667
  50.1099014  95.4183674  21.5049863 114.1033554  53.4199953  91.5021896
 113.4094715  53.4253788  90.8428574 114.3720245  54.3358564  91.5746403
 110.8387947  26.9367552  15.6779134 111.2434101  27.2691512  16.4791775
 110.0215816  26.5340257  15.9715307  91.8453789  36.5690112  10.4362428
  91.1676788  36.3092899  11.0603440  92.0178223  37.4885058  10.6387997
  94.0761907   0.0367903   7.1089399  93.7258345  -0.3489042   6.3059944
  94.9169165   0.4122233   6.8472850  86.4012718  21.8598986  31.7087960
  85.9535694  22.2149730  30.9408641  86.8897247  22.6017475  32.0655870
  36.1963463  69.6919966  94.9951172  35.8381748  69.3609953  94.1714764
  36.8841124  70.3022909  94.7291183  99.8024750   6.2866962  13.4514129
 100.2372360   6.9996721  13.9192557 100.1368237   6.3484025  12.5566292
 109.8757267  20.1180267  10.1089132 109.4049835  20.8633566  10.4818988
 110.4843998  19.8503041  10.7974386  33.2232451  97.3715687  91.8532848
  33.4347820  96.9581890  91.0162735  33.6606884  98.2222176  91.8176270
  68.4533548 110.4148483  15.5261135  67.7458429 110.9529400  15.1709914
  68.8832045 110.0450325  14.7549462  57.1445417 102.2643375  32.8871083
  57.2272301 103.1631851  33.2056546  57.1999550 102.3417282  31.9346523
  71.4079094 109.3777084  19.4673228  70.9007692 108.8019657  18.8949859
  70.7534981 109.9391460  19.8829722 117.8510284  38.5483503   9.2893869
 117.8910828  38.5980654   8.3343184 117.8875542  37.6114798   9.4821954
 106.5712357  53.7115574  28.4676194 106.1103249  54.1231203  27.7365851
 105.9351635  53.7126970  29.1829109  18.9157236  53.8880587   2.2904377
  18.4988666  53.8165617   1.4317468  18.2283700  53.6464071   2.9112279
  15.3839922  25.6154180  15.4107058  16.1273742  25.7324409  14.8191667
  15.2442265  26.4813471  15.7939363   7.6259959  85.5086040  96.4556026
   8.3196789  85.4749489  97.1143150   7.9465216  84.9571991  95.7418537
  33.2094836  93.9487457  95.2197552  32.6649642  93.2952118  95.6586361
  33.8891888  94.1624641  95.8589363  19.3478501  87.9177952  95.9438324
  18.9432967  87.2043133  95.4503727  18.9040685  88.7064743  95.6319332
  11.9603503  48.0511856   2.3856966  11.7288649  47.4953890   3.1298319
  11.7896366  48.9424562   2.6901954  43.7574816  65.4548407  81.7940044
  43.3685446  64.6056557  81.5846157  43.0126619  66.0541582  81.8418503
   6.4071167  28.9023232  11.2721372   6.8495196  29.4756508  11.8980801
   6.6003120  28.0169201  11.5803063  86.7369175  46.6056728   1.8339649
  87.5001907  47.0530128   2.1993996  86.9103622  46.5655518   0.8934645
  27.5962520  99.8070335  89.5498276  28.3874655 100.2916527  89.7851181
  26.9223666 100.1489162  90.1373959  46.2183721  91.1996302  97.4235019
  46.0567661  90.9437355  96.5154088  47.0749886  90.8252033  97.6290328
 109.7182465  32.2780156  13.2192063 109.4247341  32.9866743  12.6465917
 110.6653118  32.4001598  13.2852995   1.3212572  22.6929331  23.3312726
   0.7027053  22.4835515  24.0311193   1.3968442  23.6468267  23.3558822
   4.4828629  23.6104727  20.5909777   5.2460420  24.1806602  20.6841230
   4.5764312  22.9682231  21.2945342  33.1138539  98.8664246  87.9422951
  33.6003113  99.3416023  88.6159420  32.4885917  98.3312225  88.4310150
  25.4509211  86.7444801  67.9484797  25.2893114  86.6981220  68.8907957
  25.5497456  85.8318424  67.6772404  65.6822872   7.3681790  88.2058716
  65.2728844   6.5710539  87.8693962  66.4005184   7.0548606  88.7555981
 107.5432396  38.4812713  32.4275756 107.4113369  38.6751127  31.4995360
 107.9071903  37.5960231  32.4379826  88.4848022   0.9066930  88.2796764
  87.9396534   1.6891153  88.3625031  88.8096523   0.9352829  87.3797417
  11.1285520  29.4519234  38.6937118  11.0612524  29.1975093  39.6140242
  11.2285316  28.6243939  38.2231474  90.6161880  40.6121588  21.7881441
  91.4639473  40.9904385  21.5548062  90.2576733  41.2126780  22.4416542
   6.7835748  46.0671711  11.6631055   6.8819028  46.4416933  10.7877231
   6.6190249  46.8213081  12.2291720  32.4424815 100.9228992  73.5411501
  33.0731487 101.4499855  74.0317345  32.7455950 100.0217915  73.6523104
   9.7990042  46.8919325  17.7656150  10.4972398  46.4550781  18.2533205
   9.3808299  46.1906433  17.2660565   9.1532373  37.0986199  25.7181358
   8.3769244  36.8151379  26.2010527   9.0993023  38.0542970  25.7176948
   8.5722142  36.3976789  41.9241428   8.5194886  36.7547560  41.0376024
   9.3198204  36.8464327  42.3190308 104.4308090  18.3211780   3.8128284
 105.3215313  18.6568642   3.7120146 103.8794231  19.1035771   3.8204989
   7.6475579  30.4416728  27.4004650   7.0124102  30.1539421  28.0562329
   7.8538740  31.3434505  27.6463604   7.9545587  39.3307161  12.8662920
   8.1721836  40.1069784  13.3823216   8.5997719  38.6763859  13.1342161
  96.3052559  47.2554684   4.4645160  95.4522324  47.3528337   4.0413082
  96.9379997  47.3490381   3.7523979 109.2757607  34.5627499   5.8923119
 109.9817848  35.2088928   5.9083879 109.6631145  33.7951422   5.4716426
   5.0887847  36.1186337   4.6353173   5.3752828  36.3115311   3.7426019
   4.9594280  35.1702714   4.6456942   4.8025632  10.1270187   7.0839548
   4.1477984  10.4695034   7.6924103   4.6608856  10.6212139   6.2765324
  16.6264558  29.6456671  10.9625113  16.6627693  28.7909651  11.3919282
  16.2433863  30.2274656  11.6190159 110.9544849  45.5921316   6.3762879
 110.4687786  45.0331020   6.9827616 110.8797264  45.1498365   5.5307001
  97.6424122  22.1644187  14.5944107  96.9948196  22.7350831  15.0081778
  97.3309422  22.0611906  13.6952114 102.2846222  25.1655674  25.8359456
 102.1378994  25.8742714  25.2094936 101.5589905  25.2397466  26.4557791
 116.9707966  13.7169087  31.0712147 116.9065285  14.1996217  30.2471447
 117.4393368  12.9141271  30.8426309 118.7850380  38.0998802  19.5617127
 118.2562065  37.4794483  20.0633359 118.5086250  37.9713893  18.6543441
  34.7910047  69.7830105  86.4462185  35.3380585  70.3546572  85.9075356
  34.5843124  69.0424633  85.8760452 103.8304043  19.3834722  15.9039867
 104.4516468  18.8957703  15.3632188 103.8585663  18.9459574  16.7548800
   4.8760661  26.2908077  34.7542572   5.3477895  27.0806718  34.4900155
   5.4085600  25.5700135  34.4179010 106.5907860  43.5266781  -0.0238517
 106.3272095  43.7980795   0.8554088 107.5047874  43.2589960   0.0720216
  29.7543263  98.4734631  81.3306808  28.9918947  98.1806660  81.8298817
  30.4099822  97.7906036  81.4723015 114.9611855  20.6846118  19.8204303
 114.4206619  21.4667225  19.9316204 115.5483341  20.9002733  19.0958703
  10.6514955  11.3908887   2.1772642   9.9183166  11.9973636   2.0730121
  10.8578372  11.4228952   3.1114110  14.8712671  33.1614757  28.7280488
  13.9715397  33.4795713  28.6536360  15.2311110  33.6341381  29.4786048
  54.9007273   1.0664099  95.9801197  54.5108604   0.9579136  95.1126766
  54.2307377   1.5236269  96.4883518  48.2807064 105.4781532  83.4504128
  47.5126743 105.4239559  84.0191174  48.0468512 104.9576855  82.6818657
  98.9544582  16.8845999   0.2700696  98.9717674  15.9338450   0.1605310
  98.9241695  17.0160031   1.2177233   9.6843493  27.4061465   5.8595580
   9.0375566  27.9064870   6.3571024   9.5785713  27.7082515   4.9574631
  50.7562542  85.2560425  96.9603634  51.0360956  84.8987675  96.1175823
  51.0592890  84.6159744  97.6043415  -0.2424642  51.8696547   1.7692593
   0.1218394  51.8827963   2.6543251   0.2497653  51.1839962   1.3177997
  38.9017129  91.0787582  88.1350899  38.7134147  91.6928291  88.8448048
  39.7405267  91.3729763  87.7800465 112.9759693  22.4178219  18.8238847
 112.5681019  22.9593706  19.4996071 112.4486160  21.6191792  18.8063550
  19.9327815  55.5083036  14.9685931  20.7399917  55.9088659  15.2913821
  19.2417014  56.1155128  15.2330446   2.3313729  33.2075882  14.8203468
   2.3136921  33.5263777  13.9179659   2.3980817  34.0000510  15.3530610
 114.0888119  34.5482707  10.8059561 114.5424843  35.3393078  11.0969269
 113.7564468  34.7691035   9.9358988  47.4120951  88.8719845  90.8330536
  47.1742964  87.9770851  91.0756207  48.3615637  88.8438606  90.7149410
 118.1799507  42.7128792  21.1504507 118.3663464  41.7898035  20.9789109
 117.5586319  42.7004910  21.8784904 114.2106342  36.9254875   0.6841724
 113.2558823  36.9911551   0.6646468 114.3840790  36.0776639   1.0932493
  94.8503017  41.1420488   4.1298652  94.8619556  42.0430136   4.4529226
  94.4767189  40.6341696   4.8500907  41.4903450  86.8874359  83.0688286
  41.1157656  86.1587620  83.5637665  40.7314920  87.3566628  82.7221203
  46.0881805  68.7032747  96.3056374  46.7829990  68.0876303  96.0723209
  46.5355730  69.3969107  96.7903423 107.3481369  37.8653216  23.8344574
 106.6518211  37.6786709  23.2047415 108.1250286  38.0139542  23.2954121
   0.5370182  39.4887209  36.7989326   0.5644463  40.3628635  37.1879768
  -0.3691652  39.3839383  36.5089583  13.6455464  25.8891916  36.3927484
  14.4062638  25.3705263  36.1309743  14.0171361  26.6571617  36.8267751
 107.2464275  29.1599751  32.5588322 106.7249966  29.9445438  32.3891544
 107.7408123  29.3678021  33.3516908 111.1699200  65.5516291  23.2518506
 110.8112717  64.9942636  23.9424610 111.3822651  66.3737822  23.6936808
  58.2222128  85.8281612  95.0909233  58.8163090  85.1559067  94.7572136
  57.8558350  86.2351322  94.3058300  14.5451927  39.0372086  36.1625218
  14.1185021  39.6926856  35.6106901  14.1631651  39.1692328  37.0301938
   8.6261570  72.1023798  95.6783867   8.8020372  72.0395470  96.6171837
   9.0008754  72.9445362  95.4203415 112.9714775  37.7075219  27.5474572
 112.2094250  38.2407498  27.3212409 112.6446819  37.0868325  28.1987453
   1.0948372  33.7009859  24.5272040   0.5399250  33.4826350  25.2759552
   0.9561710  32.9834676  23.9090037  15.7564366  33.5020590  40.9512997
  15.7651401  33.5345554  39.9946928  15.2154517  34.2476702  41.2113667
 117.4301434  22.8580618  44.5770359 117.3457146  23.7644911  44.2812490
 118.3567047  22.7635098  44.7978878 111.3240814  39.7233987   5.4527712
 111.7191696  40.5790043   5.6203181 111.7875004  39.1264224   6.0402209
  81.0238647   3.4591481  82.8380394  80.6391144   3.6307201  83.6975574
  80.6797314   4.1552240  82.2783184  10.3517807  31.0110188  14.0022981
  11.0327220  31.0010624  13.3296525  10.1482832  31.9384623  14.1233993
  44.1862535 109.7835255  84.1556740  43.4001112 110.3283119  84.1934204
  44.5262909 109.7913837  85.0504017  37.4077034  97.2850704  96.6336346
  37.3546433  96.5468121  97.2405815  38.1786752  97.7751446  96.9194031
  94.2794514  63.3061552   8.0436146  93.9087009  63.5057163   8.9032346
  95.1261425  63.7526131   8.0384457  91.8340206  78.0546665  14.7333074
  92.6644802  78.0244827  15.2083397  92.0854282  78.1908274  13.8198078
 112.2305107  32.5881863  11.0285819 111.5126133  33.1165171  10.6797111
 112.8681755  33.2287693  11.3436484   1.5837805  55.8299971  39.5048547
   0.8756614  56.2371635  39.0058374   1.1469869  55.4267359  40.2550697
   0.5623379  50.7573891  12.4165130   1.2795803  50.2326965  12.0608580
   0.0850793  51.0644293  11.6456783  13.4290850  38.7452221  17.3365605
  12.6173377  39.0827584  16.9579196  13.3114874  38.8431501  18.2814479
   9.7536498  39.0847421  48.6260128  10.4430628  39.6301079  49.0048456
   9.3989867  39.6106505  47.9091692  22.7882361  46.1396217   2.2971155
  22.6975942  45.3292942   1.7957352  21.9191170  46.5394402   2.2653116
  36.6831899  96.5422821  93.2963467  35.9458590  96.8334484  93.8328171
  37.3539472  97.2125244  93.4271336 108.5507679   5.4605931   6.7313212
 108.1874371   4.9713758   7.4694860 108.9211082   4.7893500   6.1581582
 113.5519791  15.1739562  41.4929724 113.1358814  14.3828833  41.1504745
 114.3190575  15.3019106  40.9349012  66.0480595  -0.0491728  91.4843559
  66.6774559  -0.1781888  92.1938896  66.1497879   0.8702173  91.2381744
  12.4563015  47.5895262  25.7011867  11.6342592  47.3055553  25.3013897
  12.2000158  47.9347181  26.5564036 103.0278492  12.7764153  28.0082774
 102.4370670  13.4500194  27.6714325 103.0662823  12.9409182  28.9504528
  94.1769600  42.0618773  50.8678484  94.1813278  41.1713648  50.5168486
  94.7201920  42.0119667  51.6543865 115.6829453  49.8534775   3.3292657
 114.9361610  49.4333839   3.7559605 116.2563229  49.1281986   3.0814120
  83.6382198   2.1102083  35.8529496  84.2248821   1.3561752  35.9120560
  82.8404713   1.7623429  35.4544210 117.9910469  33.3441067   2.9160479
 118.6960030  33.5600019   2.3055856 118.3270073  32.6006079   3.4166169
  93.6697674  55.9346867  32.0862126  94.4370842  55.9414053  32.6584220
  93.5394001  56.8529749  31.8496013  92.9238415  58.6570311  31.3899779
  92.8014183  59.4682074  31.8831682  93.1262398  58.9459610  30.5001521
  16.3381279  40.8149862   1.3388129  16.3409567  40.8726501   2.2942701
  15.9456265  39.9622917   1.1514902  33.4752584  99.2959976  81.0365772
  33.0319762  99.4834518  81.8639755  34.3278527  99.7231197  81.1195087
  19.6593261  39.2248940  16.8411839  18.9696574  38.6545134  17.1806788
  19.8188221  38.9053845  15.9530926  13.0013418  43.7092733  19.3136311
  13.7470675  43.3848238  19.8184621  12.3044658  43.0748224  19.4811463
  97.6443195  16.7932487  38.4078813  97.5723362  16.5042436  37.4981952
  97.5655842  15.9893799  38.9215207 100.3339672  40.9200096  17.1842408
  99.5086288  40.9202337  16.6994286 100.2534103  40.1865005  17.7939200
   4.7289395  28.4764409   9.1786963   3.8269207  28.5779953   9.4824737
   5.2647293  28.7159252   9.9348772 101.4985847  35.8457065  14.2850661
 101.0351562  35.2705956  13.6762071 101.2665939  36.7303586  14.0025747
  99.5844078  48.2506800  21.7359161  99.7331524  49.1881418  21.6123462
  98.6679840  48.1869841  22.0048904  18.0678999  29.0662408  26.8154311
  17.9771721  29.1105294  27.7672935  17.2460580  29.4240427  26.4795947
   4.2101660  55.3436518  13.1314433   4.0487444  56.2090206  13.5073495
   3.6758900  54.7499180  13.6589515  11.6711259  55.3979397  21.7658210
  10.8248663  55.1162529  21.4183617  12.0527124  55.9283018  21.0662961
  85.0772095  27.9121590   5.0496072  84.1889763  27.6356173   4.8242202
  85.5377197  27.9454374   4.2111242 116.7777252  40.0420094  22.1820974
 116.2455368  39.4043875  22.6579571 117.5728416  40.1301813  22.7076983
  63.4991550  98.8468552  93.6470318  62.9747534  99.6367264  93.7787151
  63.4552050  98.3876038  94.4857216 112.3147583  25.0616741  14.3195331
 111.8440819  24.2329931  14.4088840 111.6882229  25.7253075  14.6081054
  95.3679752  59.8025465   2.3082213  94.5158672  59.9529648   1.8989167
  95.6243515  60.6593132   2.6494637  95.9188938  33.2709455  24.7386384
  96.4623165  33.6543584  25.4270577  95.0219154  33.4877658  24.9929070
 116.0888004  36.3106751  15.3339255 115.3363419  36.8823266  15.4863977
 116.8425655  36.8244290  15.6239820 116.8574047  40.8206272  40.0649929
 117.0942497  41.3695574  39.3174553 117.6871681  40.4439878  40.3580046
 116.5900040  29.8042345  11.2932241 116.2757587  30.7079649  11.2658513
 116.0251904  29.3735862  11.9349062  36.4404821  94.1533089  95.7359314
  37.3343635  93.9041901  95.9707737  35.8947921  93.7545013  96.4137268
  95.4957199  20.1368189  25.5930805  95.0933647  20.7037878  26.2510228
  96.1506462  19.6345901  26.0779262  21.5975261  63.2840681  30.7634997
  21.4715648  64.1212416  31.2101603  22.2467089  63.4698629  30.0850654
   3.2824707  16.7346323  18.1020236   3.6609316  17.5960243  18.2780981
   3.2581401  16.3044548  18.9567673 113.7717628  36.0355711  22.2624350
 113.2217503  36.1430001  21.4864349 113.8187218  35.0885463  22.3934841
  30.5779886 102.6300716  91.6545677  29.8612404 102.5100231  92.2775364
  30.9225464 103.5012627  91.8508625  14.6579087  15.2621007  16.5506840
  14.0622365  16.0031819  16.6611612  15.5319607  15.6420255  16.6396832
   9.0143919  29.2867398  18.4337234   9.6060127  28.9391947  17.7663195
   8.1466657  28.9846492  18.1653500   6.3714010  26.2174797  31.9702148
   6.6173011  25.3201914  32.1952534   5.4144764  26.2164879  31.9931388
   2.0878504  56.2725210  28.6748528   1.1493552  56.3378143  28.4982300
   2.3708144  55.5009460  28.1841063 117.5523853  19.6716440  12.2832954
 117.6033115  18.8469148  11.8001175 118.3880711  20.1041079  12.1076894
 111.2999344  59.5159245  11.5939140 111.9045162  58.7923908  11.4289653
 110.7419491  59.2041016  12.3064113   5.1251888  33.0930829   4.2969120
   5.4422784  32.8881240   3.4173223   5.9199595  33.1900001   4.8214862
  62.9028177  94.7249889  96.2140083  63.3158779  94.0417194  95.6860352
  62.1258783  94.3053532  96.5834618  26.5695715  19.8659503   1.2192529
  26.9587588  19.6358967   2.0629589  26.6961074  20.8120036   1.1471136
 111.1310101  50.2464437  16.1688864 110.4319477  49.7217607  15.7786965
 110.6738377  50.9506369  16.6285992  13.6179268  44.8707008   3.1851226
  12.7539897  45.1059580   3.5234988  14.1322029  44.6627712   3.9651975
 104.8432446  37.8640509   1.4795558 105.5405903  38.5081363   1.6024104
 105.1480484  37.0883083   1.9502458  37.7775931  64.8568583  72.5269175
  37.5417924  64.2931843  73.2637358  37.7012396  65.7464600  72.8718901
  31.4240861  84.2339516  93.6004448  31.2271738  84.9936485  93.0524254
  30.5776048  83.9759922  93.9653492 110.4869843  47.1954489  12.0984328
 110.0962448  46.3221502  12.0682955 110.8647060  47.2586966  12.9756749
  99.9630547  39.6077490  19.5572150 100.2399158  40.4485989  19.9212968
  99.8539257  39.0405345  20.3204894  33.2875657 109.6198559  71.4683914
  32.5923109 109.0334415  71.7666626  32.8740096 110.1576614  70.7931376
  11.3159537  40.6551981  31.6213441  10.5620110  41.2242794  31.7760897
  11.5349519  40.7930660  30.6997871   3.0379495  37.2428036  12.4827337
   3.7808046  37.4601269  13.0459106   2.6832241  38.0909705  12.2162497
  29.6037459  38.3464074   2.6347142  30.0410271  39.0662503   2.1799123
  29.0001798  38.7770510   3.2400945   9.6988446  30.4785943  25.8146119
   8.9411753  30.4101110  26.3955426   9.9660158  29.5722675  25.6615782
  37.2103453  82.2442722  70.7429504  37.8037071  82.6416874  71.3803005
  37.0550704  82.9340363  70.0977039  70.3530836   2.9000852  83.2039642
  71.1893559   2.8719622  82.7391148  70.3064156   2.0619282  83.6639023
 117.2753716  11.0936725  13.4396303 117.2280407  11.8952215  13.9606988
 117.9278564  11.2842715  12.7657199  24.3839622   2.1776843  33.3755350
  24.7338867   2.3420493  34.2511892  25.1068211   2.3898458  32.7850294
  35.8223391  87.5265598  93.7019348  35.4567409  87.9942417  92.9510403
  35.3742003  86.6807461  93.6986446 113.0894947  52.2036982  15.6128800
 113.8556576  51.9093037  15.1203787 112.7486420  51.4089155  16.0232151
  84.2730904  25.1186490   7.6738912  84.0136528  24.5562410   8.4037030
  83.4530830  25.5041671   7.3653471   4.3222067  35.0812221  18.2260108
   4.6691069  34.2174292  18.0029523   4.9497664  35.6965709  17.8468692
  22.8872776  54.8227262   8.6490542  22.4562478  55.6730461   8.5629863
  22.9664683  54.6888494   9.5935315  26.4537024 100.6789112  87.0829582
  26.2884474  99.9265003  86.5148163  26.9932818 100.3295517  87.7922058
 112.4810505  54.7396898  18.2577586 112.5047970  54.2144251  17.4579072
 111.5895653  54.6313620  18.5890591  10.9010303  55.5539274  12.5181794
  10.5857611  55.0034332  13.2349765  10.7869911  55.0157404  11.7348635
 102.7343559  57.5564575  10.1000249 102.0001984  57.4231100  10.6995738
 102.3925400  58.1495714   9.4309902   3.0128813  59.0968418  28.9165616
   2.4265017  58.3836317  28.6641288   2.4281570  59.7931814  29.2156196
  37.7652550  97.2197723  75.6221676  38.6654258  97.0477009  75.8984184
  37.6418090  98.1561375  75.7777452  64.1603518  99.6788597  89.9296379
  63.6864233  98.8588428  90.0682163  63.5430765 100.2348328  89.4541454
 116.4852524  60.1590872  23.0996609 116.4991188  60.9900379  22.6247311
 117.3856163  60.0412226  23.4024525  19.8595583  53.5628986  10.0433755
  20.8151460  53.5933495  10.0897992  19.6205151  52.7797413  10.5391061
 110.8944511  70.9947062  27.9106784 111.8070030  70.8055258  27.6923084
 110.9441948  71.5413046  28.6948895 103.9062119  45.9020042   9.9713117
 103.4133530  46.5563202   9.4761407 104.6186066  46.3956642  10.3775394
  21.5112519  57.4473429  30.7290149  21.7021394  56.6148233  31.1611056
  22.3141074  57.6597929  30.2530742  77.0990086   1.2854125  81.6241550
  77.5212860   1.9731936  81.1095047  76.6208315   1.7563593  82.3066425
 108.6506653  89.4952202  10.9809601 108.6600399  90.2663326  10.4139352
 109.0401268  89.7967052  11.8017280  19.6704781  64.9157286  21.6286922
  19.0260601  64.7342300  20.9445763  19.9012935  64.0537643  21.9750690
 105.2996922  34.5614433  35.6970096 105.0457573  33.6809182  35.4205608
 105.1881504  35.0999498  34.9135542 103.3421993  86.7435551  17.3873472
 103.5928345  85.8890533  17.7384079 104.1731548  87.1673203  17.1725214
 108.8273239   4.5104161  83.0333519 107.9856586   4.1155487  82.8055382
 108.7219334   4.7912219  83.9423561 107.5094700  72.8548002  22.2364473
 107.2990417  72.3824739  23.0419636 107.1080780  72.3334265  21.5412593
  16.3452578  49.9134827   3.9266509  17.0014131  50.4668140   4.3503425
  16.5287971  49.0322495   4.2521831 118.6070633  38.2278848  16.5093648
 119.0279293  38.8643575  15.9314287 119.2669487  37.5461149  16.6357636
  50.0931978 105.0574970  95.6427765  49.5838594 104.2761135  95.4277611
  49.9828672 105.6314278  94.8847103 108.1400776  54.9974442  10.6610656
 108.7922096  54.3004465  10.7328117 107.4617767  54.6331882  10.0923347
 115.2032757  75.1112509  14.9552095 115.6147194  74.2531204  15.0580144
 114.2909145  74.9713373  15.2086818 111.7697048  34.0046453   3.4195876
 111.2545204  34.8077273   3.4962416 111.8743420  33.8762856   2.4768227
   7.7947819  57.5644112   9.0814996   7.3571843  58.2997704   8.6525619
   8.5386306  57.9602098   9.5356631  14.9274206  59.7787809  10.3788197
  15.5633569  59.9130058   9.6761107  14.2897093  60.4830694  10.2624857
  41.3724852  99.2177486  95.0647163  41.4619398  99.5420170  94.1685677
  41.0478640  98.3228874  94.9643326 109.2106152  54.7619581  29.5125628
 109.5140839  55.5150557  29.0056229 108.4511280  54.4377470  29.0285206
 102.6523495  48.4716225   6.4012212 102.2535801  48.8661861   7.1768069
 103.5934067  48.5921240   6.5281749 116.8710709  58.0002403   5.8793014
 116.5451813  58.7869930   5.4422170 117.6517391  58.2933187   6.3492948
  55.6830406  81.8836021  86.7148876  55.8539581  82.7200317  86.2819862
  54.7610569  81.7030621  86.5316486  97.1478939  80.4994392  11.5983534
  96.5077400  79.7914600  11.5261543  97.9966164  80.0638485  11.5198839
  80.1805782   0.8009227  83.0119419  80.6178665   1.6468063  83.1093884
  79.3331718   1.0130435  82.6206112  25.6990004  64.0922594   1.7230296
  24.9608588  63.5953522   2.0758118  26.1697102  63.4648752   1.1743493
  57.7358580  96.3411331  92.4414444  56.9615507  96.6270447  92.9261494
  58.3738613  96.1180496  93.1192493 107.7799225  70.7866526   6.6508329
 107.2308636  70.2371168   7.2101051 107.2848034  71.6001272   6.5541470
  80.3483488  28.4926907   0.5525705  81.0565339  29.1221920   0.4167768
  80.2634576  28.0426804  -0.2879790   6.2017453  57.1793699  37.3414373
   5.5919188  56.9219589  38.0328727   5.7575446  56.9385862  36.5284538
  15.6389225  19.7145665  29.7745275  15.7041979  20.6666327  29.8489523
  15.5620921  19.4083893  30.6781769 115.5154228  72.5230932  24.5209336
 116.2284279  71.9641018  24.8297930 115.9538078  73.2340860  24.0534520
  98.1533146  52.8421307  38.8191676  98.9696693  52.3516989  38.7228560
  97.6196289  52.3060560  39.4057107  14.4417703  30.0116992   0.1651389
  13.6690903  29.5254779   0.4528655  14.7882998  30.4061413   0.9654910
   2.0519401  54.0228367   4.5009497   2.4081977  53.4612846   3.8124973
   1.7308034  53.4130192   5.1651955  84.3931103  15.8096313  87.6308060
  84.4722462  15.3408158  86.8000412  83.5566139  15.5167425  87.9923725
 109.4816494  30.1017618  34.2422485 110.2274513  30.3184438  34.8017621
 109.6279430  30.6063318  33.4420991  25.7471585  37.4050164   1.0721008
  25.7715297  36.7383885   1.7585757  24.9540186  37.9085970   1.2553108
  98.3586597  34.8343468  15.0381875  98.9096832  34.7542787  14.2595983
  97.5782967  34.3192697  14.8333430  57.0730877  85.0600243  86.6120625
  57.5648212  84.3769836  86.1561203  57.5547886  85.1980495  87.4276352
 112.4895191  28.9823771  21.6695285 113.4418869  29.0320492  21.7517376
 112.2548962  28.1585193  22.0966578  32.4066019  99.7418690  83.3681107
  31.5705514  99.5306301  83.7835884  33.0438995  99.7080421  84.0815067
 102.2236538  64.0790129  19.5422113 102.2563171  65.0346565  19.4985402
 102.8902340  63.8458538  20.1883841   9.5340741  39.5904279   5.7984477
   9.2262119  39.4638205   6.6959018   9.1366553  38.8726568   5.3054023
   5.7210356  68.5670614  10.7166636   4.8429024  68.1863785  10.7306147
   6.2687218  67.8912878  10.3171599  70.4789972   8.2959074  84.4672394
  70.9128618   8.6300677  83.6821747  70.9311819   8.7267864  85.1925755
  32.9927301  82.5802994  97.1860027  33.6101031  83.0836201  96.6552067
  32.7787185  81.8188190  96.6469479  86.6551208  45.7485485   8.4007555
  86.5395069  46.0312414   9.3079227  87.5762081  45.9259987   8.2101178
  69.5552444 107.3486328  94.1996956  69.8256874 107.9311848  94.9094391
  69.9243546 107.7451706  93.4105492 114.4982433  51.3515520  18.9554608
 114.9530315  51.2513351  18.1191885 114.6606541  52.2601461  19.2090511
 114.2648888  63.3885622  23.1259513 113.4914207  62.9236603  23.4451032
 114.0514183  63.6155272  22.2208834  39.1863465 108.8092995  91.8231106
  39.8395038 108.5462284  91.1747169  38.3607745 108.4611034  91.4863300
   6.5032279  39.9798536  10.4237032   7.1419001  39.8863339  11.1305153
   6.7105836  40.8243942  10.0237203  55.5825663  97.0882988  94.0857887
  55.0479269  97.7708530  94.4913960  55.3522444  96.2897873  94.5607185
 110.0641632  52.0736694  24.7323632 109.2627811  52.0977688  25.2552819
 110.5088615  51.2736130  25.0123262 118.6101055  17.6038361  35.5687857
 118.7902355  16.9037163  36.1961770 119.2068577  17.4320602  34.8403502
  82.3490620  48.3124590  22.6908278  82.3748684  49.2309999  22.4227834
  82.8891182  47.8588438  22.0436811  -0.1298195  39.7398448  33.1368518
   0.7886931  39.7571206  32.8680253  -0.4512476  38.8896203  32.8367925
   7.6215476  37.1585107  10.8102155   6.8520594  37.7275062  10.7912028
   7.9504174  37.2302794  11.7062771  43.8804483 102.7881718  95.7071495
  43.2004547 102.3165417  96.1881924  44.6840382 102.3008156  95.8886814
   3.2084671  20.9243202  14.4818735   3.8284898  20.2209926  14.2891741
   2.8945550  20.7315040  15.3653395  27.4455833  39.2444634   0.2100780
  26.9353914  39.8996902  -0.2659636  26.7955732  38.6143684   0.5210448
 114.4553661  21.6159225  26.8806744 115.3601742  21.7053008  26.5814042
 113.9280796  21.9316030  26.1468196 118.5549068  55.6207943  27.9197598
 118.4529972  55.3833389  26.9981003 117.6685524  55.5752277  28.2782578
 113.4623337  46.4928961  13.3974266 112.7382755  46.6204643  14.0103638
 114.2363262  46.7899704  13.8758755 110.0991535  54.5409060  19.2325628
 109.6398544  55.3680468  19.0872777 109.5187187  54.0424633  19.8077869
   0.8461902  44.4291449  19.9581075   0.1943372  43.9529657  20.4724717
   1.3231207  44.9530172  20.6017876   8.5136282  65.5249739  26.1099124
   8.5054648  66.0989571  25.3439403   9.1877496  65.8954096  26.6796207
  13.2931352  45.6712151   6.6778070  13.6448491  46.5358353   6.8898404
  13.7971246  45.0672865   7.2232395  11.0320115  70.1550579  22.7439284
  11.4509583  70.6068659  22.0114088  10.4706943  70.8185482  23.1451011
  36.5066814 110.7857990  80.6211185  37.2089624 110.3066730  81.0609627
  36.6347671 111.6963100  80.8871937  43.2873774   6.4942902  86.8860149
  42.8785181   5.8369702  87.4490452  43.5955381   6.0005045  86.1261177
  13.4816468  53.3779860  20.6344891  13.0264974  53.8336277  21.3426280
  12.8025031  52.8512287  20.2131605  25.8568835  49.1299391  11.4687753
  26.5612507  49.7753906  11.5278554  25.3446221  49.2607260  12.2667193
 111.5414906  60.5027533  31.4282846 111.6503620  59.6878147  31.9184446
 112.2196293  61.0828733  31.7744374   0.8546162  46.6779423  16.0763264
   1.0941180  46.4929056  15.1682341   1.6170874  46.4035273  16.5858018
 109.1190624  48.3844042  15.4603148 108.4700203  48.8620281  14.9437475
 108.6075974  47.7435875  15.9542644 118.7038326  57.3503494  31.1590242
 118.8777542  58.2122278  31.5373755 117.8474045  57.4406052  30.7411575
 107.4366474  68.3549738  20.9273458 108.1125355  68.6509132  20.3175664
 107.7012444  67.4663973  21.1653590  23.7395883  45.6984663  12.1422493
  24.0396070  44.7896862  12.1607077  22.8539872  45.6657171  12.5040078
 110.8818245  12.9085934  22.7907038 111.7685318  13.2689869  22.7805829
 110.4646397  13.2770228  22.0119572   2.9266167  53.9500952   1.2566571
   2.9519874  53.7544870   0.3199999   3.7040642  53.5196590   1.6123703
   2.0007592  70.1183271  25.9624910   2.9458848  70.0710869  25.8184862
   1.8099411  71.0557652  25.9946203   1.4733966  64.8792362   3.3522809
   0.7699965  65.5283976   3.3451036   1.9619852  65.0465775   2.5463581
   7.6292241  43.4671593  11.5856612   7.0961338  42.9425764  10.9882843
   7.3160601  44.3631983  11.4620519  62.9217005  96.6730118  87.7454090
  63.8004446  96.8372059  87.4032402  62.9884911  96.8674278  88.6802673
  40.0169516  77.1100378  83.9733601  40.8564138  77.3307371  83.5698414
  40.2097511  76.3555288  84.5299435  15.0609648  51.7596006  14.8025978
  15.9216166  51.7016506  15.2175117  14.5000267  52.1564150  15.4690194
 101.4307022  34.9950242  19.0892613 100.6045818  35.1865888  18.6453319
 101.2346458  35.1080704  20.0193238   5.9797329  55.2417469  16.8347692
   5.2874810  55.7653427  16.4311981   6.7659956  55.4566002  16.3329113
  88.3220959  11.1150765  89.8962975  88.3419609  10.8808279  90.8241749
  87.8375912  11.9401145  89.8678780  46.1222315 100.4646587  92.2828579
  46.4490461 100.2015686  93.1432056  45.5580473 101.2171650  92.4608040
  93.9895535  -0.0107261  97.3097706  94.8280716  -0.3358767  96.9820499
  93.7386799   0.6732094  96.6888618  70.5811071   6.3563305  88.8526630
  70.2711296   6.0116893  89.6901321  70.9624672   7.2069275  89.0701008
  19.5290530  50.8123398  24.5021868  19.0356171  50.7448149  25.3196168
  19.7604811  51.7389202  24.4379640  83.4530067   3.7156817  77.5984859
  84.0521908   4.0272158  78.2768297  83.7542343   4.1445225  76.7974901
  10.1037955  21.1769366  21.3328362   9.7341752  20.8063745  22.1342707
  10.7678747  20.5437398  21.0602713  11.5146863  44.4047356   4.9156743
  10.7963455  43.8931990   5.2878928  12.1450055  44.4883966   5.6311667
  56.9350386 111.9386673  45.9226322  57.8768539 111.8838882  46.0845518
  56.7510033 111.2094593  45.3305006 112.7173233  58.2048655  24.2705846
 112.0553684  57.5558472  24.5089698 112.4135208  58.5613394  23.4358001
 108.0480957  18.9231694  84.4864273 108.7532234  19.1570985  85.0899982
 107.8370094  19.7410691  84.0361881 105.6019783  64.7735453  20.8019614
 105.7893848  64.1666746  21.5180755 105.9853268  64.3581581  20.0294757
  51.6797590  46.1886311  16.2738168  51.3820457  46.8064117  15.6060243
  52.5668287  45.9521437  16.0028791  22.9374194  14.6079361  87.6579285
  23.4881592  14.2868757  86.9439030  22.8187299  15.5387545  87.4689198
 106.2613869 111.1049271  82.0007133 106.6979122 111.9539261  81.9308472
 105.3276825 111.3155746  82.0081425  57.3112774  70.8664227  11.4596164
  57.9100275  70.1511383  11.2449193  57.0780325  70.7167006  12.3758101
   6.7181730  23.2466674  70.7794666   7.5798237  23.4903979  71.1176777
   6.2476689  24.0766573  70.7021666  23.1279063   3.4365848  80.4120445
  22.6982045   4.0333328  79.7992802  24.0104151   3.3249134  80.0585747
  17.5820315  24.9064183  62.7825642  16.8479955  25.0549889  63.3786774
  17.8200376  25.7804227  62.4732113  98.8889599 108.9990425  76.2904882
  98.1020737 108.8328838  75.7714224  99.5491409 108.4141636  75.9185839
  28.7518430   7.7594221  79.7956181  28.3299756   7.2804952  79.0822506
  29.0562248   7.0777148  80.3946686  90.1725101   8.6195624   1.8447132
  90.4740238   9.4388431   1.4521636  89.8150444   8.1196642   1.1108492
 104.0118790  11.6685653  94.1594028 104.1719627  11.1197531  93.3916664
 103.2820702  11.2433994  94.6097755  13.4071076  46.2623358  91.0410690
  13.4718919  45.3541803  90.7456303  13.4721863  46.2092304  91.9945717
  27.4884057  41.1803341  90.1558971  26.7250562  41.5157843  90.6260109
  28.1244326  41.8947935  90.1911736  42.7608061  74.5018387   5.7984209
  42.0146370  74.8279428   6.3015318  42.9987144  75.2295446   5.2239001
  35.0878286  45.4099417  88.2196236  35.7255673  45.7373428  87.5853252
  34.2868447  45.8974886  88.0273914  78.4925842  90.6569767   0.5017146
  78.1716013  91.0591030   1.3088660  79.2224121  90.1051235   0.7828526
  24.6081424  45.9161091  87.2776890  24.3523431  46.4300871  88.0436039
  24.2488217  45.0444984  87.4432659  16.5547228  38.9097357  64.3167925
  16.7266953  39.4098854  63.5189819  17.1130514  39.3164134  64.9794531
  28.9129376  30.0374985  85.6797791  28.3174610  30.2699852  84.9673271
  29.7854042  30.2249384  85.3335190   4.3193275  30.3335285  94.1063023
   3.7703234  30.4242516  93.3274555   3.7105605  30.0805926  94.8003197
  13.0259669  38.7204576  81.5107918  13.4098709  39.2669916  80.8251190
  12.1053863  38.6361170  81.2625027  31.6370487  45.4727221  88.2704639
  31.9513392  45.7586336  87.4127293  30.6926298  45.6261587  88.2428455
  68.9869642  72.4977684  26.5309858  69.7599602  72.8844786  26.9422770
  68.7376928  71.7817450  27.1152878   8.8213563  32.5072193  84.3937111
   8.8609129  31.5523982  84.3390942   8.1721509  32.7580190  83.7365437
  45.4994583  24.0325427  81.5039635  45.8600426  23.8279748  82.3667240
  44.5786095  24.2336369  81.6707802  16.6421723  24.8241496  79.6961355
  17.2526860  25.5594587  79.6429968  15.9780788  25.1091075  80.3238392
  18.6936367  36.8619585  91.5871429  18.5805261  36.4941144  92.4635792
  18.2846820  36.2222290  91.0042858  10.4952908  34.3698382  95.9489918
  10.2887905  33.4393764  96.0374832  10.9563935  34.5908523  96.7581654
  49.0591145 102.8160763   9.4339806  49.4268608 102.4632072  10.2442133
  48.2429600 102.3314571   9.3104017  27.1493387   5.1455647  79.2071962
  27.2778153   5.4748356  80.0967503  26.6632199   4.3290129  79.3219280
  62.8670645  78.6877823   8.2026136  63.7292099  78.3902311   7.9120946
  62.7819538  78.3435678   9.0917176  79.5950508  88.8753891   2.7835336
  79.7278452  89.4975948   3.4986919  78.9591551  88.2478046   3.1270537
   4.3924806  50.2988195  62.8230906   3.6952552  49.8679256  62.3286867
   4.9916872  49.5906305  63.0589962 112.1046638  31.9363046  87.4835491
 111.3065052  32.0367813  86.9648266 112.3451138  31.0159111  87.3772621
 105.6718731   6.9936770   3.3047402 105.2366638   6.2953663   2.8156677
 105.1700687   7.0660847   4.1166458   2.6443827  25.8932233  95.9644890
   2.3245317  25.3843832  95.2195072   2.0426828  25.6784272  96.6772747
  13.0716693 105.1150513   1.4581613  13.5922170 104.7943783   2.1946609
  13.3375096 104.5665073   0.7201491  21.5255690  18.9320374  92.2913837
  21.9190836  19.7341359  91.9478416  21.8925595  18.8428700  93.1709290
  27.8637791  14.2255747  73.5962009  28.2587242  15.0967526  73.5601473
  28.5736537  13.6305988  73.3547258  11.9106758  21.9062877  95.1819897
  12.7760637  21.8213201  95.5821323  11.7836463  21.0837960  94.7091198
  61.0880232  81.1597157  16.0912442  61.1900854  80.4676819  16.7446196
  60.1436901  81.2127876  15.9440815  12.3178494  42.7914715  91.9545746
  11.8815064  41.9395208  91.9582272  12.3575103  43.0362988  91.0300636
  48.7733221  84.5822430   4.8181438  49.4691372  83.9872456   4.5387608
  47.9847574  84.2449379   4.3931454   9.5688635  16.3445473  74.1890764
   9.1742390  15.9110904  74.9457932  10.1078868  17.0401549  74.5656633
  15.5725968  35.4314303  75.7699919  15.9102023  35.6843328  74.9107552
  14.8974144  36.0819030  75.9629822  44.5160484  25.8071303  85.8742237
  44.4080496  25.0969100  85.2416420  44.2349434  26.5918279  85.4036331
  73.0190468  79.3108130  22.7525234  72.9929972  78.5346365  23.3120847
  72.0991755  79.5217562  22.5925899  55.7161331 107.2104263  14.3293488
  56.2356281 106.4765453  14.6576250  56.3555574 107.7906036  13.9161122
  22.8061748  42.0784283  71.8844414  23.0486584  42.3037720  70.9863043
  22.6590943  41.1328459  71.8627453  23.3749843  36.3356042  74.1866684
  23.8303852  35.7913637  74.8290443  23.9189935  36.2844300  73.4007502
  29.4067335  11.2237239  80.3815937  30.3362226  11.0363686  80.2505207
  28.9777136  10.8612454  79.6064949  16.5768313   2.9922098  93.4675312
  16.2052023   2.1103780  93.4452534  16.9822109   3.0595082  94.3320465
  41.6414785  90.4900074   1.5309881  40.8362913  90.6659889   1.0442278
  41.9610405  89.6614361   1.1738015  36.2612081  87.6212025   8.1177503
  36.0051608  86.9525814   7.4824470  35.9201789  87.3011494   8.9529109
  68.0656719 104.1142464  15.7675374  68.0267334 104.9920177  16.1473000
  68.1494474 103.5305595  16.5215468  46.7338371 103.3183002  16.0229933
  47.3719168 103.6007500  16.6782069  46.6879272 102.3679256  16.1274910
  45.1018667  21.2865424  81.8048954  45.3022766  22.2053647  81.6264820
  44.4531059  21.0498285  81.1421013  38.7086034  45.6782150  86.7403412
  39.4664645  45.1362896  86.9598770  39.0835929  46.4669609  86.3485622
  29.7880220  17.9339707  95.2786827  29.0159011  17.8333235  94.7219658
  29.7301197  17.2096300  95.9017467   5.3212887  29.7742724  84.4196701
   6.2525493  29.5605326  84.4771290   4.8863885  28.9267707  84.3256950
  11.3109159  35.7392406  93.6194992  11.8654227  35.0974154  93.1758595
  11.0548210  35.3106785  94.4361877  58.4700489  75.4483414   7.3927689
  58.7164068  76.0051727   6.6542071  59.2258453  75.4801464   7.9792756
  10.1737094  71.3763952  80.5841827  10.8400512  71.1846685  79.9242830
   9.4385421  71.7330503  80.0856209  35.5653858 102.9100895   0.3475018
  35.4489660 103.8228989   0.0839710  36.0817575 102.5210094  -0.3583395
  30.6142759  36.8594027  97.5149727  31.3500381  36.7249632  96.9176388
  30.1194072  37.5809836  97.1268272  15.0696838  22.4899983  90.5976963
  14.6393967  22.6787353  91.4316368  15.3561938  23.3451819  90.2770710
  13.2254636  62.1770000  93.1159401  12.6032460  61.5029716  93.3893681
  13.9191079  61.6943979  92.6662922 113.6329842  36.4283133  67.8794575
 113.3714199  36.3676620  66.9606876 114.1743279  37.2165418  67.9228354
 115.9520054  20.4475284   0.6671800 116.1426830  20.1382494   1.5527418
 115.6375027  21.3433576   0.7888755  41.2280083  95.1157761   4.9674171
  41.1971283  95.0523186   4.0128219  41.6549969  94.3062019   5.2475888
  65.2811909  94.4678593  13.1257045  66.0777140  94.6516323  12.6276946
  65.4678822  93.6473083  13.5818613  27.5963116  39.9458528  93.2429123
  26.8378758  39.7344446  92.6985645  27.3222589  39.7228551  94.1325188
  40.2428102  78.5573435  19.6752143  39.3445945  78.5577869  20.0060225
  40.1515770  78.4047842  18.7346649  60.1361609  80.7799339   9.8476821
  60.9484529  81.2195778   9.5964366  59.6199894  80.7517719   9.0420729
  55.2867460  88.6260796  23.0515432  55.3875256  87.6999378  22.8316665
  54.7271156  88.6283588  23.8281012  21.4356947  40.4634285  97.4284935
  20.6549501  40.5078316  96.8764973  21.9598055  41.2192249  97.1633244
  45.6563520  99.9096203  19.5704484  46.3212872  99.3577671  19.1586816
  45.7992887 100.7780647  19.1941428 117.0395279  30.1064444  93.0448627
 116.3067436  30.4681349  93.5432911 117.5576782  29.6292448  93.6929607
   4.6354571  37.0301127  96.0600662   5.2970767  37.6947403  95.8683300
   5.1229781  36.2067103  96.0838318   6.5866846  78.8179016  96.6330147
   5.7503611  78.5409355  97.0073032   6.4496434  78.7802839  95.6864262
  67.6181507  84.7610664  13.9365578  66.9450998  85.0233364  13.3085072
  68.4444475  84.8972702  13.4729695  64.5244265  87.5778961  29.5221043
  63.8084269  88.0523396  29.0996313  65.2905178  87.7689457  28.9809632
  15.7567978  24.9114847  74.8039436  15.0938022  24.5208812  75.3732395
  16.2855256  25.4539037  75.3891420  33.4357882  15.9706986  69.2471313
  33.0760455  15.0839603  69.2697144  33.2840562  16.2679517  68.3499956
  45.1257372  81.5258503  -0.0091652  45.0210142  81.9472122   0.8439009
  44.3580151  80.9603119  -0.0928242  76.4365482   0.0432946  13.0401635
  77.3229408  -0.2858134  13.1892478  76.4861917   0.9734541  13.2605505
  43.7584114 104.3396187   2.5638506  44.5201540 104.3468857   3.1434464
  43.0259991 104.1052246   3.1338179  20.8366609   9.7186768  67.0151472
  20.1443481   9.3745828  66.4507580  21.1050606   8.9704025  67.5483274
  50.1881027  77.5630951  26.5356016  50.6903315  78.1771612  27.0712519
  50.7475615  77.3932886  25.7777095  41.6780186  36.3600016  88.8447762
  40.7644558  36.0750222  88.8242340  42.1396017  35.7241893  88.2980442
 111.5389538   4.3989858  83.3653069 110.7120132   4.2405465  82.9100037
 112.1471977   4.6592909  82.6735497  81.5515327 102.1648598  15.4890573
  81.2475014 101.4012623  15.9796786  82.2568893 102.5282478  16.0244513
  49.4358301  81.7408085   1.9240369  49.9464560  81.4032173   2.6599211
  49.6402788  81.1497021   1.1994515   5.2556491  31.5465999  73.7818813
   5.4060620  31.0399055  74.5799208   5.2376461  30.8928680  73.0829239
  24.2548227  33.7580752  75.7336664  23.8480759  32.9624891  75.3903961
  25.1736498  33.5217047  75.8606243  79.5194960   1.7842181  12.8176689
  78.7404633   2.3403953  12.8203738  80.1188660   2.2145163  12.2078955
  57.9982948  89.5687771   9.2199081  58.7924433  89.7581387   8.7202060
  57.3960400  90.2762413   8.9896679  35.1480484  99.2684364  16.8386638
  35.9546685  98.8551617  16.5307713  34.4869900  99.0119934  16.1956465
  26.8746686  29.3789625  91.8807316  26.9385266  30.2450514  92.2832775
  26.6778636  29.5562863  90.9609127  56.7377138  86.1741829  33.0386877
  57.5058937  85.6753731  33.3167529  56.9078016  86.3837910  32.1203375
  46.2141895 104.6443653   3.9979157  45.9246016 104.6089649   4.9095714
  46.5238380 105.5423450   3.8796696  28.0079389  28.2667160  81.3347054
  28.4135485  27.4654007  81.0036373  28.7187862  28.7292790  81.7785072
  12.9608381  44.9562597  83.5723591  12.2207069  45.5304289  83.3754635
  12.9215360  44.8314667  84.5205784  25.4802132  26.4532804  93.5374451
  25.0935531  25.6306648  93.2374001  26.3357878  26.4859271  93.1094742
  73.3043861  77.3401880  17.3430967  73.9164114  77.3643255  18.0786765
  72.4492311  77.5120687  17.7372980  23.6876655  56.9035625  91.3984871
  23.6732197  56.0525417  91.8364239  24.5976472  57.1925735  91.4666176
  63.5536242  79.7177172  17.4862957  63.8655758  80.2132607  16.7290902
  63.1871510  78.9159346  17.1133757  34.5149374  11.9273651  72.3195934
  33.8406372  12.3174095  71.7633438  35.1196241  12.6463795  72.5029087
 102.6637745   2.1830051   6.6410083 103.0903053   1.3736141   6.9224048
 102.4643803   2.6443902   7.4556231  85.7722092 101.4808178  18.3203423
  86.4434719 100.8797741  17.9972649  86.1967468 101.9505024  19.0382540
 115.2487469  31.2651324  87.5245667 116.0729408  31.7430830  87.4323750
 114.8572445  31.2921762  86.6515064  17.9278195  43.9274502  95.4868031
  18.1240928  44.5321941  96.2023449  17.2359467  44.3624783  94.9885178
  55.2241611  83.1518555   4.4726402  55.4235601  83.2515907   5.4035133
  54.8518038  82.2730255   4.4002748  22.8406811  34.8716998  91.4360523
  22.7746034  35.3590250  92.2572613  22.3428679  35.3938627  90.8069611
  61.2052250 101.0314465  11.9865465  61.5314388 100.2145004  12.3639357
  61.5488529 101.0365868  11.0931671  14.9034262  41.2840414  96.6561031
  14.2497981  41.9633007  96.8222618  14.6323407  40.5506134  97.2082138
  65.4150152 112.4222374  10.6086147  64.7490072 111.7347622  10.6155705
  66.2378407 111.9602013  10.7689869   6.0168451  48.4598255  85.1653481
   6.4519423  47.7450609  85.6301403   5.1004285  48.1884623  85.1126575
 107.3544216  52.6066303  72.5118208 107.6123810  52.5068235  71.5954542
 107.1450424  51.7181253  72.7998352  50.0559664  88.1491089   0.2909391
  49.6820354  87.3975277   0.7508713  50.7827806  87.7838039  -0.2135699
  47.7711153  94.9681377   9.7326589  47.8922653  94.4903755   8.9121103
  47.6498222  94.2848873  10.3919673  23.8375831  51.0647917  96.4064503
  23.9515114  50.1558733  96.1287403  23.5879397  51.0040045  97.3285198
  53.7377691  89.8325825   1.9221860  53.1601191  89.1364765   2.2352098
  53.1622124  90.4184723   1.4305565  12.3466897  56.8645954  93.9507198
  12.3105478  57.6588917  93.4177780  12.3571742  57.1822453  94.8536110
  17.4772084  19.9226797  95.1176834  18.1590629  19.3329895  94.7958565
  17.6185334  19.9585760  96.0637093  61.5118551 104.2033386  87.4333000
  62.3441505 104.4631481  87.0383167  60.9293890 104.0544415  86.6884518
  31.7383552 110.5768013  10.7856691  31.1246300 111.1808109  10.3676474
  32.1869993 111.1082458  11.4433289   1.3977782  66.1807299  93.4319878
   2.2338036  66.0078335  93.8648891   0.8106685  65.5021286  93.7652111
 100.7581329  95.1539230   8.6209983 101.6803646  94.8980045   8.6360097
 100.2899265  94.3810368   8.9366740  38.2698536  84.3762875   8.9129025
  38.2812691  85.0656891   8.2489532  38.9796185  84.6086216   9.5116413
  68.6609643 112.5109516   8.8857150  68.4427064 112.0171965   8.0952698
  68.7546628 111.8443833   9.5662582  86.8407440   1.2730898  25.8690548
  86.3414955   1.8346727  25.2760839  86.8196297   1.7324872  26.7085409
   0.5935458  72.4212742  74.4481277   0.5553130  71.9936752  73.5925961
   0.2130393  71.7833996  75.0519180 116.7964745  85.1239491  96.1734867
 117.7108383  85.4070473  96.1690521 116.5368462  85.1382446  95.2522850
  53.6879539 102.1813869   7.0674300  53.1774139 101.7046070   7.7218461
  53.1765795 102.9717350   6.8939674 111.7780113   3.5873342  24.3881011
 111.7250729   4.3430284  24.9732137 111.0048676   3.6628270  23.8288283
   4.8873204  27.9785872  87.3267555   5.0161344  28.6575556  87.9890537
   4.6464047  27.1987939  87.8268719  63.4853458  78.9032888   0.9406827
  63.6784124  78.1016397   0.4545579  62.5999880  78.7706184   1.2794560
  40.9351587  44.5074129  87.7874660  41.0371828  43.6139536  88.1154156
  41.7632914  44.6966505  87.3463154 100.4176807   1.8272312  23.7989020
 100.4649162   1.8071394  22.8430796 100.4891109   2.7551362  24.0227842
  23.0841994  58.6785793  84.7762680  23.9990616  58.3971882  84.7851849
  23.0817771  59.5009613  85.2660751  33.5699368  61.5325928  84.9804688
  34.3467784  61.9686985  84.6303844  33.7157798  61.5062237  85.9261227
  38.1182003 110.8150768  23.2312846  38.9672017 110.6907082  23.6555028
  37.7189374 109.9451256  23.2348609  66.9712543 105.8131123  21.2782812
  66.0796356 105.4657078  21.3020110  66.8770647 106.7319393  21.5295315
  22.2309637  47.5315237  92.2942066  22.5427127  46.6981363  92.6470661
  21.5088534  47.2907686  91.7138386  95.9342098   5.7756466  15.3251672
  95.7952785   6.6558003  14.9755120  95.5366993   5.1947320  14.6765101
  19.0183437  54.2618418  94.3513489  19.9191988  54.2265844  94.6729851
  18.4809315  54.0931511  95.1252842  21.2017322  52.4663734  69.2915058
  20.9629703  51.9010305  68.5569191  20.8719325  52.0073843  70.0640297
  81.3333797  87.8185558   6.6511428  81.2114906  88.5550404   7.2502768
  80.4463387  87.5076771   6.4701867  92.9519653  14.2477274  22.9204679
  92.5142384  13.4717035  23.2703495  92.3362637  14.9628305  23.0810118
  30.8865094  36.5031099  88.8456631  31.0821438  37.4264884  89.0048218
  29.9359202  36.4749622  88.7369537  94.0010357  16.3492799  20.0964618
  94.0452003  15.4269469  19.8443055  93.5553646  16.3449180  20.9435678
  23.5288048   4.0065777  19.4790673  23.4091139   4.4744888  20.3054857
  22.6406550   3.7883520  19.1965783  27.0021915  65.9970713  44.2272806
  26.9580412  66.4109707  43.3653212  27.1349669  66.7241144  44.8355675
  89.6622372   1.1586266  15.7358348  89.9983883   0.8625773  14.8899114
  90.4452229   1.3733405  16.2428534  62.2201538 101.6290760   1.7952621
  62.9195070 101.1496735   2.2394539  62.3533964 102.5410652   2.0536268
  39.9794054  40.6685495  95.7227039  40.1573563  39.7563910  95.4934978
  40.3992605  41.1762762  95.0283241  24.4549632  47.6927948  85.4010868
  24.7745490  47.1462393  86.1189747  23.5479236  47.4147367  85.2738285
  42.5351572  76.6945314  91.3905334  42.6891518  77.0766354  90.5265236
  42.9110956  75.8160400  91.3343716  37.5381994  42.4575806  96.6992474
  38.1825542  41.7700529  96.5309048  37.6594520  43.0801964  95.9823895
  60.8647299 111.8025303  10.2344489  59.9233150 111.9213772  10.1085627
  61.1709642 112.6476574  10.5633986 104.9910641  12.7186024   2.8557941
 105.6677818  13.3063006   3.1917936 105.4702663  12.0753205   2.3335040
  89.5213127  92.4267864   4.6014059  90.0978661  92.2062302   5.3329587
  88.7890434  91.8154716   4.6808234  28.2743835  20.8548570  80.1938343
  28.4331656  21.7610621  80.4580498  27.3593116  20.8440280  79.9131918
  27.4599552  46.0284519  91.5748215  27.3226619  46.2044001  90.6440067
  28.0784178  46.7022228  91.8572617  87.2753048  18.8777268  22.8119254
  87.6375580  18.0617845  22.4666023  86.9185925  18.6383212  23.6673045
  10.4374766  46.9189262  94.8183918  11.2410498  47.1064854  95.3034973
  10.0468671  46.1767817  95.2797794  63.7448311  91.8466568  24.6178269
  63.0318213  92.4848270  24.6419358  64.4562769  92.2993851  24.1649365
  25.2473140  39.6077609  91.8615627  24.6118975  40.0820303  91.3253307
  25.2012348  38.7053871  91.5456104  11.2896442  78.6557674  77.4850225
  10.4879272  79.1774321  77.4483252  11.0309160  77.8501463  77.9325342
  55.5888510  58.7137985  15.0272441  55.1703024  58.1992960  15.7174182
  55.4369354  58.2102013  14.2275274  29.2628527  34.0706158  94.9661255
  30.0668859  34.5507860  94.7681522  28.6172390  34.7517991  95.1542854
  50.8580256  94.3474483   8.4425765  51.0489130  95.2550411   8.2057887
  50.7291889  94.3693352   9.3908137  46.9872856 102.1820450   2.8446206
  46.6480207 101.5294361   3.4571752  46.8084288 103.0223942   3.2665947
  85.3716946  48.9525986  90.1171875  85.8217239  48.1078053  90.1226902
  86.0395527  49.5779228  89.8358154 113.2231617   3.9035484  32.0904517
 113.5285378   4.2890069  31.2692308 112.7062988   4.5959190  32.5024080
  60.7236910  93.4803581  37.3891878  60.9111547  94.4190025  37.3952651
  61.4806795  93.0821514  37.8188753  10.2901900  65.2460432  83.1101894
  10.4380977  65.6792164  83.9508533   9.5577133  64.6516323  83.2726288
  58.7588692 101.4666748   0.2916335  58.8246155 101.4006615   1.2442885
  59.4211102 100.8586025  -0.0368606  76.6289616  95.8198357   6.4579362
  76.4612198  96.7618847   6.4326119  77.2902870  95.7126141   7.1415871
 111.2051582  17.7890277  20.5568457 111.3551712  17.0798945  21.1820316
 111.5066719  17.4375522  19.7191203  45.2356291  99.1010094  23.7365079
  44.9374199  99.9911308  23.5494423  46.1903858  99.1543293  23.6937666
  61.3436937  90.4983807  23.4653449  61.0972166  89.6442699  23.1104231
  62.2958231  90.5306721  23.3723807  41.8277979  42.0990419  93.9449596
  41.8250847  43.0555630  93.9090347  42.7481318  41.8580103  93.8395119
  76.1921406  98.9414501   9.1322839  76.1952448  99.0507126   8.1813455
  75.6770420  99.6801949   9.4565707  20.2263021  46.8084335  67.2177601
  20.9027243  46.4841366  66.6231823  19.4643760  46.2580395  67.0367336
  55.3929615  65.7745886  13.5815811  56.0241985  65.0761509  13.4085035
  55.3430748  65.8211517  14.5363462 111.2712955  17.5687873   4.9134833
 110.9381771  18.4059179   4.5902553 112.2195053  17.6906550   4.9611762
  19.7018266  55.8042097  87.8682137  19.9710131  55.0974083  88.4549046
  20.2955198  56.5260935  88.0747223  30.6819725  36.7066145  94.0359402
  31.1485434  36.0014963  93.5872173  30.1414609  37.1073484  93.3551311
   3.1080091  31.5295887   8.2837105   3.6495250  31.4286304   9.0665257
   3.0442947  30.6460786   7.9209715 102.6190758   5.0017995  15.0184965
 102.9714012   5.8428025  15.3097248 102.6149559   5.0617307  14.0631831
  81.8816566  92.6165867   7.8494751  82.0626831  93.5268211   7.6150852
  82.5417328  92.1112537   7.3749667  14.9018347  44.8900604  54.4975233
  14.0195179  44.7266006  54.1643095  15.0847995  45.7979584  54.2557049
  48.6888027  90.5759907  15.9870601  48.0644178  91.2782955  16.1691046
  49.5226431  91.0260391  15.8514130  17.6309848  67.8025293  68.3035231
  18.5289657  67.6436090  68.5943985  17.7065110  68.5195923  67.6739597
  65.7376480  83.2441711  10.1127350  65.0957251  83.7755871   9.6418077
  66.5854168  83.5946465   9.8394477  61.9642115 110.2533150  14.5410621
  61.9060612 109.5176411  15.1506877  61.0859537 110.3245068  14.1671312
   6.6564709  11.5952659   8.4515589   6.4064717  10.7953084   7.9891735
   7.0736146  12.1381545   7.7826089  15.0795424  34.0610051  88.0760384
  14.8256433  34.8726153  87.6366615  14.5496821  33.3844900  87.6543713
  70.4597425  99.7857952  -0.0947059  69.7480488  99.1755199  -0.2878112
  70.7187223  99.5755482   0.8024888  30.9148407  47.3710299  83.0979919
  31.1078787  47.0004082  82.2368336  30.9459853  46.6222382  83.6934566
  93.8825703  28.9997959   8.2058579  94.7686481  29.2105150   8.5002977
  93.4984207  29.8462629   7.9774821  63.8912058 112.4095821   7.7234328
  63.3413792 111.6488838   7.5356334  64.4045782 112.1509457   8.4888011
  43.0053473  98.8156509  19.1361237  43.8212872  99.1804123  19.4787931
  42.8808069  99.2556763  18.2952297 105.7191277  53.3418703  92.3214149
 106.6720200  53.2936001  92.3983192 105.5664730  54.0044832  91.6477108
  78.7469196   9.2678344  11.8200982  78.9738560   9.6930909  12.6470745
  79.5881510   9.0021855  11.4486265  75.2507448 101.4095402   9.7972196
  75.2030087 101.7683887   8.9111155  76.0910702 101.7185020  10.1357973
  13.4105955  65.8883550  97.6235993  13.1323134  65.0305250  97.3027893
  13.7268816  66.3446208  96.8438445  86.4305496   7.8815418  18.1173563
  85.6781292   7.5826663  18.6280155  86.0495281   8.4112597  17.4170315
  42.6580286  64.8705673  93.5472584  43.4907150  65.1333046  93.9394855
  42.7894640  64.9862528  92.6062107  45.2535105  95.0634193  12.7290416
  44.3864012  95.0795555  12.3239541  45.6638145  95.8817387  12.4493217
 101.2267971  10.9409368  14.6330929 102.1328449  10.6935692  14.4483721
 100.9127426  11.3277531  13.8157952 114.8070049  40.5623674  95.8938885
 114.0240955  40.9930038  96.2371540 115.0904560  41.1217451  95.1707172
  15.9328485  65.6606817  83.5944462  15.7274437  66.5184832  83.9662170
  15.2493906  65.0827265  83.9336872 113.0577278  49.0549374  74.3441916
 112.4748516  48.4090662  74.7433710 113.8508511  49.0248251  74.8792458
 118.7700558  64.3843412  71.6481876 118.3333111  63.6719513  71.1813068
 119.3753624  64.7557020  71.0063648  49.8253441  92.7486801   6.3482094
  49.2408133  93.2424545   5.7731098  50.0118494  93.3474255   7.0713663
  10.6893551  29.2868948   9.7958422   9.8550892  29.0502310   9.3905979
  11.3458741  29.0805173   9.1305435  21.1166096  21.5377545  95.0972462
  20.6481338  21.7037463  94.2791939  21.4536619  20.6467581  95.0036907
  92.8009605 107.1467400   1.9329657  93.0409527 107.8545952   2.5309393
  92.1656132 107.5423431   1.3362569  32.9131651  49.9915123  79.1403627
  31.9870424  49.8532009  78.9418697  33.3082986  50.2133274  78.2972145
  77.4423265  19.1430366   1.2635514  77.3961687  18.7245715   2.1231958
  78.2294512  18.7764752   0.8606851   1.8981206 102.0593834  64.3666887
   1.2160642 101.7144203  64.9429083   2.6279652 101.4482117  64.4668293
  41.9840622  62.0846224  91.1718655  42.4948454  62.4150038  91.9108963
  41.9808245  61.1345720  91.2885952  45.8596563  86.7166901   9.4644332
  46.0444403  85.9305191   8.9506167  45.5565071  86.3847542  10.3095043
  93.7436867   9.7701228  26.1954284  94.2940712  10.3229034  25.6406856
  92.8577518  10.1093030  26.0677052  54.4841528  83.4283257   1.7014095
  53.8831806  84.1730499   1.7224394  54.9189806  83.4472942   2.5539342
  98.2080555   3.7397355   9.7385639  98.3065796   4.6838656   9.8616213
  97.3625374   3.5332206  10.1369131  48.5576248  94.2443180   4.6067691
  49.3314838  94.5536518   4.1359383  48.2209301  93.5273933   4.0692854
 108.6399269  72.2697258  85.4480457 108.1466961  73.0040073  85.8138084
 108.0198956  71.8312645  84.8653507   2.7804855  36.5135121  93.7084961
   2.1420729  36.6631722  94.4058132   3.6262259  36.5014029  94.1566086
  63.5081530  93.6539650   2.3549549  62.8012705  93.2634163   1.8411219
  64.1786528  92.9721260   2.3969615   1.4743464  52.1088839  89.3865776
   0.5927264  52.2699690  89.7227764   1.6867405  51.2246370  89.6853065
  25.9451938  28.7181330  88.9148235  25.5500364  27.9200506  89.2657471
  25.2000594  29.2628288  88.6612225  56.5755796 106.3874817   0.2427702
  56.6343164 106.8657207   1.0698498  55.8005333 105.8343124   0.3404813
  24.0646791  60.9810591  93.1172371  24.4341063  60.1869392  93.5034180
  23.3657980  60.6659222  92.5440979  13.9119959   8.0199164   9.3083137
  14.6164680   8.1496924   9.9432230  13.7678719   8.8872284   8.9298570
  70.1723480 102.1210480   8.1551504  70.5518579 101.2996483   7.8429043
  70.9121561 102.5999641   8.5287255  72.2135115 106.6265678   1.0303435
  72.9309940 106.0107040   1.1792182  71.9816303 106.9400120   1.9045395
  84.3968487   7.4579221  15.0791752  84.6653366   6.5935659  14.7676718
  83.5786724   7.2993392  15.5499899  58.5227585 101.4464378  23.4463167
  58.6145353 100.8430481  24.1836953  58.9103603 100.9801960  22.7056360
  33.6632538  62.1105909  71.3714457  33.2958508  62.4221849  72.1985865
  33.6084461  62.8655338  70.7855368  69.5895767  94.2394543   6.4429277
  68.6707830  94.1473389   6.1908108  70.0234556  93.4835052   6.0472870
  92.5559425  21.1591673  18.5382116  93.0917549  20.6380963  19.1362262
  91.8812370  21.5458608  19.0963078  30.3873396  48.7274647  76.7683697
  30.2881598  49.3946314  77.4475527  31.1413884  49.0181446  76.2553930
 101.8811512   1.1446501   0.9029155 101.2633228   0.5248441   0.5151521
 102.3712158   0.6265861   1.5414166  37.1219778  66.4135838  83.7602425
  37.2864890  65.5926943  84.2242622  36.6946769  66.1470938  82.9462147
  71.7744630 111.8183285   9.3095684  71.1683744 111.5861132   8.6060345
  71.2724965 111.6815484  10.1130295  28.8601255  52.2214270  85.1797104
  29.3232560  51.3844728  85.1443672  29.3157411  52.7742720  84.5448875
  41.1830091  28.8846064  86.4382553  41.3409328  29.4205499  85.6610394
  41.5529490  29.3937278  87.1594810  31.8192768  55.2510405  72.4532461
  31.2924623  55.1339245  73.2438040  32.6961637  55.4557276  72.7779102
  24.8479533  40.4448557  60.0306797  25.7183313  40.2754116  60.3911829
  24.3963337  39.6029377  60.0893831  73.9882088  98.5511971   4.8719588
  73.7671185  97.8197575   4.2954606  73.5836840  98.3264923   5.7098728
  89.7860718   1.5523361  12.3272991  89.7734547   0.6347053  12.5993764
  89.4675159   1.5389544  11.4247632  76.7911768   1.9784081   8.5587645
  77.3376608   1.4188242   8.0069929  76.2698317   2.4894236   7.9396594
  99.6863937  34.4954515  12.8023756 100.2684689  34.1646743  12.1182692
  98.8989449  34.7720933  12.3337305  44.3955088  79.7363186  33.0583215
  45.0524426  80.1879501  33.5881305  44.2243528  80.3326988  32.3294401
  69.8045635  11.8084025  27.7618742  70.5910921  12.1779490  28.1631732
  69.1359091  11.8704224  28.4439969  23.5262728 107.9594994  25.4988742
  23.3538651 107.9644585  26.4404082  24.4718218 108.0903339  25.4278302
  86.2452030   2.3095991  13.3960390  85.5948067   2.3675020  14.0959430
  85.7280731   2.2576445  12.5922287  87.7917004   4.0275878  21.5243316
  87.6843452   4.9366128  21.8042946  88.7200451   3.8416475  21.6651869
  17.1648288  38.8989329  90.7104969  17.9368246  38.4103966  90.9961319
  17.0362401  38.6327314  89.8000908  35.9066677  74.8376322  89.5751762
  35.3300405  75.4555941  89.1259003  36.0680485  75.2382612  90.4293919
 115.9302902   8.8719714   1.5842132 115.4246998   8.1414932   1.9406058
 116.8398285   8.5766435   1.6259155 110.4636383   2.1781340  13.8148999
 109.5623589   2.4421403  13.6299086 110.6399155   2.5244832  14.6896577
  79.4080830 101.6069126   8.5952663  80.2412033 101.9106388   8.2348460
  78.7861872 101.7018318   7.8738320   4.4862387  16.7559278  10.8809757
   4.1704232  17.0325494  11.7411923   5.2523363  16.2140715  11.0699677
  35.6347013  57.3355007  69.7212219  35.0938082  58.0640554  70.0259686
  36.1718440  57.7113438  69.0237617   9.9412572  43.3515549  74.6657610
  10.7852840  43.2826042  74.2195606   9.5210057  42.5047779  74.5154762
   6.3611799  40.9100342  80.3292656   5.4418594  40.6437111  80.3168869
   6.4564574  41.4775419  79.5643520  17.7353454  35.1661468  77.5112772
  17.5127602  34.8198175  78.3754206  16.9189763  35.1128936  77.0143461
  62.6665354  98.7453365  13.0672061  63.0259895  98.9861298  13.9210486
  63.3616590  98.2368946  12.6494515  29.1981339  77.1711683  95.1064301
  29.2291021  77.3899937  94.1750908  28.9239407  76.2543344  95.1280499
  49.8553181 108.4634590  22.3339510  49.2059898 108.5826588  21.6408420
  49.9329090 109.3265629  22.7404666  15.8065450  50.6080055  82.2323036
  15.5403411  49.7495079  81.9031334  16.7154300  50.4877377  82.5074291
  17.6129806  46.0235500  91.5233326  16.8750024  46.6202116  91.3983727
  18.2500231  46.5322781  92.0249271  68.3833456 109.0004349   8.4825361
  68.8063669 108.6056995   7.7199954  67.7160358 109.5790100   8.1134975
  17.0539427  38.0451250  87.5555038  16.2271392  37.5702500  87.4711323
  16.8281353  38.9552212  87.3632240   7.2970468  56.3097143  75.8904409
   6.4268333  56.7032814  75.9542179   7.6353109  56.6117334  75.0474691
  35.9118485  63.0683470  84.2536449  36.2916684  63.5013437  85.0181580
  36.5874028  63.1373835  83.5790348  46.5718889 101.7341518   9.8374456
  45.7627392 101.2346363   9.7279626  46.6267157 101.8979549  10.7789314
   0.8602722  19.6841156  16.2421477   1.2002396  18.8450408  15.9313285
  -0.0878376  19.6145940  16.1304045  11.2280762  77.5973654  96.4961624
  10.3478527  77.2233868  96.4564419  11.2404656  78.0943394  97.3141479
  84.9116135   2.6257581   2.3138742  84.5658684   3.4347829   2.6909345
  85.5969334   2.3512866   2.9231593  85.0456142  17.5650287   4.6671265
  85.7596684  17.8062594   4.0770674  84.5765591  18.3847070   4.8231459
  54.0889597 100.3387642   9.8509455  53.1768370 100.2476311   9.5753276
  54.1592216 101.2451649  10.1505005   8.6914229   9.8546559  14.3951976
   8.6907852   9.0931201  14.9751067   9.5949239  10.1701260  14.4151258
  71.0658121 104.3096066  29.9180770  70.9539509 105.1753044  29.5252824
  71.9186115 104.0114403  29.6017551  68.2725096  98.0042458   7.0016962
  67.3755026  97.6707745   7.0218992  68.4755611  98.2009602   7.9161924
  28.0419183  45.1033497  82.1532440  27.2415042  45.3338289  82.6248837
  28.7191987  45.0775528  82.8291512  59.6766233  69.5886660   7.2514248
  59.2372465  68.7404346   7.1907175  60.2442503  69.5100451   8.0181384
  68.2760382 102.3563194  10.8854449  68.7240171 103.0905056  10.4653049
  68.2998371 102.5640583  11.8195260  66.6943121 102.8917885   3.2125148
  66.3733959 103.6851025   2.7836838  66.1908245 102.8382206   4.0248340
  70.4732609  94.2174149  12.7386558  70.1891375  94.0307236  11.8438625
  71.1448956  93.5596371  12.9188442  12.2988689  31.7007041  94.7893143
  12.4383008  30.9843946  95.4087448  11.6357160  31.3684654  94.1842747
  83.7205315  74.3402100  18.3247864  83.3349991  75.0512981  17.8129756
  84.1326904  74.7775221  19.0698504  98.3674526  11.4978075  13.0625391
  97.6518631  11.7828453  12.4942780  99.0978146  11.3363218  12.4652696
  94.6245956   6.7655718  26.4178562  95.2647018   6.5055680  27.0803404
  94.2629433   7.5894117  26.7445564  44.5586014  52.7153301  81.8186378
  43.7255239  52.2843218  82.0095444  45.2232027  52.0736408  82.0691872
  33.4868598  78.1711197  87.6721287  33.6077189  77.2223282  87.6344299
  33.4661651  78.4465361  86.7556381  42.2507811  37.3065281  96.2759018
  42.5317001  37.1671152  97.1802711  42.3677588  36.4549375  95.8547783
  12.3915219  62.1804333  85.5046368  11.8631792  61.8096876  84.7977924
  12.3882699  61.5068436  86.1847115  26.3902079  73.4413227  97.0273296
  26.3113295  72.8293737  97.7591270  27.3185240  73.4185442  96.7950602
 100.2172279  11.4698386   8.5011882  99.7233105  10.9543800   9.1388220
 101.0401726  11.6749716   8.9449346  25.2143049  36.8391466  90.6316185
  25.6606817  36.0096192  90.4617310  25.5454206  37.4318814  89.9568844
   6.4298791  82.7814865  93.9339924   6.8917012  81.9500828  94.0422916
   5.7345051  82.7565956  94.5913124  62.0603418 110.2250957   6.7277521
  61.8593121 109.7641659   7.5422239  61.2178802 110.2970982   6.2790805
 113.9944839   6.4869809  16.9788170 114.4962597   5.7928711  16.5514183
 113.5071659   6.0391778  17.6703537  25.3114843  55.8859348  88.8567829
  25.8839798  55.8292437  89.6218109  25.2759099  54.9916077  88.5174561
  97.4086475  33.9826059  34.3180060  97.7351952  34.7844529  34.7262239
  97.8206158  33.9687300  33.4541059  30.1851273  58.6124039  86.6737175
  30.1316786  57.8737354  86.0672951  30.6496143  59.2911625  86.1840534
  24.3420291  52.7813768  74.3382359  24.3285728  52.6697969  73.3876562
  23.9725137  53.6525297  74.4823885  84.0155697  11.9095683   1.8050569
  83.1154442  12.1652997   2.0065729  84.3823814  11.6405320   2.6472569
  51.2830687  91.2831402   0.9455347  52.0207548  91.6971684   0.4976227
  51.2748480  91.6842461   1.8146028  13.5214293   7.6911741  81.5110016
  12.9688454   7.0587915  81.0516834  12.9060411   8.3295375  81.8715954
  17.3399079  24.8586583  67.0479679  17.8579307  24.8388028  67.8526354
  17.6242542  25.6551456  66.5996504  62.8005457  87.4042606  10.6962442
  63.6067724  87.4785805  10.1856482  63.0960083  87.1845436  11.5797937
  49.7692060  29.4513273  82.4696159  50.4442024  30.0322914  82.1187687
  49.9408293  28.6063170  82.0540047  93.2869720  56.4729929  80.4260635
  92.8350163  56.2971973  79.6008015  93.8832474  57.1939325  80.2237320
  32.5524187 101.1074734   7.9033554  32.6702857 100.2184200   8.2379079
  33.2154083 101.6251469   8.3601844  55.1230764  88.6208916   4.1508281
  54.7383881  89.2442131   3.5346210  55.2139091  87.8116989   3.6476395
   9.4166243  57.3795557  97.1233749   9.7165132  57.9188728  97.8551102
   8.5630971  57.7449560  96.8905544  59.6136665  71.4768648  15.8641005
  59.3381453  70.5601835  15.8671153  58.9842749  71.9142485  15.2906978
  55.6708336  76.9854689   5.2048159  56.0559225  77.4102831   5.9712833
  54.7622585  76.8178701   5.4550797  57.2436714  52.6099157  85.1855278
  56.4527369  52.6522636  85.7229805  57.9554224  52.4961185  85.8153629
  97.1189594   6.7623580  12.2316384  96.4238071   7.1624011  12.7540970
  97.8324032   6.6173637  12.8531027  89.7415829   6.5114188   4.2448279
  89.6556664   6.8059736   3.3381376  89.0631294   6.9927812   4.7183514
  54.7635412 104.4717216   0.7890032  54.7203636 104.0884495   1.6650552
  53.8783264 104.3702030   0.4392610 106.1819649  12.7180028  27.8497410
 106.2529373  12.9299414  28.7804794 105.7806110  11.8491936  27.8318596
  91.7241764  10.0405705   6.3679570  91.8580437  10.9297132   6.0397267
  91.2935829   9.5813686   5.6468791  30.1556134  46.8842506  78.8616323
  29.8483753  47.5322533  79.4956112  30.1835918  47.3573542  78.0299950
  51.6323996 109.7164059   5.8985603  51.6883993 109.0780258   6.6095924
  51.4182568 109.1950417   5.1248980   8.4903759  54.2629862  71.1430359
   7.9533696  53.4731770  71.0793257   9.2687982  54.0660238  70.6219816
  43.4694815 104.9867916  24.3830919  42.8715229 104.8224831  25.1122570
  44.0997028 105.6193161  24.7280264  50.3114367 100.4689598  19.8153472
  51.1780405 100.3487873  20.2036572  49.7570515 100.7415009  20.5465221
  28.6452055 102.0790863  29.0175438  28.4426093 101.3881588  28.3868265
  29.4960594 102.4167633  28.7378120  18.3315277  16.1306155  96.7267895
  17.5279129  16.5464687  96.4145374  18.9671898  16.2825859  96.0274601
  83.2420349 107.5701237   5.4698759  82.8024387 107.9371357   6.2368709
  83.9650440 108.1730747   5.2968347  28.4573150 107.6730824   8.6297029
  28.7879848 107.2612000   9.4279784  29.1891050 108.2022858   8.3124286
  27.8981686  53.2862425  92.2584438  28.3785105  52.4801397  92.0694923
  27.5968122  53.1795931  93.1606770 113.9379787  10.0871122   0.2622204
 114.7034931   9.5891714   0.5490561 113.6257935  10.5240333   1.0546036
 117.3280239  12.0779932  21.1604786 117.2172260  11.1519468  20.9450865
 118.2155323  12.2871149  20.8692241  90.7895374  14.8851407   0.6882700
  90.8000183  15.3185475  -0.1651239  91.4651871  14.2103004   0.6224849
  68.3076000 109.5971298   1.1540202  69.1385746 110.0702858   1.1111549
  67.6402330 110.2831078   1.1370452 114.0613556  39.5490003  29.0111971
 113.8866997  39.0726089  28.1995440 113.3997059  39.2284846  29.6241593
  78.0036974 109.6829987  14.5717371  78.2860136 110.2857971  15.2596009
  77.0714808 109.5464420  14.7407174  66.4402246 108.2932281  22.1112251
  66.2099743 108.8596535  21.3747597  65.6096363 108.1335735  22.5594091
   6.5241820  17.7266765  27.3150086   6.9427741  17.0456016  27.8414607
   5.9405744  17.2489810  26.7255664 110.8935356  12.3896921   4.4109315
 111.1253643  13.3169580   4.3592981 110.8998585  12.1930301   5.3476900
 111.2706566   9.3523836  17.4358559 111.3495541   9.9997997  16.7352438
 112.1706867   9.2006236  17.7242088 114.2290688  16.9578028  26.1255193
 113.4078217  16.5928924  25.7959414 113.9931774  17.3634481  26.9598103
 108.7195206  35.4249048   8.3369541 108.1318283  34.7938752   8.7524772
 108.9396191  35.0282168   7.4940866  41.1339855  40.4658079  91.3283443
  40.6296206  41.0791540  91.8628120  41.5934086  39.9164104  91.9634151
  48.2458305  71.9848967  96.6610050  47.5511789  72.6352549  96.5574074
  48.8456535  72.1574593  95.9352875   3.8068107  17.4977350   6.9871861
   3.7825191  18.4109735   6.7014647   3.1147194  17.4342084   7.6453698
   8.7029141  53.4545565  94.9477196   8.5212505  52.5904036  94.5782948
   9.6313620  53.6017895  94.7673321  57.0100832  83.4341908  49.5307684
  56.6024160  84.0629101  48.9351559  57.5688934  83.9674473  50.0961018
   0.6060606  34.3553925   0.5928181   0.9437943  34.3841696  -0.3023577
   0.5261701  35.2743936   0.8483278  24.2981195  54.7108555  80.2263927
  23.7778163  54.9978733  79.4759703  25.1432776  54.4634199  79.8512793
 108.0825043  99.2101955  21.3928723 108.9044476  99.6798134  21.2510753
 107.7504921  99.5535660  22.2223878 101.3368130   5.7448769   9.7249782
 100.3896999   5.6331450   9.6429527 101.5489006   6.4488840   9.1120964
 118.7036514   8.4501529   8.4440142 119.3918610   8.7767678   7.8644317
 118.5756111   7.5405180   8.1749350 111.2329769   8.9719433   9.0339214
 111.2468815   8.2120776   8.4519911 110.3283405   9.2829603   9.0001452
   8.3002234  73.9389372  74.8219490   7.9692829  73.7687254  73.9400530
   7.5765961  74.3783045  75.2686596  69.1536617 105.4028225   4.6402121
  68.5728979 106.0794640   4.2922103  69.5242071 104.9828243   3.8639861
  42.2975683  77.9051495  93.9865494  42.4627113  77.5746250  93.1035328
  42.7569342  77.2928619  94.5612812 103.6908722  17.6754451  18.3520091
 103.0045795  17.7177322  19.0179265 103.8588715  16.7397499  18.2402945
 117.4844646  18.0728638  16.8472540 117.0534897  18.1221724  17.7005172
 118.2022190  17.4529862  16.9769216 105.2889538   3.1024659  19.7611487
 105.5589771   4.0025333  19.5789433 105.8943176   2.5631383  19.2523348
 111.1820507  27.5212431  18.4624875 110.4685020  27.4570560  19.0972722
 111.6027069  28.3583403  18.6588204  49.9085140 109.7387028   9.5778644
  49.9071264 109.5321846  10.5125189  50.6438208 110.3413868   9.4668347
  82.4869251  95.6626225  39.3936849  81.7172337  96.2227631  39.4939137
  82.1705818  94.9073219  38.8980293   6.2669736  14.1718447   4.9088353
   6.2920344  14.9767697   4.3914393   6.4961356  13.4805906   4.2876396
 112.4321556   3.1476298   7.7318746 112.2092724   2.3496854   7.2524607
 112.6929760   2.8404427   8.6001158  35.3142905  66.0558748  81.0569382
  34.7409391  66.2312269  80.3107738  35.4311323  66.9090319  81.4749050
  41.4928675  61.3466787  86.4763546  40.8184433  60.9766912  87.0460033
  42.1375513  60.6454897  86.3817310   6.2601638  21.7049360  22.6569390
   6.4656049  21.4649749  23.5605121   5.7990485  20.9431815  22.3057532
  86.8245983  13.5907054   6.0564744  86.4101982  14.1774845   6.6890866
  87.5226593  13.1605399   6.5503383 116.4460945  17.6555681  24.4138527
 115.6436825  17.5553751  24.9260259 116.9791698  18.2677197  24.9211359
  16.8160152  68.4610224  88.0912018  16.9812930  67.8005695  88.7640476
  16.6108871  67.9555321  87.3046684   8.8949251  14.4573295  15.2323306
   9.7191864  14.5166373  14.7493112   8.3738959  13.8230300  14.7399652
  18.6214781  83.3972263  77.3246813  18.7658501  83.2335949  76.3926888
  18.5371280  84.3484211  77.3905945  64.3720341  90.0802708   4.1752824
  64.0171194  89.3995667   4.7470367  64.1271734  90.9020424   4.6006787
   4.3938485  29.4574380   2.6461887   4.0261370  30.0338507   1.9762869
   4.1700000  29.8803663   3.4751970  62.3682117  85.0342751  89.7347927
  63.1226969  85.2491379  89.1863251  61.8444777  84.4385910  89.1989708
  95.8651733   8.5388356   4.9780071  95.1943779   8.2239711   5.5839115
  95.4277802   8.5609269   4.1268712  96.1587429  13.4844100   1.0278396
  96.9218636  13.5186124   0.4510322  96.0137367  14.3942583   1.2874202
  11.3625956  23.2251430  11.8469918  10.8014476  23.9971185  11.9204819
  12.2352099  23.5400128  12.0828581  81.7766094 111.1222553  17.0053446
  82.7097416 111.2554073  16.8387222  81.4476204 111.9916725  17.2336280
  87.3841572  85.2640724  18.5239792  87.0427132  84.6935368  19.2125559
  87.2558403  86.1504269  18.8618171  38.3917499  63.5762501  79.6549129
  38.7964582  62.7168131  79.7724295  38.8887572  63.9797401  78.9432859
  74.3393517 109.1851044   9.4097775  73.7089634 108.8363171   8.7795490
  73.8218546 109.7613049   9.9722940   7.6033378  26.4383245   8.6861777
   8.0144608  26.3819766   7.8236037   8.3294189  26.3508701   9.3037450
  98.6393261   8.2181001   7.7092677  98.6829567   8.4261030   6.7759603
  97.7128983   8.0406946   7.8720641   5.1393890  73.1780624  96.3802338
   5.3686351  72.2530270  96.4696312   4.9851176  73.2971001  95.4430771
  11.8655574  77.5779057  87.0677662  12.2637165  76.7075682  87.0531273
  10.9266973  77.4104357  87.1497917  41.5687132  53.2613897  86.5452194
  40.9341145  52.8540325  87.1347713  41.0749340  53.9507675  86.1011791
 102.1778011  13.1102860   2.1684362 101.9283295  13.7205017   2.8624338
 103.1170464  12.9753685   2.2943486 112.5767517   2.3116666  10.4458725
 112.6808262   1.3795486  10.6370687 112.1004772   2.6591250  11.1999726
 107.7772331   6.1927241  29.1339564 106.9615269   6.0074329  29.5992708
 107.7743149   7.1424127  29.0143156  30.9115720  80.8146286  91.7065620
  31.7877746  81.1719894  91.8507767  30.4325509  81.5218925  91.2746429
  30.9866142  29.7726750   6.6483122  30.0874901  29.9689651   6.3851100
  31.1177421  30.2797008   7.4495381   4.3426898  27.3238921  13.6053228
   4.0365559  28.2123995  13.7871599   3.7575346  27.0048571  12.9182684
  40.0457096  73.1691647  85.8935165  40.3542805  72.8817940  86.7528343
  40.7240057  73.7693882  85.5838776  14.9878907  71.3729620  94.4946957
  14.0847063  71.5495586  94.2314434  15.1694942  72.0198298  95.1764679
  44.6028090  75.6569433  79.4104624  45.0934887  75.5621862  78.5940742
  44.6655464  74.7982216  79.8286629  37.1863341  62.9041719  90.1120090
  36.6152811  62.1907616  90.3969193  36.6850877  63.6992025  90.2934170
 110.2375507  18.8981903  27.4193025 111.1223888  18.8192177  27.7757335
 109.8221207  18.0599165  27.6216626   9.9182379  96.3478279  59.0754700
  10.6126571  96.9938374  59.2046356  10.2595127  95.5466461  59.4727993
  11.5775347  70.5380487  68.9899635  10.8099890  70.1320410  69.3927860
  11.2452579  71.3490391  68.6050940  82.5486279 109.5442581  13.2688248
  82.8149319 110.3562164  13.7001312  82.7073479 108.8628483  13.9220667
  16.2698591  43.8892126  89.8048973  16.5011215  44.5547867  90.4527855
  16.2369812  43.0720329  90.3022671  47.0565271  86.0742855  91.3419056
  46.1204290  85.9805775  91.1653614  47.1611547  85.7744503  92.2448921
 101.2993050  24.9734449   2.5681952 101.4677238  24.0522861   2.3698711
 100.3461361  25.0344563   2.6313573  27.4799347  63.7948799  96.6703129
  27.7873063  64.6855021  96.5013504  27.7619910  63.2948160  95.9044075
 106.8734932  18.4102988  35.1121974 106.4481640  18.5161102  35.9631586
 107.2781944  19.2603421  34.9393678  33.5404348  60.9771538  76.8509722
  33.7841558  61.9027901  76.8458223  34.2821717  60.5364799  77.2655392
  83.2718372  10.8942223   6.4828020  82.4594593  11.3967717   6.5438396
  83.0469608  10.1408184   5.9368682 106.3985634  17.2354281  28.1258392
 106.5468979  17.8424680  27.4007654 107.1687317  16.6670358  28.1237221
  28.5124588  75.3839302  92.5928688  27.6622772  74.9469423  92.5432301
  29.1465259  74.6688652  92.6464844 104.2618084  18.7321389   7.8015673
 104.4164181  17.7929950   7.6998985 104.7066975  18.9611578   8.6175704
  17.0820057  53.8833952  92.2135735  16.6840231  54.7494984  92.3013496
  17.6312065  53.7921381  92.9922104   8.1117368  13.3733881   6.8966484
   7.4110764  13.8654089   6.4686036   8.8318425  13.9993608   6.9730514
  65.8963680 109.2552185   7.4954206  65.9315825 108.3071899   7.3679870
  65.7787657 109.6110725   6.6146427 113.7190819  37.4313927   5.8820653
 114.3010807  38.1694555   6.0630912 114.3056011  36.7239785   5.6141305
  88.0109882  96.5879822  12.2983325  87.7582264  96.6359806  13.2203102
  88.9475250  96.7857552  12.2961247  93.4863567  54.2952538   7.5026512
  94.1601086  53.6794519   7.7909017  92.7416515  54.1223812   8.0786365
  21.8056750  67.5740576  87.3871040  22.2468138  67.6583290  86.5418053
  21.1169696  66.9270658  87.2344017  11.7070937  91.6483116  81.3514709
  11.7555523  91.5867710  80.3974819  11.5379822  92.5746346  81.5234375
 107.7963352   7.6208431  10.2474892 108.3679295   6.8607569  10.3560090
 108.3772659   8.3148456   9.9358606  25.7238746  47.4685526  95.5157471
  25.8418870  46.9675922  94.7086811  24.8387408  47.8266001  95.4481316
   0.7407131  12.5887299  20.5073786   1.6962004  12.5529885  20.5520844
   0.5436521  12.5638688  19.5710135   4.1673070   1.6300873   7.5859910
   5.0970709   1.8293014   7.6959205   4.0546468   0.7754526   8.0020905
 104.7040081  31.2934041   5.9318620 104.1129494  31.8349290   5.4087603
 105.1481819  30.7368970   5.2921462  43.7974882  57.7969646  80.9926224
  43.0352116  57.2356224  81.1342621  44.2679167  57.3838568  80.2685547
 101.6403103  16.6737914   1.8779238 101.3046455  15.8962131   2.3239431
 100.8887100  17.0151198   1.3933361 112.2834396   5.7732880   0.8099814
 112.3205280   6.7275786   0.8746701 111.4190388   5.5916488   0.4411333
  93.2825565  30.9049749  10.7073045  93.1733704  31.8318558  10.4946899
  92.4389076  30.6427670  11.0757375 102.7305603  12.1025884   9.3653679
 102.7449608  12.2507095   8.4198076 103.3063030  12.7787519   9.7225142
  40.1684046  72.8677082  73.3123255  39.6528506  73.6639404  73.4405851
  40.7923222  72.8668261  74.0382433  29.4337511  70.4110003  96.9906807
  30.2023840  70.2672958  96.4386082  29.7937059  70.6451702  97.8461552
  55.5512333  70.2086639  79.4185877  54.6626377  69.8856926  79.5679665
  55.5577993  71.0818243  79.8107338 100.4766846   7.6615679   0.3467116
 100.4773426   8.1215489  -0.4927224 101.0992813   8.1481534   0.8869408
  38.4511447  77.4463701  90.1487446  38.5460973  77.5647020  91.0938454
  39.2982078  77.7085686  89.7882366  47.5035810 109.7881794   3.8851157
  47.3113537 109.7025776   4.8188999  47.8064585 110.6906223   3.7846768
  20.8029985  11.8663204  30.4759002  19.9076867  12.1677959  30.6300449
  21.1522460  11.6957879  31.3506436   1.2178361  68.9545441  92.2208500
   1.2690458  68.0418158  92.5046444   2.1277961  69.2093325  92.0682526
  78.0762625  88.4005737  14.9459589  78.1667566  89.3149948  15.2140665
  77.1480083  88.3041000  14.7332025 116.2317371  36.6802979  10.7180190
 115.8480453  37.1991801  11.4249659 115.6869411  36.8746829   9.9553639
  98.5904121  28.9701629  21.5681195  99.5209694  28.7465310  21.5513706
  98.4384918  29.4252276  20.7398272  38.5500360  94.4581127  92.6404190
  37.9515672  95.1096916  93.0058002  38.9688063  94.9038124  91.9040680
   6.9792390  26.9603372   4.1078898   6.9355041  26.0043931   4.0858230
   6.6639507  27.1944380   4.9808288  89.9541950  18.9864373  17.4190509
  90.7189560  19.2615044  16.9133687  89.6910858  19.7704887  17.9009879
   4.4271258  13.2044160  31.3321972   4.3252587  13.9427543  31.9327903
   5.2451462  13.3838391  30.8686447   4.7178456  13.6049819   1.1273712
   5.3402281  13.2044685   1.7343809   5.1268715  13.5094357   0.2672547
   5.4729152  38.5460377  14.0166962   5.0812078  39.3714333  13.7311792
   6.3579220  38.5622501  13.6523736  73.1028271 105.7170296  13.9621866
  73.5379839 105.6796455  14.8139334  73.7386560 105.3437138  13.3517897
  40.0004053  80.6117344  80.3147221  40.7505751  80.8027458  80.8777428
  39.3578649  81.2862206  80.5348301  46.3388824  72.8051615  82.1495533
  45.7692337  72.6131725  81.4046574  46.4488459  73.7557840  82.1282291
 118.5460186  -0.0568164  28.1589293 118.0587292  -0.2985489  27.3713112
 117.9362202   0.4833510  28.6615086   4.8817250  64.9115992  91.7824268
   5.4535347  65.6452990  92.0081520   4.3438959  64.7781706  92.5629234
 100.5018711  32.1474791  17.7381599 101.1417484  32.8289318  17.5322139
 100.0214958  32.0151234  16.9208777 115.0824642  11.9572985   6.4836520
 114.7418022  11.4414704   7.2144753 115.1673508  11.3292992   5.7662660
  82.6992035  25.3859544  34.7269464  82.0260334  25.1651955  34.0832615
  82.4958897  26.2842393  34.9876714 101.5921402  20.0965953  11.6918015
 102.4004555  19.9601316  12.1860003 101.4891148  21.0476708  11.6590285
  54.9144268  97.2375965  18.6044657  54.9789619  97.7143288  19.4319880
  55.8187675  97.1632862  18.2997060  12.9402375  20.8423710  15.8090043
  13.4692371  21.5614915  16.1543369  12.4305236  21.2380385  15.1019883
 104.8219395   1.7170601  14.0631485 104.4176006   0.8625233  13.9131105
 104.8184872   1.8198881  15.0148034  71.6016674  98.9457607   2.4681541
  71.6561031  98.4529495   3.2869405  71.2655544  99.8038292   2.7269495
 112.3675346  32.3281264  26.7985344 112.0726871  32.8682923  27.5316906
 112.5559616  32.9547620  26.0999250 100.5240059  20.3055167   3.1092158
 100.4693890  19.6933997   3.8430849 101.1148167  19.8812997   2.4869493
  58.1209087  86.8711185  92.4910164  58.5737610  87.7002144  92.6451588
  58.0277967  86.8223381  91.5396118  35.1255488  60.8639717  91.0976601
  34.5673180  60.2280474  90.6502151  35.4308057  60.4056406  91.8805885
  87.1696472  11.7540467   8.5523826  87.8520775  11.9642770   7.9149497
  87.2317123  12.4489927   9.2076921  76.7160416  99.4301033  12.2484517
  76.5688992  98.7369061  11.6049755  76.1142731 100.1282692  11.9902408
  52.3884583  61.9348001  92.3020649  52.6700401  61.2037373  92.8520489
  51.5776682  62.2415018  92.7080059  65.6668901  98.1414700   2.6805365
  66.6064548  98.2919979   2.7844325  65.4462147  97.5181293   3.3726171
  47.8318214  64.9322748  94.4239235  47.3773956  65.7478142  94.6351624
  47.7833223  64.8712397  93.4698963  77.2462320 110.8648586  11.3596189
  77.1555614 110.2865314  10.6022918  76.5776682 110.5616856  11.9739020
  19.2168975  70.3290319  96.8378830  19.8704517  69.8050070  97.3010254
  19.5610535  70.4095554  95.9483337  94.1825676   5.9374070   8.8180828
  94.8615551   5.6041425   8.2314527  93.4678555   6.1945212   8.2355821
 105.7320690   6.8432760  12.6244724 105.7716274   5.8871025  12.6444578
 106.5411377   7.1073598  12.1864152  33.2123590  73.9759684  81.3052368
  32.9045057  73.1139326  81.0253143  33.7642932  74.2789268  80.5842495
  39.0104914  44.1074419  94.7324848  39.9242043  44.3899870  94.6933937
  38.5354900  44.7611141  94.2193413  70.3430367 101.9949818  19.8262787
  70.4055977 102.5369644  19.0397835  69.6835995 102.4311161  20.3658676
 106.1013412   2.8874144  27.5959587 106.6863537   2.4526393  26.9755077
 106.6618252   3.1067190  28.3402658  26.4232016  63.5455561  70.4117393
  27.2728324  63.9798498  70.4875755  26.5867472  62.6474428  70.6996250
 102.4176788   1.6780473  21.3455987 102.6017284   2.6125577  21.4407158
 103.1529331   1.3399431  20.8344030 114.3121815  10.6623149  23.0145907
 114.7355938  10.0010431  22.4671602 114.1541767  11.3978148  22.4227238
  85.2866554   8.3126915  31.9073796  85.6679058   9.0005761  32.4529958
  84.5355129   7.9971695  32.4098420  47.1781015  87.8482914  95.0032616
  46.2766457  87.6966763  94.7193146  47.6279163  87.0227242  94.8234272
 115.3752041  22.9595804   1.2547779 115.9676361  23.6922288   1.0860091
 114.7150230  23.3172512   1.8484671  93.9878464 106.0425091  27.1099877
  94.2691422 105.5161762  27.8583694  93.3199978 106.6281986  27.4665952
  55.6579113  68.6709881  92.0613766  55.8491516  68.0395412  91.3678837
  56.1665726  68.3639050  92.8118420 107.5617981  17.4369597  16.9459462
 107.6584625  17.2367966  17.8769791 107.8062248  18.3595216  16.8726683
  59.9388075 100.0763130  84.9431705  60.3288412  99.2112541  84.8175716
  59.4649887 100.0073624  85.7720089  56.0841274 112.2168541  14.3661571
  55.8785963 111.4240360  14.8615718  55.2345562 112.5363255  14.0621889
  25.8201933  70.5384207  86.3942909  25.8682680  70.5477142  87.3502350
  24.9295521  70.2450657  86.2021065  85.6482601  21.8224931   6.6775024
  85.3744888  21.7127228   7.5881243  86.2884140  21.1254334   6.5341693
 109.6331215  18.7188542  41.5672874 109.9155617  19.4849443  42.0668459
 108.8445568  18.4165239  42.0178366  28.8863969  83.4063339  84.3935871
  28.9323330  82.7596569  83.6893559  28.0301642  83.8198471  84.2835712
   6.8375105  24.5570898  17.1328640   6.0367435  24.2616606  17.5661373
   6.5717161  24.7286129  16.2294459 105.3005028   3.9660233  12.5095916
 105.3715229   3.1467780  12.9995143 105.0331211   3.6971039  11.6307151
 113.6441708  13.8374770   1.9838583 114.2988396  13.3220935   2.4550480
 112.9055023  13.8978374   2.5896275   0.5881815  10.3832138  11.7022800
   1.1198571   9.7053772  11.2850392   0.4626949  11.0428953  11.0201478
   9.8676246  97.5170517  96.4464760   9.9592876  98.4689713  96.4054871
  10.6666911  97.1817589  96.0399055  42.4779129  69.1641855  92.1832752
  42.4751234  70.1205397  92.1431828  41.7191935  68.9449263  92.7241135
  23.2518172  89.8216438  91.5293598  23.5411191  90.6341743  91.9444942
  23.9523506  89.1959190  91.7136288 117.3976612  84.0506935  69.0482378
 116.6768837  83.7145424  68.5155821 118.0034065  83.3134556  69.1242361
  47.4807262 110.2535534  11.1057544  46.7614174 109.7237206  11.4494038
  47.6246357 110.9240246  11.7735803  26.1494064  58.1349564  92.0671940
  25.6928611  58.3890533  92.8692150  26.7035842  57.3999548  92.3296642
 107.4183846   4.1736460   8.9062136 106.8454552   3.4098870   8.9744323
 107.6017380   4.4173226   9.8135370 109.1014385  42.3003769  16.4636111
 108.2122803  42.4480534  16.1413848 109.6562386  42.8210115  15.8827817
  44.3438625  95.6086445  25.5307317  44.9057531  95.3410912  24.8034596
  44.9340487  95.6615829  26.2824702  98.4809399  99.8517418   8.9698607
  97.8728008 100.3548050   9.5114636  97.9549885  99.5632553   8.2239556
  20.0573850  70.7840872  94.2993927  20.3990817  70.1805210  93.6397171
  20.1841307  71.6527462  93.9178085  12.6545119  58.5262728  91.4981651
  12.2440624  58.4882116  90.6342697  13.3760417  59.1464758  91.3934135
  38.1739879  75.5101919  87.8365517  38.5820651  76.0515118  87.1607780
  38.0676723  76.0992718  88.5834885  10.0088561  72.4397755  67.7258539
  10.3897130  72.9087639  66.9834089   9.0662700  72.5838232  67.6421165
  30.5001593  61.5024185  97.1506500  30.5446172  62.1326351  96.4315701
  29.7180867  61.7541933  97.6417828  61.7824459  99.7451210   9.5737314
  62.1486807  98.8956547   9.8197186  62.4866915 100.1791954   9.0922284
   0.4195710  24.7568822   6.7477214   0.6702384  25.0106144   5.8594549
  -0.3314218  25.3137636   6.9529647  33.3435011  64.7593880  83.4669876
  32.8753376  64.7939682  82.6327991  34.2686868  64.7443962  83.2219601
  78.3540583  17.7515626  23.7399483  78.0332327  17.4346697  24.5842743
  78.2962894  16.9913733  23.1611514  95.5687714  14.6066964  22.2446513
  94.6896267  14.5089900  22.6104426  95.7744312  13.7450445  21.8820381
  27.2284269  64.0211630  89.1426277  26.8284225  64.8699284  88.9533615
  26.5043259  63.4799719  89.4573212  17.4851859  81.7254543  96.4631844
  18.3027852  81.2498283  96.3164234  16.9592917  81.1365128  97.0042992
  42.5528193  59.4228983  91.0734749  42.3767757  58.6657763  90.5148888
  43.5055542  59.4368267  91.1647606  22.9920411  63.8071012  85.6450462
  22.2018814  63.9699411  86.1601830  23.0159330  62.8562927  85.5372047
   9.3254530   7.3249018  39.9242949   9.1263074   8.2563841  39.8298812
   9.6368861   7.0577073  39.0595126  95.3456879  19.0258610   2.1690142
  94.9989891  19.8932076   2.3781571  95.9342957  19.1752303   1.4291015
  90.3478622   8.0233562  27.7999568  90.1617718   8.6742616  28.4766603
  90.9645367   7.4185669  28.2124829  14.6347392  67.9223680  85.1550102
  13.9007115  68.5362673  85.1787567  15.4055405  68.4754705  85.0278282
  23.3983278  32.8582311  94.0459442  24.0398622  33.5466838  93.8707256
  22.5965309  33.3298254  94.2716694 113.3541584  17.7167392  10.1618516
 113.9345074  18.4665263  10.0305521 113.0191422  17.5171959   9.2876762
  89.4909477  12.0996916  12.7592063  89.8852921  12.6885343  12.1157813
  90.2144814  11.5454805  13.0517530 102.8350163  22.5799322   7.0605105
 103.0663395  22.6673579   7.9852140 101.9593525  22.1934175   7.0681810
  65.9993649 104.5266819   0.6431264  65.7641602 105.4478645   0.5320928
  65.8274317 104.1309166  -0.2112991  30.4465461  67.2381735  78.2870102
  30.7180691  66.9658709  77.4104500  29.5561147  66.8989611  78.3781147
  13.8868272  68.5528088  95.2388573  14.2999852  67.7413702  94.9437332
  14.1922176  69.2159796  94.6198463  34.5338297  65.5286932  86.5490437
  35.4098415  65.2336550  86.3004684  34.0612316  64.7237825  86.7611980
 118.0047131  95.7225990  85.3008938 118.6694622  96.2524796  84.8609161
 118.1987953  94.8242855  85.0333405   4.3984586  22.5102282  -0.0315786
   4.0231586  22.8062153   0.7977425   4.2506659  23.2385540  -0.6348453
  40.7372952  38.4595513  87.5263786  41.1621571  38.3976746  86.6708660
  41.2023687  37.8246808  88.0712414  47.5532246  59.4034147  96.2905788
  47.8296614  58.5972881  96.7264366  48.3141613  59.9810266  96.3502693
  16.8322122  26.7504072   5.0581443  16.5914381  27.2938967   4.3078929
  17.1779001  25.9464359   4.6703780 114.1913128  23.8682175  16.8951762
 113.9227295  23.1189370  17.4268472 113.8916588  23.6545992  16.0115433
  27.2831869  70.0264502  95.4297161  28.0262256  70.2146435  96.0030460
  26.9741058  69.1659117  95.7128716  44.4800425  87.9026413  94.0337563
  43.7012148  87.7552605  94.5703602  44.1528702  88.3538723  93.2555676
   8.5685790  56.4975500  88.9147568   9.2837518  55.9815741  88.5425568
   8.6685115  56.3974857  89.8614502   0.1435832  16.6726148  18.5223985
   0.6147173  17.3731780  18.9734769  -0.3466436  16.2292588  19.2147458
 113.9860725  60.1398182  62.1571541 114.4769287  60.0466585  62.9736185
 113.2891941  59.4867134  62.2207975 102.7487469  34.8193908  31.8449354
 102.5930119  34.3738246  31.0121965 102.4038887  34.2190766  32.5059414
   8.9302927  18.8729119   5.1416343   8.0408597  18.6649323   5.4277903
   9.0169317  19.8139727   5.2937180  21.8581676  44.7025967  96.1156940
  21.6065979  45.5800676  96.4037800  22.4764276  44.4001818  96.7809296
   6.4292091   1.5501148  30.6126428   7.1486068   1.1243363  30.1463675
   6.2336409   0.9605654  31.3409400  28.6926103  70.3695726  92.9118538
  27.9429579  69.9526596  93.3366299  29.3093133  69.6538591  92.7580357
 110.5650139  23.0443764  14.8180890 110.7472992  22.1876025  14.4321561
 109.9211597  22.8661895  15.5036044  34.0862155  67.5404549  76.9538927
  33.2858610  67.1824455  76.5698433  33.8267207  68.3971071  77.2930717
 105.0015926  39.4656229  28.1443644 104.8017311  38.7009788  27.6043606
 105.1427078  40.1729631  27.5150895  14.7363734  40.3295755   6.3698751
  14.8445737  41.2120056   6.7246127  14.6260667  39.7733045   7.1409965
  43.3485079  80.7031631  95.4208851  43.0654764  79.9506521  94.9014091
  43.7020302  81.3183689  94.7784138  28.8797784  58.2184553  77.8530598
  29.1812849  57.6758337  77.1244383  28.0247855  58.5439491  77.5715065
  21.6600601  25.7274166   0.2132150  21.1956255  25.4477421  -0.5756548
  21.9601481  24.9126068   0.6160375  51.4870977  15.5072510  89.3610764
  50.8977699  15.4169452  90.1099205  51.0199070  15.0905049  88.6369896
  52.4168921  75.2584124  71.8946934  52.6753902  76.1741877  71.7909193
  52.6078796  74.8580408  71.0464811 102.1555138   7.6946419  19.1108084
 102.5875950   8.0971128  19.8641706 101.3881493   7.2576022  19.4800901
  37.8154993  65.1136112  76.9538736  38.5380483  65.1635885  76.3280487
  37.0459938  65.3850317  76.4534473  86.4662743 105.6251526  24.3937349
  87.1579933 106.0924816  24.8620844  85.6965828 106.1876583  24.4797182
 101.9291306  14.1339767   4.7983691 102.5540257  14.8472822   4.9285147
 101.0859585  14.5033598   5.0607532  53.8662148  82.5618362  77.7430105
  54.2505741  81.6854000  77.7240419  54.3910503  83.0396938  78.3852243
 114.9369621   6.5562785   8.8666296 115.2280807   7.4203664   8.5753697
 114.3156338   6.7379618   9.5717347  42.0037746  61.7086697  83.6194515
  41.5470600  60.8692026  83.6736298  42.0081758  62.0373917  84.5184231
 104.2487526  30.4754853  25.3046870 104.7455120  29.7964215  25.7611275
 104.7572994  30.6533074  24.5134902  38.4837317  82.9168320  80.4603004
  38.2284451  82.6589489  79.5745468  38.7254548  83.8395977  80.3808022
  40.0719976  96.3961029  70.3875113  40.8458662  95.8348274  70.3391695
  39.5912623  96.2112331  69.5806980   2.0477261  16.4565051   5.0335747
   1.8589748  17.2696805   4.5652249   2.8476852  16.6432488   5.5249232
 112.2081566  13.0187643   9.9450320 111.5674210  13.4578001  10.5044329
 112.9963875  13.5572553  10.0154161  10.9201479  23.5181546   5.1623565
  10.0668812  23.2622552   4.8120949  11.5482128  22.9812431   4.6791452
 116.6854382  26.7792439  10.8184743 116.8315601  27.7184224  10.9317088
 116.9588089  26.6011000   9.9186033  41.9001150  71.6094160  95.9196091
  42.6351833  71.5729141  95.3075886  41.6787481  70.6926155  96.0830212
  56.3620234  71.1059332  95.4385948  56.7943096  70.3020763  95.7269955
  55.4642677  70.8379889  95.2424526  37.2966719  88.8100433  96.0375977
  36.6501522  88.8266754  95.3319263  36.8624830  88.3395672  96.7491913
   1.7822006  21.4239025  11.8679118   1.7410694  21.2983322  12.8159475
   0.8885216  21.6591692  11.6184735 110.8065128   0.7632416   2.9077750
 109.8568249   0.8828919   2.9049638 111.1131668   1.2633246   2.1513924
   9.0780616  10.9872401   5.8760339   8.3777237  10.4882538   5.4555917
   8.6415237  11.7631876   6.2275630 100.3033352  10.0917530  86.7074394
  99.6113873  10.1786768  86.0517883 100.2183628   9.1937411  87.0277309
 112.1589947  17.6722300  18.0499470 113.0206394  17.9019785  17.7020669
 112.0642567  16.7392373  17.8581572  53.6187983  63.7277269  94.5766830
  54.4028425  64.2437887  94.3890953  53.6429739  63.0147505  93.9384747
  40.7963133  55.4145861  92.8662491  40.0701666  55.6020880  93.4610558
  40.3912115  54.9539137  92.1314716 117.0509624  20.1620603   5.9692687
 116.1547852  20.4846334   6.0644042 117.6007175  20.9197092   6.1691880
  20.1163101  41.2268257  14.1759515  20.2047801  41.6880226  13.3418620
  20.9023929  41.4665127  14.6667218 111.7501545  17.7180576   7.8976101
 111.6908360  17.1210420   7.1517646 110.9759521  18.2756054   7.8202814
   3.5116801  58.2129765  25.1309395   3.8529235  59.0087032  25.5391169
   2.9538125  58.5287428  24.4200897   2.6635110  35.7699561   2.2707073
   2.7326974  35.9612036   1.3353628   2.3446728  36.5847754   2.6588356
  42.5887442  89.5751858  80.1301956  42.1131802  88.7860107  80.3895855
  42.2879887  89.7540951  79.2392588  13.5772073  13.0394208   4.1872704
  12.9543257  13.4279191   3.5730082  14.3791199  13.5486042   4.0693754
   5.4588091   6.2654459   9.8708105   5.8151120   7.0077342  10.3589582
   4.9745631   6.6644162   9.1479272  63.2017088 106.3359261  20.1223540
  63.2917261 106.6629601  19.2272675  62.3228693 105.9577751  20.1519394
  74.3426037  99.6588707  94.6883106  74.0915680  98.8279057  95.0916862
  73.9467049 100.3263664  95.2486229  41.7663622  89.2685986  77.2445202
  42.2595501  89.8648453  76.6810560  40.8494473  89.4383049  77.0284224
   6.0130006  25.4073119  14.6204722   5.6272078  26.2613201  14.8155713
   5.3164887  24.9263167  14.1735423  71.4621019  99.8337841  91.0812664
  70.8405352 100.3457737  90.5638123  71.9940472 100.4886913  91.5333366
  45.4332113 102.8852558  93.3408833  44.6801805 102.8865719  93.9317894
  45.7381201 103.7925911  93.3394527 107.3693275  42.5554132  32.3311281
 106.5161610  42.2339630  32.6226830 108.0002880  42.0983362  32.8871989
  34.1111040  62.5351477  88.2321739  33.4007072  63.1322861  88.4666729
  33.9036536  61.7229509  88.6942673  53.2535076  83.4392166  90.1117325
  54.0731382  83.6874390  90.5393028  52.8877735  84.2658043  89.7967434
  79.0677071  24.4209242   0.5497640  79.6644688  23.7292266   0.2639999
  78.5322428  24.6088552  -0.2210723   3.1078598  23.3300543  10.4875588
   2.4612308  23.0683112  11.1429930   3.5066319  22.5077796  10.2028203
   0.6474578  63.1189871  25.8835316   1.1833711  63.7360287  26.3818169
   0.1217081  63.6713028  25.3049374  17.6105082  17.6286936  10.2522039
  17.6708615  17.4740863   9.3095022  16.7756402  18.0824864  10.3675258
 100.6403923  35.5401826  21.8139362 100.4054070  35.1507902  22.6561880
 100.3239441  36.4418006  21.8702865  46.5526533  90.7934093  81.5250397
  46.7453194  90.3369713  82.3440552  45.6434774  91.0781097  81.6176605
  50.4143238  68.0525255  75.9294796  50.1442432  68.1270790  76.8447590
  51.1050177  67.3898649  75.9367847   8.7444597  21.2749219   6.6171724
   8.3656424  21.0328627   7.4622387   9.6792734  21.0926414   6.7127150
  65.3862190  77.3948717  86.2181473  64.9369001  76.7899227  86.8083858
  65.9692526  77.8966331  86.7878246  16.3690579  16.6437221   0.3550300
  17.1720171  16.4191246   0.8251841  16.5028274  16.2965500  -0.5269053
  38.1964898 102.5828457  72.6900864  37.3474908 102.6954651  73.1175756
  38.8059902 102.4143314  73.4086561 116.7520046  16.3029683   5.3442854
 117.2570992  16.4096487   4.5382303 115.8585835  16.5455437   5.1009709
  44.0293264 104.4823647  76.1555004  44.6029091 104.0018368  76.7524338
  44.4522095 105.3347397  76.0512447  48.9076853  63.3160162  96.4047337
  48.4968328  63.8365555  95.7144642  48.8567972  63.8691521  97.1842766
  33.5304737  74.9854612  83.8274002  33.4513998  74.5478630  82.9797649
  34.4727993  75.0990057  83.9513493  98.8637352  27.9025340   3.4896275
  98.6131001  27.1533585   2.9491162  99.7474957  27.6942706   3.7926561
  58.9182043  47.6641560  89.1115284  59.0824080  48.0148458  89.9869061
  58.2979822  46.9488430  89.2525387  54.5456982  94.0690327  82.0003128
  55.3958988  94.2641544  82.3944187  54.0926552  94.9119473  81.9785976
  44.3188047  86.6380024  90.6435680  44.4577122  86.7715836  89.7059631
  44.0447664  87.4952221  90.9696102 100.9485340  23.3222580  19.3441594
 100.4539776  23.4123707  20.1587343 101.0384846  22.3771715  19.2218792
   3.2216296  45.4579544  17.2977793   3.8071799  46.1214209  16.9328487
   3.2492650  45.6077957  18.2427740  51.8872976  92.5395203  66.8085051
  52.5464487  91.8796158  66.5933895  52.1714926  93.3238220  66.3391018
 113.7299633  15.9144974  59.7252226 113.5034466  15.5963707  60.5991364
 114.0445995  16.8069518  59.8693132  80.2507877  94.3943691  90.2323723
  80.5769730  95.0911808  89.6629143  80.8798218  93.6812687  90.1226997
  48.6864758  81.7701912  92.1442795  49.1402912  81.3671780  92.8844643
  49.2053175  82.5482178  91.9400501  65.7490063  31.4523315  85.3996849
  66.2728834  32.1062207  84.9368477  66.3736343  31.0059214  85.9713364
  51.7766523  95.2336502  73.2727337  52.2994804  95.9309292  72.8768873
  51.6130829  95.5348778  74.1664553  44.1457367  27.0479703   4.4864452
  43.9865255  27.7712560   3.8800272  43.5325098  26.3660812   4.2121989
  41.2752819  93.2305527  67.3413849  41.3982582  93.4316254  66.4136553
  42.0495176  92.7211285  67.5807190   6.7712522  32.4883246  14.4310033
   5.9861380  32.0448518  14.7521889   6.5402699  33.4172297  14.4351625
  34.9441218  92.9887104  89.6122551  35.6099463  93.6667442  89.7270870
  35.2798295  92.4411106  88.9025593   3.2130405   2.7387530  22.2253513
   3.9642024   3.1755432  22.6268482   2.5980142   3.4469625  22.0345259
  56.2532234  81.5052509  96.8665314  56.6380930  81.3136578  96.0113144
  56.3861418  82.4459076  96.9836807 103.5685349   9.3026865   9.5641154
 102.8499985   8.8127601   9.1642344 103.4009266  10.2136135   9.3225574
  46.8465376  76.0862589  92.5154686  47.2515774  76.0467625  91.6490936
  45.9653234  76.4227390  92.3527718  53.0937147  91.9000340  83.0547047
  53.4023190  92.7460670  82.7303123  53.4395790  91.2631512  82.4294186
  16.7357409  40.1578617  11.0479057  16.4541113  39.7333288  11.8582690
  16.6758406  41.0946941  11.2349641  49.4185734  87.5003242  97.4225616
  49.8586607  86.7673016  96.9921684  49.5669889  88.2446480  96.8393040
  34.3357635  97.0446014  82.4169731  34.5126748  97.8131104  81.8744564
  33.4241319  96.8225098  82.2276783   5.5218643   9.1346514  18.8425410
   5.4890323   8.9366251  19.7784579   6.2820935   9.7081351  18.7455916
  61.6025972  59.5833969  85.8925819  61.5425396  59.4916868  84.9416828
  62.1450806  58.8453960  86.1705971   6.3629156   6.3515741  12.8800821
   5.5351150   5.8805853  12.7844393   6.3161504   7.0525533  12.2299492
  20.5585051  44.3091106  11.2034559  20.9598708  44.7849035  11.9306147
  20.1761460  44.9920130  10.6523860  37.5794244  73.7616491  94.1314411
  38.1513500  72.9993439  94.0418625  37.8272414  74.3336725  93.4050751
  91.0046959   6.0411650  87.2361851  90.1027393   6.1545092  87.5359535
  90.9837055   6.2930763  86.3129711  29.4677448  91.5786743  88.3821869
  30.1303625  90.9521294  88.6730766  29.7987556  92.4289608  88.6714554
 109.5532894  40.8405447  23.0864263 109.1775227  41.6048908  23.5232472
 109.9847126  41.1965990  22.3096824   1.6633476  42.2871351  18.5893047
   1.4500321  43.1960869  18.8003194   0.9361951  41.9914198  18.0415499
  42.4253178  84.4181252  86.0916138  42.9934692  84.0584660  85.4103851
  41.7855597  83.7262821  86.2598515  23.6407971  23.2618713  24.3148613
  23.7345600  22.3492002  24.5877576  23.8577843  23.2566047  23.3825946
   8.0801243  34.6988988  20.1811457   8.9874029  34.3957233  20.2152181
   7.5594950  33.9183855  20.3708196   3.4969765  27.3445892  18.0417752
   2.8108642  26.9999647  18.6133659   3.0522820  27.9963589  17.4998569
  27.3902869 104.4182682  94.5197105  27.7631807 103.5543919  94.6954823
  27.2374892 104.4254494  93.5748100   2.2137605  25.4026771   9.0337080
   1.6701360  25.0096536   8.3508933   2.5591835  24.6566010   9.5238960
  10.9691584  24.7069407  31.4932036  10.4211390  25.3206968  31.9822931
  10.4387927  24.4647908  30.7340527  31.5997744  69.8006058  95.2531433
  31.3597226  68.9763308  95.6764412  32.4914622  69.9740171  95.5548954
 106.2284946  39.6690726  18.4612691 106.8689537  39.5351028  19.1599059
 105.7508469  38.8410163  18.4121954   4.3061072  39.6826077   0.8248342
   4.8492125  39.0807080   0.3159291   3.5168719  39.7986555   0.2958045
  41.4327240  83.8598919  94.5476532  41.4781332  84.6445274  94.0012741
  40.4957628  83.7077904  94.6709538  48.8353062  64.1486931  91.0800838
  49.4890881  63.6296082  90.6117344  49.1208696  65.0548792  90.9638691
  60.3238583  63.2906199  96.9973946  60.0404787  62.6155996  96.3807297
  59.5252323  63.5413933  97.4616623  37.2047377  82.0782089  89.6230030
  36.4642596  81.5728664  89.9584961  36.8789339  82.9769325  89.5742416
  38.1961560  80.7685852  87.5309563  37.9041553  81.2566280  88.3008766
  38.2169271  81.4188576  86.8288612 116.5035057  28.8400817  21.4926362
 115.7178688  29.3723607  21.3674021 116.8918514  28.7772417  20.6200099
 108.7987328  22.9586625  16.8673015 109.4659138  23.5829139  17.1526468
 107.9686832  23.4139347  17.0086229  17.2427821  34.3086529  14.7285593
  17.9559076  33.9729023  14.1854608  17.2392321  33.7393022  15.4980135
  10.9470725  36.1943555  12.1643507  11.0155034  35.8892083  11.2596762
  11.4912593  35.5858588  12.6641774 117.3481083  17.6960301  10.1166499
 117.6019478  17.6802075   9.1938567 116.4767170  18.0921447  10.1186001
 106.4893627  19.7226882  41.5265512 105.7173634  19.1617000  41.4521170
 107.2252369  19.1458905  41.3215542 102.7937222  26.8309879  14.0540671
 102.7953148  26.6081023  14.9849546 103.1755447  26.0658574  13.6239326
  26.2829041  79.2239714  92.4921227  26.5783000  79.7559881  91.7532539
  26.5686154  79.7093153  93.2661057  13.2139218  25.9367347   4.3147528
  12.5031519  25.3690434   4.6126840  13.4226680  25.6183267   3.4365317
 116.9968033  20.8960319  14.7184610 117.1125603  20.2413177  14.0298533
 117.7964878  21.4211226  14.6865749 112.6561737  42.0175409   6.4264524
 113.5190487  41.9233513   6.0229689 112.7856541  42.6636362   7.1207368
  10.0437450  40.7069397  27.6786089  10.9878862  40.6022453  27.5608444
   9.9340820  41.6236734  27.9312062 114.3910503  20.7456040   6.6537243
 113.5099030  20.3881145   6.7633128 114.2497158  21.6413260   6.3472295
 113.5687733  24.0625715   5.5925542 112.9973412  23.6698937   4.9326268
 114.0995026  24.6928215   5.1053792 109.4952393  10.3199828  22.3435998
 109.7399902  11.2453568  22.3399687 110.1471138   9.9020320  22.9062819
   0.2596308  37.9161286  22.4457788  -0.1974914  37.0923400  22.2765326
   0.1408811  38.4250808  21.6438460  43.7171507  66.8607998  70.5379486
  42.9880953  66.2682343  70.7211828  43.3612156  67.4923229  69.9128723
  37.0012403  82.3694897  82.6935959  36.7717624  81.4403152  82.6793766
  37.4644232  82.5144577  81.8685627  48.8073301  58.2235670  90.1669598
  48.3481359  57.3979282  90.0130272  49.0593576  58.1890249  91.0897350
  17.1024382  22.8712845   1.8706656  16.5386355  22.2033000   1.4805934
  17.2839010  23.4796619   1.1542997 117.7796841   8.1751484  12.6573431
 118.4097385   8.8820654  12.5175560 117.0619869   8.5858357  13.1395054
  38.6254096  72.2701597  83.2585812  37.9100084  72.8754044  83.0633640
  39.1817355  72.7474833  83.8741302 112.9683971  50.5808163  11.8702137
 113.6545563  50.9540796  12.4234629 112.1809101  50.6087637  12.4136436
  34.6291804 107.2915649  81.6934204  34.9815440 107.3361683  80.8045483
  33.8946867 107.9053593  81.6909790  10.0019729  30.1022243  21.0828710
  10.3124964  29.2954373  21.4938474   9.7908455  29.8475742  20.1846433
  37.9764104  90.3146553  91.3117981  37.6483297  90.6620693  92.1411896
  38.1508732  91.0907173  90.7793236  86.0302925 108.0976772  21.1211991
  86.6434765 108.7370872  21.4836788  86.4542866 107.2514915  21.2641454
   7.8148198  29.9043489   8.5995597   7.3899168  29.3472910   9.2517680
   7.5075686  30.7878852   8.8025141  45.8154249  83.0204010  88.8294792
  46.5138626  83.6381912  89.0457058  45.3215122  82.9227448  89.6435642
  42.6674891  70.8008385  79.6153593  41.7951393  71.0546732  79.3140268
  42.6452208  69.8440933  79.6347094   4.7127518   7.1823680   7.1433628
   5.0544161   8.0747652   7.1992636   3.9370257   7.2572726   6.5876019
  58.0655956  73.6606646  82.3230171  58.9842892  73.8719845  82.4890995
  57.6877594  73.5343218  83.1933594   1.1137015  43.5992718   2.4216606
   1.9283342  43.5035229   1.9282666   1.3181946  43.2544661   3.2908687
 100.6530476  35.3252101   3.7775272 100.2248383  36.1123204   4.1141662
 101.5804482  35.4531312   3.9770517  39.9478149  91.3963890  79.1268730
  40.3922606  91.7697716  78.3657694  39.0182090  91.4283657  78.9009476
 112.0508194  33.5355735  20.0161815 111.7040539  33.8113189  20.8646798
 111.4892769  32.8062654  19.7534966  58.1809616  85.6785679  89.2232990
  58.9045429  86.1956406  88.8693237  58.5984325  85.0644875  89.8273373
   9.1303933  24.1008878   0.5800926   9.4169849  24.0389490  -0.3310939
   9.8838204  24.4662976   1.0438323 109.0802193  19.4101858  20.0477529
 108.4102535  19.8544502  20.5673814 109.7388172  19.1392493  20.6873345
  28.2531214  89.9592781  94.6772385  27.9770398  90.1294994  95.5778122
  27.5399137  90.3027439  94.1390991  32.8318572  36.2075806   2.8706202
  32.4716234  36.5883350   2.0696905  32.3783493  36.6653347   3.5784501
  49.6484995 103.0775833  70.4979420  49.8935747 102.6220989  71.3033628
  49.9595070 103.9738178  70.6255054  40.7217646  68.7233400  86.3527489
  40.8824062  69.5937061  86.7172909  40.0897455  68.8712311  85.6492519
  10.4916251   9.8930305   8.0519116   9.9424863  10.4463744   7.4964947
  11.3804984  10.0333428   7.7256471  20.5721855  77.4231100  63.1599760
  20.5330110  76.4687109  63.2217979  21.4913940  77.6360273  63.3210754
  24.8590779  76.8326759  81.0007954  25.5614257  76.8856049  80.3526115
  25.3109813  76.6906452  81.8325710  16.4201224  40.8711338  19.7673583
  16.3887274  40.0354528  20.2330637  16.7615175  40.6498098  18.9009309
  30.7021165  42.7056360  11.3211358  29.8053646  42.5355768  11.6094887
  30.7296562  42.3818731  10.4207742  36.7640638  88.9842319  81.8638420
  37.5551963  89.4104481  82.1935177  36.9222951  88.0496311  81.9969940
  15.9918869  24.4979858  10.0261831  15.4118645  23.8968205   9.5588422
  15.4217017  24.9409604  10.6545889  54.3959045  86.1838531  86.8716526
  55.1532316  85.6045723  86.7872715  54.7347927  86.9569111  87.3230648
  35.2761126  39.0621161   7.3467028  35.9812737  38.4692001   7.0870340
  35.7125258  39.8997450   7.5021249 117.5103188  25.8943677  14.0426540
 116.6894817  26.2252235  14.4073284 117.2397518  25.3174829  13.3283508
  61.1408329  77.5007963  87.7361488  61.7047453  77.3794889  88.5000324
  61.7266989  77.8339386  87.0564270   0.3707789  19.9135530   1.8371569
   0.8287689  20.5220175   2.4170250   0.9799963  19.7680032   1.1133465
   5.7330680  32.6706624   1.5851009   5.5998111  33.4709764   1.0771921
   6.4237863  32.2019267   1.1166719  27.9667974  89.3292141  86.7058945
  28.5552812  89.8577499  87.2449398  27.3194098  88.9873600  87.3225498
  60.4483700  52.9847431  89.6801758  60.2611256  52.0790243  89.9268341
  59.6371460  53.2962751  89.2788029  40.2265739  98.5479355  77.8651762
  40.4948711  99.0252018  77.0800257  39.5595360  99.1042614  78.2674122
   3.9185312  19.3281388  19.3295074   4.6480599  19.4255340  18.7175155
   3.3133867  20.0316334  19.0947127  51.7241001  56.1509991  91.7355442
  50.7702541  56.1738586  91.8122673  51.8920708  55.5405855  91.0176277
  38.8260508  60.3251886  93.5136318  38.8839650  60.6827068  94.3996716
  39.6888328  59.9432039  93.3526230  41.7622328  13.6719453  14.3135238
  42.0897388  13.7974870  13.4228981  42.5423193  13.7267351  14.8655164
  19.3766165  27.3068190   0.8308212  18.5435534  27.6973534   0.5667737
  19.6961427  26.8682289   0.0422942  58.9259338  83.9278984  53.8299561
  59.1927338  84.1973972  54.7088337  58.5844707  84.7266197  53.4278440
 119.0202045  24.7033596   3.5819584 118.1518936  25.0665593   3.4077069
 119.3195438  24.3800807   2.7321839  52.3436165  66.6286612  86.0980034
  51.3868809  66.6152763  86.0712528  52.5576735  66.5929985  87.0302868
  26.4668727  36.0197425   3.4062612  27.4033356  35.8218145   3.3966032
  26.1055303  35.4358721   4.0731660  53.1576681 111.2197208  82.5328827
  53.3223486 110.8825207  81.6523075  52.3038483 110.8589077  82.7717209
 104.8712540  20.2768350   9.9025238 104.6868801  20.1335311  10.8308029
 104.2577171  20.9628940   9.6396011  28.5495806  71.6091585  77.2530890
  28.8549566  70.9398270  77.8654385  28.7620497  72.4391460  77.6799536
  16.7535245  96.1053562  79.6890116  17.6951039  96.0748768  79.5195103
  16.4509654  95.2128410  79.5213556  31.2667036  74.2894745  87.3275089
  30.4505396  74.0626860  86.8817806  31.1419582  75.1957607  87.6091480
  19.7763419  24.3897128   5.3308094  20.1922846  24.9900484   4.7120866
  18.9876747  24.0889859   4.8793676  23.3378673  64.5969772  77.6770830
  23.3393002  65.0556183  78.5172462  22.9242516  65.2105999  77.0699406
  25.5325890 100.8517265  91.0025597  25.0281382 101.1349678  91.7651367
  24.8765683 100.5107403  90.3946114  52.4277306  70.0278568  79.2105818
  52.6036501  70.0858307  78.2714748  51.6780806  69.4364643  79.2777681
   8.9186370  31.2470460   2.6364866   8.3615053  30.5216455   2.3542963
   9.2815751  31.6003108   1.8242604  13.1675756  79.9954319  78.8193607
  12.6966643  80.0448513  79.6512461  12.6039255  79.4649649  78.2562113
  82.3021412 111.8737984   5.6824231  81.4279938 111.6238022   5.3830832
  82.3869705 112.7938271   5.4322338   8.4509784  14.9839568  22.0047975
   9.0904158  14.3633711  21.6551900   8.6939853  15.8235705  21.6146326
  15.0973272  45.2205896   0.9100430  14.6903121  45.8602762   0.3257704
  14.4278002  45.0384617   1.5694311  43.9732742  73.4319544  87.8495502
  44.4148731  74.1158819  88.3529949  44.1468811  72.6262903  88.3363724
  35.0629640  72.1016550  89.4542217  34.1604233  71.9948387  89.1538239
  35.1966882  73.0491543  89.4787121  45.8348513  97.1654701  83.6931705
  45.7020283  96.2194061  83.7527657  46.5510225  97.3456097  84.3021679
  41.5579128  64.3361902  87.6543713  42.2772980  63.9216709  88.1307030
  41.1388063  63.6176729  87.1807575 115.4505730  42.6002502  22.3778939
 115.4522705  42.8953266  23.2884741 115.7120419  41.6805887  22.4236512
  22.5161457 111.8837452  72.6822710  22.0861626 111.1158371  73.0586433
  23.4429288 111.6467667  72.6484156  21.6730571  82.0406342  85.3378963
  21.9842076  81.1915874  85.0239754  20.9500718  82.2626305  84.7511768
   4.8128486  26.0669112  10.8082724   4.6319211  26.8768549  10.3313136
   4.5261401  25.3713250  10.2165031  64.4200237  82.3565158  97.5202911
  63.6716325  81.7881664  97.3382997  64.2623694  83.1374082  96.9896489
  19.5028305   9.9395317   6.8625331  20.2779818   9.3795931   6.9054347
  18.8680756   9.5144355   7.4392581  30.1289964  79.6586514  88.1858635
  29.9608946  80.2946472  87.4905396  30.8422375  80.0435162  88.6951733
  15.9136546   7.8018463   1.1016928  15.0498939   7.6550204   0.7162177
  15.7861948   7.6532358   2.0386562  37.1419454  71.7888880  76.2365818
  36.8434763  71.3538122  75.4379225  37.0945072  72.7228880  76.0325623
 106.4934921  30.0522590  18.6701965 105.8376503  29.3552446  18.6865187
 106.0212326  30.8178830  18.3430517   4.7353280  21.4470267   8.8372803
   5.3054190  20.8761048   9.3523288   5.2163231  22.2722101   8.7744582
 117.1283245   9.3612355  20.5225825 117.8200245   8.7522650  20.2638626
 116.3346386   9.0063101  20.1221752  11.1489558  36.9181752   2.7501941
  10.3516245  37.4244237   2.9057848  11.2294602  36.8850756   1.7969599
  23.1309271  95.2389431  90.1812649  23.2611990  94.3765068  90.5755520
  22.2739601  95.1821136  89.7586346  58.0737495  43.0069733  89.3789196
  57.7504015  42.4354649  88.6824512  57.7190113  42.6284885  90.1833725
  28.4963608  85.5745506  92.6203537  29.1264915  86.1948299  92.2537231
  28.7675214  85.4684353  93.5321903  59.0267563 100.4965973  76.2133312
  59.5203543 101.1531544  75.7218790  58.3587646 100.1904392  75.5999088
 110.9572029  69.0820122  22.0408630 110.1282215  69.5006180  22.2728062
 110.7012844  68.2738495  21.5963244  13.7214923  77.0931244  23.8066769
  13.4964120  77.3012877  24.7134495  14.4806671  77.6439953  23.6158252
 118.9612770  56.2535954  34.0636206 118.8493729  56.2252092  33.1134081
 118.7862492  55.3578949  34.3522620  24.0457821  33.6985540   8.5611999
  23.3878565  33.2342267   8.0437398  24.8726821  33.5195494   8.1135118
  29.5198512 102.1439648  86.8216324  30.4112053 102.3562908  87.0984554
  29.0956855 101.8127918  87.6132393  48.4344912  84.5692921  86.3128090
  47.9369354  83.8533401  85.9177399  48.5338354  84.3143177  87.2300625
  41.8633747  97.3076153  79.7253466  42.2039080  98.0240822  80.2610207
  41.3379908  97.7404594  79.0524101  41.1799240 102.3545074  94.1071796
  40.2886438 102.3231125  93.7595177  41.6195202 101.6040611  93.7074184
  56.3072491  91.6945553  74.9447918  56.9756985  91.0127640  75.0124693
  55.5457115  91.3288498  75.3948545  41.8936348  81.6425323  82.1684265
  41.7282772  82.5073910  81.7930603  41.3775110  81.6285896  82.9744339
  31.7236686  45.8506727   4.4403008  31.7684007  45.0838566   3.8691413
  32.3893809  46.4455843   4.0951321  14.5724297  56.5670156   4.2567605
  13.9191020  56.3101006   4.9074429  15.3956819  56.2101269   4.5901045
  41.0491800  72.6087999  90.2668285  40.3171015  72.9123259  90.8036327
  41.6349936  72.1724224  90.8853912  39.7579265  93.8344193  95.0273228
  39.1633463  93.8506794  94.2773628  40.5689240  93.4612751  94.6819592
  52.6542377  74.4669724  84.0609455  52.0043993  75.1600695  84.1774178
  52.9760599  74.2894030  84.9447632   2.4667473  64.1278219  13.8329530
   3.0692926  64.7470617  14.2449141   1.6160053  64.5655155  13.8628387
  58.7538147 102.2403049  90.4544544  58.7451172 102.9313087  91.1167717
  58.3505440 101.4880943  90.8877945   7.0066589  15.3456640  12.7637732
   7.0797378  14.5468903  12.2414231   6.8681788  15.0349271  13.6584783
  29.9340670  52.1874825   0.0951883  30.6528513  52.7515045   0.3805944
  29.2712347  52.7933708  -0.2361468  90.5548286  84.3025684  92.8654480
  90.5746174  84.5709324  91.9468498  90.2863312  85.0897694  93.3392143
  75.7868528   6.6045958  94.7652245  76.6007519   6.5112698  95.2602863
  76.0551882   6.9989353  93.9353275  31.3427687  85.0016022  85.0075245
  31.0515714  85.6418991  85.6567192  30.5448246  84.5376110  84.7540760
 117.4851036  60.3546047  27.7234077 117.6311779  61.2670851  27.9729605
 116.8541050  60.4008055  27.0051217  81.3353729  82.3071289  82.1657753
  80.5766773  82.8605175  82.3511505  81.2273884  81.5513611  82.7431679
   4.1343620  38.5934258  21.2762427   4.2378587  39.0364933  22.1183872
   4.1769123  37.6611948  21.4892411   7.9969108  50.2019310  11.2260401
   8.8813323  50.5072451  11.4280701   7.7714014  50.6453991  10.4082894
   6.4604104  77.9819155   8.6462188   6.6849852  78.6741447   9.2680013
   7.3014426  77.5918531   8.4079927  17.2740448  42.6390791  12.2261155
  16.9087100  43.4133291  11.7979789  17.3074603  42.8718233  13.1539869
  21.3377070  49.4703674  13.0995679  21.6021085  50.3554010  12.8484857
  21.8151879  49.2989588  13.9112699  81.5099239 108.1433487  78.8616991
  80.7836723 107.5202560  78.8384533  81.1060429 108.9724731  79.1179705
  14.0335250  18.8400543   4.3593726  14.5965695  18.6679721   3.6046535
  13.1523633  18.9044547   3.9910835  28.6375260  21.7863989   2.0661058
  29.3388033  21.1349225   2.0703392  28.6214542  22.1268201   2.9605812
  24.5960283  38.1468344   5.5880368  24.0800905  37.4365091   5.2066171
  24.3798780  38.9124298   5.0557083  39.4472528 108.3163643  70.4648304
  38.7692404 107.8497314  69.9761772  40.2357817 108.2214260  69.9305677
  37.2599244 103.4051228  82.0795155  36.7641759 104.1506004  82.4182320
  37.5192714 103.6709023  81.1972809  99.0401745   1.2417889  96.8718529
  99.2002392   1.7862445  96.1010265  98.1506634   1.4675009  97.1439934
 118.0027771   7.4404007  15.6521535 117.2766876   8.0601186  15.7226717
 118.2392597   7.4530637  14.7247124  47.0783520  81.9067192  80.9954739
  46.5712547  82.3190117  81.6948414  46.4266825  81.4468479  80.4662514
 119.0313311  40.7388258  10.5590522 118.5458304  40.0961733  10.0418317
 119.8222560  40.2757883  10.8352184  31.0979629  75.4938030  81.7696285
  30.4316878  74.8441076  81.9936943  31.9101763  74.9914455  81.7049885
  67.5979757 101.8784428  90.7089996  67.9359770 102.5507259  91.3006306
  67.9392433 101.0562420  91.0608006 118.4305859  34.2462611  16.2895393
 117.8180027  34.5472383  15.6184351 119.1186619  34.9115801  16.3014603
  49.8182774  78.2607794  87.6521969  50.3282499  78.6223507  86.9273376
  48.9309597  78.5896969  87.5082874  29.3511677  41.9912767  19.0118778
  28.4157729  42.1558809  19.1309333  29.4689822  41.9545364  18.0626667
   6.1306471  17.7669168  49.9002790   5.3760391  18.3329606  50.0627422
   6.5942532  18.1877410  49.1762590   4.9748880  41.2068319   2.9297790
   4.8977894  40.6372881   2.1643332   5.8769035  41.0876703   3.2271010
  64.0854359  92.6683617  94.8227787  64.4033432  91.8225670  95.1386833
  64.5902920  92.8316212  94.0260983  91.1282921  23.5766888  13.0007088
  92.0785618  23.6865664  13.0345190  90.8099651  23.9973998  13.7993979
  42.4965525 111.5021324  79.8875427  43.2847595 111.0674572  79.5619392
  42.8251410 112.2256184  80.4212379  70.2394629  87.7649307  88.7538815
  71.0670090  87.7194309  89.2327595  69.6758938  87.1246147  89.1881943
  29.0295792  50.6396770  16.9337630  29.8451567  51.0784006  16.6917217
  28.7571478  51.0705185  17.7439392  15.3290892  58.8634253  14.2906654
  15.3459847  58.6185265  15.2158523  14.7395349  58.2275391  13.8853145
  19.8478806  39.3963099  37.2961760  19.2298281  39.7307277  37.9461050
  20.2151203  40.1808739  36.8889642  36.2968349  37.2689867  12.1098506
  35.6621981  36.5680361  12.2586405  35.7928681  37.9616857  11.6827476
  30.3485775  84.4514751  71.2179279  30.4441929  84.5015812  70.2668333
  30.8626771  85.1877022  71.5494442  52.3991823  89.2544270  89.4229412
  52.2470856  90.1636028  89.1650391  52.0349503  88.7374973  88.7043762
   4.5954987  36.5711904   9.5350343   5.0293881  36.1070490  10.2509558
   3.8993111  35.9782195   9.2522991   5.9885269  38.5583043   5.6275380
   5.7018638  37.6824570   5.3687936   5.6096262  38.6872029   6.4970499
  29.0631151  72.3127460  70.3584957  29.3846202  71.8125439  71.1086082
  28.4745932  72.9643679  70.7396269  44.3616438  44.6029377   3.8901269
  45.2185297  45.0028563   3.7416500  44.5472622  43.6693096   3.9907229
   2.9454502  50.0080681  26.0203266   2.6307714  49.4937658  26.7637634
   2.1736827  50.1252937  25.4663730  16.0431504  60.8084154   0.4812765
  16.7578375  60.8555174  -0.1537326  16.4495838  60.4575968   1.2737209
  47.1902037 102.5636387  87.7382183  47.6454020 102.2581387  86.9535542
  47.4300766 101.9314098  88.4156990 101.4896584  17.2481334  88.5933113
 101.1887646  18.1199992  88.3372974 102.1572018  17.0250642  87.9445744
  63.3268881 101.8546104  96.3006592  64.0968418 101.5761089  95.8048344
  63.2315826 101.1935616  96.9863510  45.6985378  96.2504959  91.6690922
  46.1268234  96.5679359  90.8740902  45.0093222  96.8917751  91.8422318
  43.8188696  94.2599010  91.1802864  44.5884275  94.7786808  91.4145470
  43.8029146  94.2737865  90.2233219 101.3951588   9.6569359  92.4224091
 101.9611168   9.9995708  91.7306614 100.9956551   8.8756621  92.0400047
  60.4146433 106.5171051  75.9216738  59.5117998 106.2023163  75.9665537
  60.7949114 106.2751484  76.7661190  38.8563371  44.1366005   8.2544172
  39.6387148  44.6147537   7.9796767  38.5887194  43.6478329   7.4761373
  79.4071198  84.1359806  94.8178005  79.5724964  85.0780201  94.7798634
  78.7138557  84.0406132  95.4708862   7.9728633  12.9579890  80.8939362
   8.2175267  12.1961880  80.3685570   8.4337229  12.8346384  81.7237759
 119.0122128  30.2740502   9.9324304 118.2790375  29.8558497  10.3838611
 118.6072922  30.9620070   9.4042432 108.4082317  35.8954620  32.7612996
 108.7357330  35.1942611  33.3245850 108.4949017  35.5493736  31.8730760
  45.1768255 110.6319523  78.8375998  45.3361273 109.8961830  79.4287777
  45.2291107 110.2506638  77.9611731 118.1430149  26.6603589  22.0897484
 117.4804688  27.3384070  21.9573951 118.7445068  26.7661023  21.3526845
  37.4023700  76.8312073  82.4845314  38.1848931  76.6288185  82.9972935
  36.8237782  77.2830725  83.0987549  32.3409367  40.5403852  11.9734526
  31.4478374  40.2057028  12.0546520  32.2433782  41.4922285  12.0002317
  31.8530917  96.1412621  94.1131210  32.2103548  96.4321709  93.2740974
  32.4657059  95.4704189  94.4146252  31.1801434  44.9501419   9.5834219
  30.9314585  44.1498756   9.1208565  30.3593254  45.4313993   9.6877337
  79.3614244  12.0191479  91.7359829  79.9403667  12.4751329  92.3468399
  79.9380398  11.7336607  91.0272884  20.3781176  26.2623739   3.3390126
  19.7949374  26.3081169   2.5813586  20.5845761  27.1756530   3.5378289
   8.9406204  66.2216711  12.1960962   8.4497422  66.2609529  11.3752878
   9.7005200  65.6755257  11.9948161 115.7369041  39.3160200   6.6843098
 115.6211758  39.5434284   7.6068735 115.9109306  40.1519012   6.2515938
  29.8767042  39.1711044  12.0930040  29.4016623  38.3470106  12.1999419
  29.4202209  39.6201086  11.3814914  39.1091537  87.9176331   3.5776988
  38.5253501  88.2125759   2.8788340  38.7968469  88.3737564   4.3591362
  35.7709742  59.8444796  27.4834585  35.3703499  59.5011711  28.2821250
  35.0433946  59.9272299  26.8670082  49.0418625  73.7135792  74.2494535
  49.9675179  73.8310194  74.4630003  48.6759043  74.5976591  74.2759562
  81.6702366   3.4115696  96.8548489  81.4078522   2.5037110  97.0070839
  82.4131298   3.5479885  97.4428463  49.9269533 107.4554920  86.3645363
  49.5751524 107.0748711  87.1692753  50.7870293 107.7926922  86.6151333
  25.5252242  61.0310459  11.7920876  25.5049706  60.9860086  10.8361626
  25.6477880  61.9604492  11.9855332  44.3242979 107.9209709  88.9836311
  45.0873232 108.1918144  89.4941807  44.4357443 106.9772625  88.8686466
  15.3677964  35.7006502   7.1407044  15.6390858  35.7088804   6.2227899
  15.7384396  34.8913813   7.4927539  24.9777865  91.6301823  94.1475105
  24.8495173  90.7646275  94.5355797  25.3749323  92.1496201  94.8465824
  10.5967283  39.8735547  15.9965849  10.6117880  40.3641367  15.1747966
   9.8815745  40.2664518  16.4970028  56.3620424 101.8921280  81.0685062
  57.0158339 101.2727547  81.3928127  56.2717628 102.5352001  81.7717361
  96.7242527   7.6954609  84.0614223  95.9853935   7.0966339  84.1697121
  96.7225075   7.9118508  83.1290054  54.9941587 107.4358845  91.6822147
  55.6752348 106.9808960  92.1775532  55.4748726 108.0049229  91.0810947
  21.5659070  47.7432823   6.1906832  22.1314073  47.4016142   6.8832922
  21.9352365  47.3873186   5.3825259  98.7024403  24.2465854  10.2392507
  99.3610764  24.7011352   9.7140694  98.9155960  24.4778800  11.1432958
  20.7782698  61.8868160  16.0244250  21.6608000  61.5260124  15.9396088
  20.6959200  62.1024275  16.9533825 101.9741058   0.5294827  78.7141371
 101.7137146   1.4488989  78.7698126 101.2346172   0.0482156  79.0853167
 111.7678928  53.8367748  23.0508113 111.3953876  53.3265352  23.7699294
 112.0606232  53.1807804  22.4181890  33.3410025  66.4440775  94.6312714
  33.2872367  65.5323792  94.9178886  33.3706546  66.9492292  95.4437828
  13.3969164  40.6919622   3.7287149  13.4690535  41.5721512   4.0978891
  14.2963874  40.3650284   3.7114233  39.7567940 104.5414352  68.9131451
  39.1815495 104.6403790  69.6717882  40.5690145 104.1852856  69.2732668
   9.8765230  43.7352610  10.0928473   9.1236305  43.8349390  10.6754684
  10.3699934  44.5487022  10.1978648  14.1026366  75.0370407  11.1735225
  14.4455659  74.6779966  10.3551579  14.5848656  74.5742941  11.8587625
  24.6743011  65.0960827  18.4938753  25.3545690  65.7652903  18.4188449
  24.5443082  64.7851896  17.5979519  42.1224880  40.5264568  20.4909348
  42.5843143  40.9769440  19.7838211  42.1955585  41.1181211  21.2398171
  75.3122902 103.7760353  89.5217991  75.2105236 103.3596897  90.3776836
  76.2426233 103.6802864  89.3179798  54.3346596  98.1405544  96.8024540
  54.7551775  98.9991379  96.8497753  54.6759367  97.6646519  97.5595951
  40.0114727  71.8745804  12.2876155  40.6609726  71.3516378  11.8176031
  39.1696954  71.5798092  11.9401205  28.5263157  36.9708610  12.9032099
  27.6325130  36.6603589  13.0479121  29.0627098  36.1785984  12.9320300
  52.4612761  28.2927847  10.8157039  51.5256262  28.2340336  11.0089326
  52.6403427  29.2324829  10.7820272 107.5554562  49.1257858  11.0666716
 107.8284264  49.8225069  10.4697669 108.2826042  48.5033798  11.0567975
  60.9561539  93.4882545  88.9831734  61.5625191  94.0960407  88.5599041
  60.2977037  93.3018589  88.3138943  31.0102224   5.8015579   3.4088925
  30.6663609   5.7447058   4.3003842  30.4861093   5.1752424   2.9096270
 103.5143852   1.8728454  93.6788464 102.6032066   2.0738584  93.4653282
 103.4872913   0.9829489  94.0303898  84.4881439  10.7524002  90.9651661
  84.7530746  11.2971747  91.7062950  83.5766506  10.9955049  90.8029652
  37.9304814  96.7538166  80.7979393  38.7625074  96.2886143  80.8848476
  37.4370551  96.5104580  81.5812206  50.1723766  83.1666946  88.2142925
  49.9779415  82.6405048  87.4386883  51.0898685  83.4184361  88.1090927
  10.2452826  51.7003870  22.2651482  10.7905233  51.5887499  23.0439186
  10.1843810  50.8228970  21.8876123  12.7042460  63.6203003  22.6950002
  11.8528843  63.5231638  23.1215906  13.1579387  64.2842436  23.2142067
 110.3063869  58.6924648   2.6222193 111.0825348  58.3255243   2.1989167
 109.8858643  59.2152977   1.9395499  68.3759785  13.6534917  87.3924160
  69.2197084  13.5569966  87.8340435  67.8309107  12.9593575  87.7629662
  58.8460875  91.3556290  93.5214520  59.0644598  90.4971600  93.1587124
  58.4653234  91.8363762  92.7865124 119.3521118  58.0791950  18.9362645
 118.4815884  57.8073740  19.2270100 119.3101120  58.0353546  17.9809928
  48.5475874  83.8770294  79.5405912  49.4592381  84.0215683  79.7940207
  48.3011198  83.0659389  79.9851227 111.4083862  36.4848495   1.5261017
 110.8803177  35.8325148   1.0658486 110.8219910  36.8394709   2.1943974
  12.1867275  61.9560671  10.8729625  12.4658716  62.6825714  11.4301872
  11.4575458  62.3107862  10.3643358  11.0288775  51.0783768   1.7547511
  11.5477371  50.9100962   0.9681774  11.5956783  51.6196346   2.3043062
  13.2030392  62.8061199  20.0591850  13.9392495  63.3018351  19.7007251
  12.9135847  63.3191156  20.8136940  54.3621016  94.0032387  92.1878910
  54.6295738  94.1695690  93.0917931  54.8289585  94.6627522  91.6747570
  47.5741959 111.6204834  80.3973866  47.1380472 112.4510384  80.5876064
  47.1266937 111.2876225  79.6194553  49.8703814 103.9093590  85.2235222
  49.3436956 104.6065044  84.8325920  49.4160461 103.1020832  84.9824524
 100.2916050   1.9986694  89.7256279 100.5868149   1.6532743  90.5681133
  99.6118069   2.6334071  89.9519253   6.8985343  32.9348898   7.6161432
   7.0137304  33.8804555   7.5219941   5.9589612  32.7951550   7.4982095
  68.3499146 103.2288456  84.6197891  68.4969759 103.4932709  83.7116718
  69.1064358 103.5726547  85.0948715  39.3663621 107.3965740  53.5359240
  40.3060150 107.5583172  53.4515285  39.0905929 107.9589176  54.2597675
  42.4341059  84.9547005  73.7503719  43.0999088  84.3876934  74.1395235
  42.9067755  85.7534981  73.5164309  60.5357885  83.4204388  87.0590973
  61.2228775  83.3172226  86.4006996  60.3329086  84.3558311  87.0489502
   3.2643333  21.6575170  30.7841921   3.5073805  21.4789367  29.8757482
   2.4780163  22.1995211  30.7196379 114.8460960  31.7100430   1.0067128
 114.2269039  31.6949964   1.7365113 115.0958824  30.7939792   0.8856101
 115.3325462  26.8249798  84.9274540 115.0276852  26.2646842  84.2137623
 115.5241013  27.6639128  84.5082474   3.8471809  56.0760450   4.3681112
   4.7138420  55.8624315   4.0224248   3.3762708  55.2426958   4.3656719
  50.1677847  98.1963825  86.5724850  50.3978777  98.8292408  87.2527599
  50.9132528  97.5967789  86.5411377  71.2586594  73.1875467  94.3343830
  70.5837393  73.4848833  94.9445534  70.8964348  72.3911524  93.9460754
  20.7401133  33.5984063  10.7370782  21.1388016  34.3994331  11.0771322
  20.3003740  33.8726997   9.9323261  21.4035439  37.6551843   7.9566580
  21.5239024  37.0712090   8.7054688  21.5184879  37.0909786   7.1920073
   7.4006617  44.2998648   7.3220938   6.6394073  44.3522882   6.7441881
   7.9122150  43.5674095   6.9785088  65.1613712  95.0051403  91.5543938
  64.7866201  94.2481327  92.0046425  66.0963583  94.9646664  91.7553711
  14.6668637  62.6187658   8.6632216  14.3486643  63.5161161   8.7619460
  15.2292120  62.4788713   9.4250786   7.7143067  49.2550755  21.4548826
   7.9286563  49.6326208  22.3079634   7.7898395  48.3098412  21.5854883
  37.8503370  81.5612316  93.3086681  37.8308868  82.4854279  93.5570717
  36.9693780  81.2420464  93.5042763   9.6810877  57.2974157  14.3967843
  10.1718843  56.9781923  13.6395216  10.1155782  58.1160831  14.6360266
  36.1383891 104.9928761  70.0423145  36.2062955 104.3054676  69.3796730
  36.7492199 104.7249317  70.7288456  17.6991999  36.8326521  17.8704417
  17.5188851  37.7724433  17.8930891  16.8984699  36.4435434  17.5187910
 115.4834366  27.8733778  27.9102540 115.3336906  27.9311085  28.8539052
 114.7267628  28.3112359  27.5204420  87.4406433   5.3986865  82.0980358
  86.8824100   4.6606630  82.3428345  88.3325195   5.0828165  82.2430515
   7.6408726  44.0641451  44.7066450   6.9869924  43.5882282  44.1946220
   7.5366980  44.9771786  44.4387865  97.7976227  47.3195553   2.2779873
  98.6770630  47.3734093   1.9039464  97.3017788  46.7947435   1.6495380
  18.8611686  24.4201231  16.9413400  18.7570369  25.3694367  17.0060873
  18.9202476  24.2492127  16.0013759   7.3363757  38.0642533  27.6668859
   6.8726349  38.2041216  26.8412876   7.4463630  38.9423990  28.0315685
  47.5802279  75.8860445  85.3295517  46.9037247  75.9118176  84.6528625
  47.7255392  74.9532270  85.4875565  88.3249378  21.0624528   3.0070528
  88.9141369  21.4775968   2.3771855  88.2504368  21.6971517   3.7196809
  66.3899755 101.7179871  88.2765770  66.6467810 101.9637394  89.1653347
  66.9043493 102.2937775  87.7107906  88.9094162 105.7109070  -0.0900217
  88.2425690 106.2005997  -0.5714177  88.4716034 105.4397106   0.7168285
  50.1731014 100.5696106  94.2960739  50.8907700 100.4113674  93.6827660
  50.5756092 100.4915714  95.1610184  60.7590246  97.6078224  83.7810707
  61.4073324  97.8685379  84.4352531  61.0255480  96.7270660  83.5174942
  63.8279629  92.4271679  86.9207287  64.1981459  93.0449200  87.5512695
  64.4404030  92.4397945  86.1852074  44.9282789  36.4142394   1.6576740
  44.0450907  36.6859603   1.9074346  45.2312136  35.8801746   2.3920004
  74.9986982 106.1112213  93.7794304  74.1277552 106.0359573  94.1693401
  74.8324060 106.3224983  92.8607655  71.9278240  95.5308533  96.6669941
  72.4208784  94.9751568  97.2705936  71.0519361  95.1452637  96.6476631
  14.9768102  38.5212183   0.9741841  15.6092107  37.8130054   1.0955758
  14.3543673  38.1791329   0.3324871  49.7654009  98.0624676  59.6399546
  49.8654461  97.1256161  59.8088789  49.3337440  98.4024143  60.4237509
  48.9768791  88.7579823  77.4438429  49.6364641  88.5432434  76.7842484
  48.5363197  87.9269505  77.6214123   5.8904314  22.7407336   3.2731494
   5.0884265  23.1416011   2.9380000   5.5939400  22.1648788   3.9779297
  67.6727581  99.4709873  87.1156597  66.9328308 100.0775623  87.1439362
  68.4254932 100.0213242  86.8994617  37.5666499  92.7458096  81.6196918
  36.8910837  92.5438595  80.9723473  38.2007504  93.2828426  81.1445713
  10.1372004  34.8401213   4.4641259   9.9534166  35.6017971   5.0139481
  10.5020452  35.2081108   3.6593258  40.4132748  68.7078428  93.9430809
  39.7674632  69.2321253  94.4166660  40.6832457  68.0367994  94.5700169
  95.1557255  28.9451528  11.1193812  96.0033035  29.2747021  10.8206499
  94.5416641  29.6535039  10.9260011  12.3930919  46.3076115  19.0011668
  13.1528437  46.8462467  19.2222512  12.7397048  45.4173279  18.9420843
  24.4306207  25.3064728  11.1269140  24.6392655  24.8687935  11.9522238
  24.0577149  26.1479807  11.3896692  35.1787043  80.5693245  90.3632641
  34.9178481  80.8349991  91.2450790  35.2185178  79.6137762  90.4029465
 103.2771206  35.3497720   4.1420943 104.0457344  35.1873159   3.5952184
 103.5802174  35.1876664   5.0354528   2.8249916  27.5244713   7.1148175
   3.6792675  27.8454733   7.4036103   2.6548818  26.7635059   7.6699990
  16.8087125  38.6160135  21.0796714  17.4202704  38.6160827  21.8160343
  16.3336408  37.7892113  21.1629605  59.8256111  76.9760561  95.5768490
  59.0655899  76.8446636  96.1437225  60.5396891  76.5224123  96.0246563
   3.3382854  10.0464106   4.3892986   3.6904928  10.9363246   4.4045907
   2.9281488   9.9659091   3.5281718   1.7038618  42.7516842   5.0771940
   2.3568022  42.0726919   5.2470952   0.9540669  42.5036430   5.6180388
  13.2522082  69.4779682  10.7506526  13.3715689  68.7630510  11.3758540
  12.3327041  69.7269487  10.8442116  62.7115679  98.6640072  85.5748749
  63.0924034  99.5421791  85.5713558  63.1755781  98.2045078  86.2747192
  44.4044924  99.5057583  83.0818844  44.7035885  98.6092472  82.9300785
  43.5207319  99.4066715  83.4359932  18.1431878  42.0751762  -0.2308909
  18.6128092  42.3772335   0.5465734  17.4069846  41.5705776   0.1149667
  17.7572644  31.8966365  19.2263544  17.6761639  32.5400519  19.9303949
  18.6010468  32.0924091  18.8190031  33.8531637  52.4898624  13.2307315
  34.1054988  51.5676689  13.1847334  34.4669366  52.9355335  12.6468694
  23.2590747  56.8040371  14.2653954  22.4637341  56.8929386  13.7402654
  23.6645126  55.9959078  13.9511001  25.0914884 101.5005589  77.0330620
  24.2876387 100.9865379  77.1095085  25.6956506 100.9309292  76.5568829
 116.4446449  40.7780266   3.4804183 116.7014599  39.9342299   3.8522822
 116.2111378  40.5790710   2.5737095  90.4264259   8.7926549  93.0590439
  90.7841110   9.5498252  93.5227203  91.1892128   8.2472980  92.8667450
   3.6694008  30.3549218  12.5926578   2.8927034  30.8420491  12.3175561
   4.3462688  30.6093121  11.9654679   6.4915496  45.1781607  14.4312441
   6.7779493  45.5969000  13.6195409   5.7694858  45.7249022  14.7409701
  35.8536673  55.9471607   6.9537437  35.0790095  56.4883566   7.1062028
  35.5781865  55.0620317   7.1922535  46.7939997 110.3851414  82.8460693
  46.3995361 109.5137405  82.8100872  47.1477175 110.5243874  81.9675827
  16.5401471  40.4779387   4.2801377  16.0526025  40.1507282   5.0360906
  17.3694861  40.7863712   4.6452403  42.8823853 104.4382286  90.4759502
  42.0895910 104.6302509  90.9767914  43.5997963 104.6935654  91.0559177
  18.7109172  61.0685301   4.0739688  19.3051350  60.5813360   4.6447393
  19.2799294  61.4496803   3.4052545  70.5583954  12.9404438  85.3146553
  69.8963308  12.7875578  84.6404648  70.0553989  13.1602669  86.0988140
   1.7866769  30.0819707   5.9247231   2.6300797  30.4319668   5.6376576
   2.0107560  29.2972589   6.4249718  11.7726016  27.2138524  29.9509907
  11.4843071  26.3282585  30.1719856  10.9651744  27.6832652  29.7413540
  13.6729300  35.9243274   3.9281353  12.8909874  36.1310577   3.4162182
  14.1195202  35.2469349   3.4202686  41.8036222  71.3864994   6.9520211
  41.9703579  71.7402792   7.8256738  40.9801102  71.7929888   6.6821653
  35.7680607  69.3514442   5.0583822  36.1749434  68.7330437   4.4515392
  35.5268216  68.8193750   5.8166295  49.1845036  84.0235233  17.4969482
  48.5197449  83.4360886  17.8564477  49.3726730  83.6690426  16.6279423
 108.0259514   6.1501765  85.2266502 108.6447716   6.7195880  85.6838894
 107.2651863   6.7070740  85.0613403  97.7718449  16.2938118  89.7532654
  97.7473354  17.2446787  89.6461010  96.9766521  15.9834015  89.3201923
  15.0637436  58.0375242   7.6645386  15.4777539  58.8382053   7.9866242
  14.2832243  58.3412123   7.2010779  66.5270567  57.8949594  -0.1406015
  66.4372063  58.7473726   0.2854843  66.2633181  57.2636127   0.5287810
  74.2034435 101.6765308  78.4897280  74.0328217 100.8022881  78.1392670
  75.0061083 101.5769100  79.0016270  17.8984821  67.2395849   6.2917686
  18.1096256  66.3226414   6.1160970  18.7287223  67.7024078   6.1789358
  84.7621441  12.0206940  71.2059927  85.3480911  12.0592475  70.4500723
  85.3197670  11.7272687  71.9265461  43.0564642  50.6763363  19.4623458
  42.6723623  50.5011988  18.6032605  43.4508657  51.5442133  19.3759465
  17.2274244  35.7340765  11.5528727  17.4779952  35.4820967  12.4416649
  16.2738645  35.8108115  11.5855110  24.0613532 108.9497185  93.5346508
  23.5289621 109.7286797  93.3733368  23.4329057 108.2835102  93.8129520
  13.2277524  49.9650812  10.2296567  13.2025051  49.0548944  10.5248713
  14.1494811  50.2138186  10.2987826   3.2487687  75.4880285  11.5555418
   3.6384094  74.8027229  12.0984650   3.5323471  76.3065004  11.9628751
  38.0718923  60.1287699  11.7777038  38.4288239  59.9754000  10.9028852
  38.4447694  60.9689856  12.0446050  79.6220636   7.2310787  92.3094273
  78.6654377   7.2553551  92.2868633  79.8359442   7.0694774  93.2283211
  31.0903573  37.1505475   4.7801813  30.4966259  37.5870872   4.1693252
  30.5151749  36.7789674   5.4490060  40.1739120  97.4204922  83.5142136
  39.2317772  97.3107624  83.6429501  40.3706264  96.9039536  82.7327251
  12.2798622  69.5830965   3.6427212  12.2992003  70.4004669   4.1404787
  11.3491046  69.3765974   3.5573864  41.5853310 104.5825768  77.2238636
  41.2027311 105.2211475  76.6221333  42.5302839 104.7086430  77.1378183
   1.7273517   6.3967866  90.6589413   1.5378717   6.6307694  89.7503281
   1.3580711   5.5197716  90.7624245   9.0004820  38.6067748   8.6309242
   9.2077023  39.5090771   8.8741100   8.3908951  38.3105159   9.3068433
  99.2809296  27.8444386  86.0320854  99.1264534  27.6220059  86.9501686
  98.5216713  28.3710408  85.7821941  26.9434810  77.9286098   1.0260213
  27.1344757  78.6392832   1.6381414  27.3515368  78.2035398   0.2049640
   7.2912931  61.9045782   1.8639696   7.4259907  62.5382185   2.5686616
   8.1621778  61.7753887   1.4883327  11.5078390  65.1210260  11.1176765
  12.2738481  65.3145933  10.5773127  11.8670881  64.9391747  11.9860673
  45.9516668 105.5710602  88.4608650  45.3533697 104.9261189  88.0836201
  45.6936693 105.6277180  89.3808937  29.5224404 101.0422421  82.5516891
  29.0114355 101.4524078  81.8539333  29.8706865 100.2434254  82.1556377
  74.0051508  96.1561298  89.5486927  73.1918716  96.6544151  89.4679260
  74.4403696  96.2694073  88.7037182  13.0296731  81.8894005   7.3835319
  13.2187665  82.1573639   6.4842707  13.2363093  82.6604843   7.9116964
  54.2520094  99.8547649  85.4279327  53.7369299  99.2463112  85.9577560
  54.4413996  99.3711281  84.6239090  74.5335197  96.8384933  82.7649021
  75.2047014  96.8025398  82.0833969  75.0234175  96.7948627  83.5860825
  86.5206242 105.9784889  89.3652153  85.9310150 105.4252148  89.8775482
  86.2194443 105.8776760  88.4622478   1.3931465  36.0330057  17.1125948
   2.0809370  36.6965365  17.1664643   1.5968281  35.4190779  17.8181720
  98.8918495  33.7286448  94.0974426  97.9734898  33.6645985  93.8352299
  99.2955685  32.9323268  93.7523079  19.4709706  40.1115036   8.2476348
  18.9866662  39.5323443   8.8360679  20.0897384  39.5347476   7.7996260
  18.7500894  51.4582968  12.5481749  18.3728957  52.2755909  12.8737402
  18.5027659  50.8035374  13.2011318  50.7956600  95.8811569  84.9895000
  50.1462078  96.5840244  84.9688148  50.2774620  95.0772858  85.0280285
 102.8366566  18.5747445  93.8394165 102.5317383  18.3809209  92.9530334
 103.6766243  18.1209481  93.9083385 117.4289227  15.0886428  83.8356686
 118.1460667  15.2888799  83.2341385 117.7512360  14.3527782  84.3561077
  50.1344013 110.3460598  88.1145096  49.1946077 110.4826832  88.2343006
  50.5435991 111.0778809  88.5762787  80.8020306   9.9568796  89.3223190
  81.4042091   9.2947078  89.6616459  81.3550472  10.7198584  89.1541862
  59.2913151  89.1997051  91.7249393  60.1636600  88.9595795  91.4125443
  58.9440775  89.7772980  91.0451889  83.1098080  14.7469842  83.0530643
  82.8235531  13.8461959  83.2042980  82.3020554  15.2603996  83.0662537
  64.0425825  47.6932812   6.3866770  63.9541149  47.3416138   7.2725290
  64.8798275  47.3495770   6.0750419   7.5772607  41.0667419   3.2456410
   8.4895790  41.3560247   3.2307208   7.5658906  40.3423500   3.8712314
 115.1734543  61.4303923   8.7975597 115.6235218  62.0395517   8.2122403
 115.1023674  61.9032907   9.6267414  52.2715521  85.5105686  88.4538078
  53.1234741  85.8287334  88.1550884  51.6816139  86.2542820  88.3309460
  23.3372903   0.6733705  92.3210716  22.5988340   1.1847596  91.9903183
  24.0759945   0.9368472  91.7723179  63.2660389 106.7007351  79.9118137
  63.2906294 106.1333275  80.6823158  62.8081131 107.4873257  80.2081394
  37.3854542  72.5830841   2.4477907  37.5065851  72.5227594   3.3953774
  36.4610267  72.8059149   2.3382041   9.4147593  53.0122948   3.7222901
   8.9377379  52.2910881   3.3117563   9.3202662  53.7415123   3.1094721
  38.0160046 104.3118000  86.0542393  38.4433889 104.4421864  85.2077293
  38.6835074 104.5477867  86.6984272  99.7784233   0.9139664  86.9133377
  99.1289902   0.2651113  86.6423130  99.3757343   1.3588358  87.6591110
  35.4481649  58.7072754  11.3690829  35.5413175  59.6407223  11.1787367
  34.8086286  58.3949661  10.7290113  86.5640259  10.2057648  84.9668312
  87.2027779  10.1836896  85.6793976  86.7348480   9.4073546  84.4672394
 103.1470966  16.0915399  96.1903000 103.9645290  16.0534596  96.6868877
 103.3428764  15.6361520  95.3714466  15.4638147  70.6506872   9.9409992
  16.1177528  70.0022173  10.2019262  14.6452391  70.3316402  10.3209662
 111.0219669   5.5871671  97.0128536 111.8829536   5.2411133  96.7779541
 110.5609035   5.6691891  96.1780357   4.2889079  60.7495308  26.2660933
   5.0906157  60.9692478  26.7406678   3.6986724  60.4084206  26.9380307
  41.9382191  64.4576502  29.4573355  41.9036674  64.2403364  28.5257721
  41.2766171  63.8946819  29.8593044  27.3968291  91.0012913   5.6124270
  28.3400869  90.9658813   5.7712966  27.2963810  90.7199669   4.7030312
  10.1441991  28.4311366  16.0585523  10.9875727  28.1047106  15.7448649
  10.0887609  29.3221331  15.7131791  24.0459251  56.8980885   1.9167735
  23.1605792  57.1817684   1.6889094  24.1229558  57.0822811   2.8529203
  57.2246408 111.3288307  83.6089897  56.6653728 112.0980358  83.7175560
  56.6640663 110.5898380  83.8453579  28.3408332  60.7665920  13.5755372
  28.2007933  60.1920557  12.8228569  29.2924476  60.8436394  13.6442673
  47.8836155  79.5097303   7.8775197  47.2901917  79.0711689   7.2678131
  47.4518871  79.4336891   8.7284356  40.1488304  65.8035326  17.7365196
  39.5542097  66.5054464  17.4719918  41.0087538  66.2217236  17.7798748
   5.6314588  64.5917368   2.2135374   5.9574240  63.7108040   2.0293251
   5.8076483  64.7223425   3.1452730  53.7051535  96.8206978  81.7499352
  52.9856300  97.2278786  82.2323418  54.4956779  97.2018528  82.1320629
  50.2630472  75.2373886  16.2120175  50.4906464  75.7341003  16.9979608
  51.1037445  74.9370670  15.8666635  61.8160534  87.8011322  90.5117035
  61.8936348  86.9185257  90.8739376  61.7865419  87.6693630  89.5640755
  16.6814005  66.3742828   2.9686522  16.8998528  67.1163988   3.5323632
  15.7461691  66.2306929   3.1134129  77.4679422  26.2849236  93.4619427
  77.4403524  25.3690910  93.7389278  78.3567715  26.4076519  93.1285572
  41.9704390  71.1220932  19.6390557  42.3569584  70.9402514  18.7824535
  42.5969982  71.7069006  20.0652695  47.1424866  23.6809564  24.4589400
  46.9672251  22.9116797  25.0009084  46.7917633  23.4524250  23.5981274
  38.8029051  43.6113691  13.2552540  38.5142136  42.7231598  13.0455577
  38.1551480  44.1787195  12.8372121  64.6264362  97.9234314  78.9406443
  64.7474432  97.8192234  77.9968596  65.4962873  98.1492901  79.2701530
 101.1190128   7.1095622  91.0217381 101.4926720   7.1439880  91.9023132
 100.5647659   6.3291669  91.0270786  92.7147961  13.6992550  92.7917576
  92.3168468  13.2389045  92.0528793  92.3999214  13.2297099  93.5641670
  15.2465260  83.4743023  95.8838940  15.8372033  82.9729652  96.4460182
  14.8863530  82.8272438  95.2774143  51.1728954 100.3149414  96.8283367
  50.8183098 101.2014198  96.8965054  50.9974480  99.9204445  97.6826382
  10.0608253  37.0037580  17.9168665   9.4478148  36.3482690  18.2497108
  10.1619506  37.6250911  18.6379445  28.0589890  99.6371841  94.6596432
  28.9741421  99.4688797  94.8841381  27.5938845  99.5840645  95.4945564
  17.3074651  38.7172389  30.6182885  16.4908302  38.2927537  30.8812594
  17.8079820  38.7974358  31.4302516  52.8160667  73.1875849  11.2696373
  52.7719641  73.7601566  10.5038369  52.7558517  72.3023224  10.9105897
 113.8554764   7.9280514  90.5856800 114.2285252   7.1968615  90.0933170
 112.9091930   7.8299797  90.4799938  29.4092798  86.5146065   0.7120241
  29.3537045  86.7089462  -0.2235900  29.9417758  87.2235489   1.0726909
   4.9866655  56.7316103  34.8586202   4.1427517  56.3282728  34.6552515
   5.5376327  56.5283394  34.1027451 109.4488716  21.2355113  91.4145470
 109.9703217  20.6575108  91.9715405 110.0534821  21.9327331  91.1604404
 114.5537281  14.6365273  96.6163349 114.1460323  13.7714064  96.5765667
 115.4863358  14.4565725  96.7350101  29.9503374  38.6981511  29.1237497
  29.6412563  39.3280578  28.4726596  29.3463922  38.7984085  29.8595667
  74.2979336 111.3495731  95.4588032  74.6400976 110.6537056  96.0199833
  73.5832739 111.7358780  95.9650230  55.1020288  94.2939949  94.8989868
  54.4581985  93.9500141  95.5181694  55.9485817  94.0523243  95.2747154
  67.2527933  97.9317093  80.5700588  68.1531811  97.9317665  80.2451992
  67.2767544  98.4968281  81.3422680 110.8619595  13.9031255  82.3524189
 110.7549763  12.9531193  82.3047447 110.7349586  14.1123116  83.2778072
  83.4247875 104.8087883  84.5423317  83.0274582 104.8259449  85.4129982
  82.6829720 104.8590755  83.9394951  52.0121861  92.9644871  93.3541870
  52.2576189  92.7823257  94.2612743  52.7460146  93.4698200  93.0043793
  31.3391542  17.5812495  28.0753398  31.9484568  17.7979171  27.3696232
  31.0398817  18.4296441  28.4022880  16.1677849  71.9866037   6.6875976
  16.1946619  72.8574419   6.2911761  15.2348447  71.7850256   6.7598474
 108.3722591  65.8414507   9.9080372 109.1078758  66.2978697   9.4996357
 108.7256908  65.5071449  10.7323897   3.4789509  65.9466839  15.6571817
   4.2123488  66.2077951  16.2141216   3.1460881  66.7692327  15.2982271
  25.6341624  55.2058458  10.5755961  26.1744761  54.8818684   9.8549503
  25.4193544  54.4239187  11.0842025  34.1683173  26.8999386   5.6202465
  33.8584757  27.1482849   6.4911968  33.6370921  27.4221349   5.0191295
  29.4954801   2.4557428  70.5481625  29.8376679   1.5670425  70.4514551
  29.2878294   2.7309319  69.6551991  94.0038490   6.3248998  95.0921059
  94.1409779   6.9055289  95.8406353  93.0677700   6.1258841  95.1116943
  75.5769157  89.0541649  74.8575687  75.8758545  88.9766788  73.9515543
  75.9984875  88.3248329  75.3120852  83.4534264 108.0737209  90.5288124
  83.5599041 108.6763000  89.7927380  84.0798187 108.3823013  91.1835194
 104.3212223   8.4700733  95.6467056 104.4816303   7.8991950  94.8953056
 103.4854889   8.1682897  96.0026836   9.2940158  25.2149653  80.1913643
   8.5599595  25.7022190  80.5655003  10.0624132  25.5438375  80.6578827
  24.6768928  59.9895144   2.3016816  24.7829533  59.1382504   1.8770307
  25.5556369  60.3690338   2.3002453 116.4953136  13.9063430  90.8830357
 117.2462082  14.4582343  90.6643867 116.1240959  14.3073595  91.6689205
  76.1274529 109.5229244  84.9586296  76.6953468 108.9045334  84.4989300
  76.1044025 110.2938843  84.3917847  21.6617155  84.3134594  17.3383284
  21.1510134  84.6166801  16.5876794  21.8210697  83.3864498  17.1608698
  98.8786125   2.3677224  94.3928146  99.5110226   2.6237458  93.7214470
  98.4571743   1.5846382  94.0386963   6.4245659  19.4998717  83.9395046
   5.6879228  20.1101661  83.9058876   6.5503460  19.3274367  84.8726082
 117.1819401  17.1906698  91.3165379 116.9280338  16.5618992  91.9921112
 118.1345177  17.1133053  91.2631893   7.2882074  74.0462589   8.0523849
   7.9138398  73.3412218   8.2189369   6.7114908  74.0401363   8.8163167
  39.5380569  79.8683310  15.2709603  38.8063645  79.9503899  14.6593022
  40.2766752  80.2735615  14.8165762  24.0563226  52.0611000  14.4622254
  23.1494474  52.3616123  14.4030583  24.2087865  51.5963125  13.6394501
   7.7562350  51.1091995   2.5776613   7.8945237  50.5913448   3.3707160
   7.9222876  50.4976320   1.8602750 117.4246883   2.9880810  83.6783218
 117.7679920   3.8737720  83.5603237 117.9897308   2.4379362  83.1358337
  24.1591024  83.2648373   1.7411314  24.7917080  82.5488377   1.6830179
  24.5012617  83.9353275   1.1498602  73.5349941 106.5787029  58.4791851
  72.8620100 106.7383194  59.1408873  73.4403992 107.3038578  57.8615808
  80.6552029 103.1089401  86.5030766  79.9159956 103.1514549  87.1097088
  81.1625290 103.8992977  86.6879654 116.2100410   5.6814134  85.0518703
 116.9622326   6.1132157  84.6469212 116.5778446   4.9042222  85.4724884
   9.2789108  25.8742380  74.5998526   8.6840421  26.2687612  73.9621067
  10.0574887  26.4305997  74.5772839 115.7883739  14.9032724  71.9328737
 115.1230145  15.0309157  71.2566757 116.1814880  14.0556180  71.7250919
  28.3290887   7.4796504  73.2531929  27.4516511   7.1385300  73.4263229
  28.1841564   8.3849800  72.9782343 118.1245708 110.9799957  83.9833546
 118.4276485 111.5594769  83.2843781 117.4762154 110.4155731  83.5622883
 117.7220535  28.7727451  71.8659735 117.3865032  29.2656565  72.6147556
 117.6641178  29.3838692  71.1315346 110.8855820 109.7845745  57.5987387
 110.4128361 109.8570728  58.4278870 111.8041229 109.6975136  57.8535604
  19.2880404   0.5644432  84.0099144  19.6999562   0.4687714  83.1511879
  18.7175357   1.3275599  83.9182091   8.7875175  16.4206362  84.1026497
   8.1376696  16.8701088  84.6429253   8.8724220  16.9700003  83.3234024
  21.4558268  20.3411341  70.1780891  20.7687664  19.7026086  69.9871302
  21.9790077  19.9312282  70.8669233  10.7731128  16.9215178  91.4332771
  10.2409470  17.5426233  91.9305229  10.1364982  16.3423252  91.0143566
  25.4917073  26.1747074  77.9751873  26.2260938  25.8306909  77.4666977
  25.8295417  26.9785094  78.3701611  25.6178594   5.6205761  73.6904430
  25.0385690   4.9267682  74.0055370  26.5005779   5.2836126  73.8437319
 108.6417580  12.4932134  78.6923742 109.0889931  12.1958399  79.4846964
 109.2459488  13.1222665  78.2980728  25.8094859  10.4747605  74.5493364
  25.0447273  10.9104049  74.9256182  25.5764127   9.5464063  74.5411682
  22.9361010  33.8324523  51.1574793  23.4738517  34.5336175  51.5254784
  23.3488512  33.0263090  51.4673281  25.8924603  34.7290730  85.2788925
  25.6292391  35.0525808  84.4173241  26.6587257  34.1822410  85.1055527
  57.8067207  47.3615122   4.9960375  57.6598549  47.1521616   5.9184450
  58.6302042  47.8494263   4.9893418 101.1363506  29.3723154  67.6772594
 100.5291653  29.8613071  68.2326365 100.6028938  28.6757803  67.2945118
  11.1723030  32.6178551  87.4336624  10.8724880  32.1161461  88.1917000
  10.4687834  33.2455325  87.2684002 118.6978245  13.2950306  68.3896875
 118.4840679  14.2263186  68.3327436 118.2698154  12.9997540  69.1933393
  38.4415793   4.5688167  80.2732944  39.0548182   3.8351831  80.3174686
  37.7954841   4.3822646  80.9544659  97.2996426 100.1849747  82.0775032
  96.5909004  99.9616528  82.6808739  97.2687817 101.1396027  82.0146179
  86.9905567 102.5954723  85.5453968  86.5853882 103.3842850  85.1850700
  87.3645306 102.1497250  84.7853374  12.3195279  33.0574346  67.0094347
  11.5935338  32.4454761  67.1305561  12.7348816  33.1096911  67.8702354
  73.0005074  59.6935225   0.3615350  73.5728359  58.9739752   0.0952231
  72.6224804  59.4041204   1.1919415  19.7718751  18.1884003  70.7089567
  19.0426922  18.7752950  70.9091520  19.3739772  17.3190260  70.6631565
 115.6997681  22.5498867  77.0869064 114.8947239  22.1242285  76.7920256
 115.7940197  22.2778344  77.9997778   9.9506611  18.4886718  93.3154106
  10.6186569  19.1651297  93.2039738  10.1294124  18.1154275  94.1785240
  14.5719171  46.8975210  67.6963186  14.4812512  47.1568584  68.6132479
  15.0948882  46.0963154  67.7246046 109.4840908  12.2306967  68.2875443
 110.1868916  12.2631121  67.6385069 109.9191666  11.9683862  69.0987968
 102.1549416  26.5846968  95.2509785 101.3949871  26.0034347  95.2799797
 101.9581127  27.2683930  95.8913326   7.8724945  86.4081383  71.8111897
   8.0730653  87.3438644  71.8316507   8.1843054  86.1150169  70.9549809
 115.1812363  34.0218925  55.1989174 115.9728909  33.6454034  54.8145103
 115.2549458  34.9607491  55.0276089  24.8337817  26.5057755  67.9722261
  25.1710749  26.8348837  68.8053846  25.4547477  26.8273926  67.3186207
  13.7055171  39.2264557  50.3108120  13.7675512  39.4811440  49.3902063
  14.2642105  38.4526181  50.3834057 100.5419064 111.7795086  85.7223701
 100.1764011 112.3250580  85.0259399 101.4110279 111.5353680  85.4041576
  21.1231399  33.4749508  43.4709311  22.0617294  33.2902217  43.4369183
  20.7137132  32.6162505  43.5769129   3.4053990  11.6794002  92.5706291
   3.5545608  10.9342182  93.1525993   3.1805581  11.2842190  91.7283058
  81.0296535 111.8125820  77.9972696  80.7772255 110.9575558  77.6487732
  81.6127110 112.1794510  77.3326778   1.4762054  18.1660390  94.8839569
   1.0316909  18.9299822  95.2514267   2.0651302  17.8739476  95.5797195
   9.5167309   2.8425017  90.0394058  10.2389812   2.2291435  90.1749706
   9.7212726   3.2737532  89.2096901 111.4856529  24.0929246  66.1213493
 111.8294621  23.2439256  65.8434582 111.8963432  24.2510509  66.9713831
   7.5725710  37.1023488  72.6148367   6.6462666  36.8763876  72.6992989
   7.7831328  37.5583553  73.4296703  78.7334156  63.8638306   3.2671174
  78.7768364  64.4417238   4.0289471  77.8100395  63.6196375   3.2040468
  11.9244432  14.8514032  66.6556597  11.4745188  15.5870271  66.2401390
  12.8332841  15.1409054  66.7358398 102.1823978 111.5239429  80.8806133
 102.7916718 111.1206627  80.2622414 101.3176250 111.2396049  80.5847359
 107.5153351  15.3526759  94.3785381 108.4130859  15.0304925  94.4589806
 107.5596428  16.0157263  93.6896038  48.8517761  71.2988281  28.2129574
  48.3427525  70.5065775  28.0412912  49.6734571  71.1624765  27.7412820
  34.5443106  30.6754017  80.9734726  35.1773334  30.3675795  80.3248119
  33.6977935  30.3735304  80.6440544  21.5881848   5.4312521  79.3589973
  20.8236098   5.9541130  79.6003962  21.6353846   5.5019850  78.4055805
  13.3143854  34.9220729  78.0674791  12.8785264  34.6514392  78.8755703
  14.2221808  35.0804305  78.3264446  58.4230280  62.8187847   5.2382058
  58.7822199  61.9729042   4.9704432  59.1222429  63.4455395   5.0524336
  33.3154440  25.7990646  78.4841204  32.7598619  25.2233791  77.9586267
  33.6595845  25.2338576  79.1757441   1.8836421  21.8210530  95.8761883
   1.0526399  21.3748908  95.7130623   2.4738662  21.4815378  95.2034283
  71.7191362  67.9570436   2.5982395  72.6145840  67.6966858   2.8141463
  71.6207838  67.7321196   1.6730541  16.1240184  12.2136033  79.9369240
  15.1713610  12.2708881  80.0103760  16.3814235  13.0332839  79.5149088
 118.7958527 107.8685284  77.4504280 119.0410423 107.1977711  76.8130875
 118.6701202 108.6607170  76.9280577  12.6652563   4.4532746  65.4489183
  12.8763556   4.0689433  64.5980597  11.7746437   4.7885919  65.3459406
 104.1822720 109.6109295  80.0693607 103.9101410 109.4867039  80.9786129
 103.5923862 109.0513611  79.5642185  11.6318285  19.1114533  70.8586836
  11.2371194  18.3328843  70.4659176  11.2307596  19.1718566  71.7257071
  34.7270083   9.3684155  73.5316086  35.6280518   9.1422027  73.3010006
  34.6526909  10.2994466  73.3221102  20.8756852  30.9902596  77.7696466
  20.5644870  31.5544558  78.4775114  21.8244052  30.9542370  77.8915691
  25.7349753  15.4443491  66.2396479  26.2313366  14.6694648  65.9761906
  26.3300109  15.9260046  66.8142557  77.9253054 102.6456928   6.4239991
  77.4707747 102.5029755   5.5937797  78.4721661 103.4157276   6.2683779
   0.7677865  21.3737535  72.2756195  -0.1748496  21.2207079  72.2104597
   0.8491596  22.1150684  72.8756714  86.3961887 102.7945042  92.8468323
  85.8529472 102.9315567  93.6229324  87.1883297 102.3731613  93.1803036
   9.1013700  19.1662621  96.9863701   9.7057372  19.1367722  97.7280617
   9.1666675  18.2976568  96.5895176  15.8630061  23.4493113  77.5427485
  14.9346197  23.6547017  77.4325466  16.0270751  23.5760736  78.4772253
  53.8818359  46.9012403  10.6030548  54.8047018  46.9683552  10.3580058
  53.7558937  47.5920773  11.2535286  61.9217825  65.8252573   0.3025413
  62.8274155  66.0071564   0.5534948  61.4433432  65.8035135   1.1313094
  32.7521706  11.8103647  43.8927603  32.8618908  11.5549207  44.8086977
  33.6448336  11.8727219  43.5529137  18.0459058   8.4868783  68.7157679
  18.0756235   7.7120525  68.1545258  17.2211504   8.4043515  69.1945171
  11.4799619  40.6408119  94.0632057  11.3198853  40.5878067  93.1209755
  12.3825419  40.9511709  94.1357327  15.4220104   7.7157813  69.5898962
  15.3279841   8.3962011  70.2565479  14.6430111   7.8085345  69.0414572
  24.7389197   2.0124762  90.3148746  24.2746329   2.6173925  89.7363091
  25.5348992   2.4823365  90.5636311  31.4176893  84.1729164   1.4011726
  31.4586401  83.2210445   1.4933190  30.4933429  84.3579197   1.2350684
   1.8166302  28.0790329  51.4921856   1.5778719  27.4601746  52.1822834
   1.2169208  28.8152742  51.6127205 103.9478397 110.8778286  86.6566086
 104.8980904 110.9473705  86.5648937 103.7694263 111.1892605  87.5439739
 117.5873280  29.0835190  49.4311190 116.7691994  28.6909938  49.7357845
 117.9194450  28.4680772  48.7775469  30.1643413  16.0494383  97.2539435
  30.9978908  16.2455233  97.6817052  30.3356164  15.2548274  96.7484816
  42.6303816  85.9008884  26.0187316  42.1309471  86.3397312  26.7073631
  42.3043442  85.0009346  26.0228658  11.1988282  37.8730106  92.0344257
  11.8819559  38.3929658  92.4577618  11.2270355  37.0286512  92.4844170
  12.4742746   4.9590835  71.5228033  11.8622756   5.2344733  70.8402729
  11.9281173   4.5073983  72.1661711  40.1619864  70.4046154   3.5802639
  40.5415249  71.0807085   3.0189443  40.8743000  70.1540470   4.1685295
   4.1458616  22.6178145  91.7145824   3.5792434  22.1894765  91.0729408
   3.7800050  23.4974146  91.8077755   3.9947569  14.7315407  86.5714836
   4.1935024  15.1160693  85.7177448   4.4780689  15.2723503  87.1961117
  59.3712807  41.4969349   9.0827984  60.0344706  41.4404535   8.3948910
  58.7368488  42.1328926   8.7522173 109.2323971   4.8510191  80.0673103
 108.8474083   4.6427074  80.9185505 109.8380375   5.5699331  80.2478218
 114.4002819  24.2073393  86.6900444 114.0792656  25.1049089  86.6031361
 114.9338722  24.0670228  85.9078503  67.0407248  83.9885616   6.8784642
  67.1893358  83.3015919   6.2286836  66.8660593  84.7743702   6.3605577
  25.1739407  11.1998880  70.7566118  24.4222689  11.6730666  71.1134386
  25.9298110  11.7369568  70.9942007  34.2158365  21.4908266  81.0976219
  34.4695091  21.0048151  80.3129768  33.8874149  20.8216572  81.6981125
  13.7523901   8.1631106  67.1026802  13.1620097   7.7619076  66.4649343
  13.5875344   9.1026932  67.0236921  27.3835039  16.2551725  84.2897320
  27.2322774  17.1565831  84.0054417  27.6492500  15.7944310  83.4939194
  34.4411659  25.5582976  91.0663986  33.7542582  25.0987577  90.5834770
  35.1181555  25.7324243  90.4124928  19.5719802  18.0137289  89.0217209
  19.2003465  17.1316504  89.0141773  19.5221210  18.3024311  88.1104565
  34.1454864  19.7831786  71.5220213  33.8978124  20.4550672  72.1572018
  33.7225127  20.0558066  70.7077742   0.0489838  38.0380321  55.8394575
   0.0540526  38.8946795  55.4124212   0.9648423  37.7599454  55.8293390
  20.5371475  34.1348720  76.8874025  20.2963042  33.2737589  76.5457773
  19.7603452  34.4298601  77.3625755  35.6773329  16.5426230  77.5161457
  36.1651969  15.8295643  77.9281712  34.9111509  16.6639638  78.0769253
  12.2326362  35.1505375  64.5894527  12.4831247  36.0083461  64.2464447
  12.1477485  35.2854657  65.5332851  18.3439219  10.9531760  65.4982233
  18.3440733  11.2862670  64.6008492  18.8345551  10.1327407  65.4492521
  20.2905416  10.7135141  95.8088970  21.0495996  10.6758142  96.3908195
  20.3474784   9.9119997  95.2887344   0.9551963  43.8703966  97.0367336
   0.5480185  44.7322989  97.1237087   0.5437436  43.4882498  96.2615585
  57.1654892  94.8264694  15.8091187  57.0275450  95.0372696  14.8856664
  56.3940477  94.3165207  16.0562134   3.4680074  33.1283951  89.8209763
   2.8368229  33.8479376  89.8111439   4.3099740  33.5506773  89.9912739
  33.8539958  19.5157540  90.8246040  34.3716311  18.7452531  91.0582924
  34.1438532  20.1933050  91.4354515  31.5373302  92.4297142   7.1763963
  32.4047709  92.0281792   7.1258712  31.6902018  93.2787418   7.5911403
  73.6872625 109.6931267  -0.0368832  73.9476871 109.7542000   0.8821829
  74.4176149 109.2450047  -0.4635040   3.8369623  25.5913305  58.2546329
   2.9464459  25.4419851  57.9369688   4.1388243  24.7276998  58.5361528
  10.7485735   3.8047320  73.6964607  10.2850258   3.4009290  72.9627705
  10.6006658   3.2085031  74.4305372  16.0650408  59.2472458  69.5981979
  15.5100393  59.3200016  68.8217258  16.8951142  59.6463299  69.3375397
  74.9440241 103.8902760  12.7981853  75.6801748 103.9321995  13.4085596
  74.7742796 102.9542923  12.6915944  19.2043304  37.1796107  95.8649254
  19.0142798  36.3781738  95.3772640  18.3437371  37.5285387  96.0970020
  62.8522730  91.9389248  13.0756545  62.5842524  92.4982834  13.8047063
  63.8085938  91.9795513  13.0815959  35.8539891  15.4149783  92.2313786
  35.3805137  16.2443841  92.1670532  36.5200353  15.5707169  92.9009819
  28.5738134  28.9145207  66.8164206  28.2844138  28.8321114  67.7250957
  28.2405496  28.1268835  66.3865423  23.4309673  39.4346929  95.6781864
  23.4873176  39.8414063  96.5428448  22.5226402  39.5703483  95.4084206
   3.7097314  38.3592749  66.2714434   4.0008864  38.6390781  65.4035902
   3.1579542  37.5952148  66.1041594  32.5022674  15.1944923  57.5118637
  32.2669578  14.6043169  56.7959309  31.6628575  15.4918420  57.8628683
  29.8742795  20.9426475  95.1710415  30.1197624  20.0176978  95.1920700
  29.5397687  21.0815907  94.2850208  29.6523380  24.5298219  83.1316090
  29.8722553  24.0940118  83.9549828  29.6425247  25.4619241  83.3491516
  38.2717872  45.0340366  89.7318649  39.2008686  45.1183081  89.9461937
  38.1855226  45.4483032  88.8732719  54.7469187  89.0603161   9.5228297
  55.4622030  89.1433334   8.8921887  55.1806021  89.0429878  10.3759730
  63.9393425  38.1700182  75.3281689  63.4740400  37.5923538  75.9331703
  64.8527002  37.8890181  75.3833818   2.3942643  36.8630338  74.1197824
   1.8964274  36.3552284  74.7605038   2.5669914  37.6968384  74.5570087
  14.3612087  45.5945635  63.8701200  14.1010749  44.9320555  63.2300854
  15.2939308  45.4350233  64.0143681  22.3685718   5.9474856  74.2854261
  21.8030429   5.8440191  73.5201168  23.0282283   5.2604210  74.1904259
  62.8937721  81.9712448  10.3445709  63.8246918  82.1376610  10.1964986
  62.8270292  81.8033409  11.2845635  10.8995330  47.2649288  75.9845591
  10.3681457  46.9269419  75.2637100  10.7581091  48.2113791  75.9630919
   7.2114635  20.9993505  76.5311480   7.3418939  20.6099677  75.6665087
   7.9587412  20.6949830  77.0460939  45.4352760 102.8776741  13.3956325
  45.6588030 102.4920845  14.2427385  46.1787271 103.4430313  13.1861579
  24.8617673  29.9591470  71.1876869  24.8239470  30.8753753  71.4621449
  24.3047833  29.9188089  70.4102707  12.1774530  49.0823269  91.6000843
  11.5095365  48.6182117  92.1047783  11.6807926  49.6449089  91.0058975
  29.0041161  34.7188234  91.8005371  28.8591933  35.6611347  91.7152119
  29.8001051  34.6456242  92.3270988  64.1051960  90.1610184   1.3992764
  64.1920948  90.1485252   2.3524417  63.5178661  89.4312000   1.2027331
  87.8902721  66.5822220   9.5182073  87.3312283  66.2657261   8.8086110
  88.4802914  67.2076273   9.0975130  20.3059268   9.1799676  74.3351412
  21.2215757   9.1582334  74.6132517  20.0537944   8.2589477  74.2689323
  18.2947564  41.6888237  83.4471798  18.3867335  41.7487240  82.4962902
  18.8437390  42.3960018  83.7859344  14.5668197  33.2132196  74.7136354
  14.9165797  34.0455222  75.0317144  14.3776250  32.7137136  75.5079460
  27.4726295  61.4813185  79.7820663  28.2069063  61.4523411  80.3954411
  26.7696857  61.9102335  80.2700615  24.5826101  27.6970935  72.8607082
  25.0408912  27.7972364  73.6950827  24.3799949  28.5925078  72.5897598
  39.9612236  29.5887661  78.3504009  40.6922531  30.1161218  78.6724663
  40.3596783  28.9838004  77.7247143  87.8620911  99.8362446  17.7959263
  88.4580612  99.1838551  17.4279165  88.3216476 100.1737785  18.5647666
  47.5597525  31.6030121  81.7684841  47.8585720  32.1315622  82.5084686
  48.0339432  30.7763195  81.8576717  16.4668751  12.7779639  94.0952110
  16.2231624  13.4762859  94.7028160  15.7883430  12.7999818  93.4204292
  59.4694567 104.1810036   3.5544774  58.8428259 104.2103386   2.8314933
  59.5310593 105.0877285   3.8549685  18.3345914  21.7371297  72.7226639
  17.7293241  22.4709821  72.8291750  19.0806603  22.1084166  72.2517490
  72.3549461 105.1841259   5.8262450  72.2741699 104.4767475   5.1864558
  72.6009560 105.9497261   5.3070480  11.5329278  51.7594671  62.9199600
  12.3690116  52.1882010  62.7372551  10.8727586  52.4086380  62.6770878
  23.0383325  40.1514673  89.8505402  22.5306129  40.6410885  90.4976273
  22.3905683  39.6141458  89.3945503 116.7877674  27.6867938  90.8519268
 116.3600159  27.9837584  90.0487614 116.1657047  27.8999853  91.5474987
  55.8394003  66.2939119  16.2969196  56.0474968  66.9658232  16.9461238
  55.2044725  65.7266903  16.7343581  17.6971471  29.6988916  79.3730497
  16.9685912  29.1840482  79.7200012  18.2674694  29.8456526  80.1276588
  30.4845691  43.6297131  92.3303699  30.2597761  43.7957096  91.4148712
  29.6431494  43.4731197  92.7589989   8.0524474  19.3598890  74.1661167
   8.2450825  18.4823465  74.4963312   7.1498525  19.3048906  73.8522196
  60.8938646  78.2763433   1.4547186  60.6178093  78.7997675   2.2070831
  60.2738667  77.5475073   1.4295700  44.8728418  36.9965005  90.3727341
  45.2653313  36.7930317  89.5237446  44.5760632  37.9026151  90.2884102
  48.2826948  20.9097004  86.4036655  48.9745998  20.8530045  85.7446671
  47.9233360  20.0237536  86.4504814  11.3123560  38.0395603  74.7299528
  11.7588353  37.2467875  74.4326401  11.3356113  38.6255598  73.9734507
  32.7502108  16.6239560  66.8679047  32.0176101  16.6690600  67.4823093
  32.5098801  15.9251654  66.2594986  68.4845073  84.3487874   0.3133413
  67.5552518  84.1787449   0.1590654  68.5963351  85.2760497   0.1037904
  37.3070860  10.0004065  84.5976543  37.0671248   9.1074187  84.8450851
  37.7175164  10.3642178  85.3821468   7.3110485  13.4711277  91.4620399
   7.1741796  12.6936626  90.9206963   6.8724954  13.2679403  92.2882462
  28.9042807  29.8624587  75.0885201  29.5502043  30.5365038  75.2998972
  29.4166160  29.1529822  74.7007227  24.5658588  33.2543874  78.9950132
  23.8501835  33.7995529  79.3218708  25.1801205  33.8751721  78.6031675
  23.4124494  15.9491658  77.1226835  24.2924118  16.3248038  77.1508598
  23.1082010  16.1184466  76.2310505  78.6648560  90.9440613  15.6690979
  78.6494589  91.5369797  16.4203942  78.4969854  91.5088844  14.9147558
   6.8469751  26.4108539  80.3073406   6.1844695  27.0943856  80.4078484
   6.4789492  25.8146381  79.6551800  23.0382729  48.2466698  88.8100147
  23.2865095  49.1083908  89.1447449  22.3159599  47.9697180  89.3737411
  32.6095033   8.2369423  81.1221409  33.5405397   8.3166212  80.9146309
  32.1622062   8.6166197  80.3658295   9.2804420  15.2955222  80.1126862
   8.7867528  14.5312452  80.4099751   8.6596906  15.7873559  79.5750952
  57.2753954  70.1776505  19.3324149  56.6684723  70.9093714  19.4440198
  57.8269625  70.2025652  20.1143289  15.5900037  29.9316788  66.3175488
  14.9875474  29.3430877  66.7723465  15.1352239  30.1603127  65.5069113
  76.2133360  70.2170563   3.1324357  75.6462240  69.4487858   3.1986228
  77.0247126  69.9539566   3.5668057  24.2457151  43.2544136  81.4346027
  23.3549929  43.2210159  81.7835140  24.1369891  43.1470776  80.4896832
  22.2835565  34.9227715  79.0377235  21.8609047  35.7759523  79.1361141
  22.1960449  34.7180653  78.1067753  31.1701751  31.0234523  84.4339943
  31.7369390  30.3341031  84.7801208  31.6639543  31.8316460  84.5726967
  26.9170427  16.4602339  89.7086048  26.2830019  17.0289171  90.1454353
  26.6230321  16.4285922  88.7982273  29.9153733   0.5090750  79.3959999
  30.2098179   1.2129302  78.8179684  29.1332364   0.8601585  79.8217154
  22.4210072  34.1188645  82.1088886  21.7741585  34.7377300  82.4477482
  22.3023820  34.1442990  81.1594105  73.9890909  90.0925922   9.3464577
  74.1884613  90.7984066   9.9615300  74.4619465  89.3346500   9.6902078
  15.6442773  32.3757792  84.6124268  14.8677742  32.9208946  84.7394085
  15.5209434  31.6398597  85.2119637 106.1062336  59.9315882  81.1314487
 106.5693092  60.7664347  81.0619831 105.8528423  59.7227097  80.2323437
  21.5520048  38.1248784  80.8097363  21.3578725  37.7098513  79.9693251
  20.6943870  38.3562469  81.1663818  35.3497696   1.9888477  88.3737469
  35.1187730   1.2113867  87.8653908  34.6546721   2.6174992  88.1791401
  33.6889172  28.4048581  78.0337238  34.5971847  28.3707929  78.3339262
  33.3727551  27.5059605  78.1245947  33.5423064  33.6981344  96.7682743
  33.8474727  33.6728024  97.6751709  34.0294504  32.9991221  96.3320351
  16.8837082  29.9678326  94.9223328  17.6363468  29.5497251  95.3406048
  16.1259174  29.4916296  95.2617645  53.2107544  45.7885647   3.2711178
  54.1072273  45.4632902   3.1888366  53.2948875  46.5976191   3.7756854
  13.3449709  51.7430496  80.2245426  13.6602712  51.3529015  79.4093132
  13.4172511  52.6868200  80.0820541 113.6446095  40.4432726  72.9320812
 113.3235168  39.9273491  72.1925211 113.1901836  40.0805140  73.6924362
  19.1088021  20.5995631  90.2913094  19.4191241  19.7225940  90.0657940
  18.2232296  20.4612327  90.6272507  30.6013250  11.8561184  64.2628002
  31.5055561  11.5998900  64.4443178  30.4307532  12.5777388  64.8681116
  21.7292762  44.3495560  82.4425697  21.2965822  44.8497677  81.7506218
  21.0236812  44.1143894  83.0451202  38.5756421  77.4982834   7.9894513
  38.2642937  78.4032631   7.9717898  38.8557482  77.3589754   8.8940865
  67.8843021  89.1145992  12.6251686  68.3615398  88.5073853  13.1906426
  68.2792759  89.9681854  12.8029919  57.8077173  68.6571217  42.0935583
  58.3530331  69.4437981  42.0944214  57.5952673  68.5119534  43.0155230
  31.7681050  39.1081309  89.3848324  32.3497558  39.8613501  89.4876862
  30.9693456  39.4726324  89.0035820  17.6233447  41.0899305  65.5762339
  18.2903254  41.4966154  65.0230837  18.0364823  41.0191011  66.4367771
  33.3812118   3.6620575  91.0596561  33.8820672   2.8878462  91.3165092
  32.7639890   3.7974134  91.7786407  24.7176170  26.5801692  90.4037857
  25.2821970  25.8173656  90.2788448  24.0439081  26.2819839  91.0148811
  25.9180331  32.9924393  72.4474669  25.8083558  32.9995060  73.3983374
  26.8622994  32.9070997  72.3159122  13.8237333  42.0863485  84.2688465
  14.3276787  42.5704670  84.9229813  13.5817182  42.7447367  83.6175537
  64.4690371  96.9907761  12.3263574  63.8239050  96.3844776  11.9624496
  64.9777079  96.4598274  12.9392028 113.0177689 110.2159786  81.6026211
 113.2246113 110.9825325  82.1372604 113.7788677 109.6436977  81.6998672
  21.1654282  44.2016220  87.1860027  20.6031060  44.1341305  87.9576683
  21.9849586  43.7830877  87.4495029  64.0095329  73.9094830  10.2742481
  63.6789799  73.5026646  11.0751653  64.7308016  74.4658518  10.5682826
  51.2521410  35.3467727  91.1219788  51.3666058  36.1219335  91.6717625
  51.2491989  35.6862116  90.2269936  22.2274232  16.0231769  74.5066118
  21.4130044  16.4719689  74.2795849  22.7328134  16.0182548  73.6937237
  41.1373901  17.0339179  94.5862198  41.5184879  17.2231817  93.7287998
  41.2502480  17.8444839  95.0826836  36.7950654  71.2131929  20.4191780
  36.6632032  71.2255383  19.4711852  37.1399498  70.3391314  20.6016636
  30.0758886  44.7610331  84.7331715  29.5318031  44.4203615  85.4432106
  30.9550762  44.4367743  84.9284172  40.7941294  50.7877827  84.3792725
  40.6874228  50.7149839  85.3277111  39.9001765  50.7894230  84.0370941
  50.6649542  78.6035109   1.7039390  50.9463549  77.7030134   1.5422373
  50.6937170  79.0216255   0.8433666  25.2166843  42.3287153  76.8536615
  25.1553845  42.0514393  77.7677679  24.5481968  41.8137455  76.4018202
  27.6035166  22.6726627  95.7518482  27.7295232  22.8174710  94.8140907
  28.3910799  22.2050810  96.0299492  17.6371098  43.7480593  73.2127285
  18.3192360  44.3927860  73.4005117  17.1851456  44.0947104  72.4434471
  26.1878204  39.0422964  95.5612850  26.3854122  38.7994385  96.4658356
  25.2830052  39.3533802  95.5890083  16.2932563  38.1288433  82.0606995
  15.9091485  39.0055752  82.0548248  15.9153628  37.7069545  82.8323460
  30.1625276  15.8389807  89.6748924  29.6735549  16.1572897  88.9160633
  29.7973871  16.3232279  90.4154396  20.1995349  28.0345488  87.0513535
  20.0857067  28.9739609  86.9071960  20.8297539  27.9770732  87.7695179
  60.8687973  96.6143036   7.4121851  60.8404350  96.4683914   8.3577728
  60.0281382  97.0238304   7.2077107  20.1666927  52.0278883  60.2472544
  19.6849561  51.7007256  61.0069418  19.5592272  51.9228077  59.5150137
  56.7887878  59.6356869   3.9778984  56.7669153  60.5895138   3.9006001
  56.0610008  59.4260740   4.5632315  61.1668968  85.5660820   7.8584987
  60.9515429  84.6716499   7.5942242  60.4985762  86.1074448   7.4383742
  54.7414351 102.5384998   2.7828166  54.8996210 102.1589661   1.9184279
  55.4994822 102.2728348   3.3034128  90.9804058 104.4384956  83.9179420
  91.1398888 105.3210735  83.5834885  91.2599277 104.4748688  84.8326969
  22.6271462  29.9471283  86.5271854  23.1877184  30.5707932  86.0656357
  21.7755842  30.0268698  86.0974026  65.7438087  91.2380981  20.3873181
  66.4783239  90.9974384  19.8226881  65.2972126  91.9396400  19.9133825
  20.1651144  15.4061162  94.7893143  21.1140323  15.3502250  94.9018383
  19.8606586  14.5022559  94.8704052  65.2404261  98.6080456  15.0513279
  66.1346054  98.2684612  15.0144148  64.9901628  98.5241699  15.9714162
   5.4083216  25.2655244  61.3114500   5.6999326  24.4034910  61.6082525
   5.3287971  25.1775455  60.3616238  81.2189770  79.4392490   8.7716568
  81.8625069  78.7311649   8.7450498  80.5200577  79.1498613   8.1851435
  22.3527932  39.9410391  86.4958668  22.6829886  39.0884662  86.2124634
  21.8549252  39.7526741  87.2914028  65.8718300  85.9319401  12.1136177
  65.2139807  86.3470364  12.6714432  65.5133295  86.0006142  11.2287474
  23.8881135   7.6492238  92.4768829  24.3397450   7.9813617  91.7010307
  24.5618868   7.1704602  92.9596329  18.5979772  29.5807433  76.6482258
  19.3928277  30.0247836  76.9436455  18.2686651  29.1347742  77.4285460
  69.6819735  92.2195911   2.6567522  69.0811110  91.5067291   2.8736028
  69.4757175  92.4386215   1.7480648  18.3104563  24.7958183  69.6333027
  18.2634699  25.6981993  69.9491072  17.5137341  24.3834519  69.9671030
  94.6867180  97.4832249  21.5762711  93.7561989  97.5197792  21.3548422
  95.1361656  97.5483036  20.7336593  29.2376614  23.3652830  93.2550144
  29.5414495  24.2655301  93.1388187  30.0109434  22.8276229  93.0841732
  34.7157264  24.7883964  86.4009476  34.6699858  23.9087582  86.0262871
  33.9920712  25.2615762  85.9902763  70.3818083  99.8047066   6.2123215
  69.6368170  99.4213676   6.6752189  71.1500025  99.4550228   6.6638023
  19.3423545  32.4415994  80.8655643  19.6904290  32.9694200  81.5842342
  19.6025884  31.5454483  81.0786915  86.2381077 110.8682919  94.0256405
  85.7374001 111.5051079  94.5355225  86.5132427 110.2120209  94.6658230
  35.2105522  25.1180816  76.0485268  34.6460819  25.2455306  75.2860594
  34.6170616  25.1719952  76.7975903 109.6280384 111.2742424  76.3866806
 110.0047588 111.4945698  75.5347586 108.7546921 111.6656971  76.3708353
  82.9974461 102.6083183  94.6259212  83.3535194 103.3410835  94.1234207
  83.6344719 102.4660206  95.3260517  24.4100595  21.8325067  70.2044296
  24.6319628  22.6471734  69.7535324  23.7358046  21.4312768  69.6561384
  57.6840544  67.1354866   7.3393309  57.3027945  67.2297668   6.4664137
  56.9337225  66.9795370   7.9128420  59.9788237  30.3641629  95.5091476
  59.4032431  30.7676125  96.1588955  60.8512926  30.6938028  95.7244968
   6.1113107  29.2617321  80.2833080   5.8702832  29.8606992  79.5766401
   5.3080660  29.1575241  80.7933712  12.2819948  26.2966514  89.7859192
  12.4629915  26.5132046  90.7005692  11.7371726  25.5108190  89.8291302
  16.2690139  48.6024284  91.1380577  15.6040454  49.0238523  91.6825390
  16.4437473  49.2347288  90.4409981  28.3525395  34.2796898  71.5204048
  28.5472059  34.8282528  70.7605267  28.6481643  33.4053612  71.2666607
  15.8153868  40.8400106  88.4662247  16.2185001  41.1256838  89.2860508
  14.8751652  40.8499193  88.6454296  10.3034198  10.0380731  84.6523952
  10.7738829  10.8579886  84.8028469   9.6660811   9.9933678  85.3651524
  47.1796560  76.7856836  11.8649554  47.6783419  76.8264198  12.6809728
  47.4162817  77.5878382  11.3993526  61.5450478  68.3835983  91.9172001
  61.1660194  67.5545216  92.2090816  60.7961893  68.8940048  91.6090870
  46.5790749  86.8075275  12.5831354  45.7106686  86.9412231  12.2033525
  46.8706942  85.9691715  12.2248650   4.2822245  20.0222492  49.9558258
   3.8315302  20.0653267  50.7991838   4.5958978  20.9141064  49.8060560
  29.3875051  39.9840379  88.3451557  29.0339184  39.7660041  87.4827957
  28.6179495  40.0451565  88.9110851  16.9690990  11.8583286  76.4273214
  17.2393286  11.2049747  77.0725632  17.7662051  12.0515692  75.9338522
  36.0023856  32.9183531  90.4131794  35.3487945  32.2985029  90.7369614
  35.4897642  33.6558318  90.0821590  69.8137903  88.0014801   5.6378865
  70.3996611  87.7896309   4.9111739  69.7835064  88.9581299   5.6500697
  21.8344045  31.7841291  83.1608105  22.0285726  32.5943184  82.6895046
  22.2228718  31.9115353  84.0263081  62.9706907  94.6531487  10.8454704
  62.8601694  94.1186333  11.6317964  63.8119555  94.3751812  10.4832006
  68.5703182  66.1842728   2.4657051  69.2448759  65.6314611   2.8601697
  68.7608242  67.0639277   2.7915028   3.1197146  41.9265318  75.5021191
   2.5406379  41.6407728  76.2086916   3.4280315  42.7892971  75.7792616
  52.5778723  68.6538458   2.9117391  52.1056461  68.5210943   3.7336960
  53.3933496  69.0830278   3.1706354   7.5219136  27.7983022  70.6545019
   7.6914746  27.6484990  69.7244263   7.9936767  27.0947957  71.1003160
  14.1686046  37.6468945  83.6653423  13.7598705  37.9233956  82.8451538
  14.0094304  38.3726239  84.2688465  18.5422957  19.0218031  75.4874277
  17.8765762  18.9655840  74.8019409  18.1006026  18.7081110  76.2765598
  15.1078737  25.2961636  82.4567413  15.9764361  24.9953532  82.7238464
  14.5012748  24.7636604  82.9712391  98.2534790 111.2021351  51.5489817
  98.7834072 110.7597923  52.2121096  97.3790359 110.8265400  51.6515112
  16.6912997  31.2322688  74.5329332  15.9871936  31.8155909  74.2497349
  16.5981555  31.1888361  75.4846001  36.5287709  26.6120028  83.6506748
  35.6472349  26.6585946  83.2805920  36.5590048  27.3255539  84.2879772
  49.3786621   5.7274473  67.0345497  49.5904827   6.6551203  66.9306850
  48.6811686   5.7129508  67.6899290  88.9117813  88.9230537   4.7186783
  88.2413578  89.2884445   5.2959615  88.4843159  88.8608456   3.8644901
  39.4672465  36.5067792  92.6647472  39.4567776  36.2177205  93.5771942
  38.9339089  37.3016071  92.6591587  67.2122622  95.1133728  20.9294796
  68.0737257  94.7613239  21.1534667  67.1553469  95.0202847  19.9785185
  16.2382329   5.9647214  75.6095457  15.4904830   5.8355963  75.0260830
  15.8552587   6.3056338  76.4178419  12.0100963   5.7022005  79.7323465
  11.0717142   5.6850010  79.9204302  12.3178673   4.8272508  79.9689341
  49.4683218  61.8568134  20.3442502  49.0575457  61.2601757  20.9699678
  50.3659344  61.5351105  20.2603769   6.2642395  36.6393137  81.6975403
   6.2325817  36.0082269  82.4165344   5.4306120  37.1065617  81.7520905
  11.2795305  15.2761555  83.4720993  11.6399264  15.7928991  84.1927338
  10.3518522  15.5109668  83.4495258  44.2007923  10.6739926  76.5308332
  43.5490751  10.9542012  77.1734715  44.9054909  11.3171315  76.6083145
  62.3923063  70.7365227   4.7004968  61.8412161  70.9771204   3.9557546
  62.4143171  71.5227318   5.2460444  13.1746161  12.2677827  90.4975128
  13.9833724  11.7557907  90.4944134  12.6523697  11.8949020  89.7872639
  31.2830138   3.5649407  74.8817587  31.7005038   3.2199198  75.6709957
  31.3815427   2.8670675  74.2340755   1.2428194   7.9112643  88.4298897
   0.8660644   8.7801313  88.2907581   0.8111158   7.3562121  87.7804470
  23.0089712  41.7272758  74.7044659  23.4098363  42.1241379  73.9311361
  22.7531672  40.8503962  74.4183254  52.5892448  84.3992138  15.7274163
  52.9313231  83.7271309  16.3169193  53.1765223  84.3765545  14.9718881
  87.2343349  94.6552944   3.1142631  86.7001152  94.1532421   3.7297150
  87.2981262  94.0954876   2.3404606   2.9103819  17.5833261  83.8862228
   2.3790583  16.9046140  83.4699631   2.5301901  17.6834857  84.7589588
  38.3739710  33.7285042  83.1226635  38.4807920  34.3867707  83.8093281
  37.4637270  33.4436274  83.2034874  73.8210535  85.2405167   8.5328197
  73.7118340  84.2896271   8.5433823  72.9281616  85.5844593   8.5587847
   1.1823860  54.8112535  95.3969288   2.0850119  54.9572754  95.1137733
   0.9243810  53.9972734  94.9643803  21.5303349  39.9341655  66.8291378
  21.2220407  39.1780734  66.3296223  21.7940640  40.5695486  66.1635780
  38.4806681  10.8666480  82.1593380  39.3376637  10.8445358  82.5851345
  37.9156494  10.3469920  82.7311230  34.6346879  15.9683931  75.0531721
  33.9028549  16.5667510  75.2035761  35.3202987  16.2745714  75.6468248
  24.9103165  30.1178646  74.6972179  25.5446792  30.1841474  73.9834785
  24.2368054  30.7622910  74.4796658   0.6652429  44.8402643  93.4437275
   1.3907012  44.2407274  93.2690907  -0.0592460  44.4986629  92.9196453
   0.9652133  44.3621111  80.9927368   0.6007724  44.8214531  81.7493248
   0.5071113  44.7378397  80.2409363  13.3694839  17.3085892  90.7386780
  13.3762205  16.4508367  90.3138828  12.4880695  17.3883533  91.1033344
  28.7591600  42.9332638  86.6993618  29.6998167  42.7704144  86.6295338
  28.3908510  42.5562382  85.9003448   4.9030697  15.6303990  84.2551899
   5.6692111  15.9025598  84.7603512   4.4601810  16.4490902  84.0319729
  24.3841290  26.6575456  84.2912865  24.9710608  27.3549080  83.9990044
  24.0454364  26.2746692  83.4820080   3.3084342  27.9461169  92.2147846
   3.5105103  28.1795049  93.1208324   3.2805279  28.7836719  91.7522335
  28.1014395  24.0327454  78.1149149  28.9260030  24.5172811  78.0754995
  28.0780888  23.6714101  79.0009880  30.3551865  52.7249670  88.9962864
  30.1954961  52.1770620  89.7647476  29.6926785  52.4484777  88.3631420
 117.4029636   0.8908120   5.9879458 118.1370926   0.2876082   5.8720350
 116.6394615   0.3223313   6.0885435  25.2126431  33.1445193  90.7947159
  24.4563890  33.6592054  91.0765171  25.2921486  33.3283758  89.8587132
   8.6103427  48.4563351  83.4807301   8.7898171  49.3919373  83.5738468
   8.3344847  48.1773138  84.3538094  39.7191095  49.9748135  93.3928680
  38.8525605  50.2316523  93.7080765  39.5664239  49.1653204  92.9053783
  34.4832802  62.8159857  95.0917816  35.2951264  62.8450203  95.5980301
  34.7239113  63.1638050  94.2330933  17.7127230  49.9333334  67.1274471
  17.1722865  50.5041742  66.5812826  17.5849664  49.0588856  66.7596722
  37.1006942  62.5819397  93.1200600  37.5103354  62.8221512  92.2889519
  37.5352502  61.7680168  93.3748531  11.7795730  77.3047495  83.1158733
  11.7712831  77.2413969  82.1608067  11.3378835  76.5090513  83.4125423
 104.4093800   4.8354745   2.0233132 105.2600956   4.8819968   1.5870322
 103.7745380   4.8045087   1.3075978  24.1169477  55.4203176  94.7952175
  24.6024728  55.1843786  94.0047550  24.1401529  54.6303749  95.3352928
  44.3157721  69.9256992  73.3344984  45.0290775  70.3849316  73.7778234
  43.6954212  69.7160530  74.0326738  32.1068740  54.3910837  90.0572777
  32.7294707  54.1236210  89.3812180  31.2987161  53.9287806  89.8350430
  58.0866098  90.7077217   5.7822567  58.5670996  89.9313354   5.4948694
  58.7679052  91.3392258   6.0130656  38.3376789  60.9279776  83.2897568
  37.9458499  60.8171368  84.1560268  38.3207965  61.8729782  83.1383896
  57.3313093  63.0450201  94.3987370  57.1592426  63.8878059  94.8186684
  56.5076971  62.8206158  93.9656830  28.2429647  42.5920296  93.4705257
  28.4025574  42.5488567  94.4133472  28.1173444  41.6804695  93.2068825
  26.8789101  32.2623610  75.3333855  27.4310827  31.4813018  75.2975273
  27.4881887  32.9783583  75.5132723  18.7716925  36.0856652  82.5593758
  18.1386566  35.6278944  82.0062542  19.0979791  36.7986512  82.0103550
  64.0303850 111.5716839  13.6196911  64.1505194 111.2678051  12.7199948
  63.2212639 111.1499119  13.9089334  32.0040298  61.1160994  92.0410156
  32.3118067  61.7606831  92.6782036  31.1071897  60.9204340  92.3123455
  30.4160881  54.2766762  84.0814590  30.5885696  54.3660116  85.0187492
  30.3290009  55.1765823  83.7671185   3.6759257  49.5067978  74.5545959
   3.8894191  50.0912380  75.2819729   3.6287960  48.6372328  74.9519300
  54.3581581  31.3336778  95.9988976  55.3067446  31.4359188  95.9216690
  53.9975595  31.9725823  95.3840733  23.3024001  48.5725260  95.2631092
  22.6382351  48.5238028  95.9506702  22.8236771  48.3908749  94.4543648
  94.2489052  92.9905224   2.1423951  93.6864758  92.6795197   1.4330435
  93.7663937  93.7220669   2.5274420  88.8913155   3.2693845   1.9161971
  89.6363258   3.5682368   2.4376166  88.4074116   4.0690050   1.7096169
  58.6071682  97.2904873  11.9304323  58.8786888  98.1029034  11.5032387
  58.6694431  97.4797821  12.8666604  24.1365314  50.9103107  76.3286734
  24.1988683  51.6377640  75.7096720  24.6966314  51.1696911  77.0602751
  91.6035175  11.1594701   9.5391321  91.2768936  10.5795157   8.8512391
  92.3975086  10.7299829   9.8575026   9.1873974   3.0341816   2.6458678
   8.4143758   3.4432393   3.0348933   8.8636112   2.2121742   2.2774956
  46.3868856  29.4150352  93.7824440  46.8781853  28.9115429  93.1333256
  46.8447161  29.2535520  94.6074009  14.8944831  56.4100933  80.0359058
  14.9335301  57.2832108  79.6455622  15.4042256  55.8591509  79.4418859
  36.8885326  49.1983557  80.3612328  35.9628654  49.0393639  80.5458736
  37.0270205  50.1142359  80.6025314  22.8547978  61.0122681  78.5507727
  23.6390400  60.7038641  78.0968094  23.1640315  61.2589931  79.4223976
  27.5273275  43.0610657  75.6410837  27.3764133  43.4501839  74.7796631
  26.7031336  42.6232719  75.8538532  23.2481670  36.4627695  88.2367802
  22.7420282  36.4868927  89.0488625  23.9479375  37.1018100  88.3716297
  94.5506477  16.0252273  28.0822754  94.1574097  15.7886553  27.2422600
  94.2212009  16.9059145  28.2613993  18.9066696  48.2084846  92.2076321
  19.3049347  48.8797140  91.6534901  17.9644942  48.3248901  92.0851994
  81.7096043  97.2321892   3.2242388  81.1507130  97.1067619   2.4573338
  81.1511040  97.6849651   3.8561440  22.3576689  18.6930025  94.8198605
  21.9280243  18.1247032  95.4591274  23.2670689  18.7406135  95.1147461
  59.5417166  92.9836369   6.1099750  59.0149593  93.7791157   6.1872220
  60.3710222  93.2033634   6.5344810  38.5319662  66.6716766  92.8857517
  39.1478133  67.3939800  92.7622986  38.8624191  65.9754848  92.3179913
  29.3993568  65.8708715  90.1882935  29.9726725  66.2945223  89.5495033
  29.7192025  64.9699926  90.2367878  72.9624414  99.7737122   9.9426538
  73.7796974 100.2669144   9.8714387  72.5554037 100.0992775  10.7454991
  62.7365541  77.8017473  10.7386065  62.3668480  78.3032656  11.4652634
  63.6782169  77.7904415  10.9100080  14.0261793  44.5291996  77.8623533
  13.8878047  45.4759359  77.8346205  13.3193314  44.1999912  78.4175301
  16.3584995  50.9657431  79.5504761  15.9003401  51.0558271  80.3860664
  16.0365880  50.1401186  79.1886044  39.7380328  79.5867634  77.5640106
  39.7950816  79.8583031  78.4801149  40.0324202  78.6759567  77.5653887
  70.9934473 109.6683788  -0.0505934  71.8988609 109.7123337  -0.3580407
  70.9606647 108.8759136   0.4852691  41.0224485  47.6608229  86.3654423
  41.7294693  47.6553631  85.7202053  41.1392689  46.8470144  86.8556499
  63.1289482  40.3485823  93.4531593  63.1210613  39.4232225  93.6978626
  62.8054762  40.3608894  92.5523567  33.0351329  56.1434603  63.4978151
  32.3011661  55.7163620  63.9395285  33.5267186  56.5646791  64.2029047
  97.8196049  88.0642605   4.4934082  97.9019165  88.8272858   5.0654620
  96.8758297  87.9466724   4.3852791  34.7793460  49.7783041  69.5813417
  35.6913280  49.8415089  69.8651075  34.8145890  49.9013948  68.6327457
  12.7821255  40.2222347  63.3434010  12.1864784  40.5875587  63.9975977
  12.4873662  39.3187451  63.2291174  47.6343536  65.1813650  67.1483755
  48.1756353  64.9525785  66.3927889  46.8628979  64.6203041  67.0690298
   0.6687901  63.4525537  78.2458925  -0.0560240  63.9699554  78.5968542
   0.4437364  63.3186960  77.3252058  86.1993122 102.3832512  11.7867327
  85.8314133 102.0369339  10.9737468  86.6522789 103.1840611  11.5226173
  42.0519400  56.6108465  86.9446373  41.5680122  55.9784412  86.4134979
  42.9669333  56.3419151  86.8628216  41.2080574  27.8015018  76.6551208
  42.1055603  27.8415728  76.9854355  41.0747337  26.8795061  76.4351606
  42.8539276  49.8516273  96.0347748  42.3878193  50.6119585  96.3824463
  42.4906254  49.7283840  95.1578140  50.1853657  48.3641958  82.6098251
  50.3527069  49.3019772  82.5160599  50.2864313  48.0132294  81.7250347
  30.7139874  51.4468765  64.3464756  31.1023021  50.7694817  63.7927771
  31.0725355  51.2785769  65.2178812  26.6109610  46.4079905  67.1952009
  26.6365147  46.4906454  68.1484842  26.5397501  47.3084784  66.8785381
  92.3228168   6.0772961   7.1602678  92.5070763   5.8571309   6.2471366
  91.5474892   5.5605328   7.3794872  45.5904484  54.2856073  75.7312489
  45.1853275  55.0584459  76.1247349  46.4588642  54.2404890  76.1313152
  40.9294605  30.5974555  90.4246426  40.5970478  31.4025426  90.0276947
  40.1435661  30.1062012  90.6639576  40.1218891  65.2190733  75.2692270
  40.1733351  65.8792925  74.5780659  40.3923368  64.4053793  74.8437929
  67.1505594  94.5248985   0.6699955  66.7245340  93.6765385   0.7925966
  67.2703743  94.8632050   1.5573627  22.4093032  59.3156290  91.8438530
  21.5121222  58.9888811  91.7765331  22.9556108  58.5337257  91.7638016
  49.3721867 111.4681816  23.4328604  48.8754654 111.3292599  22.6265097
  49.0722322 112.3179722  23.7555432  36.2758279  57.9885101  96.9797421
  36.0623097  58.9211607  96.9513226  35.6909871  57.6291323  97.6468563
  27.0800662  32.2469187  94.6625710  27.8045464  32.8351855  94.8754120
  27.1255040  32.1452022  93.7118816  77.5603628  80.4146194  18.5796511
  76.6241074  80.3641510  18.3870101  77.8544474  81.2082386  18.1325340
  40.3872681  54.9573898  84.5417786  39.6777225  54.3242693  84.6510220
  40.2719593  55.2955103  83.6537457  73.4920692  96.6614246   2.8392917
  72.7411079  96.7452526   2.2517036  74.2427588  96.5554619   2.2549364
 112.5672436  49.7852468  68.0615950 113.2022667  49.9771786  68.7516212
 113.0925465  49.4294214  67.3448849  32.1266985  72.3381853  89.0855598
  31.9323683  72.9971790  88.4190845  32.3506427  72.8454399  89.8658085
 100.5593586  10.9890044   5.8249015 100.4830265  11.0315037   6.7781061
 101.4967155  11.0828841   5.6552643  58.6373568  55.0768614  84.1111183
  58.2179308  55.7499599  84.6470737  58.1233025  54.2860556  84.2742252
  30.1581550  13.8975394  86.5773201  29.5225763  13.6154556  87.2351265
  30.9685183  13.4493840  86.8196011  41.4915657  46.1088276  93.3366108
  42.4307632  46.0855722  93.5199165  41.1042309  46.4992762  94.1200352
  35.0686884  56.9850254  82.0304775  34.1267920  57.1274948  81.9368458
  35.4376340  57.8649807  82.1065426  46.8017483  77.4129677  65.9102154
  47.5335979  77.6644802  65.3468609  46.0559988  77.3379087  65.3148556
  39.5032310  68.5524082  90.3061676  38.9498591  67.8211355  90.0318432
  40.3631353  68.3543396  89.9352741  20.8745098  38.6400914  94.3274021
  20.5480146  37.9688668  94.9266434  20.0870085  39.0848327  94.0139103
   9.6916807  46.1216259  80.7005119  10.2658892  46.6218853  80.1206303
   8.9310855  46.6878796  80.8312130   8.3644062  60.2301693  76.8160677
   8.4302431  60.0650454  75.8755207   7.4454892  60.4591656  76.9552946
  17.3487771  50.0994587  85.9945774  17.6458490  50.9692669  86.2618160
  16.3960111  50.1352406  86.0793591  59.0054321  96.7426300   4.7485620
  58.5131216  96.0027218   5.1040739  59.4669056  96.3817215   3.9915830
  47.3581648  48.2345819  87.9397488  47.0822287  47.3601484  88.2144451
  46.9926167  48.8203621  88.6026764  15.5754650  47.5963974  95.2037048
  15.6186461  47.9365492  96.0973835  15.0347793  48.2300377  94.7321129
  98.4776974   5.4750967  17.2537756  97.7744961   5.5977249  16.6160417
  98.2119274   6.0017604  18.0075836  76.3332272  99.4033909   6.1345923
  75.6760454  99.0197468   5.5539453  77.0049477  99.7442436   5.5439585
  62.8031349  36.4307976  77.2688293  62.1281910  35.8013749  77.0148325
  63.0260944  36.1927915  78.1687593  95.1572704  12.2498274  17.6867688
  95.7752609  12.3324835  16.9604897  94.6406937  11.4724672  17.4744105
  39.0467739  58.6080647  96.8933296  38.1484652  58.3316040  97.0745564
  38.9632034  59.5141697  96.5963078  39.1895747  35.6232476  85.1798153
  38.4303617  36.0875416  85.5323219  39.9393511  36.0163784  85.6264877
  56.6300869  92.3291683  12.7746761  56.9026423  93.2445526  12.8380084
  55.8115435  92.3567104  12.2792375  43.7779379  18.7704206  88.4216785
  44.6985388  18.8086712  88.6810303  43.4371805  19.6429741  88.6185741
  80.8006001  84.5141697   4.3176046  81.0327816  85.2363873   3.7338814
  79.9413776  84.2248249   4.0106043  23.0615211  22.5943279  84.8871994
  22.7392411  23.4953117  84.9115753  22.4634337  22.1420288  84.2922688
  16.1499357  50.8740044  73.0552864  15.4621053  50.2706385  72.7740908
  15.6835258  51.5697956  73.5185003   9.3402958  15.8937418   3.1746924
   9.2592257  16.3882673   3.9902312   9.5165324  16.5579331   2.5083429
  45.6742191  40.1141596  82.2939587  46.3030148  39.3925834  82.2807312
  46.2097216  40.9004688  82.1881866  76.7659235  79.5380354   5.9751362
  77.2218323  80.1429749   6.5603042  77.4625301  79.0057373   5.5909073
  37.0459318  59.0812111  81.6224575  36.6865659  59.6132183  80.9124851
  37.6228786  59.6772909  82.1000004  68.4859991  83.9927101   9.3168217
  68.0930471  84.1995621   8.4688634  69.0521717  84.7406387   9.5072770
  19.9790740  32.0404887  74.3840170  19.2905331  31.3984513  74.2110109
  19.6306455  32.8635597  74.0414095  48.8102770  73.5378742  80.1499844
  49.5321846  73.5423660  79.5214462  49.1425800  73.0338573  80.8928013
  39.3138599  57.9068422  89.6676922  40.1138163  57.4040174  89.8208714
  38.7596726  57.7112913  90.4232502  10.9978151  46.8521452  83.2058811
  11.4171350  47.4759483  82.6132011  10.0749588  47.1062469  83.2072258
  31.1485457  41.3916779  94.7296429  30.9035301  42.3081398  94.6019745
  30.3515148  40.9006310  94.5300293  25.5137014  42.6782751  84.8310089
  26.2122703  42.1242380  84.4827557  25.6091952  42.6151323  85.7813358
  31.0332823  46.4183950  93.4667301  30.9077072  45.5013704  93.2227421
  31.9386530  46.6095829  93.2218170  27.0379400  66.3453150  91.3035011
  27.9355240  66.0789967  91.1043739  26.6062641  66.3892174  90.4502869
  89.8693275 101.0686016   1.3071764  90.3197861 100.6772709   2.0556311
  89.5491886 101.9096661   1.6332895  22.2439957  45.8452034  85.0286674
  22.2926521  45.4861546  84.1426945  21.7085838  45.2165651  85.5127907
 111.2514305   4.1479886   3.0341661 111.2982750   4.9947110   2.5902075
 111.2384892   3.5058227   2.3244567  28.0517435  61.0954714  87.4575710
  28.1201649  60.1692247  87.2260094  27.1741247  61.1853027  87.8289795
  40.8207989  45.7964087  90.7730103  41.0794258  45.8089495  91.6945267
  41.5881348  46.1247826  90.3043938  12.5464702  64.7005701  86.0444641
  12.5118005  63.7531567  85.9124088  11.6290498  64.9721670  86.0728741
  38.8188672  54.2729521  87.8734207  39.2095661  54.2572498  88.7471104
  38.3713222  53.4303713  87.7960014  50.7136345  46.5298557  92.5708866
  49.9949455  47.1257925  92.7820110  50.3414583  45.6555223  92.6860142
  54.5591068  37.9491973  90.7898426  55.1076889  37.4536300  90.1818085
  54.4757748  38.8135886  90.3872013  36.0294747  50.7481146  93.6174965
  35.2982473  50.8455849  93.0075455  36.2450528  49.8160410  93.5859776
  29.0478754  53.8535881  95.5722427  29.8161292  53.8241482  96.1424637
  28.7321663  54.7545242  95.6420612  30.4405332  76.8919468  87.4092484
  30.6046867  77.8272629  87.5295448  29.5043421  76.8357515  87.2178841
  20.4941535  55.1766109  83.0209827  21.3956380  54.8829556  82.8893566
  20.5508375  56.1321306  83.0191994 114.6934414  14.6167839  10.0496995
 115.0975037  15.0906265  10.7766366 115.3220367  13.9278984   9.8339611
  71.8814230  63.6375237  93.5950661  72.4758291  63.8398170  94.3175507
  72.4565125  63.3571482  92.8831005 118.9869499   2.1973808   7.9193342
 118.4527206   1.9495410   8.6739236 118.4412956   1.9893804   7.1608913
  81.3206541 111.9232062  11.0122824  80.5583951 112.4546993  10.7826996
  81.2125408 111.7399233  11.9455290  35.9743929  65.4208755  90.5522823
  36.7110825  65.9854364  90.3181934  35.7883549  65.6364679  91.4661407
  35.5757499  56.7456722  60.6879759  36.3403463  56.1712265  60.7283688
  34.8870301  56.2599897  61.1418629  45.0214434  59.1543198  69.0064621
  44.4265461  59.2417192  68.2616901  44.6385574  59.7099876  69.6853304
  41.2944651  84.3291950  81.5541744  40.6758833  84.7069073  80.9289360
  42.1003819  84.8294163  81.4257050  19.7190714  71.5686560  78.8289261
  20.1221657  72.4351692  78.7750530  19.7544241  71.2319708  77.9335880
  49.0937853  55.4971361  79.3176651  49.9937201  55.7980442  79.4433641
  48.9382458  54.8960829  80.0462055  40.5921888  64.0716791  97.4443340
  41.1653423  63.3627415  97.1525574  40.5088663  64.6421766  96.6802502
  50.1442766  71.3045931  81.1435890  50.5614614  70.6521893  80.5809593
  50.8733845  71.7505217  81.5746212  30.2601290  55.9571600  92.8979683
  29.7473812  56.1784458  93.6753654  30.8358335  55.2481842  93.1845856
  44.4095469  57.6301575  71.5796471  43.9026356  57.7570772  70.7776737
  43.7912941  57.2338104  72.1935749  22.4129367  68.3241415  80.5102062
  21.5567040  68.1808186  80.1070309  22.6458025  69.2198610  80.2658844
  27.4364400  50.3130531  76.0205555  28.2734895  50.5311489  76.4304543
  26.8036032  50.8919716  76.4455318  17.9436612  52.7677488  86.4090061
  18.7384605  53.0295324  86.8737602  18.1560051  52.8900242  85.4837036
  49.5053625  57.9105377  92.7992439  49.9049664  58.6275911  93.2915783
  49.2980480  57.2514772  93.4617329  44.6164465  52.2505522  69.9172068
  44.6090317  53.1320715  70.2901649  44.6775675  51.6700315  70.6758165
  48.8916397  69.8013258  90.1267529  48.2001781  69.1448498  90.2112961
  49.5437098  69.5478678  90.7800484  59.2629862 109.6785069   9.5692199
  59.9805355 110.2599430   9.8208070  58.6188269 109.7757053  10.2705371
  13.8389874   9.6033216  24.0668702  14.4450343  10.1122332  24.6053386
  13.4950352   8.9351487  24.6597242  29.9289966  56.5164042  82.7505112
  29.5024610  56.6595840  81.9056416  29.3296647  56.9016695  83.3897305
  74.8709679  41.7804623  90.4670620  75.1790524  42.3413420  91.1789131
  75.1866055  40.9065390  90.6969738  37.5973654  53.0359459  68.2988787
  38.4614563  53.4473038  68.3178854  37.7797985  52.0981264  68.2401228
  75.8462858  18.3469546  80.0729370  76.2394142  18.5988677  79.2373371
  76.5522051  18.4513688  80.7109070  16.9230449  77.2840452  72.4305773
  16.3959980  76.9520378  71.7037868  16.3513994  77.9105473  72.8743649
  46.0753059  45.8971405  89.0480804  46.0621643  45.3352356  88.2732773
  46.2750053  45.3029728  89.7714901 109.1089249  23.6448932   2.5417918
 108.5865021  24.3806720   2.2225124 108.9988518  22.9661822   1.8758586
  31.1708283  49.4882107  88.0523872  30.3451538  49.8053932  88.4182930
  30.9909606  49.3736649  87.1192455  36.3949513  61.2054586  72.3213863
  35.7754850  61.4977455  71.6527605  36.1061287  61.6420937  73.1227350
 109.8676300  15.8561337   1.6908659 110.4355145  16.2244165   1.0140285
 109.7219276  16.5792894   2.3008224  53.6068583  80.1438904  85.3476238
  54.2642450  79.7607756  85.9284019  54.0810966  80.3263092  84.5364189
  45.9635639  52.8458071  90.3050900  45.5332184  53.3193970  89.5932293
  45.2434492  52.4937201  90.8282566  11.2608147  66.5956497  59.3228006
  10.9976435  67.3246098  59.8845768  10.6371999  66.6154337  58.5968924
  50.3285646  83.9905357  84.6547222  50.6917477  84.7939301  84.2820454
  49.7914600  84.2885303  85.3888512  63.6048222 112.0516014   3.1169847
  63.0591965 111.5085697   3.6858863  63.6590195 112.8933620   3.5694563
  47.8549099  63.3983946  75.2743959  48.3276653  64.0248251  75.8224106
  47.5780153  62.7111912  75.8804560  37.7984071  54.5670652  75.7386541
  37.8585362  54.9828053  76.5987587  38.6529255  54.7235441  75.3367281
  30.6290793  61.9145823  88.3160114  29.8221922  61.4719009  88.0529690
  30.7547832  62.5958490  87.6554775  15.9079051  71.5473080  76.7000914
  15.9047604  70.6199360  76.9371605  14.9831843  71.7704487  76.5936375
  44.1698265  60.6983089  85.9529400  44.8864079  60.3684855  86.4951134
  44.4471550  61.5785646  85.6990242 101.2111378  12.2055221  19.0129423
 101.5158558  12.6111901  19.8246157 102.0068073  12.0747316  18.4971499
  32.8762889  28.0313873   2.1298811  33.7204242  27.6209784   2.3175797
  32.3980975  27.9850912   2.9577842  92.5489140 106.8582153  19.1817343
  92.0428371 106.2961674  19.7684371  91.9006920 107.4481106  18.7969387
   6.9007701  17.6953077   7.4689561   5.9715962  17.5595868   7.2833538
   7.1899372  16.8706560   7.8595519  36.0120606  75.7986784  92.2310638
  36.4001560  76.5118647  92.7379990  35.3797340  75.3975296  92.8272820
   8.0562675  16.0805678  17.2626173   7.1509165  15.7842267  17.3561776
   8.3460701  15.7061803  16.4307046  82.8449059 104.8812675   6.3948709
  83.6095333 104.3342018   6.2151289  83.0410957 105.7149696   5.9674621
  23.3431625  61.1839628  70.0084639  23.3868194  62.0305061  70.4530859
  22.4147534  60.9516478  70.0263119  49.2223024  64.5457792  72.8795958
  49.2057610  63.8152218  72.2613382  48.7582874  64.2181063  73.6500216
  49.2826271  61.0839939  89.2682838  49.2879391  60.1294994  89.1965485
  48.3867931  61.2997198  89.5274639  25.5150294  61.6554880  88.5179996
  24.9435925  62.0699930  89.1644382  25.6464648  60.7670832  88.8491917
  12.6977396  19.2341673   0.5269874  12.0787978  19.0337980   1.2291235
  12.1473265  19.3874371  -0.2409883  38.7708831  50.4704762  68.4927368
  39.5438337  50.2958202  67.9558229  38.6576772  49.6763849  69.0150738
  19.1098547  59.7302580  85.0434685  19.7041523  59.1019773  85.4537201
  19.5922136  60.0549316  84.2831039  41.6123009  49.4672871  70.0711727
  40.9166002  48.8126230  70.1315498  41.4547491  50.0531912  70.8115292
  55.1025772  59.4629192  77.6715755  54.5510292  58.6837959  77.7422380
  55.9772539  59.1211653  77.4861670 114.6732616   2.2098678   4.6716619
 114.7858524   2.7612895   5.4459286 113.7310696   2.0465651   4.6288723
  60.8371258  64.5884848  86.8597698  60.4516459  63.7725496  87.1789646
  60.9220791  64.4597673  85.9150696  25.9502302   0.3310370   5.0340658
  25.8506475   0.7629084   5.8824778  26.0885415   1.0479808   4.4151255
  42.1655273  51.0475588  63.8748074  41.5005064  51.4459848  64.4362593
  41.6672087  50.5202007  63.2504654  51.9858646  63.3175135  83.0010223
  52.6881742  63.8182211  83.4160900  52.2880173  62.4098015  83.0324268
  42.3543739  63.3632612  81.2541676  42.1562433  63.0337906  82.1307659
  42.1076536  62.6478863  80.6679916  51.8874264  52.4608040  91.8813133
  52.4739408  52.6014137  92.6245880  51.3682270  51.6952229  92.1273899
  41.6225195  56.1181545  96.7867661  42.1973419  56.8452597  96.5477657
  42.0746279  55.6830311  97.5096130  33.7793994  58.0032635  87.8978920
  33.6466646  58.8399220  88.3435535  34.5973945  57.6649857  88.2621574
  47.0631409  72.0936537  70.6022692  47.1156931  72.2376204  71.5471220
  47.0678425  72.9734850  70.2253056  38.1485415  60.5975246  69.1879654
  38.9558220  61.0947895  69.3193340  37.4509859  61.2018681  69.4417667
  32.0517898  70.2214241  76.6487551  32.6207638  70.7311249  76.0719490
  31.4741635  69.7432184  76.0538626 118.6752510   8.6646819   2.1714358
 119.1412354   8.2207412   1.4629108 118.5161400   7.9789418   2.8200316
  53.4989071  56.2966442  64.2189026  54.2511129  56.0870695  64.7725248
  52.8338003  55.6538010  64.4651175  38.6026597  28.7347174  91.3357449
  38.4013963  29.0430117  90.4521847  38.3763838  27.8047442  91.3222790
  45.8245420  62.9036665  92.3079109  46.2483215  63.6615133  91.9050312
  46.5355206  62.2784376  92.4487305  59.8006535  63.3911657  77.9703951
  60.2808285  62.9017448  78.6383247  59.4637537  62.7196360  77.3772860
  46.8492079  57.2227764  85.4480076  46.3879538  57.3290539  84.6160316
  46.5781307  57.9777288  85.9702969  32.7572656  67.3768950  79.8689413
  32.0038390  67.3369837  79.2798853  32.4460554  67.8788996  80.6221771
  43.2946730  77.0821047  86.1938477  43.8173056  76.8015099  86.9450760
  43.6800385  76.6214514  85.4485130 114.8243237   4.2203796   6.8292308
 114.8092461   5.0441301   7.3165089 114.2623806   3.6328903   7.3345107
  77.2816229  71.9532347  96.1453152  77.4203825  72.8682995  96.3895035
  77.3212957  71.9518948  95.1889324  53.5057449  60.7119751  62.3962879
  53.0592966  61.3807774  62.9155397  54.0917730  60.2786255  63.0167866
  33.4105039  58.8865376  74.9622822  32.7999258  59.6236134  74.9745512
  33.5173059  58.6486435  75.8832788  51.5630960  51.2349558  83.1328106
  51.2789774  51.5915442  83.9744473  52.3354053  51.7513418  82.9023361
  86.8657207 102.0353127   4.0112928  87.8211212 102.0742702   4.0552044
  86.6787910 101.1863804   3.6105430  44.6000004  69.6937561  82.7965641
  44.2785549  68.8132715  82.9905987  43.8075829  70.2152443  82.6686573
  14.8181641  59.6953821  96.6699028  13.9399552  60.0656080  96.7588711
  14.6729922  58.7536383  96.5789413  60.3507853  59.4998503  93.8516903
  60.2125263  59.5411682  92.9054260  60.5700397  58.5837841  94.0219307
  39.1933513  64.8684216  70.1981783  38.6127090  64.8359346  70.9584618
  39.0943766  65.7580423  69.8590565  22.6628089  52.9382992  77.9225826
  23.4187126  53.3216476  77.4777365  22.2030544  53.6871958  78.3020782
  40.2963686  81.4919376  61.6310120  39.8418474  81.2464046  60.8251858
  39.8148084  81.0409927  62.3245382  31.8685985  85.0334835  64.7181606
  32.0473742  85.2550030  65.6320524  32.6901531  85.2163410  64.2622614
  14.7326040  58.0772972  84.9669075  14.6685648  58.9212418  84.5198154
  14.8714972  57.4434090  84.2632580  58.2917261  64.5698881  90.5299187
  59.0407705  64.8655128  90.0124550  58.5031986  63.6657953  90.7625771
  27.3957562 105.2613354  89.5453262  27.6835251 105.9146881  90.1829433
  27.0565248 104.5411491  90.0768280  85.0178242 102.7696705   6.1093640
  85.7381439 103.0726624   6.6621375  85.4359818 102.5249958   5.2838266
  51.9875431  63.4121132  59.7937298  51.6865444  64.3163919  59.7047758
  52.6402712  63.3077526  59.1014242   4.8112190  10.1525676   1.7196667
   3.8668540  10.0361729   1.6154628   5.0143564  10.9341621   1.2057830
 107.7925110   3.8532355   2.3064920 108.0714321   4.7659764   2.3795494
 107.2139454   3.8398865   1.5440468  19.1297567  47.1744347  55.1083469
  19.5105886  46.7744398  54.3265486  19.5592558  46.7290545  55.8386850
  43.9836168  70.9555674  70.7663536  44.8164988  71.3792181  70.5588484
  44.1862154  70.3757000  71.5004778  33.2812595  54.3240833  92.7235794
  32.9596782  54.6665764  91.8896008  34.1537905  53.9854431  92.5229549
  46.7350817  54.2339516  73.1801033  47.0015430  55.0860453  72.8348970
  46.2967825  54.4367695  74.0065336  57.7350569  70.4121447  92.9454708
  58.0644560  69.7243547  93.5239792  57.3250484  71.0450172  93.5350418
  54.2074394  96.9210625   3.4336662  53.4126806  97.1586514   2.9560226
  54.8698425  97.5351810   3.1169540  49.8724937  72.7414608  94.5472527
  49.2087126  73.2866859  94.1249275  50.6980944  73.1955862  94.3787575
  33.4451842  56.1378813  86.0808754  33.4551096  56.6396379  86.8959618
  33.3996463  56.8009233  85.3920078  51.9593477  54.4512129  85.4185963
  51.8391466  54.6423101  84.4884014  51.3486004  53.7361145  85.5970764
  33.8934445  53.6834860  88.0587006  34.5206165  54.2640829  87.6276588
  33.9248610  52.8749800  87.5472641  88.5695267  40.8865547  82.3195648
  89.0896797  41.6679430  82.5069141  88.2398224  40.6077957  83.1738663
  40.7745695  70.1933527  65.6249952  40.8446217  70.6981802  66.4352274
  41.1893415  70.7454872  64.9621630  45.4001141  67.6802444  80.2844334
  46.2257576  68.0660486  80.5771828  45.2781820  66.9177389  80.8500767
  23.1895423  38.2061529  83.8685894  23.6027169  38.0707169  83.0158424
  23.0598044  39.1528893  83.9242172  27.9009843  59.1265392  63.8011932
  28.7422848  58.6893034  63.9326000  27.6881337  59.4985580  64.6570683
  25.9912705  71.7000341  93.4685326  26.2226200  70.8672094  93.0572987
  26.3149595  71.6220903  94.3659687  54.4823170  69.2841148  83.2668591
  53.5699940  69.5496988  83.3824825  54.4456291  68.5736799  82.6264095
  13.0016506  67.0829201  69.1313171  13.1182075  67.5740528  69.9446058
  13.8888490  66.9709682  68.7898827 116.2133789  13.5040939   3.3785218
 116.8179226  12.8062904   3.1258804 116.3325596  14.1781425   2.7094287
  43.9225864  88.0326748  82.1029854  43.7255812  88.8700390  81.6831875
  43.0661917  87.6744175  82.3363876  30.0001931  77.5854301  71.7355442
  30.7267761  78.0029297  72.1981478  30.3856230  77.2722101  70.9172726
  51.3953781  43.6948729  89.6241570  51.4664078  42.7417994  89.5709133
  51.9224167  44.0155840  88.8923073  31.5018606  52.3011684  93.5538673
  31.7007589  51.8162680  94.3548298  32.2322083  52.9121304  93.4561539
  44.9419594  43.5592556  92.5538063  45.0203991  42.6932001  92.9538441
  44.5597935  43.3914757  91.6923904  39.5351458  66.2179470  86.7711735
  40.0631380  67.0162010  86.7867661  40.1690197  65.5093145  86.8819714
  19.4987988  64.6657705  73.1573009  19.4474673  63.7218428  73.3076286
  20.4214191  64.8270273  72.9598188   3.1652647  23.2269049   2.5996166
   2.7372330  23.6129785   1.8354395   3.3212426  23.9670563   3.1861973
   3.6776465   7.3907679   1.3591129   3.2845193   8.2633936   1.3447185
   3.1328553   6.8926609   1.9684765  48.5383606  58.7714243  78.1546783
  49.3414402  58.4210587  77.7692699  48.7414360  58.8677359  79.0851164
  31.6267133  69.5374250  65.6760406  31.0960531  70.3093958  65.4793406
  32.3465204  69.5747566  65.0461817   2.2962038  12.7119529   1.7790268
   3.2081679  13.0025005   1.7906529   1.8085846  13.4378374   2.1683222
  45.8130407  59.0000725  77.9871750  45.7334948  58.1592512  78.4376526
  46.7203236  59.0239620  77.6830435  21.1928558  48.8674879  80.1112461
  20.9589291  48.3773994  80.8994865  21.7405105  49.5852709  80.4292011
  35.5025697  66.5384054  92.9774189  36.3662529  66.8230200  93.2762146
  34.9270701  66.6928387  93.7265396 115.9282589  53.5193491  52.8838205
 115.0513077  53.1613016  53.0216312 116.5092564  52.7613544  52.9480076
  36.1487103  57.1125269  94.3580341  36.2935257  57.2992945  95.2855968
  35.1979160  57.0410347  94.2737007  50.6348324  61.9287062  74.9451399
  50.3243542  62.8202772  75.1030684  51.3361740  61.8025923  75.5842352
  50.4551840  52.0692253  85.5734158  50.2830076  51.5282011  86.3440514
  49.6238422  52.0819855  85.0991440   7.2370738  56.2249231  78.6001539
   7.6581061  56.0365343  77.7614212   7.4652404  57.1363068  78.7833214
  44.3023634  50.3543615  88.2172489  44.4210434  50.4353046  87.2708893
  44.2157507  51.2563229  88.5257912  34.4493079  66.2295771  62.4811077
  35.3256106  66.1147833  62.8487349  34.0272760  66.8631935  63.0613184
  45.5037498  72.2184753  92.6540089  45.5880117  71.2652779  92.6305580
  46.1075115  72.4954081  93.3432198  20.7654381  49.9206686  70.0780249
  19.8864424  49.5533276  69.9849796  21.2419987  49.2729282  70.5972099
  42.4752092  54.8013926  70.0098801  42.4971437  55.6760216  69.6215916
  43.3474922  54.6845055  70.3863001  41.4578915  79.0484095  85.6710815
  42.1157789  78.3540440  85.7067585  40.6821203  78.6246967  85.3038311
  13.1091321  68.2158375  71.6275167  13.6509562  68.9915037  71.7724371
  12.2553611  68.4484673  71.9924688 103.5417175  16.4742351   5.4900593
 103.8134670  17.1472204   4.8659772 104.3583202  16.0538769   5.7596886
  11.6625905   6.2093854   6.9850159  11.5407455   7.1575010   6.9353855
  11.0762000   5.9290034   7.6876992  33.9675307  69.9050045  96.4137363
  34.8167396  69.5454741  96.1571980  34.0800786  70.1539135  97.3311234
  89.9430943 108.3439064   2.7982408  90.5863857 108.9168453   3.2155418
  90.0476742 108.5088444   1.8611766  58.7210369  50.7436705  89.3618202
  58.5379171  50.3084946  90.1944733  58.5639334  50.0702381  88.6999702
  41.8934345  52.2940302  82.1795177  41.5007114  51.8483019  82.9300690
  41.2428856  52.2081137  81.4826393  49.9680042  71.0962677  50.1747990
  49.9068403  70.1973486  50.4979706  49.6756029  71.6354084  50.9096813
 116.8169975  15.9778345   2.0639719 116.8543243  16.8705821   1.7206915
 117.7189255  15.6620717   2.0086902  46.5071058  50.0747395  84.8704052
  45.5663776  50.2486897  84.8387718  46.8285656  50.6250763  85.5845547
  33.8254952  71.8896437  94.1423130  33.6967587  71.1243725  94.7026825
  34.4610143  71.6022778  93.4867477  20.1166272  72.1617317  88.6862564
  19.7982705  73.0643368  88.7001133  20.7586503  72.1232986  89.3951797
  62.1345043  40.4953003  90.9181118  62.8506517  41.0925961  90.7022285
  62.5595284  39.6466184  91.0419083  28.1434512  57.1045732  80.6246090
  27.3048759  57.5647640  80.6599903  28.6971164  57.6576710  80.0734615
 115.3512955   4.3119457   2.8235275 115.2339172   3.9963016   1.9275239
 114.9642086   3.6286646   3.3708140  25.2567482  53.7049913  71.6746330
  25.7253647  54.5349407  71.7630291  25.7093143  53.2487774  70.9652090
  36.6758013  85.6030560  78.5706711  37.0731068  85.1222420  77.8445816
  36.4730859  84.9304676  79.2208767 108.3694935  86.5000343  12.4836302
 108.0688477  87.0759773  13.1865752 108.5070324  87.0840454  11.7378128
  36.6339111  52.4441338  74.0932941  37.0564532  53.0225563  74.7282124
  36.5693474  52.9700041  73.2960987  42.8052330  74.2755699  61.6614532
  43.6474657  73.8269663  61.5864182  42.8591871  74.7490788  62.4915791
  41.6940069  87.9885292  89.5267963  42.1326494  88.3667278  88.7647057
  41.6792488  87.0475101  89.3521309  19.3449712  10.4824603   0.2939890
  20.2111959  10.8463848   0.1111122  19.4853187   9.8893052   1.0320283
  40.7954741  73.8185501  80.4956055  40.4494429  73.8926601  79.6062183
  40.8371639  72.8762579  80.6586361  53.0116701  48.5950947  79.1369295
  53.2840586  48.1365442  78.3420897  52.1420145  48.2446146  79.3295288
  47.6777935  43.6226368  96.3376617  48.6021280  43.6960268  96.1000633
  47.5297070  44.3439150  96.9492626  49.0922499  63.7408257  83.5593319
  48.8864040  63.3428812  82.7134609  50.0434875  63.8469791  83.5489464
  34.4835544  48.2409000  96.2984180  33.8059521  47.9560757  95.6852627
  34.1883445  47.9165506  97.1492290   6.2116492  29.8179793  19.9650848
   6.2628573  29.2897463  19.1684794   5.6558657  29.3086243  20.5549097
  43.4434414  29.2893624  93.3858871  43.2223082  30.2138281  93.4985542
  44.3680429  29.2331338  93.6271000  14.9928367  46.2663746  75.4864836
  15.3050971  46.4367437  74.5978355  14.8162007  45.3257465  75.5020714
  83.4554345 102.4269954   0.3289625  83.3301789 101.6319314  -0.1891211
  84.3867213 102.6283447   0.2373430  45.7094955  61.1436319  89.8704338
  45.8044624  60.5165911  90.5873966  45.7449913  62.0005751  90.2954388
  47.6300478  92.7156353   8.0152988  47.8909588  91.9072533   7.5740653
  46.7642450  92.9143906   7.6587725  76.9203377  31.8674135  84.1986942
  77.7908850  31.5019870  84.0410805  76.8176174  32.5403404  83.5257530
  46.2344217  50.4226732  68.8289070  46.0872459  49.7017670  69.4411707
  45.8880520  51.1933756  69.2786646  27.1229672  75.1823092  79.7209930
  26.8162656  74.4108248  79.2445660  26.9257522  74.9915695  80.6380272
  21.1393499  69.5009279  92.0256710  20.9642029  69.2357635  91.1227608
  21.4817572  70.3917122  91.9515705  40.6445217  59.2991304  70.8872557
  40.6586790  60.2229404  70.6370401  39.7838640  59.1722870  71.2865162
  10.2037060  32.6643252  71.2528563   9.9096429  31.7551899  71.1960077
  10.0139570  32.9214549  72.1551371  39.4851565  62.3099136  89.1644478
  40.0025702  61.6753149  89.6602249  38.7149119  62.4693203  89.7099209
  61.9478512  46.6088486  86.0546112  61.0154724  46.7094183  85.8628178
  62.3859072  47.1697664  85.4145241  58.1759024  48.6246586  75.9648752
  58.9665508  48.2012320  76.2992716  58.2406521  49.5291185  76.2714577
  24.2649913  97.2237873  88.8216019  23.9840937  96.5204620  89.4069767
  24.0397072  96.9106293  87.9455853  56.7911720  50.8763599  79.4888115
  56.2192583  50.6884289  78.7446117  56.6860628  50.1217222  80.0682163
  58.9331007  56.3863659  81.5830803  58.5430765  55.6868458  81.0588932
  59.0526533  55.9980059  82.4497509  60.6521225  40.2729225  96.0687923
  61.4371443  40.8031273  95.9314823  60.7068539  39.5871353  95.4032612
  24.2955637  82.0074272  74.5896149  23.6013913  82.6232147  74.8244905
  24.6515036  81.7161846  75.4290867  49.2421436  62.5858784  69.2275953
  48.3548403  62.3250055  68.9808702  49.1364431  63.4520006  69.6211576
  40.1806736  57.7661324  74.5722628  39.6986055  57.9796743  73.7733650
  40.3890276  56.8359804  74.4848871  33.8087630  53.3513117  77.6053333
  34.2864847  54.0872097  77.2226191  32.9697847  53.3447838  77.1445704
  88.5030270 101.0016918  12.2831321  88.6724281 101.6833401  11.6328275
  87.6413536 101.2188911  12.6388884  36.7756796  48.2564259  94.7494411
  37.4721074  48.2545042  95.4061127  35.9680867  48.3362675  95.2570343
  75.4022169 109.7637367  13.1599665  74.9451637 109.9860954  13.9710712
  74.7321987 109.8353577  12.4801290  34.3630075  48.4260702  92.4891567
  34.7458529  47.8377819  93.1399918  33.8139558  47.8591919  91.9474697
  49.0518761  59.5591974  74.4054461  49.1703987  58.7122536  74.8354101
  49.5921946  60.1637602  74.9141598  59.9897957  84.3467331  93.3671570
  59.7764778  84.4095993  92.4361515  60.7316494  84.9403286  93.4835052
  52.8127909 104.4097900  82.4526882  52.5842237 104.8419285  83.2756329
  53.6301136 104.8277950  82.1816063  31.1887789  30.7525992  11.1849380
  30.5713534  30.6689382  11.9115877  31.9647479  31.1549473  11.5750873
  97.3088264 107.2511578   2.0690161  97.6949215 107.5525951   1.2466424
  97.9316044 106.6058636   2.4036542  44.4631100  79.6816158  74.9992323
  45.1289225  79.7882175  75.6786203  43.8148022  79.0951872  75.3891468
  11.9577849   8.6005282   3.9004803  12.8654897   8.2972020   3.9176810
  11.9887877   9.4715655   4.2961633  50.4588604  79.0814018  93.0352020
  51.1143160  78.3932495  92.9209137  49.8736382  78.9818478  92.2843075
  26.9244385  68.9316320  79.9526548  27.3660636  68.0829048  79.9819613
  26.9144440  69.2279816  80.8627701  60.7933092  74.1139650  82.3716450
  61.2807560  73.4497261  81.8843937  60.8840275  74.9099493  81.8478012
  41.3341236  58.8420630  93.5723495  41.8940926  59.0578508  92.8266239
  41.0607433  57.9386616  93.4130859  57.9893255  85.8292866  79.5242786
  58.4343290  86.6531944  79.7227097  58.6154795  85.1515198  79.7788525
  28.1083846  85.7021332  76.9421291  27.7355790  85.0979710  76.3000822
  27.3483801  86.1179447  77.3492289  51.5953350  64.8245716  70.0462675
  52.0526695  64.7701597  69.2071533  50.7062578  65.0954485  69.8173571
  39.9787474  76.6742039  72.8840399  40.0180578  77.2979593  73.6090374
  39.2525959  76.9825220  72.3419333  48.0003119  78.6782265  70.4344606
  47.8302240  78.0959892  69.6939850  48.8166618  79.1231346  70.2067232
  44.2914629  72.6573801  77.5444269  44.4461298  71.7554808  77.2635508
  44.4431305  73.1823397  76.7585230  51.4543200  82.4252224  70.3782177
  50.9954166  81.6287994  70.1110888  50.8008337  83.1190968  70.2903605
   7.8291738  30.4605460  12.9062033   8.7674868  30.3748941  13.0749166
   7.5774515  31.2667775  13.3565986  52.9861164  74.7505331  88.4048080
  53.4120560  74.2116165  87.7381897  52.7991104  74.1429520  89.1204262
  41.0025883  92.7231503  81.4516640  41.8808699  93.0355072  81.2341976
  40.6853819  92.3188591  80.6440926  30.2936268  63.9122105  95.4282951
  31.1770201  64.0134621  95.7826900  30.4268622  63.7603617  94.4926548
   7.6145852  19.5283163   1.5578672   8.2229155  20.2540112   1.4181066
   7.3180926  19.6350098   2.4617147  72.3681402  74.3748856  92.2570705
  71.9679976  73.7570143  91.6452217  71.9580793  74.1775942  93.0991840
  53.9268732  75.4003143  93.2582474  54.6163511  75.0040436  92.7254963
  53.5896635  76.1161900  92.7196884  44.7360229  67.9302073  85.0889969
  44.5394468  68.7864780  85.4689884  43.9426279  67.4152088  85.2357388
 117.6274109  29.5123100  16.5785432 117.2883892  29.5040965  15.6834292
 118.5766888  29.4449902  16.4757514  56.4166594  76.4091873  81.2068272
  55.4661417  76.3496161  81.1109161  56.6465282  75.6743383  81.7754936
  58.3822393  73.3322906  86.2251663  57.4624634  73.4502506  85.9878254
  58.3592653  73.0480194  87.1388912  14.8515606  25.9170866   6.6342223
  14.1191924  25.9805918   6.0211670  15.6119370  26.2062073   6.1297745
  43.7317181  61.9248819  94.0146923  44.5410013  61.9223070  93.5035324
  43.5696602  62.8494883  94.2019749  37.4088812  80.1175594  72.8321838
  37.3609114  79.7018862  71.9712877  36.8558288  79.5729065  73.3922863
  16.8805373  31.4885235   6.6654950  17.6420283  31.3662076   6.0985720
  16.7346966  30.6284785   7.0595574  31.1237979  89.7369003  86.1713982
  32.0492387  89.5950794  85.9722137  31.1273885  90.2014446  87.0083046
  27.8222179  77.0108747  74.5766068  27.9143429  77.9525471  74.4317198
  26.8767452  76.8644714  74.6062517  44.6096992  82.3610878  90.9840202
  45.0526047  82.2648430  91.8271160  43.7908363  82.8102970  91.1935425
  31.2139058  92.2267628  76.3328791  31.7068052  91.4632988  76.0321951
  30.3860927  92.1810246  75.8544827  53.6393833  85.3933048  73.2979155
  54.2960215  85.6395149  73.9494038  53.8769627  84.5016289  73.0435419
  57.3831892  58.2781839  96.2243080  56.7266464  58.9367771  96.4511108
  58.1074476  58.4442854  96.8277073  50.0416231  66.6180801  91.3314819
  50.6147242  66.0525656  91.8491459  50.5252695  67.4401999  91.2512779
  56.7511892  63.3581066  88.5191059  56.7157602  62.5956631  89.0967369
  57.0819759  64.0641260  89.0744114  22.4740696  13.4207010   5.9716523
  22.7058005  14.1630840   5.4136199  23.1813860  13.3746397   6.6149360
  62.1890974 106.6436195  62.7332020  61.8662357 105.7426643  62.7495813
  63.1219101 106.5674496  62.9339218  59.6258497  83.5784340  90.9058189
  58.8470173  83.0567646  91.0995007  60.3594255  82.9970169  91.1059380
  73.0552149  67.5277376  95.5241203  72.2929811  67.3896170  96.0863972
  72.7196550  68.0375099  94.7867203  46.6816711  89.6812916  84.2453384
  46.9108915  88.8642979  83.8023758  47.1933651  89.6669388  85.0541592
  23.3394527  52.6501942  93.6029625  23.9060664  52.1934509  94.2247105
  22.7738690  51.9651842  93.2464409  51.9105291  72.7571774  89.8616219
  52.0062685  72.1101761  90.5605125  50.9651709  72.8297281  89.7302532
  68.9981365  53.1263542  87.4546719  68.4536886  53.3781147  88.2006073
  68.3781147  52.7863884  86.8095112  35.6414986  23.8407278  11.3619781
  36.2173343  24.6035838  11.3100505  35.4592586  23.7413669  12.2964013
  40.0010920  73.8007259  96.0681057  40.5698347  73.2870579  95.4946041
  39.3565083  74.1917992  95.4783630  54.1055822 101.1860561  71.6469383
  54.9271345 101.6757202  71.6079950  54.3159056 100.3345108  71.2637138
  42.0312119  67.9501867  89.2455673  42.4126720  68.7438154  89.6209145
  42.7717733  67.4947691  88.8450718  35.5802631  70.5814171  91.5983677
  35.2904081  71.0817957  90.8355904  36.5360260  70.6082106  91.5533161
  52.7283049  73.1216288  76.6350222  53.2583523  72.3861647  76.3278294
  52.5005150  73.6017275  75.8388758  52.8522921  69.8114204  76.5822077
  53.5017061  69.2189646  76.2034082  52.0100927  69.4595528  76.2939024
  47.1331978  99.3952274  78.7681103  47.3932695  98.9542675  79.5769024
  47.9402876  99.4532681  78.2567644  26.1330533  33.4610653   4.3584669
  26.7983127  33.0808258   3.7848127  25.3225517  33.0141020   4.1144514
  39.4285893  76.8290377  78.1701660  40.2841187  76.8948364  78.5943937
  39.3762064  75.9195232  77.8764486  56.0694647  82.2092915  79.9795151
  56.9915056  82.0379162  80.1710892  55.8374166  81.5582848  79.3172646
  73.3360004  79.4329691  83.9199257  73.3225679  78.6835003  84.5151997
  72.4130297  79.6460390  83.7822342  50.9282064  94.5645237  89.3129730
  50.1201963  95.0332260  89.5219326  51.6100788  95.2354050  89.3476868
  36.1861682  13.6548853   8.9036745  35.9227753  12.8135884   9.2766041
  35.3735042  14.1577339   8.8493347  42.9649496  46.6225243  89.4241619
  42.8713655  45.9175253  88.7834930  43.9074707  46.7840338  89.4666004
  33.3743382  93.3786297  85.5590439  33.4028411  92.8929615  84.7346878
  33.0711699  92.7390671  86.2034607  42.5774050  76.0636997  73.8595676
  43.2650280  75.6103754  73.3718157  41.8248081  76.0642529  73.2681036
  38.9634895  66.3451433  64.9296331  39.5155859  65.5646420  64.9769974
  39.4254351  66.9291401  64.3281460  53.1673956  63.6675739  97.2912502
  52.4270105  64.2713213  97.3509121  53.3962107  63.6602831  96.3618374
  68.5241270  90.0555515  88.1979084  68.5435724  90.1496124  87.2455311
  69.2864084  89.5132732  88.4006405  59.1206026  54.9054623  91.7658997
  59.5638084  54.0627480  91.8640709  58.2553577  54.7673512  92.1512699
  22.2898555  35.4659438  11.9686592  22.1963000  36.3132453  12.4040461
  22.9289222  34.9923253  12.5011158  53.8005304  60.9177065  79.9583006
  54.1233110  60.3752041  79.2387581  53.8958311  61.8161869  79.6422577
  34.1170764  81.6568375  85.0733662  33.9174080  80.7768440  84.7540474
  33.7931776  82.2399616  84.3868542  60.0833464  88.2987976  80.5898380
  60.6225872  88.7320232  81.2514782  60.0640821  88.9136314  79.8564625
  62.8583097 100.0634480  78.8325548  63.2783937 100.5339336  78.1125498
  63.3716774  99.2609978  78.9261246  54.2009592  99.8484516  88.8518906
  54.7781658 100.4648685  88.4012318  53.4130192  99.8176384  88.3092785
  48.6842155  94.7437382  86.5507221  48.9651871  95.3551579  87.2314930
  47.9094028  94.3172455  86.9167805  53.2429075  82.1693325  96.3875484
  52.7990198  81.5620899  95.7955647  54.1645718  81.9144535  96.3451862
   2.2255090   6.0690588   3.3658907   1.3921386   5.6920213   3.0838117
   2.1154054   6.2178749   4.3050197  63.6285162  83.5912704  80.2306271
  62.7851057  83.6292076  79.7795677  64.0659904  82.8264618  79.8565722
 119.2434061  15.2475989  14.6026516 119.5810049  14.6274722  13.9563537
 118.3607646  15.4559326  14.2964280  45.5896807  94.6056175  80.3932381
  45.7802343  93.8444424  79.8450327  46.1381006  95.3029633  80.0338173
  48.5198784  57.4806023  64.1232824  48.5141420  58.3525419  64.5181513
  48.2200623  57.6223278  63.2253647  74.8881531  89.7505093  92.5875664
  75.1498795  88.8436031  92.4287033  75.7054663  90.2468204  92.5438976
  35.0411367  80.8861446  93.1517124  34.1790462  81.2674046  92.9853630
  34.9290204  80.3832722  93.9584255  24.3058538  22.9036498   1.3200828
  25.0536418  23.4342003   1.5949745  23.5777307  23.2210207   1.8542591
   1.2650411  12.7333975  13.7183392   1.1467392  12.1057057  14.4312489
   1.0872349  12.2298872  12.9239249  75.4896402  85.2356815  82.3004723
  75.0372410  85.8062363  81.6791630  75.2538300  84.3491745  82.0270824
  59.0417624  80.9639549  88.9971828  59.7467232  80.9166718  89.6429634
  59.4121122  81.4714909  88.2750416  16.2025583  28.6161423   3.1283453
  15.2855420  28.7823653   2.9099786  16.6187167  28.4277368   2.2871873
  55.8447361  79.6635294  83.7425423  56.6814423  79.9770308  84.0858746
  55.9805059  79.6056271  82.7967930  63.2444096 102.3741055  76.5681267
  63.4329939 103.3105850  76.5074253  62.5321436 102.2323132  75.9445858
  58.6984825  86.8960857  82.9670238  59.0459538  87.3536110  82.2014046
  59.4475222  86.4152050  83.3190536  40.3328037  14.9504590   7.3676491
  39.4580865  14.9255717   6.9797301  40.9277916  14.9354410   6.6179830
  45.5009699  72.4726009  67.0544291  45.0067377  73.1499720  67.5160980
  45.5337667  72.7763414  66.1472940  45.0893021  73.8053036  75.3145313
  45.4053164  74.6275616  75.6890392  45.4042530  73.8171005  74.4107056
  98.4844303  18.3352232   9.4583511  97.7732754  18.8819003   9.7924745
  98.0769348  17.8037405   8.7744612   8.4280181   3.9525434  14.6453166
   7.7510118   4.6238756  14.5604181   9.2523718   4.4375312  14.6071088
  59.9370670  70.4196739  96.9919968  60.2941132  69.5513773  96.8054295
  60.2977514  70.9797192  96.3046265  61.0561419  69.9119949  77.9697132
  61.9863844  69.9103737  77.7441502  60.6254005  70.2977610  77.2069073
  24.9725437  37.0481229  27.7152872  25.8562088  36.6827178  27.6723027
  25.0450921  37.7787352  28.3294344  42.7924967  87.4216461  59.5981503
  43.4681797  87.8204346  60.1464701  42.2811365  88.1620407  59.2716980
  52.5101471  93.9526367  96.4277935  51.9271326  94.6444511  96.7403698
  52.0587873  93.1391239  96.6529751  20.1942801  27.1757150   7.2511715
  20.8412051  27.7505589   6.8421787  19.3596196  27.6273489   7.1262747
  57.1438360  76.4231730  89.8623276  57.9850674  76.1339951  90.2157879
  57.3742628  77.0633745  89.1890717  55.7781887  64.7005749  80.1853943
  54.9306297  64.2576027  80.2260399  56.0230780  64.6647167  79.2607450
  91.6127205  29.8550844   4.4910914  91.5445709  30.4018831   3.7084034
  91.1957932  30.3713202   5.1809537  51.8815470 106.6606522  96.8205357
  51.8243265 107.4503326  96.2826061  51.2505341 106.0572815  96.4281178
  38.2613444  77.9377222  86.7194939  37.9040051  78.8172054  86.8421650
  38.9660096  77.8734398  87.3641205  44.1816139  77.3190832  88.8582039
  45.0283146  77.2630501  88.4152699  44.3652630  77.7981806  89.6662617
   6.6008847  17.8252569  -0.1588515   5.7087128  17.6300684   0.1277753
   6.8548767  18.5923544   0.3542539  55.5080080  70.8547306  85.4658031
  55.1408434  70.6666803  84.6020508  55.5482912  70.0024509  85.8996582
  51.4393473  64.9712515  93.2200527  51.0120487  64.1364145  93.4116077
  52.2574615  64.9409342  93.7160301  27.7151036  72.5415564  81.0040855
  26.7991352  72.3702335  81.2229156  28.0891657  71.6751623  80.8438587
  42.0659399  75.4720545  97.3556614  42.8917027  75.5871534  96.8854523
  41.6280413  74.7540998  96.8984795  48.8577318  58.9277172  80.8638763
  48.4387016  59.0188074  81.7196465  49.7909880  58.8485956  81.0613728
  35.6486988  18.8727725  19.7079039  35.0403762  18.3937192  19.1451585
  36.3951612  18.2824981  19.8108697  61.3533640 107.5220871  94.9134541
  61.4877844 106.8596840  94.2356777  62.0804310 107.3926353  95.5224228
  45.4662466  71.5314007  84.9126053  45.1653194  71.0108614  84.1678143
  45.0406599  71.1321974  85.6713867 109.2784691  28.1383705   2.0841326
 109.2754650  28.4203863   1.1694247 109.7076321  28.8535047   2.5538450
 110.6944847   6.6364831   7.9132992 110.0129128   6.0139579   7.6599973
 111.4912128   6.2990260   7.5039458  11.7734849  60.6275320  87.7117825
  11.3631892  59.9040842  88.1856060  12.5062323  60.8928823  88.2675743
  91.9392681  10.2775311  79.0756989  91.4675713   9.9664909  78.3030558
  92.8614140  10.1205325  78.8726521  53.7545824 102.8803349  63.8361025
  53.7110567 103.6693859  63.2959747  52.9560328 102.9065704  64.3632317
  43.2797575  79.3073368  48.8666916  43.4943247  78.4594488  49.2556381
  44.0510130  79.8492670  49.0331650  52.2083807  73.0628490  81.5713310
  52.9694891  72.5018167  81.7203140  52.0006275  73.4190321  82.4351597
  44.1747618  56.9673586  76.1620283  43.6049891  56.2537241  76.4489317
  43.5830784  57.7082348  76.0307121   3.9567241  17.2699320  13.3041573
   3.8111129  16.5063882  13.8627529   3.0924460  17.6723123  13.2184517
  37.0357466  21.6225839   6.0463035  37.8807092  21.9067526   5.6977075
  36.6863751  21.0339069   5.3772521  60.6438351  20.1661539   0.7904029
  61.5888262  20.0159907   0.8163314  60.5454016  21.1028862   0.9609213
  42.7310181  69.0274668  69.1508436  42.3584175  69.7808504  68.6927891
  43.4832191  69.3829584  69.6241808  16.9591749   0.1283306   1.4826970
  16.3722456   0.8341683   1.2115160  16.5618050  -0.2203213   2.2806764
  50.9620905  79.4429636  85.6620121  50.6646681  80.0749493  85.0075150
  51.9171953  79.4708443  85.6051922  34.2323995  15.2680218  12.5365973
  33.5513306  15.7944465  12.9552329  34.9060154  15.9012401  12.2885907
  48.7694550 105.9729767  88.3514500  49.1286469 105.4575157  89.0736103
  47.8209352 105.8774757  88.4375954  12.4410284  84.6242237  92.1523857
  12.6032007  85.0986004  91.3369656  11.7683446  83.9819431  91.9261074
  63.1795597  75.7953119  92.2864819  63.1608295  74.8397446  92.3391342
  62.4239349  76.0784197  92.8013706  49.4595671  67.4524927  73.4386253
  49.2921305  66.5108442  73.4000015  49.6110773  67.6309538  74.3667555
  52.0618010  56.3283110  80.2547264  52.0693016  57.1087074  80.8089447
  52.1123075  56.6684532  79.3614244  82.0634842  66.2849140  93.9379406
  81.6924286  67.0753384  94.3300819  83.0026817  66.3499451  94.1109180
  24.1794109  33.7521029   0.6278673  24.5727921  33.4290981  -0.1827817
  24.7102785  34.5123744   0.8653587   9.5369768  21.5443325   1.9221091
   9.5970678  22.3316979   1.3811122   9.4745272  21.8739080   2.8186092
  47.0908213  67.6190615  75.6727076  46.2270403  67.4757051  76.0594416
  46.9849634  67.3753595  74.7531223 103.4808731  22.7362323   9.5831728
 102.7168846  22.7905393  10.1572883 104.1758442  23.1831717  10.0663805
  50.3681374  81.1489296  83.3944988  51.0126352  81.2199783  82.6903629
  50.2282476  82.0508194  83.6830521  51.9742727  81.6507626  81.3507271
  52.2665548  80.8825874  80.8601093  52.7827311  82.1036720  81.5905094
  52.5050545  48.6827755  90.7254124  51.8550014  48.4143162  90.0761032
  52.0039320  49.1719866  91.3779259  54.8294830  68.0317402  86.4900970
  55.6175804  67.4931860  86.4187336  54.1806364  67.5793743  85.9510326
  51.4036512  86.2874794  83.8240242  51.5300608  87.1462822  84.2273998
  52.1882820  86.1549091  83.2920265  49.8530865  67.6713085  86.4107704
  49.5198250  67.5360203  85.5237198  49.3751383  67.0373631  86.9454765
  55.8358717  73.9891434  84.1711998  55.5404711  74.8493862  83.8729572
  55.2671289  73.3690977  83.7147903  90.3548431 108.2340050  22.1604824
  91.0925579 108.7652683  21.8608451  89.9356365 107.9304409  21.3552880
  51.7611933  84.3722057  94.6420956  51.9588661  83.6973381  93.9927101
  52.4613810  85.0166035  94.5385933  22.7939653  79.1017675  94.0429401
  23.1819391  79.7119379  93.4157181  22.3505783  78.4499121  93.5000515
  48.4986067  52.3876524  83.6147213  47.7313471  52.6127768  83.0885410
  49.0116739  53.1950569  83.6477375  11.5746176  26.0903978   8.6270577
  11.8505013  25.1941490   8.4350711  10.7408166  25.9911060   9.0865654
  22.3281312  16.5148854   1.5392774  22.7213812  15.8250451   2.0737930
  23.0268955  17.1596003   1.4283405  48.6675835  79.5022345  82.0294571
  49.3110895  79.9957037  82.5380039  48.1375027  80.1728249  81.5986919
  59.1677284  68.7523890  94.4888115  59.8111916  68.0541277  94.6097183
  59.6834564  69.5586300  94.5041752  34.7912073  56.0922050  73.0535221
  35.2589178  56.2538195  72.2341585  35.1026058  56.7764425  73.6460447
  36.6744494  97.4903679  90.8067417  35.9225702  97.1298218  90.3367233
  36.7656517  96.9307232  91.5779209 114.6828938  31.7480755   4.3398181
 115.4557228  31.1868262   4.4027603 114.1325378  31.3248324   3.6808714
  51.1005020  87.8332901  87.4167824  51.5906525  87.4796009  86.6745663
  50.3612328  88.2927513  87.0185184  24.6978951  13.3191538   0.5858142
  24.5593023  13.5856819  -0.3230238  25.6430650  13.3955979   0.7163555
  69.8629475  94.2236996  89.7979164  70.2887201  94.4401455  90.6274414
  69.3430376  94.9989891  89.5861053  48.9879799  81.6320133  95.3744030
  48.0882406  81.7371941  95.6836605  49.4731617  82.3356819  95.8053017
  49.5222902  75.5390596  77.7936554  49.1729927  76.4295101  77.8299952
  48.7755966  74.9992752  77.5342131  61.3596582  22.7163410  10.9384477
  61.8243551  23.1050086  11.6795444  60.4635620  23.0428863  11.0197270
  36.8321609 101.4251518  88.1526375  36.5191960 102.2593498  88.5024834
  36.8432999 101.5523338  87.2039890  57.4120045 100.3719997  91.9975948
  56.7632771 100.9580231  92.3874283  56.9034386  99.8005104  91.4222813
  12.2853100  23.3181620   7.6542300  11.9683337  22.5585699   8.1428796
  11.8071604  23.2864642   6.8256164  78.1277657  91.3921833  79.7106552
  77.4852133  91.0085678  79.1138315  77.7303410  92.2158527  79.9932480
  59.0847826 106.1399078  95.1758385  59.8885870 106.6554260  95.1097107
  59.1395187 105.7199574  96.0342503  74.9579811 104.3760109  76.6376686
  75.1846695 104.0305519  75.7742453  74.4081211 103.6978912  77.0301485
 103.2892704   7.2809744  87.0526409 103.8021564   8.0271083  86.7420673
 102.8059196   6.9848967  86.2813187  41.8039989  31.1858892   8.7174416
  41.9854736  31.8304157   9.4014621  42.2181702  30.3816152   9.0302289
  50.1072645  88.4781361  91.1981487  50.7976484  88.5298157  90.5371475
  50.4154110  89.0381908  91.9106197  51.5963221 101.9044304  83.3427143
  51.7013264 102.5562763  82.6496696  52.0851755 102.2620201  84.0839100
  63.6931229  83.2987595  91.2805939  63.2071114  82.5437164  91.6121674
  63.0234194  83.8651276  90.8972454  74.8175478  69.4048834  88.0045986
  74.6577263  69.7933483  87.1444893  74.0730190  69.6860027  88.5364628
  57.5405169  93.6943531  82.5476265  57.7796793  93.0891800  83.2496166
  57.4436665  93.1382275  81.7746067  54.8332357 101.9214058  90.8783054
  54.5575905 102.6127720  90.2764130  54.7229910 101.1117840  90.3797150
 104.3053722  96.3527489  85.6917477 103.7497616  97.0665169  86.0049057
 103.7242222  95.8152962  85.1535606  34.7691464 111.0070610  90.0900269
  35.0061059 110.1717854  89.6870422  35.6014466 111.4689064  90.1910496
  65.2529335  81.0623169  94.7537231  65.5261040  81.1711216  95.6646442
  64.8232889  81.8884945  94.5322037  50.9185791 103.1932449  88.0575943
  50.7912636 103.3257866  87.1182060  50.0442219 103.2927704  88.4341908
  63.8327742  88.5100079  92.2700977  63.2184553  87.7939510  92.4316788
  63.2825899  89.2356300  91.9751358  68.1253195 109.7705078  89.7348499
  68.9970684 109.3884373  89.6332741  67.7149534 109.6623516  88.8768673
  65.2500248  86.7691708  89.5690155  65.7992983  87.5434399  89.6916485
  65.4377651  86.2193966  90.3297520  36.2296224  73.4107733  96.7187405
  35.6744123  74.1576767  96.9425869  36.6197753  73.6461306  95.8769417
  78.8135195 105.2017975  94.9553299  79.7454119 105.3933525  94.8499107
  78.3690596 105.9147930  94.4967079  46.7000866  82.9259109  96.0421753
  46.7359638  83.8639450  96.2293339  46.2633705  82.5460911  96.8045807
  83.3114719   1.8466398  87.3788643  83.9843464   1.4754382  86.8081760
  82.4891949   1.6847590  86.9163704 102.4851418  22.4152803   2.1179923
 102.3575401  22.2103071   1.1917454 102.3704624  21.5775752   2.5666887
  81.6882610  83.7053585  78.5259533  82.5359821  83.2719994  78.6249495
  81.6302872  83.9076900  77.5921822  39.5680690  83.3070469  67.6809406
  39.6991134  83.6669540  66.8037128  40.4519463  83.1223392  67.9985428
  85.7667065  15.0496411  94.2806625  85.1195335  15.5483902  94.7793102
  86.2824440  14.5940006  94.9459743  45.6607103  77.8703117  83.7461758
  44.9177694  78.3917475  83.4422302  46.0814190  78.4169197  84.4098377
  62.4781227  77.1674681  96.8974400  62.4266815  77.1450567  97.8529930
  62.0505190  77.9884434  96.6537476  22.0825076  16.8108559  10.9046948
  22.5329137  16.1851716  10.3373456  21.6420436  17.4082661  10.3002751
  29.0109730  36.5499091  22.9336333  29.0510488  37.0091128  22.0947313
  28.1130195  36.2223434  22.9847193  61.3196754  79.5195198  95.7808208
  61.6395330  79.6590090  94.8894882  60.6209230  78.8722277  95.6859875
  83.8074875  94.5867062  84.7464275  84.2198086  93.7229919  84.7614479
  83.6143684  94.7438812  83.8221836  26.4829564 103.7020779  91.5449429
  26.5359545 102.7561378  91.6813755  25.8442855 104.0019512  92.1917915
  99.3796730  96.9669247   5.2357662  99.1335106  96.1427784   5.6558102
 100.0029755  97.3677254   5.8416313  42.8784943 105.9840488  82.4720001
  42.6100969 106.8577671  82.7562904  42.3771381 105.8280563  81.6716671
  19.3430841  76.3650084  79.1364098  19.1837263  76.1101151  80.0451851
  18.7615597  75.8028650  78.6244917   1.9162858  30.2467012   1.4969820
   1.2868978  30.9461975   1.3214621   1.4667264  29.6692729   2.1139933
  74.2978144  83.3165169  94.5835781  73.4731960  83.2578373  94.1010857
  74.0335894  83.4193611  95.4978180  19.3790364  42.7833223   2.2094372
  18.7412250  43.4694815   2.4059549  19.7401834  42.5407124   3.0620471
  69.7537613 101.0583782  86.0643387  69.1349316 101.7376232  85.7961750
  70.5775356 101.5258789  86.2024403  61.6866779  86.1824226  80.9202290
  61.9730425  85.9221458  80.0447369  61.2762260  87.0378208  80.7935333
  21.9286251  23.9122176   2.7471986  22.2507286  24.0078902   3.6434841
  21.3241816  24.6451807   2.6303917  21.7943764  25.0313282   7.3824936
  21.4141965  25.9086585   7.4270403  21.1808681  24.5315003   6.8439656
   6.0267133  19.1045022   3.9723086   5.9050882  19.8911262   4.5039678
   5.2518958  19.0725064   3.4111798  79.2349529  67.4656773  88.4730434
  79.7950649  67.3526335  89.2409801  79.7403955  67.0924759  87.7509117
  74.6682215  65.9186506  87.2436047  75.4578638  65.8848667  86.7036533
  74.1339350  65.1878834  86.9325638  19.2698455  35.2789497   9.3958086
  18.4756267  35.5675435   9.8454344  19.2557824  35.7467437   8.5608208
  49.2589521  76.2179852  93.5473442  49.6832275  75.8596849  92.7677059
  48.3235598  76.1871624  93.3465385  15.0937104  18.1543124  16.3935065
  15.9940708  18.3196354  16.6732419  15.1732600  17.8803849  15.4797959
  55.1716614 106.2004471  80.8098316  55.5472851 106.6980267  80.0835037
  54.3256664 105.8972740  80.4802704  50.6446028  90.3935242  93.1043625
  50.1716280  89.9755192  93.8239479  50.7955837  91.2895012  93.4054756
  38.9185286 100.5472183  79.4132376  38.4503388 100.3203011  80.2166939
  39.6969819 101.0160732  79.7139359  32.8955889  36.8383455  30.7884169
  33.3610106  36.7331433  31.6182041  31.9774985  36.9389939  31.0398412
  95.8600426  91.3025475  90.6551552  94.9405479  91.2807465  90.3900242
  95.9297848  90.6305695  91.3332462  21.2656617  21.2626529   1.8790379
  20.3293467  21.1846352   2.0619515  21.5254927  22.0799017   2.3042729
  58.1559849  87.9221439  97.1523571  57.4769306  88.4948254  96.7957687
  58.3101177  87.2756481  96.4635086  59.3334341  96.1059856  94.8384094
  58.6921835  96.3699436  95.4982281  60.0328827  95.6857586  95.3388214
  29.7378087  51.9382000   8.7325323  30.5899954  51.5432262   8.9169443
  29.8853803  52.8795624   8.8235939  28.1456518 104.3605995  74.2752790
  28.7859368 103.8017559  73.8348818  27.6230407 104.7321320  73.5645866
  59.5330524 102.3714733  83.5484695  59.5125628 101.5148258  83.9750576
  59.4158316 102.1786690  82.6182461  12.2949135  33.1630921  12.5512111
  13.1491470  32.7331924  12.5099635  11.7430127  32.6569271  11.9550276
  67.9537821 104.8794460  74.3212414  68.8721228 104.7441673  74.0876007
  67.5975180 103.9958477  74.4137764  67.7715158  82.3358440  94.8542881
  67.7797556  81.9111347  93.9965057  67.2998190  83.1562996  94.7108078
  64.3586683  88.2465839  87.5584221  64.6340036  87.4805450  88.0620193
  65.1439095  88.5141850  87.0809078  36.3851500  87.6257706  74.3797684
  35.9678173  88.2046890  73.7418652  35.7759237  87.6037216  75.1177311
  25.6045771  42.7641630   1.6398151  26.1579537  42.4837685   2.3687778
  26.2029195  43.2162905   1.0450036  84.7272873  85.0252151  79.0034294
  84.0264320  85.4643822  79.4852686  85.0352764  84.3417168  79.5985794
  33.9370823  39.1004157   1.7371891  34.1517949  38.1814194   1.8971051
  34.3770099  39.5753598   2.4422592  20.9893394  55.3617287   2.1661313
  21.5744543  54.9969244   1.5022114  20.2282286  54.7812986   2.1596085
  55.2511835  76.4296484  86.9753075  54.9142265  75.6154203  87.3491096
  54.8250341  77.1204805  87.4826431  27.3485303  60.8475351   1.7243059
  28.0744219  61.4660168   1.6418633  27.7561951  60.0401545   2.0376322
  41.3495684  81.6643143  86.6664505  41.8623495  81.5706444  87.4692726
  41.2495708  80.7699203  86.3403988  71.8432808  73.5392714  86.7086697
  71.2896395  74.2340946  87.0649433  71.5188408  73.4075928  85.8178139
 105.0727940  28.9606380   0.7260702 105.4451466  29.6325827   0.1550429
 104.6754169  29.4511342   1.4456135  42.5415707  88.9678955  91.9989967
  42.1226263  88.5691166  91.2363052  42.7430010  89.8616219  91.7216587
  19.0040469  39.2040300   3.1626010  18.9804506  39.4582939   4.0851116
  18.9647424  40.0324821   2.6847389  28.5668373  82.9951954  66.7043495
  28.6982226  83.4955120  65.8989573  28.7647343  82.0911884  66.4597130
  33.4762025  47.2679853   8.6617875  32.8641343  46.6725397   9.0942830
  33.0483294  48.1232071   8.7036151  44.8576117  60.0050831  97.2241402
  45.6311703  59.9063444  96.6690826  45.1524448  60.5545950  97.9503250
  25.6658745  49.7971249   3.2081765  25.7112360  50.5350876   3.8161147
  25.1051903  49.1582966   3.6483592  92.3579311  88.1391144  79.0850973
  91.9729805  87.2941017  78.8527393  92.6408863  88.5112095  78.2498026
  44.4738054 106.0215664  70.9233761  44.4330597 106.0643196  71.8787527
  44.4147635 106.9339657  70.6400633  49.1790056  68.6289549  79.0816402
  48.8387489  69.4575787  78.7442398  48.6177683  67.9612732  78.6873674
   4.8053920  30.4353046  15.1996708   4.0631935  30.5495954  15.7932281
   4.4401526  30.5856729  14.3277633  51.3012075 108.5758781  81.3252449
  51.1169434 109.4725418  81.6050053  50.8895397 108.0272770  81.9929218
  32.4754500   8.2333326  10.6075358  32.4806142   7.3483717  10.2427745
  33.3486152   8.3421892  10.9843183  54.0799189  82.9589176  82.0616627
  54.7156143  82.5503254  81.4741421  54.6129036  83.4489727  82.6877594
  58.1931448  77.4691534  85.5441093  58.2504463  78.2708120  86.0639954
  57.4356985  77.0056152  85.9013748  55.6381512  85.0066185  80.3473091
  56.3944101  85.4732609  79.9915743  55.8374310  84.0817165  80.2021503
  82.6913166  90.6613159  76.9085503  82.2858334  91.3674736  77.4116898
  83.3848953  91.0913467  76.4082909  72.9368353  86.0488892  87.3905563
  73.1806517  85.9494686  86.4702797  72.6670361  86.9639015  87.4693394
  74.0308237  84.2377949  88.8397694  74.8309326  83.8974953  88.4394646
  73.7058830  84.8844528  88.2132912  47.1968651  89.3611717  75.4670715
  47.0597744  90.3074169  75.5123854  47.9411125  89.1989517  76.0467386
  66.4862204  89.8007202  92.9455853  66.0925055  90.6651592  92.8274155
  65.8612823  89.1961575  92.5453472  96.1421585  30.9978199   6.6240007
  95.4558563  30.6668758   6.0446101  96.9481087  30.9101772   6.1150837
  48.8844919  87.4858189  83.3488941  49.6155691  86.8682671  83.3689117
  49.0411806  88.0666828  84.0933895  23.0867410   9.1255671   5.8035630
  22.3793483   8.8871247   6.4027065  23.8879538   8.9148039   6.2830079
  95.2329922  91.8765450  62.2678566  95.8318615  91.7694283  63.0068541
  95.7232094  91.5505314  61.5131140  48.5178709  81.5961647  70.4292536
  48.2672977  81.1476040  71.2368631  49.0026999  80.9385490  69.9305487
 118.4415913  30.7110667  30.2005601 119.2206478  30.8072758  30.7483220
 117.9616642  29.9815965  30.5927110  49.3193579  37.2227383   0.4059870
  48.5382605  37.1777630   0.9574363  49.8266172  37.9492760   0.7680078
  14.5292175 110.6542492  89.6464443  14.6885872 109.7817898  89.2863655
  15.3977764 111.0526466  89.7022438  65.8341789  68.7498140  94.7850132
  66.4368439  68.1747866  95.2565765  65.8746672  68.4470177  93.8778687
  90.6748867  10.0640464  87.9482651  89.7902489   9.8422033  87.6576805
  90.6561947   9.9306816  88.8959503  27.3052239  39.8381495   7.8978771
  26.6723204  39.3880224   8.4573883  27.5762224  39.1760111   7.2619808
  40.7099628  66.1941051  -0.1092672  40.6144667  66.2112522   0.8430030
  41.5501690  66.6222668  -0.2734689  60.6618404  26.3926411  25.5318069
  60.1476574  26.9310784  24.9302006  60.6215286  26.8603778  26.3659692
  68.7143660  70.1254559  96.0887051  68.9076138  70.2645922  95.1616001
  69.5735741  70.0486183  96.5035534  38.9991617  45.8060265   5.7256120
  39.1203761  46.5237665   6.3472140  39.8799849  45.6190443   5.4009247
  65.1423216 106.1356735  77.7257538  64.7172213 105.7293224  76.9705105
  64.4274092 106.3100433  78.3378983  80.5422401  90.3211880  73.7859869
  80.5728436  89.5647621  74.3717432  80.1261520  91.0094166  74.3050766
  23.1146407  35.5922771   3.3480078  22.8907156  35.6154275   4.2783588
  22.6604652  36.3470554   2.9734880  61.2295914  83.0467129  78.9476204
  60.5804586  83.5697269  78.4771872  61.7502403  82.6344967  78.2582474
  67.5455332  66.6725826  95.7214546  67.9465055  65.8446026  95.4570675
  67.9581547  66.8817091  96.5594482  43.9706087  84.5503616  96.1128616
  44.2943335  85.4488468  96.1772823  43.1808090  84.6182251  95.5763626
  86.7324543  96.1045837  81.6883564  86.4386082  96.9909573  81.4780807
  86.4037609  95.5661774  80.9684277  72.6274681  82.6156902  90.6117153
  73.4827518  82.3250866  90.9283733  72.8286028  83.2937241  89.9666977
  71.1067104 102.4915409  94.1113567  70.8537436 102.6459599  95.0215149
  71.4225817 101.5880203  94.1005516  70.5387688  84.7484779  88.5858440
  70.8088779  85.3252506  87.8712749  69.7258186  84.3487358  88.2767296
  74.9346733  91.8827534  94.7212124  75.5324125  92.5854015  94.4658375
  74.8849535  91.3183594  93.9497089  62.1813440  81.0797405  84.8418045
  62.4187279  80.2259159  85.2035427  61.6931820  80.8746815  84.0443802
  77.7041197 103.9725971  79.6713352  78.2927561 103.5333729  80.2851868
  78.0418444 103.7388229  78.8067389  95.6111622   0.3357545  86.1751270
  95.4210854   1.2008363  86.5380764  94.7531986  -0.0778955  86.0800838
  22.1556163  29.3924761   6.3689381  22.4406886  29.7409892   7.2136301
  22.4622273  30.0348878   5.7289940 118.7793731  42.6699352   0.3239057
 119.2173004  42.9867506  -0.4660815 118.9588304  43.3408213   0.9826463
  76.4742994  91.9943714  91.2348080  76.5740347  92.4072266  92.0926189
  77.2803450  92.2145367  90.7678604  42.0409155  61.7908859  96.4332771
  42.6691580  61.8844938  95.7171917  42.5005960  61.2653065  97.0880222
  77.4856138  81.8538094  94.2789555  78.3229160  82.0687675  93.8679218
  77.3623991  82.5337505  94.9413109  56.0588932  87.4355984  82.1468735
  55.9675598  86.7853260  81.4504242  56.9657850  87.3468781  82.4399662
  58.1443739  83.6302280  84.6122456  58.2225084  82.9234314  83.9714909
  58.8872433  84.2047215  84.4269276  80.9493160  79.9935150  87.0935059
  81.0028553  80.8754063  86.7252254  81.7568684  79.8951578  87.5978947
  75.3609991  99.9863338  80.9498405  75.6700182  99.2592716  81.4903259
  74.8519325  99.5687962  80.2550411  62.0870304  91.7658901  90.8121586
  62.6723194  91.2724972  90.2375031  61.7237711  92.4519157  90.2521133
  55.0652552  88.6724281  85.2853870  54.8781157  88.6598015  86.2240314
  54.2281628  88.4623337  84.8714256  31.7797256  12.7703059   9.0830183
  31.7850637  12.5131989  10.0050271  32.0074558  13.6999750   9.0922898
  40.4726982 105.0329018  81.2429905  39.8502493 105.6905746  80.9327602
  40.4848003 105.1441860  82.1936226  25.3252387  29.8354626  11.3413787
  25.3738785  30.6927371  11.7644024  24.4050789  29.5828724  11.4171052
  42.1371078 108.7985802  81.6732121  42.0434666 109.6673012  81.2823391
  42.5023890 108.2586670  80.9722900  19.1634989  24.4895864   8.0554044
  18.8071394  23.6461043   7.7765197  19.4314384  24.9171329   7.2419894
  75.5004549 110.6427002  90.9280205  75.6415129 111.0441208  91.7854595
  75.4507113 111.3823891  90.3225327  80.0547695  82.3884487  90.4801559
  80.4478359  83.2125282  90.7675934  80.5913830  81.7108440  90.8914089
  73.7499189   7.4803704  92.1614075  74.0510798   7.0284986  91.3731575
  73.5223436   6.7764634  92.7688217  55.4067945  65.1186848  93.0446339
  55.8001518  65.8480597  93.5237026  54.8864365  65.5359411  92.3580742
  91.7923260  86.7332363  71.9039631  91.1473846  86.9967556  71.2475777
  92.6322937  87.0134926  71.5404367  68.1565428  96.4366531  86.2241936
  68.5453224  96.1261845  87.0419312  68.8059998  97.0408154  85.8644485
  61.2677336 100.4690742  81.0437965  61.9863844 100.3339291  81.6614628
  61.6327953 100.2226543  80.1939583  17.6479614  57.1027088  15.4604471
  17.8386450  58.0112171  15.2270353  16.8350124  57.1502352  15.9635234
  46.8721724  69.6186972   7.0016587  47.0257664  69.8611212   6.0884941
  47.5350571  70.1038551   7.4930197  23.3695769  15.4514968  84.0152073
  22.4254680  15.5785227  83.9216328  23.7435365  16.3209987  83.8725376
  78.9450693  96.3789558  70.9709406  79.2306519  95.5249977  71.2956572
  79.7151184  96.7370129  70.5292940 106.5738106   4.9551123  95.8865929
 106.0778236   4.6344525  95.1333332 107.3983669   4.4700232  95.8545208
  78.7848520  97.6813030  91.5965557  77.9839087  97.2762680  91.2638950
  78.7582159  98.5768127  91.2595177  78.9235640 110.1936817  85.8672523
  78.5572910 109.5580864  85.2523518  78.3280516 110.1728439  86.6163540
 109.3830204 102.7359867  84.9717712 108.5913563 102.4978638  84.4892788
 109.2528915 102.3639107  85.8440495  95.5559731  96.4367008  68.2201529
  96.4824200  96.5498447  68.0076981  95.4925346  95.5382156  68.5440922
 103.7841320  95.7114983  81.1684036 103.0200386  95.9549999  81.6909790
 103.9445400  96.4720821  80.6098270 105.6040287  13.6449444  76.3989878
 106.2840557  13.6970913  77.0706081 105.1704025  14.4977117  76.4304733
  84.4513798  94.7065735  88.3098888  83.8987446  95.3437042  87.8572273
  84.6466160  95.1152134  89.1531754  15.2478325  55.1118612  12.2673392
  15.0954616  55.8988523  11.7442119  14.8089874  54.4130945  11.7821908
   7.3090655  45.7588577   2.0550828   7.7956337  46.0212088   2.8365269
   7.2809744  44.8031235   2.1000564   9.0480703   6.7171794  61.2705231
   8.6438084   7.5229949  60.9488630   9.9463737   6.7521131  60.9417963
   6.5114075   2.9586175  78.6536741   6.9921154   2.1448946  78.8053513
   5.7842004   2.9266271  79.2752647   0.1319361  10.7204199  90.5874443
  -0.0159972  11.6594970  90.4757214   0.9255987  10.5413234  90.0832081
  69.9561882  79.9288273  93.0958557  70.6662416  80.5703831  93.0743885
  70.3988743  79.0843487  93.1801701  67.8128672  92.4468708  89.2846870
  68.6062717  92.9814053  89.2529392  68.0348015  91.6590786  88.7883377
  89.9826336   0.3457574  77.9426670  89.1707706   0.2313897  78.4366655
  90.5210686   0.9127910  78.4947443  84.6221638  87.0745659  76.2473249
  85.5548668  86.8855667  76.1444283  84.3395424  86.5038300  76.9618988
 111.0863590  20.9462118  81.4275169 111.1102581  21.6084790  82.1182156
 111.3118172  20.1287723  81.8715858 108.0318165  90.5744553  91.8607998
 107.7362251  89.6671200  91.9356060 107.5869656  90.9078026  91.0815525
  73.3290195 101.7590904  96.3846207  72.3882437 101.6985416  96.5504646
  73.6542225 102.3508930  97.0630360  60.4820728  96.5360832  89.8529053
  60.2027416  96.3986778  90.7580757  60.1484537  95.7731342  89.3808556
  58.7727070 109.0212631  84.5656776  58.7680435 109.7655106  85.1675892
  58.0250740 109.1755676  83.9882088  77.7789879 104.1350269  97.2210789
  78.0596447 104.6780300  96.4844608  78.3439445 103.3634853  97.1788120
  93.2972622  14.9754393  87.0095921  93.4329319  14.2443025  86.4068794
  93.1701756  15.7345426  86.4405155  72.9455805  92.5268936  83.6295795
  72.6477146  92.0731354  82.8411579  72.2633123  93.1748867  83.8051891
   1.0200682   3.0746251  51.5863943   1.9314152   2.9065859  51.3467264
   0.5261054   2.9036862  50.7845163  17.3156238  50.6666613   0.0413638
  17.9410839  50.0313997  -0.3071615  16.7038071  50.1419258   0.5576587
  73.5988283 108.2364082  84.9436378  73.9246416 107.8041744  85.7330990
  74.3688250 108.6652756  84.5702648  38.0694914  42.3177910  32.5443816
  38.1334496  42.2353172  31.5928864  38.0832171  43.2614136  32.7044606
  48.4802151  95.7301712  89.4291115  48.5928535  96.4895344  90.0008678
  47.5988674  95.8299541  89.0692425  63.9134741 110.0593090  91.8714428
  64.1610289 110.1729107  90.9538078  63.0854225 109.5802689  91.8385887
  75.8544111  96.9535828  85.1776505  75.8761787  96.8403912  86.1278915
  76.1696386  96.1194038  84.8297977  80.9467125 111.1175251  74.7094774
  81.2589073 112.0022392  74.8993301  80.1918697 111.2479305  74.1354990
  50.6225586  21.6747260   4.6056595  49.9476004  20.9990287   4.6696553
  51.2505865  21.4517546   5.2927524 116.1904716   0.5816836  70.1503325
 117.0382023   0.7192204  70.5730247 116.0379314  -0.3606740  70.2205086
  62.4507570 106.5513515  89.5663452  62.1063662 105.7402134  89.9400806
  63.3008051 106.3050652  89.2016792  44.5515871   6.9508088  14.7295678
  44.7927761   7.8591383  14.9112141  43.6587954   6.8684387  15.0647926
  77.7116585 106.9518852  86.1170578  77.5966978 106.0157871  86.2805939
  77.2042418 107.1203995  85.3231049   7.2067773  17.6866603  89.6711540
   7.2606319  18.6410713  89.7204399   8.0321586  17.4208069  89.2658138
  72.1275377 107.3751068  96.9067860  71.2100506 107.6195526  97.0280075
  72.2138214 106.5363598  97.3598766  77.9156637 107.3624134  75.6846237
  78.1582451 106.4883804  75.9903288  77.1853876 107.6189899  76.2477350
 113.1144714   9.5335364  95.1593781 113.9435101   9.8815417  94.8310184
 112.7886581   8.9807338  94.4491100  77.7150059 102.0171738  90.6376266
  77.6200914 102.3294449  91.5374660  77.7198744 101.0630703  90.7144547
  94.2162514 102.1566010  76.7162800  93.3434105 102.5405788  76.6329622
  94.3478870 102.0634937  77.6598024  16.2184823  74.6639204   5.7160074
  17.0665467  75.0756741   5.8817649  16.2331808  74.4526434   4.7825313
 103.7059212   4.5972875  83.3860970 103.9563942   5.4418397  83.0116272
 103.0523300   4.8144150  84.0508556   7.1400923  43.0416346   0.6686439
   7.7465743  42.7835560  -0.0254779   7.2664547  42.3849535   1.3535027
  94.3353462  91.7544651  74.7623348  94.1099644  91.2801552  75.5626202
  93.6966228  92.4659920  74.7176743  91.0203457  95.9214878  87.3164845
  90.0765514  96.0801792  87.3340416  91.2218189  95.7773399  86.3918972
  79.4350243 106.3794708  78.6587477  78.6244011 105.9836292  78.3386850
  80.1257420 105.7918549  78.3524132  37.2296834  97.7224731  87.6040936
  36.6127253  97.0432758  87.3315525  37.1470690  98.4030914  86.9361401
  82.2592926 105.7294083  91.2252712  81.4287281 106.1540413  91.4399338
  82.8316975 106.4466953  90.9531212  77.2085142  75.4445648  93.5929680
  76.7758179  75.2350855  92.7652550  77.3357296  76.3928127  93.5634708
  71.7670441  96.5284824  82.1504021  72.6593637  96.6994762  82.4516582
  71.6271448  97.1603394  81.4451218  99.4577789  15.5298340  87.3161316
  98.6109447  15.4620385  86.8750954  99.4013977  16.3421214  87.8193569
 103.3372116  10.7427609  90.5667973 103.0124664  11.2431216  89.8181915
 104.2811298  10.9016526  90.5697823  73.3882809 110.8029938  74.9378300
  73.1092930 110.5123425  75.8061171  74.0414715 110.1575851  74.6676207
  61.1737149 112.2376461  91.5936947  60.3646081 112.1552776  91.0889149
  61.0104459 111.7347885  92.3916340  89.8013687 104.8570347  76.0647488
  89.5896149 105.7357693  76.3797426  88.9890671 104.3620872  76.1716175
  15.4730451  10.4321301  90.2954197  16.3955259  10.6872177  90.2815819
  15.3915131   9.8700106  91.0658741  61.5197659  70.8440542  94.6674061
  61.4339304  71.7582941  94.3971634  62.4626064  70.6791115  94.6582890
  95.7874298 102.3795891  65.4213142  94.9502277 102.5792694  65.0024366
  96.3309956 102.0296478  64.7154093  31.1428261   4.0396658  72.1502352
  30.7798290   3.1744647  71.9607830  30.5390787   4.6504915  71.7276096
  71.5777302 111.0082912  85.0881767  72.1070576 110.2110767  85.0656223
  71.5673399 111.3146305  84.1813850 100.8745384  93.8004398  90.2715302
 100.8097363  94.3134594  91.0770416  99.9661255  93.6384201  90.0170231
 109.0482330   7.8816795  87.3541832 108.6742783   8.3871090  88.0759430
 109.9130917   7.6185775  87.6688862  80.9548569  81.9039440  94.3227482
  80.5006981  82.7101135  94.5678139  80.6435394  81.2529850  94.9516964
  86.6731644  81.0266018  86.3350391  85.9996796  81.5224552  86.8006325
  86.3316822  80.1330566  86.3002968 117.8695965   4.4323114  78.2006741
 118.0217743   4.6359685  77.2778511 117.4901867   3.5535517  78.1926107
  88.1451035 103.0823231  56.8974304  88.2318687 103.3799744  55.9918308
  87.4059772 102.4743557  56.8799448  98.4625912 108.4794331  84.4899464
  98.8691521 107.8339005  85.0680733  98.4037304 108.0384731  83.6424065
  14.7174311   0.3594871  82.8120327  15.0786364   0.6393833  83.6531162
  15.4726219   0.3311487  82.2245693  89.9348450  88.1136513  87.8600597
  89.9426365  89.0355873  88.1173515  89.4255447  88.0953979  87.0498085
  11.3196003  53.5528135   0.1652038  12.0117664  54.0328550  -0.2894364
  11.2564397  53.9768410   1.0210330  48.3640623 107.9600906  60.7438421
  49.1475296 108.5074425  60.6907320  47.8072834 108.2688522  60.0290680
  85.7789135  94.7825527  79.4705153  85.1840210  95.4089165  79.0582132
  86.5448761  94.7662830  78.8966894   3.8233170   1.6168858  69.0751362
   3.9123130   2.3694661  68.4903860   4.6790108   1.1888628  69.0465641
  56.9198275  96.4608955  54.8410463  57.1495152  95.5404854  54.7133493
  57.0781422  96.8676758  53.9891672  66.0088348 102.3812294  84.9431515
  66.8476534 102.7316284  84.6434212  65.4333878 103.1446934  84.9901295
  70.5578852 104.4429398  85.7766533  70.9309959 104.5173454  84.8983097
  71.2710238 104.6975613  86.3621712  92.3717403   1.6127273  82.1909904
  92.3288631   0.7172120  82.5263214  91.8253136   1.6006443  81.4051628
  11.9831073  27.3249388  92.7500820  11.0451400  27.1360517  92.7778435
  12.0338190  28.2535601  92.5235367  69.9853516  97.4214172  80.0769520
  70.4417419  96.6953659  79.6517515  70.6416416  98.1157970  80.1348782
   4.6093962   2.9888433  80.8036804   4.9182788   2.9127797  81.7064762
   3.7713736   3.4458649  80.8749580  86.2054062  92.8799438  84.1761398
  87.1084023  93.1178474  83.9658546  85.7841778  92.7624893  83.3246613
  21.8477607  40.2904081  20.1687622  21.6092944  40.7405949  20.9791327
  21.0462213  39.8420453  19.8990655 106.1136818 105.4137516  80.5936337
 106.3486862 106.2422276  81.0115337 106.9531536 105.0097466  80.3738880
   9.8333317  14.3388104  70.6429482   9.9739426  13.9634168  69.7737312
  10.4649436  13.8881660  71.2034988  13.8666248  46.1239529  23.5555673
  13.8380766  46.6785622  22.7759361  13.7971818  46.7364359  24.2878747
  84.8592949 105.6815434  75.5196476  84.3674088 105.3804302  74.7557020
  84.2049313 106.1079884  76.0729885 104.2225742   4.5881948  88.2891846
 104.4423294   4.1142887  87.4870968 103.5615444   5.2250177  88.0176449
  88.6622810  91.8691730  95.1933002  87.8176498  91.6662979  94.7912121
  88.4418297  92.3998260  95.9588242  60.7408094  72.5852966  84.8847485
  60.1893234  72.8931284  85.6040096  60.6552362  73.2603168  84.2115021
  65.2244949 105.7008743  66.5317106  65.7568169 106.0369301  67.2527695
  64.4160986 105.4034710  66.9491768   4.7723809   4.7921720  94.1064072
   4.0894926   5.3818786  93.7868118   4.9856016   4.2418814  93.3527851
  88.2608223   9.9572062  81.9586658  88.5553646  10.4484153  81.1917305
  87.4286556  10.3646195  82.1989441  44.5948839  85.4376698  77.0237303
  43.6735249  85.6873417  76.9530725  45.0757599  86.2517643  76.8746233
  38.4646511  54.2605877  17.3942125  37.9494476  53.9759064  18.1490326
  39.0826178  54.8977137  17.7525687   0.9424043   8.0530739  67.0991898
   1.2604700   7.6857561  67.9238987   1.7029978   8.0319005  66.5184307
  78.7967682 103.3520412  88.4612846  78.5986996 102.7842331  89.2059994
  78.7884474 104.2370129  88.8259697  95.2733326 104.6577358  85.7277584
  94.7935390 103.8302612  85.6915665  95.1224804 105.0596905  84.8722363
  32.4813151  30.6890225   1.6310140  33.4226274  30.8328152   1.5335950
  32.3828220  29.7369099   1.6273147  77.0908070 110.7513523  65.6773233
  77.9634190 111.1408520  65.7326984  76.9811010 110.2902985  66.5089703
  65.5249405  89.9364662  95.7872391  65.7902288  89.8738003  94.8696709
  66.3488960  89.9839306  96.2720776  95.7256603 104.7630119  82.8968239
  95.1020622 104.1594410  82.4930286  95.3363800 105.6285286  82.7720547
  78.0834579 110.6728268  81.9122791  78.6848688 111.2930584  82.3243904
  77.2129822 110.9750080  82.1714878 117.3999310   7.7524221  88.0620480
 117.5400352   7.2775441  88.8812542 117.8128529   7.2049552  87.3942089
  52.6375484  38.8186097   7.9229122  53.5479784  38.7260532   7.6422387
  52.4645281  38.0307841   8.4383017  60.0683069  94.2035007  79.5766973
  60.7745790  93.8937092  79.0097427  59.9662161  95.1275921  79.3489504
   2.9825515   8.6434215  73.7397528   2.7961296   9.5518470  73.5026026
   2.7290618   8.1374878  72.9677391  45.4966307  87.6646519  79.7190046
  45.5917358  88.4452438  79.1732359  44.7520113  87.8595161  80.2880383
 104.9858856   4.0305123  68.6043501 104.3280506   4.1859549  69.2820835
 105.0695133   3.0777535  68.5657740  53.5392952 103.4356880  88.9161015
  52.6076889 103.2439995  88.8083839  53.5603189 104.3062973  89.3133736
  27.0258594  51.0055256  13.7818265  26.6175842  51.3400650  14.5803416
  27.4667883  50.2016973  14.0569234 107.8831291  52.0480728  26.8497133
 107.3342133  52.2309828  26.0871720 107.4664116  52.5279570  27.5654531
  61.5711689  42.8672981  21.2846589  61.4130020  42.4216652  20.4524183
  62.4426603  43.2514238  21.1888170  68.5168743 106.1004543  96.3686848
  69.1837740 106.5542603  96.8839836  68.7525034 106.2820530  95.4588890
  84.9436474  87.7358913  97.2406101  84.3281651  87.5138092  97.9392529
  84.5879650  87.3064423  96.4626026  52.9178572  97.8115845  86.5512848
  53.1591558  97.0544052  86.0177231  52.8675699  97.4694061  87.4438190
  72.7785873 105.5242920  50.1223373  73.3284807 104.8108387  49.7985792
  73.0896521 106.2983704  49.6530008  70.1817846 100.7532692  82.7858257
  71.0023069 100.2627277  82.7373505  70.3376675 101.4147758  83.4598732
  40.1538610  13.3980763   4.2572427  40.7914734  13.6909246   3.6061528
  39.4637108  14.0608501   4.2315993  52.0493126  61.9508791   1.7909858
  52.4910307  62.4981594   2.4402946  52.7347946  61.3697481   1.4613891
  65.9371996 105.8575916  92.3085117  66.3051939 106.6479206  91.9133091
  65.8978081 106.0539055  93.2445335  70.9660006 107.1519661  72.4975872
  71.4157724 107.9949570  72.5549984  71.4851713 106.5655327  73.0478525
  72.2104406 108.8676929  69.9198914  72.4481535 108.3280754  70.6739092
  72.2700071 109.7674656  70.2409887 102.3553562   7.0384324  66.0015821
 101.7769814   6.6826677  66.6762257 102.3435020   6.3817251  65.3052902
   8.8162458  45.1277304  15.9911585   8.1618643  45.0845432  15.2939129
   9.6066624  45.4502106  15.5581701  79.1769743  93.7378597  84.8436737
  78.9002466  93.1405640  85.5385780  80.0214005  94.0765285  85.1411247
  68.3366966 107.7418900  73.2898426  67.9830694 107.0575619  73.8580608
  69.2270899 107.4519920  73.0913734   6.6974998  48.1793833  27.1557140
   5.8336264  47.9037476  26.8491507   6.5924251  48.2893896  28.1007481
  79.4952726  89.5086098  84.2383575  79.1013098  88.6987114  83.9141750
  79.3272114  90.1498318  83.5478306  84.8381329 101.9336319  73.0075073
  84.9917698 102.2608185  72.1211767  84.7230816 100.9897327  72.8977919
  88.3739471 101.5003109  94.4335270  87.6669979 101.0529041  94.8985767
  89.1718769 101.0673523  94.7369766  55.5844831  76.9117594  84.1448402
  55.9717941  77.7858543  84.0981483  55.5665064  76.7073774  85.0797844
  88.8360119  99.0336990  91.7493057  89.5894527  99.0792656  91.1606693
  88.1324673  99.4738770  91.2723351 116.3813019  18.2258511  73.8396502
 115.7534409  18.9232028  74.0286541 116.0922146  17.4904037  74.3798113
  71.5372610 103.9188766  83.2114697  72.3276520 104.2033195  82.7525520
  70.8177996 104.2000198  82.6461697  27.9743862  50.4927349  10.2985823
  28.4955740  50.9606791   9.6461856  27.3851466  49.9413633   9.7837812
  96.1240768  96.6872597  81.9627953  96.7118454  96.2267494  82.5617027
  95.3513527  96.8863678  82.4914455  57.9360390 109.7674847  96.9622326
  58.0392170 108.8207340  96.8660927  57.0047522 109.9240208  96.8058968
  94.5164871  30.9275007  64.2662191  94.3706512  30.6904054  63.3503866
  93.7292194  31.4108777  64.5167828  61.8059492  81.2878418  91.1268139
  62.2945309  80.7313919  90.5202866  61.6935349  80.7481956  91.9093513
  83.7632084  89.4908619  83.1573009  84.2999458  90.2829170  83.1854057
  84.1807556  88.9420033  82.4934959  70.8401632 100.2896881  96.0280895
  70.4503107  99.7731113  95.3228283  71.4326859  99.6820354  96.4707184
  65.2499723  81.8869019  89.3842506  64.4775486  81.3565922  89.5801544
  65.1984406  82.6205826  89.9968529  57.7066994  63.3389282  15.4803729
  56.8107939  63.1578779  15.7646477  58.2102251  63.3893061  16.2928712
  81.9222355 106.0993767  55.7949543  81.0389900 105.7347870  55.7385445
  82.3472118 105.5916977  56.4862442  71.4356470  93.1647682  87.9415798
  70.8496523  93.3775806  88.6679077  72.3064995  93.4047222  88.2582283
  33.6700916  47.0853662   1.9949327  34.0535283  47.6773119   1.3477784
  34.2478752  46.3222170   1.9934787  90.6747246 109.1484070  52.4283266
  91.0473919 109.6300220  51.6898203  91.3203812 108.4685993  52.6212454
   6.4546901   0.5887141  68.3598900   7.2036177   1.0170053  68.7745094
   6.6166508  -0.3468965  68.4808636  21.0459113  56.8995667  12.1692204
  20.1023102  56.7448282  12.1255279  21.2357664  57.4399757  11.4023149
  59.6646357 103.1351757  67.2423935  59.0613508 102.5557041  67.7076817
  60.0131607 103.7130451  67.9212427  80.1224709  90.9140491  71.1554670
  80.1975155  90.6292439  72.0662308  80.1195526  90.1012993  70.6498337
  72.3161125  98.7408733  80.3666973  72.8813505  98.7924385  79.5959330
  72.8773737  99.0102959  81.0937691  64.3245125 110.2657700  81.0217762
  64.9723101 110.1880646  80.3213882  64.4873619 109.5082378  81.5837765
  25.7142615  52.3432159   6.6348243  24.9696541  52.0085573   7.1346200
  25.5060744  52.1322203   5.7246751  34.7687435  46.2110806   5.9797090
  34.3473029  46.6911983   5.2668929  34.1316199  46.2343359   6.6936874
  82.5499439 111.3686085  90.3894997  83.4366226 111.3265038  90.7476330
  82.6482868 111.1042786  89.4747925 106.1594772   1.5320688  73.4202671
 105.6501865   0.7550764  73.6507940 106.2188721   2.0300847  74.2355490
  73.5558891  95.4467010  73.7090302  73.4097672  94.6560001  74.2283201
  72.7012825  95.8770084  73.6822701  31.5173554  11.5537250  87.8384495
  30.7373953  11.3589609  88.3580303  31.5234590  10.8834612  87.1551228
 100.3296661   3.6641556  71.2062073  99.8354721   4.4343832  70.9255743
 100.5429268   3.8374096  72.1231270  74.6311951 110.5992985  71.6707373
  75.0262785 110.4555035  72.5306511  74.6774292 109.7456741  71.2401342
  64.8691845 104.9251461  89.7096157  65.3775167 105.2615929  90.4475975
  64.4362497 104.1437340  90.0534153 109.6157074  19.8518312  39.0212035
 110.1477051  19.2567325  38.4929323 109.8519611  19.6454895  39.9255490
 103.0619621  97.3577404  89.2687702 103.3041954  98.2596397  89.4788456
 103.4131432  96.8404102  89.9935246  37.9057527  57.1581125  10.5738556
  37.5549936  56.2885857  10.3811944  37.1358347  57.7261591  10.6018043
 109.8187733  11.1692393  80.8763599 110.6189823  10.6495094  80.8004189
 109.3244457  10.7466292  81.5786934  18.1900942  34.0916276   4.3312761
  17.4964416  33.8283801   4.9360725  18.1662667  33.4322119   3.6378545
  84.4179726  88.6041546  73.9709473  83.9047337  88.1799889  74.6586323
  84.9003696  87.8888416  73.5563946  42.1685123  94.6726036  93.5559654
  42.5013781  94.8096561  92.6690292  42.4662828  93.7936115  93.7903690
 114.4410896   6.4958960  72.5266743 114.5680332   7.4029392  72.2484827
 114.1980076   6.0315138  71.7257404  94.7874641  99.6400738  90.0919533
  94.0986729  99.8196125  90.7319164  94.3920040  99.0162849  89.4830799
  84.0475464  90.7713032  66.0592222  84.1018867  90.6566048  65.1104736
  84.3394852  89.9336433  66.4188576  41.5723944  38.0550432  13.1034946
  41.6167593  38.1183720  12.1494234  41.0451269  37.2731447  13.2673728
  83.8098145 111.4543629  82.8518391  83.1927490 110.7792282  83.1340885
  83.6226749 111.5758324  81.9210052  10.5051422  23.0173063  92.9812717
  10.0588727  22.2036648  92.7466106  10.5462062  23.0007863  93.9374447
  12.1866786  19.1375053  56.3642931  11.8520951  19.3775439  57.2283936
  12.8251457  18.4459066  56.5383148  54.4592333 104.8028469  93.8478088
  53.6264324 104.6963882  93.3880901  55.0913668 104.3232536  93.3124352
  44.5026064  64.5364475  17.2916591  43.8706064  64.3153381  16.6076112
  45.3303909  64.1702271  16.9803905  20.0157189  49.7263288  10.6695068
  19.6737719  50.2223873  11.4133024  20.9501052  49.9333954  10.6527460
 104.8727036   0.1927401  86.2009716 105.4651356   0.0100144  85.4716873
 104.6129894   1.1054723  86.0756779   8.6209679   9.4020516  82.5895214
   9.1199100   9.1919535  83.3789158   8.4272790   8.5516334  82.1951771
 113.5609531  92.4724674  68.6089087 113.9092827  93.3151340  68.3176661
 113.8275146  92.4071598  69.5259237  47.1267891  40.1256609   5.1199448
  48.0640125  39.9324608   5.1426184  47.0362568  40.9326077   5.6267691
  41.5516424  40.0807762   0.0122845  41.9676447  40.2826357   0.8503948
  40.6644917  39.8068905   0.2450473 105.1987559   0.4343295  92.3326778
 104.4482428   1.0078120  92.4878216 104.9456269  -0.4022718  92.7228737
  83.5189629 110.5955982  75.9718466  82.8167248 110.9020233  75.3980923
  84.2051601 111.2572765  75.8849430  84.6618366 107.5701809  84.7178841
  84.2770863 106.6942596  84.6869946  85.0451374 107.6941776  83.8495922
 115.0119591   0.5726242  89.5071697 115.8613300   0.9980557  89.6246815
 114.9701500   0.3757163  88.5713768  21.0104656   3.0396938  74.9332285
  20.8699965   2.1535061  74.5998049  21.4029694   2.9112837  75.7967615
  97.2622967   4.2631221  95.6263161  97.7137280   3.4763852  95.3205490
  97.0588303   4.7485134  94.8268032  79.0627718  77.9125118  95.3970432
  79.7193146  78.4639168  95.8226395  79.0346670  78.2275248  94.4935989
  71.7038488  76.7769480  91.0664463  72.1433306  75.9365654  91.1962223
  72.0967579  77.3560715  91.7194939  80.7534027 101.8811321  59.5712423
  81.1650085 102.3028660  58.8169527  81.4818859 101.4921284  60.0552130
  75.7089853 108.4857845  76.8976831  75.2235699 108.7050533  76.1023712
  75.6883001 109.2878437  77.4197006 115.4848099  26.3554072  76.7653608
 114.5535564  26.5617490  76.8454790 115.5148411  25.6151891  76.1592245
 110.9359741   8.5790962  56.3074589 110.0030231   8.3743078  56.3698626
 111.3201237   8.1876236  57.0919418   6.0898995   0.5519054  53.6560535
   5.3309828  -0.0017662  53.4724092   6.8434811   0.0125192  53.4164524
  84.1520214 109.4304276  60.8039713  84.8714924 108.8836193  61.1195564
  84.2631054 110.2619267  61.2649632  31.7438078  13.4062874  83.2060719
  32.3124409  13.4288239  82.4364090  32.3467374  13.3590090  83.9480114
  24.4100547   2.1612692  84.5749950  24.6453428   3.0884773  84.5409966
  23.6750984   2.0782353  83.9673996   1.5381072   3.7197101  86.0570240
   1.5026420   3.1564516  86.8301487   2.2594002   4.3236876  86.2336063
  27.2011209  20.5027533  65.0053835  28.0913663  20.8316183  65.1300526
  27.3092890  19.5597899  64.8814726  91.5529442 104.0063095  86.6278458
  92.1044540 103.2265472  86.6914558  91.6740799 104.4542885  87.4650192
  16.4266992   5.3189099  70.0204897  15.8256125   4.6232456  70.2869081
  15.8685982   6.0888624  69.9112701  19.9761283  14.8623312  77.2170591
  19.1951263  14.9501193  77.7634621  20.1935935  15.7595396  76.9641590
   6.8655348  13.1534863  61.5520287   6.0272169  13.3996689  61.9429874
   6.9726980  13.7560022  60.8160114   2.6375329  34.3430662  68.9116669
   3.5806668  34.5017886  68.8724470   2.5475851  33.5712314  69.4706059
  20.3288221  42.4049854  95.0357151  21.0410547  42.9430342  95.3813457
  19.5364380  42.9093027  95.2201748  39.2896628  63.9564037   5.3179872
  38.6966872  63.9758587   4.5668325  38.8362050  64.4597292   5.9942037
 118.8071632   5.7023191  83.2818794 119.6829224   6.0238355  83.4961224
 118.7155819   5.8643812  82.3429585  11.6753316  17.8211725  78.1560373
  11.5277791  16.9095302  77.9043055  10.8990407  18.2849622  77.8421831
  35.4496408   6.8427628  78.1599903  34.8228550   7.5470716  77.9946947
  35.6738067   6.5125573  77.2899628  93.7220573  96.7579079  76.4121056
  94.0653038  95.8748150  76.5483332  93.3083057  96.7236519  75.5496264
  81.0815430  82.4479675  85.7954502  81.8660069  82.5389385  85.2545452
  81.0021591  83.2889652  86.2456131  57.2493362 103.7884617  77.3419952
  57.3910570 103.8922310  76.4010525  56.4403152 103.2811451  77.4078465
   0.8528504  23.4178662  89.5262909   0.3014771  22.6490569  89.6717262
   0.3198275  24.1547942  89.8247147  28.6051250   5.5023456  76.7766953
  28.1328034   5.1946336  76.0030937  27.9843760   5.3902304  77.4966478
  30.3478098  29.3605018  82.2392178  30.8378577  29.6709514  83.0006027
  30.9349394  29.5117879  81.4985275  58.8357019  52.0831108  13.0233133
  58.3909369  52.0461798  12.1765232  59.2784309  52.9317713  13.0245018
  63.7551355 110.1553917  86.2353706  64.3712425 109.4831848  86.5265369
  64.2809296 110.9531212  86.1770821 112.7115440  17.1192980  71.9724226
 113.2242966  16.6464639  71.3168716 112.5962353  17.9939628  71.6010761
   6.5106267   9.3280029  90.9312344   5.5984378   9.2336702  90.6569290
   6.6599631   8.5912365  91.5237713 108.0277348 105.8719635  91.1039734
 108.1472492 106.2968826  90.2546215 107.6670933 105.0109196  90.8923817
  83.2971478 107.8736877  76.7614365  83.7044525 108.7104607  76.5375233
  82.8340435 108.0445766  77.5815392  84.1149235 109.1298866  72.9318142
  84.8136425 108.7792587  73.4841633  83.3289433 109.0735149  73.4752226
   4.6876532  59.5187330  53.1593895   4.1607317  58.7221479  53.0958509
   4.0548074  60.2094746  53.3558893  94.2801762 110.0901318  78.4260416
  94.7889900 110.2057266  77.6235628  94.9258518 109.8324585  79.0840197
  22.7290368  11.1878157  87.1268368  23.0141854  10.5068970  86.5175152
  23.3871365  11.8774951  87.0403481  75.2133799 106.7054272  78.7970018
  75.4128885 107.3002434  78.0740833  74.6666908 106.0252666  78.4036207
  78.0965424 103.0503845  57.1715021  77.4089956 103.7148952  57.2154140
  78.0144119 102.5661087  57.9930639   3.6748126   6.6734040  61.7667437
   4.1221714   5.8553571  61.9833136   4.0558520   7.3194671  62.3614216
  32.3180127  25.9099698  75.5241346  31.4877939  25.6810570  75.1063299
  32.3634863  26.8639255  75.4598331  37.9079866  70.9820175   5.1175600
  38.6504245  70.6281233   4.6278906  37.2769189  70.2629757   5.1485997
  13.5645807   7.6533377  73.3556271  12.8734100   7.8482187  73.9885044
  14.2064774   8.3525950  73.4790754  26.3223600   8.2713354  64.2361355
  26.2108493   7.3292005  64.3633366  25.4843378   8.6497724  64.5020962
  89.0138245 109.8770428  62.7763891  89.0848351 109.9493790  61.8245745
  88.7221527 110.7430649  63.0613089 107.1973801  26.8962502  74.2957258
 107.5672054  26.0208607  74.1810560 107.6911259  27.2712159  75.0249958
  91.7388535 104.6077633  53.2993126  91.0915756 104.9403286  52.6774883
  91.9689751 103.7409210  52.9648542 102.0835304 108.1364632  74.4095516
 101.9339466 107.4688721  75.0790119 101.2070751 108.3682060  74.1023684
  81.9594288 110.4463863  68.5150242  81.3034916 109.9070358  68.0733538
  82.2788715 111.0396767  67.8351736  28.1786251  54.6399784   3.0250722
  27.5195909  54.2036390   2.4851546  28.9447761  54.0682316   2.9765779
  75.9613991 111.7799282  93.3214855  75.1536798 111.6262531  93.8115978
  76.0847330 112.7285767  93.3544159   6.2678230  14.1721559  88.2467556
   7.0376784  13.9444637  87.7254963   6.0701030  13.3771479  88.7418270
 115.7684135   9.1854185  73.4704304 116.5130711   8.7027138  73.8291788
 115.9594154   9.2601603  72.5354624 115.6607437  92.8200436  87.8431225
 115.1867294  93.6255646  87.6365757 116.5841675  93.0693436  87.8061199
   9.6909690  28.0616736  72.6094151  10.2411222  27.2875619  72.4897814
  10.2296126  28.6607552  73.1263256  78.0137730 111.5926170  59.2328119
  77.9254770 112.5328541  59.3889713  78.1499195 111.2170982  60.1026917
  70.0920725 107.4598312  80.7340622  70.8116198 107.3791695  81.3601398
  70.0105572 108.4014988  80.5828762   6.1281025   3.0427760  75.1560688
   6.0138369   3.5969448  74.3840075   6.9876903   2.6391196  75.0360584
  20.9128809   5.7103002  76.6442919  21.1896873   5.9148657  75.7511139
  20.0564432   6.1288214  76.7314053  13.8982058  11.8654013  86.6098690
  14.1858923  11.0188735  86.2680244  13.2826400  11.6447520  87.3088837
  85.4224491  91.7192364  58.4524536  85.9676456  92.3191738  57.9434633
  84.5247555  91.9505787  58.2139921 117.0398998   1.2653829  73.9157629
 116.5050316   1.0978721  74.6917057 116.9770813   0.4595345  73.4030294
 102.7387619 108.4217262  86.6021633 101.8127441 108.6469364  86.6915417
 103.1887150 109.2660236  86.5714836  86.2817955 109.4120502  97.0215893
  85.9306335 108.6405849  96.5768814  85.5076027 109.9054050  97.2926044
  87.8991795  91.0774899  87.6023674  88.5038567  90.8011818  86.9137096
  87.4907017  91.8716908  87.2579575   3.2040054  11.7238772  64.5083332
   2.5326127  11.0514605  64.3929195   2.9561391  12.1736765  65.3160906
  79.5704412 108.7949181  66.5696001  79.2631197 108.5472965  65.6975555
  79.3478489 108.0466080  67.1234274   1.2921858   5.0684071  72.5086975
   0.8260009   4.3093809  72.8591013   1.4422998   5.6294960  73.2695389
  90.5582905 108.3978748  91.3930416  90.0727558 109.0890312  90.9427261
  91.2942696 108.2048035  90.8122730  85.0165272 102.7304840  75.5730343
  85.1359177 102.3654747  74.6962547  84.7784901 103.6451244  75.4213238
 112.4371624  90.3491306  89.2720318 113.3911133  90.3995132  89.2113781
 112.2455406  89.4113922  89.2589951 103.0717564  88.0430889  56.2155390
 102.4184704  87.5045395  56.6621017 103.0082035  88.8983631  56.6406202
  47.1785927   1.6327898  61.6302490  47.3554897   1.2087769  60.7905149
  47.6377678   1.0921603  62.2729826  69.6940470  60.3184128   1.1246137
  68.8607979  60.5122471   1.5539819  70.3302574  60.2878284   1.8391287
 114.7775364  15.8042824  84.0049458 114.3068314  15.1333094  84.4993782
 115.6994152  15.5603766  84.0879059  19.3739271  21.7905498  75.3690434
  19.1786921  21.7676067  74.4322491  18.9505839  21.0075951  75.7211733
   7.6052815  14.9046230  95.0440216   6.7012775  14.6461749  95.2235031
   7.5268668  15.6956780  94.5108032  29.1494870  10.2106035  76.6315126
  28.2061529  10.3677106  76.6723967  29.5105004  11.0156214  76.2602377
  61.2625170  53.5881948   1.1295220  60.3870106  53.3281612   0.8429836
  61.6990185  52.7637815   1.3440813  60.5592632 108.9806557  68.0469275
  60.4141235 108.1947899  67.5200701  60.5760717 109.6957302  67.4108362
  15.7815826  26.5519357  94.5058346  16.7170811  26.4132118  94.6535873
  15.6701148  26.4466095  93.5610008  20.4286408  42.5113869  39.2144513
  21.1109948  41.9273138  39.5453405  20.4683065  42.4114084  38.2633138
  10.3148198   4.6017784  84.2272377   9.3941349   4.4696650  84.0011501
  10.7375252   3.7723294  84.0046024  50.4912281  50.1023006   7.9751158
  50.5223465  50.6396770   7.1836066  51.0060835  50.5913067   8.6170107
 106.8611908 103.0003643  73.7219906 106.3305950 103.5001564  74.3424082
 107.1528721 102.2354794  74.2180777 110.0868225 109.6015739  69.1901302
 110.5496693 109.1713715  68.4711552 110.3675556 109.1279316  69.9731302
  81.1903381  89.6709728  90.5511475  80.5681229  90.1960659  90.0478077
  82.0046043  90.1734447  90.5242443  22.4128938   2.8934738  94.8472118
  23.3299828   3.0360180  94.6129799  22.0069122   3.7560529  94.7613716
  78.8833475 102.3195839  61.4602184  79.2936039 102.2140884  62.3185825
  79.6009111 102.2085381  60.8365154  82.6466751  94.4382858  82.1824265
  81.7996597  94.0547085  81.9551373  82.7206516  95.2074051  81.6174412
  12.1688175  11.8078732  57.6402044  12.5667489  11.8134737  56.7696571
  12.7045107  12.4136794  58.1523180 115.8866882   4.3843007  59.5342827
 116.0133839   3.4519148  59.3586779 116.7712021   4.7254670  59.6665192
 111.5654564  97.8732586  89.6133709 112.1765232  97.8339481  90.3490925
 110.7246590  97.6077461  89.9859142 105.0687885 107.4964046  66.7540598
 105.3072357 106.8407154  66.0987377 104.2154312 107.2101688  67.0797920
 101.5398216  10.8974898  64.2422199 101.1823177  11.4006579  64.9738216
 102.4770069  11.0919285  64.2530918   8.3129174  23.1136584  85.6908035
   8.5538960  22.4944377  85.0018024   7.6741856  22.6412368  86.2247276
  89.6544456 104.1304207  72.1076584  90.2347183 103.3788490  71.9865942
  88.9333439 103.9770603  71.4971495 118.2246113   9.3656701  85.7832718
 118.6080837   9.2687142  84.9116230 117.2856617   9.2386115  85.6473446
 104.0786076  95.3187561  90.8641624 104.9878216  95.0634384  90.7079983
 103.5711575  94.7819901  90.2553844 113.0666828  26.5731215  54.9065018
 113.7392521  26.3210058  54.2738008 113.1846523  27.5164127  55.0183868
 105.8813381  79.3035269  89.4662571 105.1574039  79.0202904  90.0247669
 105.4912376  79.3961287  88.5970783  16.6934752  21.5614843  82.1849823
  16.8559754  22.5047398  82.1752453  17.5471544  21.1733437  82.3768425
  89.1464043  95.7685089  64.3272781  89.0011787  96.6669559  64.0307379
  88.3142948  95.5095005  64.7231817  40.6636906   1.7213039  77.0156097
  40.4093456   1.8970396  77.9215097  41.5735960   2.0134676  76.9613266
  87.9784393 106.7220020  78.3945942  87.4149418 106.1397934  77.8849649
  88.3744717 106.1539936  79.0554714  91.4174461 105.4764271  73.5878420
  90.7698727 105.2954197  72.9065847  91.0504627 105.0806618  74.3783617
  18.2484901   8.7173802  85.2907562  18.8039649   9.2930841  85.8163452
  17.5255072   9.2764723  85.0062466 112.4765396 110.4141331  78.9807129
 112.9097939 109.5712471  78.8463068 112.6243877 110.6147480  79.9049044
  95.6531525 101.4328575  93.9306068  95.8500862 100.5756569  93.5529137
  94.7188377 101.3954735  94.1352844   9.0173197  22.4388790  60.5032253
   9.5593518  22.6363230  59.7393894   9.3582356  21.6063070  60.8300781
  10.6561625  11.8336749  77.0108223  11.5270936  11.7308581  76.6272306
  10.8165967  11.9149268  77.9509735   5.5803758  23.7382460  75.5698442
   6.1915737  23.0024290  75.5345869   4.7661000  23.3908916  75.2057934
  14.2118573   2.1914394  46.2850237  13.9043140   2.7545562  46.9953394
  13.4232974   1.9882832  45.7818985  13.4187508  12.6778555  74.1594028
  13.6914909  12.4309301  75.0430727  14.1701949  12.4611771  73.6074829
  20.0588512  30.6090665  52.6954842  19.5173168  30.1704741  53.3516932
  19.8425508  31.5369272  52.7877712  81.6208744 101.2862682  81.2090778
  81.7185783 100.3392792  81.3085461  81.8078423 101.4505672  80.2848053
  30.1076484  10.7084215  56.4739990  30.2217603   9.8087400  56.7802382
  29.2429638  10.7138383  56.0634804 117.5461769 104.6172810  77.4964285
 116.7075634 104.1558838  77.4883080 117.4685860 105.2425003  78.2170582
  46.7752886   8.9817286  50.6539917  46.4761591   8.2180780  50.1604414
  45.9906149   9.3015558  51.0992193  37.7909398   6.2435168  60.3728962
  38.4489942   5.8214647  59.8205709  37.9372525   7.1809179  60.2460003
 117.6514721 110.7691479  68.8135624 118.0606747 110.0179386  69.2430592
 118.3755016 111.2208652  68.3800220  20.7992291  14.0421236  47.4894142
  20.7550550  13.1959796  47.0440865  21.6566586  14.3941188  47.2503710
 101.3783169 104.2843533  96.3742352 102.3032665 104.3903351  96.5966320
 101.1039829 105.1500893  96.0717869 113.6342335 102.5585747  41.0419893
 113.7302876 101.7294598  40.5734158 113.9013958 102.3589802  41.9392204
  17.1278584  33.8036895  79.6903086  17.8654385  33.2818627  80.0063801
  16.3536823  33.3533335  80.0280380  93.8961506 104.4692612  69.9752903
  93.4369755 105.2865028  69.7816324  93.3116913 104.0017319  70.5719900
  18.1666744  12.3336864  81.9900322  19.0560079  12.5837338  81.7394447
  17.6021349  12.9208863  81.4873123  37.0994329   6.6698587  90.0671101
  36.9959807   6.7042291  89.1161346  37.5517678   7.4838942  90.2884007
 117.8140450  17.9172468  63.4372759 117.4175644  17.7114499  64.2838430
 118.5170269  17.2749829  63.3395672 111.3307190  12.7200580  73.9799452
 111.4924526  13.6634779  73.9855814 111.9766140  12.3626792  74.5893145
  54.4542694  19.4049430  77.7812576  55.0984859  19.9202311  77.2957706
  54.0776491  20.0219965  78.4086609  89.4080639  76.3395929  10.2643001
  89.2968845  77.2391605  10.5719626  90.3227901  76.1323833  10.4555357
  19.2519331  28.0357409  74.4120932  20.2063656  28.0157471  74.3421507
  19.0811408  28.5168481  75.2217865  51.9423389  91.7006016  12.8975689
  51.0135317  91.5940189  12.6921701  52.1196604  92.6264572  12.7314913
  77.9421806  93.3308792  14.0228152  77.2751141  93.9358139  14.3473196
  78.4439850  93.8446808  13.3900261   9.2187816  10.3799272  69.6768808
   9.8484796  10.8769286  69.1546726   8.3674037  10.7465804  69.4382381
  26.8549442   4.8095486  70.9761715  26.4155889   4.6434492  71.8102074
  26.2436390   5.3623050  70.4893494  26.0868526  16.2818420  57.3002529
  26.3546157  15.4464400  57.6831865  25.9577036  16.8596423  58.0523825
  33.8734794  13.2956243  67.2959042  34.7388101  13.6471820  67.5052929
  33.6212277  13.7448716  66.4891958  96.5432167 105.8363342  69.5163822
  96.6323853 105.1732922  68.8317966  95.6853676 105.6653786  69.9051046
  30.2622018   0.0670886  60.8475304  29.7005163   0.5298304  61.4693117
  29.7582326   0.0532508  60.0338602  30.7438064  15.1555967  79.9192333
  30.8862615  15.5015123  80.8003044  29.9406075  15.5825770  79.6212578
  20.4203486   3.8290399  84.4655132  21.0539722   3.8070387  85.1826382
  20.9494829   3.9839721  83.6830521  66.0070992   3.6433488  70.7293558
  65.3086329   4.2907363  70.8256245  65.7272387   3.0964288  69.9953318
  21.6994739  23.3844972  76.3634872  21.3549209  24.2588639  76.5451479
  20.9635735  22.9135394  75.9724903  19.0203822  26.7804408  90.4990959
  19.0524876  27.7352333  90.5588722  18.4013641  26.6055202  89.7902584
  35.4643703 108.7517834  63.4193277  36.1174679 108.3050919  63.9579964
  35.8465433 108.7656307  62.5418425 102.3316479 108.4584904  47.1445847
 102.8866577 109.2345619  47.0677710 102.7781963 107.7920532  46.6223860
  26.6970825  10.0311947  52.4903059  27.4027300  10.0037491  51.8441296
  25.9099245  10.2151418  51.9776821  73.4551430 111.4665318  68.0786705
  73.0829525 111.7703915  68.9065504  73.8659763 112.2442341  67.7010107
  29.2682362  25.9578919  69.6717691  28.7827992  25.2107096  69.3220472
  30.1475477  25.8650470  69.3051338  20.0317216  13.3283484  68.9090633
  20.1657176  13.2347906  69.8522091  19.2829657  12.7640164  68.7163830
  20.0506878  38.3461642  73.2191753  20.7701540  38.9032173  73.5163164
  20.1936603  37.5117111  73.6658049  11.0277927  29.6371818  90.3925514
  10.3551316  30.2706814  90.1426792  10.7112563  28.8027143  90.0465679
  32.6995111  14.1498840  74.4341946  33.4800291  14.6831465  74.5847034
  32.3372078  14.4820726  73.6128473  34.8353434   7.7156907  56.1863232
  35.5613899   7.4867207  55.6060982  34.8129821   7.0095325  56.8321371
  25.8711576  19.9134314  35.4003525  25.8246493  19.0919411  35.8894587
  25.3318906  19.7610152  34.6243429 118.0509853 102.8391171  66.4220572
 117.2506237 103.2677174  66.1187983 118.1251431 102.0563889  65.8761024
  76.1448956 106.9958305  69.5462370  77.0009851 106.5899563  69.6826410
  75.9386349 106.8172836  68.6287355  41.1250162  13.2519162  61.9678736
  41.0273027  13.1019390  61.0275602  40.6303692  12.5415158  62.3763943
  54.4223213  18.9297295  72.1540689  53.8204479  19.2948401  72.8026628
  55.2834511  18.9855301  72.5682783  44.9722052  12.7994931  59.9238348
  44.3637419  12.0606315  59.9332857  44.4142342  13.5705757  60.0254869
  28.8285565  11.4272249  25.4343653  29.0617371  11.1583793  26.3229489
  29.3186831  12.2371411  25.2927852 113.6614799 109.6768093  48.1550646
 112.9244328 110.0554657  48.6342382 113.2915020 109.4200897  47.3104048
  21.9334960  25.1718903  71.2056828  21.1146474  25.5571270  71.5176296
  21.8269706  25.1194596  70.2558756   9.0687591  12.2863626  50.0568914
   8.1571704  11.9960344  50.0876856   9.4997472  11.6609931  49.4743156
  23.3920646  14.1145146  61.6736603  22.9378152  13.2902598  61.8482876
  23.5058999  14.5127475  62.5366116  38.6793256   8.6638802  59.2814159
  38.2724619   9.5171744  59.1311407  39.5767498   8.7673753  58.9649534
  25.5001116  31.0951591  81.5604115  24.6278596  30.9324265  81.2013531
  26.0304523  31.3367748  80.8010769  31.5344644  14.8604190  62.6831102
  31.3228965  15.5848801  62.0943642  31.0615325  14.1112912  62.3206568
 118.8129559   3.3305150  62.4492025 118.8901907   4.0616786  63.0621195
 119.6931431   2.9563317  62.4106121  72.3543406 100.5204964  48.6764622
  73.2759476 100.3645039  48.8827085  72.0965290  99.7662735  48.1464481
  14.1810095  16.5300703  66.1571884  14.3233347  16.8883121  67.0333385
  14.4425166  17.2350025  65.5648041  58.4532833  23.3041906  77.5403214
  59.0005636  24.0894270  77.5293970  58.1162310  23.2347131  76.6471243
 116.7131519 108.1282806  46.9434595 117.1923733 108.1521225  46.1152029
 116.6356373 107.1965408  47.1485949 114.5419025 109.3484402  75.5354595
 114.8516178 110.2276611  75.7528973 115.1489449 109.0402603  74.8625803
  19.0853918  15.0593138  72.9656315  18.4027541  14.7450519  73.5584879
  19.4126570  15.8581257  73.3791876  33.9225817   4.1705024  73.5102224
  34.1674662   5.0927305  73.5861158  33.0098128   4.1879565  73.2225084
   5.7422727 103.7552357  63.3143139   6.1150849 103.2408237  64.0302896
   4.8849672 104.0310287  63.6386585  26.4933205  23.7180281  52.8286362
  27.0282769  23.3432961  53.5283709  26.4953899  23.0509472  52.1421719
  55.6907845  11.4962137  70.0688601  55.5407667  10.7628286  70.6654072
  55.9219837  12.2274423  70.6416464  39.9350739   3.6357144  55.8939743
  40.3131008   4.3607023  55.3962564  39.1180730   3.9879152  56.2470961
 104.5177937 110.1924515  46.6736269 105.1800251 110.5502224  47.2649717
 104.2444706 110.9389210  46.1404181   2.1294837 107.5347614  60.9234762
   1.6495807 107.9738903  60.2212715   1.4564487 107.0654964  61.4164734
  13.3017564   0.4342715  79.4483376  14.2161369   0.1549707  79.4021749
  13.3458245   1.3594744  79.6897697 110.5588531  90.2453995  63.0552864
 111.3571644  90.6877613  62.7667427 110.3733158  89.6106148  62.3633003
 111.9495678  84.3973541  82.3987865 111.8150234  83.5900784  82.8952217
 112.0975494  85.0672054  83.0663490  29.9407411  15.8363676  76.5654325
  29.3622208  16.3699305  76.0205841  30.8102322  15.9610331  76.1850691
  68.3545876  57.1100187   6.7347515  68.3216286  57.2386742   7.6826936
  69.2875814  57.0307016   6.5361011   5.6921953  26.3825679  67.3997688
   5.5813044  25.6734300  66.7664766   4.8031595  26.6952586  67.5673151
  26.5134907  15.0877273  92.8651619  26.8759012  14.4401968  92.2605133
  25.6997848  15.3738821  92.4501610   4.3947285  13.5519993  62.7003145
   4.3603581  14.3841720  63.1720543   3.8294840  12.9671049  63.2049227
 118.7225246  99.9934292  58.8515854 118.2498360  99.5225048  59.5378971
 118.5129642 100.9146690  59.0053272  29.4212055  16.1966133  58.9948511
  29.1518569  15.2853584  59.1101599  29.1670656  16.4096975  58.0969381
  59.8137522  89.9836349  11.5770960  59.3016911  89.3257427  11.1067760
  60.2149630  90.5127144  10.8876503  54.0023136   3.3357322  82.3912334
  54.1771173   2.8670919  83.2073593  54.6968842   3.9922637  82.3385525
 113.5581875 107.7670956  85.3575420 113.1443119 108.3174419  86.0224152
 113.7918568 106.9639683  85.8229637  47.5629282  13.3015418  54.7012138
  47.5167465  13.7797081  55.5291367  47.4129868  13.9682055  54.0309095
  15.1747835  30.6313276  86.7084217  14.3996155  30.7895756  87.2472191
  15.6981373  30.0124311  87.2176361   7.9628903 107.8495026  45.1949930
   7.1392071 107.3718929  45.2932692   7.9438430 108.5057068  45.8916092
  59.6949482   3.4357893  73.1161404  59.1883659   4.0885606  72.6329231
  60.0158262   2.8354451  72.4431896  16.8607986   1.5738171  62.9219913
  16.9999659   0.8627652  63.5475063  16.4960384   1.1442160  62.1482849
  30.5340171  26.8203044  60.0414038  30.9753609  26.8825912  60.8884954
  30.0595593  25.9898186  60.0790262  42.0945072   7.6133466  49.7682810
  42.7394962   7.9226196  50.4043388  41.5525103   6.9948924  50.2581644
  15.4417276  25.6273222  58.0342913  14.6566033  26.1309290  58.2492113
  15.4114676  25.5311298  57.0824194  32.4120569  22.7115202  50.8280230
  33.0144978  23.1408668  51.4354420  32.9808831  22.2366214  50.2221012
  18.9286363  27.9018164  59.0597868  18.6229467  28.7370157  58.7059116
  18.6063564  27.2469616  58.4404898  97.7363586 104.0214920  56.1177063
  97.1765804 103.2502365  56.2074375  97.9624367 104.2592812  57.0169163
  15.2528036  46.3306713  83.2293034  14.5201910  45.7153368  83.2588291
  15.3100085  46.6778612  84.1194820 114.5503902  85.5310154  68.8827848
 114.6727562  85.6913280  69.8184967 114.6240234  86.3961792  68.4799194
 112.1845150  95.3964520  70.3974962 112.0304298  95.8430195  69.5649910
 111.3084888  95.2248383  70.7429695   9.4536597  23.3025742  75.5477428
   9.3146652  23.4852672  76.4770126   9.5826113  24.1640615  75.1509523
 112.4076939 106.0589600  63.2924175 111.8465996 105.8663654  64.0436220
 112.0709991 106.8860626  62.9477930  92.6354218 100.3080940  79.8934555
  93.4475040  99.8380756  80.0827599  92.6068974 101.0089207  80.5448151
  21.1786079  15.1338291  55.4680634  20.4177213  15.3211462  56.0177851
  21.9308209  15.3598869  56.0151482  50.1962996   5.9969097  75.7964802
  51.0106516   5.5885100  75.5027580  50.2992201   6.0818076  76.7443323
  59.4895840   7.4932265  54.8692942  60.3353643   7.8081566  54.5503759
  58.8760757   8.1960779  54.6551943  51.2837839   6.6776675  54.7397947
  51.1235905   7.5406498  55.1216698  51.5067911   6.8575531  53.8264799
  20.6044006  13.2189059  87.2706795  21.2827778  13.8844442  87.3851109
  20.9992504  12.4142170  87.6065445 117.4831390  31.8975568  48.7723398
 116.8773365  32.2332621  49.4330549 117.5988674  30.9750962  49.0001583
  72.5563049  71.1733294   8.7683433  72.0875263  70.3593159   8.5843372
  72.4376154  71.3108826   9.7081423  16.8233955  21.0455871  76.6179991
  16.7938304  20.4247332  77.3459435  16.5108097  21.8690681  76.9926977
  34.4149184   1.2266047  90.9258652  34.9078345   1.4899868  90.1487637
  33.7078786   0.6778708  90.5864334  18.4745741  23.9175057  76.6560936
  18.8084602  23.0759764  76.3453245  17.5290537  23.7877107  76.7294264
   2.9869586  99.5574093  58.1168652   3.8295561  99.5223141  58.5696697
   2.9577833 100.4336834  57.7327633  15.6747627  14.1747189  68.0234528
  15.5639553  13.7777138  67.1595430  16.4111722  14.7769892  67.9176044
  10.0090194  16.5065813  65.0713062   9.3682170  16.8053973  65.7165289
  10.6243682  17.2352195  64.9896717  88.1722736 101.4285755  83.2703304
  88.7210083 101.7430019  82.5518131  88.2056618 100.4747295  83.1974888
  20.2680278  12.9320240  71.6419888  21.1112237  12.5750053  71.9209003
  20.0819683  13.6275315  72.2727680  26.3910556  98.9258289  84.9680424
  27.3298287  98.7478828  84.9108219  25.9753060  98.0953789  84.7362137
  51.6631603  24.8528576  95.3115463  51.4042044  24.2771125  94.5920372
  51.3092518  24.4314671  96.0947514  22.2661805  19.6375573  73.9964342
  22.2759151  20.3765154  73.3880901  21.4005423  19.2451477  73.8827801
  27.6950836  14.3287992  62.3865938  28.4678936  13.8276184  62.1261835
  27.0952797  13.6748588  62.7455235  54.3606615  19.0860534  67.0002651
  54.4400358  18.1339264  66.9420910  54.1632605  19.2540896  67.9216909
 107.1670437 110.4210186  95.8365154 106.9373798 110.7995033  94.9878502
 106.3530540 110.4489422  96.3393879  82.9592800 110.3014946  63.5095739
  82.0652199 110.5993366  63.6773968  83.3164024 110.9472561  62.8999138
  35.4705143   9.8562580  58.2475567  35.0395107   9.0429306  58.5101700
  35.3754282   9.8810917  57.2954178 105.9674358  95.6511021  60.8538389
 105.6273937  96.2400246  61.5274715 105.5067635  94.8253822  61.0028410
 113.0714703 103.9271545  21.5016556 112.6353931 104.5705605  20.9429979
 112.4719143 103.8033772  22.2374845  38.5988188  17.3359382  72.9085636
  37.8559494  17.9369402  72.8522539  38.2647586  16.5879440  73.4036779
  31.0210896   6.4771491  73.9937782  30.1395464   6.8141067  73.8338566
  30.9037924   5.5311495  74.0807104  74.5151567  44.3916702   4.4975880
  75.0571823  43.9503098   3.8436449  73.7195826  43.8616657   4.5464593
  48.1260633   5.2227205  49.6677971  47.4954700   5.9201032  49.4882345
  47.6340580   4.5809704  50.1799726  29.0060496   5.5750579  81.5528965
  29.4192052   6.1663091  82.1821499  28.6803842   4.8488739  82.0847130
  16.4006746  12.3582613  69.8333454  16.7713785  11.6194761  69.3506384
  16.1338091  12.9781699  69.1545725   1.3940291   6.0673559  68.8680649
   1.6633919   6.0369533  69.7860765   0.8198506   5.3089136  68.7616825
   3.7387556   8.2245821  87.0749283   2.9436028   8.1817389  87.6060867
   3.7966570   9.1407776  86.8038845   4.8042497 111.4597702  89.2500401
   4.9615976 110.5835056  89.6016502   5.0402713 111.3925362  88.3248329
  75.9275055 111.5244579  82.9528236  75.2824545 111.3955593  82.2574615
  75.5825377 112.2542381  83.4672546 115.0817680  37.5616670  84.0223503
 114.2518711  38.0005145  84.2091942 114.8343849  36.6615248  83.8107491
  20.3734827  29.7078705  93.5834217  21.2381172  29.8694324  93.2058811
  19.7921753  30.3078127  93.1161118  29.6677780  30.1505733  93.4766483
  29.1251397  29.4570112  93.8518047  29.0881968  30.6031156  92.8638458
  10.1443136 111.5585136  44.6539783   9.7174239 111.4309406  45.5011654
   9.4436830 111.8601704  44.0757513  37.0938563  17.4939263  51.3724661
  37.8179169  17.1797085  51.9139767  37.2450972  17.0952094  50.5155039
 118.2767105 111.1236286  73.4118223 117.5922394 111.4543247  72.8301287
 118.6078548 110.3409767  72.9713488  28.3695722  22.9590058  85.9806061
  28.2758999  23.8641453  86.2775612  27.5291800  22.5505853  86.1883736
  24.2035818  15.6078768  63.9648914  23.5137582  16.1567342  64.3378925
  24.8946142  15.6085563  64.6272421 112.1466255 111.6403961  74.6010637
 112.8157520 111.1708260  75.0990629 112.4174404 111.5460205  73.6878347
  93.9580822 108.7986755  66.1983299  94.2294788 108.8409615  67.1152735
  93.8728809 107.8627396  66.0166740  47.7595854   0.2880490  81.7715263
  47.8425550   1.1459617  82.1878624  46.8261719   0.2059716  81.5760040
  11.3283288  13.9110029  72.9754639  12.1782339  13.5677922  73.2513285
  10.9828341  14.3487453  73.7534428  17.5530255  20.3580809  55.7206392
  17.4471712  20.0167584  56.6086292  16.9464946  21.0971355  55.6742334
  50.5521250  11.0668159  67.9755974  50.1393557  11.3165724  68.8023233
  50.0108147  10.3501499  67.6445293  60.1750326  54.2272997  14.3799186
  59.6270275  54.8053837  14.9107122  60.6832218  54.8204756  13.8266432
  38.5544229  24.9829364  84.3401241  39.1806030  25.7003522  84.4373035
  37.7673388  25.3981280  83.9874935 118.7421989   7.9891336  64.5942116
 118.8694668   8.6461961  65.2785397 118.2237530   8.4369081  63.9256763
  42.5230789  17.5575721  81.2011147  42.5187683  17.0736253  80.3752708
  42.3386574  16.8956959  81.8675518  13.0184436  21.2082839  72.4754572
  13.8611495  21.5679622  72.1984911  12.4344504  21.3682842  71.7341185
  26.8975997  24.1939187  65.4819107  27.6693273  24.1986895  66.0481644
  27.0580816  23.4804273  64.8643303  27.6077151  28.3829212  69.4234753
  27.9343343  27.4907923  69.3066168  28.0428100  28.6952829  70.2167940
  40.3716469  21.4657402  68.0260086  39.8002553  21.2642074  68.7670422
  39.8597813  22.0675683  67.4856138 105.8107376  91.3638306  72.8979111
 105.4557800  91.4178276  73.7852192 105.4499817  90.5506134  72.5446939
  83.1832409  75.9816885   4.9125829  83.7145519  76.7751265   4.9788436
  82.3704433  76.2716055   4.4983920  35.5948973  13.6558306  55.5249166
  35.5106592  13.6422384  54.5715284  34.7756433  14.0439081  55.8322430
  14.7845674  33.2784343  94.7124577  15.0245965  33.6274886  93.8540936
  13.8277352  33.2540298  94.7020531  59.6876431  68.6839962   1.4949551
  59.1121387  68.1736231   2.0646462  59.1592073  68.8601732   0.7165287
 105.7014751  88.5002613  -0.1544577 104.7803211  88.2403755  -0.1673708
 105.9939194  88.3016586   0.7350739  44.2393875  17.7537668  85.7273483
  43.9534283  17.6380932  86.6334820  43.5342550  18.2532263  85.3155708
  36.1680984  28.1112719  79.2255545  36.6771841  28.8962650  79.4276714
  36.5214801  27.4398017  79.8090601  43.4775829   4.9028519  48.4059334
  43.9310789   4.0942565  48.1677151  42.5492907   4.6697956  48.3922195
  15.3041351 109.0360928  78.0959177  14.4320917 109.0578651  77.7018356
  15.8060229 108.4452724  77.5344324  37.6623917  22.0830345  96.7949295
  36.8280840  22.3664451  97.1688843  37.4213958  21.4250398  96.1428642
  51.3570595  11.2761486  71.4107609  51.1193180  10.3727841  71.2018442
  50.5580997  11.7777181  71.2485266  44.3854284 100.4224873   9.2680424
  44.0718555 100.4379845  10.1722908  44.2425871  99.5207596   8.9804280
 112.1371078  44.0263605  89.3282890 111.6135502  43.3473206  89.7537613
 113.0348206  43.8470364  89.6079254  61.0485792  23.9587474  69.5582485
  61.0855532  23.3323359  70.2810717  61.4430237  24.7560120  69.9118280
  24.6611834  26.2489104  70.6168222  24.4965887  26.8922830  71.3061762
  23.7905025  25.9463406  70.3587484  57.7141428  84.0441036   0.6376409
  56.8736601  84.3897057   0.3370035  58.3677387  84.5896149   0.2000717
  98.5296345 101.9497299  72.2132778  99.1577339 101.3673496  71.7860126
  99.0688419 102.5333881  72.7469683   9.0734458  31.3224959  89.9585819
   8.7722337  32.1873522  89.6801472   8.4111691  31.0280442  90.5838203
 118.3205700  32.4464607  55.6581640 119.2660427  32.3090553  55.7167339
 118.1694317  33.2715464  56.1192799  48.3699226  23.1806493  78.3894205
  48.4836197  22.3555136  78.8610697  48.6016035  22.9729915  77.4841928
  20.7586408  47.2289801  87.2265530  21.4126110  46.9758940  86.5750122
  20.6297922  46.4413738  87.7550507  41.6762257  33.0341935  81.3575554
  40.7849216  32.7064586  81.4775372  42.1444511  32.7473712  82.1415997
  32.5339651  27.9389882  87.7329922  31.9084764  28.2836246  88.3703423
  33.3822346  28.0012941  88.1720638  26.8106318  22.3464894  82.9262257
  26.8404531  22.5854802  81.9998169  27.4435568  22.9300809  83.3446217
  72.1112013  62.0484972   1.4232360  72.2662592  61.1871910   1.0354919
  71.2170410  62.2705698   1.1636266  28.2966304  23.3574653  72.8853941
  27.6418138  23.1413126  73.5492659  27.8686976  24.0092659  72.3301792
  30.9294724   2.7916998  51.9511461  30.4273152   2.4843974  52.7058887
  30.4386044   3.5474712  51.6285181  55.0336838  19.6627510  81.0469627
  54.3274593  20.3062153  80.9884167  54.6292210  18.9001811  81.4606380
  23.5089397   9.2991006  72.4600506  24.2779255   9.7171199  72.0725536
  23.2451010   8.6404413  71.8175650  27.9037261  12.7433598  51.7319679
  28.2604456  13.5740995  51.4175606  27.4995923  12.9590154  52.5724411
  35.1552224   9.7363114  63.0709267  35.3702426   8.8177192  62.9091024
  35.2959752  10.1673436  62.2279358  40.2508211  10.9606826  65.9543610
  40.4477119  10.8973241  66.8889475  40.5707788  11.8263197  65.7003307
  20.3766394  23.8819790  83.2397175  19.5091605  23.6089897  83.5383606
  20.7951784  24.2454815  84.0200520   0.3521803  16.3257861  73.1905079
   0.4922846  15.5024040  72.7229118   0.1005629  16.9486475  72.5086212
  20.8612037  22.9987144  68.3758450  21.7116117  22.5648475  68.3065891
  21.0618925  23.9319038  68.3043528  29.3839145  21.8881893  70.5175638
  29.0911222  22.6394582  71.0334110  29.5395064  22.2443056  69.6428013
  60.9992266  91.2269211   0.9757741  61.4750528  91.9285297   0.5312812
  60.8692551  91.5525723   1.8664414  15.3369975  11.0458684  64.9347782
  16.1331952  10.5667961  65.1645374  15.5190992  11.9499695  65.1910448
  36.9800305  12.5062728  80.3700638  36.1146426  12.0972371  80.3651619
  37.5096369  11.9395626  80.9309387  28.9789653  24.4448566  61.3026428
  29.7135568  24.4727755  61.9156885  28.6161470  23.5648441  61.4034986
  28.5881996  16.8839693  79.1059637  27.6366806  16.7802358  79.1151237
  28.8797426  16.3542843  78.3638954  43.1433392  31.8440914  77.3798895
  43.6870623  32.5862002  77.6442289  43.6839199  31.3619900  76.7541265
  34.6980929  30.9869933  77.4216318  34.2771411  31.2372589  76.5991974
  34.1662097  30.2631474  77.7523613  68.9716101  71.7759180   9.7722149
  68.4464121  72.4053764   9.2780685  68.4322739  70.9857225   9.8028231
  29.0838647  31.4884329  72.4267292  28.3388138  30.8909297  72.4909115
  29.6653032  31.2236810  73.1395149  47.7513742  40.2765799  89.2176533
  47.8646183  41.2029266  89.4304657  47.0476818  40.2641582  88.5688877
   2.5479794  22.0155334  60.2403355   1.8329623  22.4801135  60.6752443
   2.3668590  21.0899997  60.4040909  34.6387053   1.8965332  75.0054359
  33.7867975   1.7345101  75.4106903  34.5034122   2.6763415  74.4670820
  45.6517696  34.1957641  86.0526562  45.9736300  33.3779740  85.6733704
  46.4337349  34.7394443  86.1484337  31.2890959  21.6354442  61.7772627
  31.2491703  21.9436121  60.8719063  30.3879428  21.3898349  61.9866276
  21.7979693  13.5353065  75.8273506  21.1200643  13.8129461  76.4434624
  22.0071006  14.3254972  75.3292608  30.0773335   9.3151468  63.1561565
  30.5520678   8.7095410  63.7254572  30.7552838   9.8875356  62.7970076
  41.3392544   2.2330099  88.5346127  40.8428097   1.7608900  89.2031002
  40.7993364   2.1706828  87.7466774  14.8648369  22.2666836  58.4797859
  15.4244292  22.7955842  59.0484285  14.8209333  21.4141440  58.9127731
  38.8965130   7.3923516  69.0573883  38.7893271   7.6300120  68.1363773
  38.0599976   7.6209146  69.4626427  47.5571012  17.2537100  82.1283722
  47.2569799  18.1384432  81.9200230  46.8013096  16.8352652  82.5405693
  57.7159262  22.6300812  79.9485588  56.9568872  23.1978989  80.0815010
  57.9935360  22.8078246  79.0499067   9.2339879  30.2217317  70.7209301
   9.1521269  29.3776894  71.1649132   8.6903340  30.1342320  69.9379730
  23.3260846  30.0097895  89.0274334  23.0571866  29.8479414  88.1231403
  22.8162360  30.7741761  89.2957592 115.3895283 109.0335655  82.0150566
 115.1507187 108.5858536  81.2034225 116.3235760 108.8536739  82.1219349
  40.2781773  17.5138283  70.9245682  39.6918726  17.5018525  71.6810942
  41.0774326  17.0877349  71.2341976  42.3577118  13.8689590  91.8168068
  43.0333138  13.9374554  91.1421967  42.6790762  13.1894898  92.4094963
  33.3770394   4.2160013  65.5540705  33.9653921   4.2862448  66.3058281
  32.5924516   4.6964824  65.8182526  11.7860913  31.3676786  82.6950073
  11.6327691  32.1939659  83.1532383  10.9220850  31.1066580  82.3762798
  43.9389086  27.8285766  77.4344110  44.6303749  27.2259545  77.7081919
  44.4010687  28.5326362  76.9795036  13.5268021  23.1522989  64.7757816
  12.6309121  22.8898883  64.9873352  14.0769577  22.5161934  65.2328682
  10.7672834  22.2309446  70.8907843  10.7284474  23.0796242  71.3317680
  10.4640210  21.6051483  71.5485382  49.6003342  13.6047888  78.6077738
  49.3468618  14.0812480  77.8172207  49.9970722  14.2692804  79.1710520
  45.6472778  19.4549692  72.8534985  45.2127409  19.4411016  73.7062693
  45.0084829  19.0709507  72.2529125  31.4151597  17.5122380  54.7283173
  30.8780360  17.5365090  53.9363956  30.7903743  17.6230431  55.4449749
  36.7980671   8.2094210  70.4528999  36.1833453   7.5746351  70.8208609
  36.2450099   8.9267683  70.1434278  29.9607468  27.0373607  84.6301079
  29.7004938  26.4240408  85.3173733  29.1567683  27.5094557  84.4133759
 107.0901299 107.5869465  74.4456911 107.4389648 107.3733139  75.3110886
 107.8309059 107.9715729  73.9771271  32.8821301  20.4549718  74.0157509
  32.5614977  21.2871051  74.3635750  32.2692060  20.2367663  73.3136511
  50.7558393   0.8794896  75.1164103  51.6537571   0.5754624  75.2488661
  50.4268742   1.0467872  75.9995985  44.7289276  23.3049774  75.5682659
  45.0416517  23.3865619  76.4692545  45.1698828  24.0117145  75.0967646
  17.8261232  32.7117872  94.5971394  18.1588149  32.8343225  95.4862595
  17.4235249  31.8434596  94.6096039  70.9943390  87.3514080   3.2837129
  71.0795546  88.0051231   2.5897208  70.6651878  86.5707207   2.8382689
  17.7711332  22.8069186  65.1995802  17.6892388  23.6137772  65.7080126
  18.4687746  22.9901099  64.5703173  19.2828596   6.5882784  83.0469131
  18.4549093   6.8697011  83.4361839  19.0732348   6.4301473  82.1264362
  64.1298389 100.2755642   8.1599408  64.6237278  99.5681477   8.5745102
  64.2036581 100.1013088   7.2216356  41.2703514  29.7168589  83.9576721
  40.4454470  30.2024055  83.9611244  41.2524796  29.2201447  83.1396294
  26.1547852  15.0295603  78.5675669  26.6412115  14.2831159  78.9174843
  25.5832553  14.6510720  77.8994846  32.0813942  28.6962509  85.2669716
  32.4460101  28.3708310  86.0900116  31.2946105  28.1689692  85.1284885
  19.7198534  33.6577916  89.9572563  19.4429743  33.2045889  89.1609001
  19.3930721  34.5511127  89.8503685  34.4442248  15.8900535  85.8330059
  34.3004012  15.1182115  85.2854538  35.0426531  16.4367616  85.3238583
  24.5969605  25.3154707  54.0288496  25.2863479  24.8079348  53.6006212
  24.7859263  25.2350354  54.9637604  14.4958436  32.4895453  69.8253965
  15.3282118  32.4556279  70.2968264  14.5312500  31.7464256  69.2231083
  57.7753544  14.8146045  68.5076809  58.1994343  14.0348005  68.1494999
  56.8694830  14.5457697  68.6604977  44.1377020  14.0378904  84.7009850
  44.5374727  13.3294570  84.1964722  43.4237432  13.6173487  85.1801968
  17.5589275  17.5118518  65.1810598  17.8096366  16.7400563  65.6887102
  18.0932200  18.2195497  65.5415154  39.7925234  18.3193016  82.0208645
  40.4698658  17.7914429  81.5980148  39.8576474  18.0938148  82.9488468
  58.2980871  33.3541918  89.2112350  58.4811735  32.5998926  89.7713566
  58.5047293  34.1132379  89.7565556  42.6608658  21.6091204  69.8087025
  42.2837067  21.4978552  68.9360046  43.5929251  21.7580628  69.6496010
  40.0730753  19.1111743  66.2011766  40.4567814  19.6454465  66.8965530
  39.1711926  19.4236445  66.1290646  15.8934247  37.0384026  79.6438408
  16.0502708  37.5327468  80.4483604  15.9315515  36.1212087  79.9150181
  14.5051718  19.4553125  79.9044943  15.2676749  20.0337863  79.8907948
  13.8712907  19.9077094  80.4610538  42.6485443  16.1665177  71.7360640
  42.4181509  15.8497727  72.6094627  43.5562706  16.4587331  71.8189907
  51.3711309   6.9764167  62.5010920  51.0023022   7.5004590  61.7900515
  50.8070946   6.2044203  62.5471258  62.9421949  31.7406845  90.9535599
  63.1921721  30.8851743  91.3026237  62.5268507  31.5446377  90.1137447
  31.7523384  26.7594647  82.3483944  31.2263918  26.9320989  83.1293011
  31.1214685  26.4503741  81.6982460  10.1303518 108.9866924  75.6557655
  10.2575564 108.1209660  76.0437918  10.5953300 108.9452934  74.8201180
   5.9107673  54.7923994  80.6411266   5.7006741  53.9320374  80.2779865
   6.4077753  55.2293921  79.9495649  49.8700476   8.9196461  60.8833647
  49.6439934   9.6418142  60.2971840  49.0633965   8.7424636  61.3672590
  72.1665478   6.5615678  51.6202402  71.9617128   5.6574583  51.3817835
  71.3142681   6.9645119  51.7860222  72.5611782  81.5709686   2.0897745
  72.2193623  81.4724827   1.2011264  73.2461596  82.2348785   2.0107095
  23.6781669  30.7069230  77.6159573  24.2697954  30.9136295  76.8924379
  23.5870886  31.5312648  78.0938625  13.0733728  48.6545324  81.9978333
  13.0438948  49.2579460  82.7403069  13.9476943  48.2670689  82.0386696
  18.9081073   8.4741879  90.4533100  18.3831215   8.7194711  89.6914291
  19.8109603   8.6508834  90.1889801  74.0716934   8.7517250  85.4102612
  73.2460546   9.2173541  85.2770615  74.4188213   8.6223799  84.5276546
  42.9507542  28.5469413  90.5580330  43.5958195  28.4414315  91.2573147
  42.5525618  29.4009566  90.7263565  57.0228529  20.9860253  72.9761648
  57.2557116  20.1491117  73.3781338  57.6758194  21.1108708  72.2874832
  32.0128155  11.6697323  75.0766706  32.1891832  12.6083934  75.0130939
  32.7079010  11.3331902  75.6421995  51.8868303  76.2592459   0.9266494
  51.6727924  75.4398394   1.3727388  52.3172235  75.9856319   0.1166331
  39.3715930   2.9096681  68.4586048  39.9167824   2.3702985  69.0313911
  39.7513652   3.7860101  68.5220909  39.7676158  12.8687060  59.6524668
  39.7324228  13.1198394  58.7294674  39.0510249  12.2429168  59.7579050
  71.8444681  68.7967587  10.6918597  71.0728407  68.7170124  11.2526298
  72.5595093  68.4351873  11.2155151  49.1693974  44.9888325  89.5530987
  49.5244265  45.8679771  89.6845913  49.9370623  44.4170952  89.5594501
  16.6236842  11.1644745  86.5113354  17.0066297  11.4113772  85.6695366
  15.7143736  11.4583254  86.4562130  63.9483023  29.3461871  86.5905094
  64.1962767  28.5865808  86.0634995  63.3737040  29.8564029  86.0197735
  37.1134782  30.6732392  79.3310833  37.9365325  30.7205939  78.8446951
  36.4649820  31.0598969  78.7427139  76.2936449  37.1474409  89.1207600
  76.7901754  37.9510880  88.9663506  76.7132664  36.4951324  88.5598278
  33.1864238  66.3160944  66.6563559  33.5526109  65.5083847  66.2961578
  32.2390747  66.2079000  66.5723562  26.3240314  78.8110685  83.2099915
  25.9488297  79.1987419  82.4193192  27.2649169  78.9680338  83.1304359
  65.0747585  38.2076097  65.3235531  65.9700966  37.9726171  65.5672407
  64.6122503  38.2862425  66.1578989  43.5441351  47.0647192  74.2619038
  42.8082180  47.6160145  73.9959478  43.3462334  46.2052393  73.8899326
  65.1855898  63.5845375  77.1152496  64.9900723  63.6323357  78.0510473
  66.0278988  64.0298796  77.0234966  26.8695521   9.3731284   4.5942578
  27.2160077   9.6554554   5.4407167  26.0317802   8.9603508   4.8039871
  54.5847797  50.7537937  90.3989601  54.0183163  49.9840975  90.3449535
  54.3460703  51.2808323  89.6364117  38.7864900  71.2486172  94.1797352
  39.6489525  71.6231823  94.0006065  38.4848642  70.9250927  93.3308601
  63.1742096  51.8358564  89.8148918  63.1581497  52.3663282  89.0182972
  62.5311470  52.2492361  90.3909302  90.2830601 111.3842297   6.1177003
  89.4079876 111.6496754   6.4005625  90.6073570 112.1290684   5.6114626
  70.5657339  37.2920561  73.4863472  70.4361343  38.1567645  73.0968428
  69.7692442  37.1361351  73.9938164  95.8629417  88.9794445   0.8251308
  95.5573368  89.7356415   0.3241370  95.0735855  88.6328411   1.2410853
  65.3638363  62.8756332  82.2227287  65.4592800  63.2433987  83.1012917
  64.5621109  62.3545694  82.2669983  48.2010078  77.9523897  76.9294071
  48.3606386  78.3750772  76.0855532  47.8608274  78.6519718  77.4871635
  52.4968529  53.9807510  78.8075972  52.3181486  54.7068930  79.4051027
  52.3671913  53.1955147  79.3394136  45.5676031  51.8425941  72.4779892
  46.1289978  52.5926352  72.6742411  46.0857487  51.0810089  72.7382612
  55.1419497  61.8030977  75.7670116  55.7964754  61.2222290  76.1548567
  54.3188477  61.5489388  76.1843157  34.0738297  45.7892418  79.9347019
  34.2802691  45.2317238  79.1845083  34.5784020  45.4152966  80.6570625
  48.8706446  48.9725351  86.0383511  48.2654810  48.6225176  86.6921902
  48.3049583  49.2948008  85.3366566  30.5335569  63.6298418  86.4028263
  30.5417538  63.0199766  85.6651115  29.9357271  64.3262959  86.1312008
  44.9970484  61.5580177  64.8537207  44.3975925  62.2986937  64.9447489
  45.8469582  61.9026709  65.1277685  53.7952471  63.4321880  78.1883812
  53.6508703  64.2359495  77.6890326  53.7574244  62.7340221  77.5346518
  57.9910994  55.8413172  70.7177019  57.7933359  56.3306761  69.9191713
  57.4913216  55.0295544  70.6311083  38.5279536  82.0850754  54.7726917
  37.6747370  82.2669506  54.3787718  38.3562493  82.0577335  55.7139683
  41.0299397  71.5945244  68.1584930  41.2381744  71.8184853  69.0655279
  41.6537666  72.1002769  67.6376390  43.9747238  62.5654316  74.2215919
  44.5936680  63.1430674  73.7749577  44.0261507  61.7403460  73.7390804
  56.9444704  50.8766270  82.9070282  57.1749973  51.1220741  83.8030434
  56.4152193  51.6072607  82.5871849  79.1895628  40.9428930  85.3972912
  78.7192106  41.7718410  85.4858685  80.0350094  41.1011600  85.8172989
  42.5246096  54.4327021  76.1661053  42.7152348  53.5333395  75.8995628
  42.7034330  54.4468641  77.1063471  45.3040600  58.9958429  91.4032841
  45.6510592  58.6820030  92.2383404  45.3849983  58.2463408  90.8134270
  60.3845167  62.0566702  84.1393757  59.6550035  61.6430664  83.6778736
  60.1294804  62.0317459  85.0616360  51.3643312  57.8708029  62.7000999
  52.2448349  57.9422522  63.0686617  50.8664417  57.3894072  63.3608580
  65.5010843  47.6757860  73.9039516  64.6967554  47.9372072  74.3522167
  65.2409029  46.9333935  73.3586121  59.1498041  59.0584040  74.8355675
  58.3834839  58.6941195  74.3925285  59.8967552  58.6633968  74.3858290
  70.1453209  49.9640989  71.9506454  70.2158451  49.6010590  72.8335190
  70.0166845  50.9027338  72.0872164  58.9926338  68.5182333  89.3059158
  59.4078207  68.9897060  90.0281143  59.6380758  67.8606224  89.0467262
  63.7716961  48.0148888  84.2416668  64.3439388  48.6992598  84.5886612
  62.9752493  48.4777451  83.9815426  44.8010635  66.8662930  76.9337559
  45.2853918  66.0658550  77.1361446  43.9759350  66.5585947  76.5586329
  54.0476036  60.1197290  65.0725698  53.4979439  60.8497429  65.3574944
  54.1919470  59.6045685  65.8662987  46.4742661  76.6901302  61.3591480
  47.2014761  76.4528751  61.9345665  46.2867737  75.8902979  60.8678818
  73.0460548  31.7500567  80.1156044  73.2045317  31.7215347  81.0591602
  72.1909523  32.1714044  80.0289822  58.0026484  50.7826138  93.9465046
  57.2450209  51.2133837  93.5506916  58.1202984  51.2281895  94.7854614
  56.5059662  67.9424667  78.0709505  56.0422945  68.5707712  78.6245489
  56.2997580  68.2135916  77.1764088  68.2344675  55.3210211  71.3469744
  67.8083944  55.2447796  72.2007227  67.5872660  55.7594872  70.7946062
  49.1406584  57.9017735  83.8943195  49.8399258  58.2472420  84.4492054
  48.4588909  57.6306868  84.5090866  54.0814114  68.1532526  72.8819847
  53.2856083  67.8771162  72.4273634  54.7927141  67.7418566  72.3910332
  49.2824316  44.2906189  93.2965851  49.7262383  44.2993069  94.1446400
  48.6458015  43.5792685  93.3666992  47.6003885  73.0718899  85.4018021
  48.1785583  72.8697872  84.6662045  46.7906332  72.6002741  85.2065849
  21.1194873   0.5934067   0.8364022  20.4785490   1.0847001   1.3502705
  21.8472958   1.2031646   0.7150662  57.3525667  58.0945635  77.0355225
  57.7700567  58.7773657  76.5104437  58.0638695  57.4929380  77.2553635
  73.1603956  28.9213324  81.6299057  72.5969172  29.1236663  80.8830547
  72.6077223  29.0764785  82.3958778  52.5058317  61.1270714  76.8403864
  51.8335247  61.4377737  77.4467707  52.5370121  60.1808739  76.9816923
  44.1051054  53.3722925  88.2057858  43.2287931  53.0835056  87.9510021
  44.1993189  54.2355442  87.8031063  80.6067276  77.9327393  89.1353703
  80.4764175  78.6372948  88.5006618  80.8924198  78.3785391  89.9327850
  17.8281081  31.4034963   2.5046271  18.0805230  31.5724397   1.5968955
  18.1220722  30.5081153   2.6722890  75.4597092  82.5273132  70.0969887
  74.6316195  82.0486259  70.0601387  75.5017042  82.8647137  70.9917688
  84.7417736  66.9909954  77.1595097  85.3613186  66.8996000  76.4355946
  84.6761131  67.9354334  77.3007727  73.5697174  90.9583282  75.3918886
  74.1005802  90.1854324  75.1994038  73.3909464  90.8984470  76.3303423
  23.4992027  30.9832907   4.7816625  24.3352747  30.5561948   4.5951059
  23.5260582  31.7943716   4.2740628  93.8146687 102.4730587  85.2579117
  93.3366394 101.8034554  85.7471466  93.3869553 102.4953365  84.4018745
  72.4816561 106.3555336  77.2323370  72.2117138 105.4908657  77.5417137
  71.6847610 106.7380714  76.8651152  78.2652998  76.5625906  68.4393597
  77.7366161  75.7907581  68.2368755  78.5120630  76.9149303  67.5842619
  71.1782551  77.6264763  86.0260773  70.5444622  77.7987194  86.7224026
  70.7311106  77.8949404  85.2234364  84.8048019  88.8261700  85.6374073
  85.4293537  88.9780807  84.9281120  83.9462566  88.9227009  85.2253246
  82.0388126  90.8472347  84.6305180  81.2529564  90.3227329  84.4770145
  82.7490139  90.3323555  84.2474365  94.3289661  86.3800716  73.9341974
  94.4562054  85.4365253  74.0330029  93.9827061  86.4835358  73.0478382
  33.6958957  36.3704133   6.0050845  32.8233576  36.4683676   5.6238854
  33.6026287  36.6906810   6.9022810  72.4582863  84.5000553  79.1211510
  71.9738007  84.6457005  79.9337387  72.5374889  83.5483074  79.0568304
  76.9446993  87.2052956  76.0120392  76.6833210  86.3104153  76.2290525
  77.8885031  87.2242451  76.1704922  79.9366713  87.6763248  75.6170750
  80.0034046  86.8803787  75.0895929  80.8044720  87.7780628  76.0079861
  95.0178432  88.7482548  65.5377626  94.1325092  88.8197994  65.8945656
  95.2543354  87.8296661  65.6662321  80.9824848  98.8775635  71.7965269
  81.2640667  98.3594322  71.0425472  80.8817005  98.2385826  72.5020599
  82.1072006 102.6821232  54.7853279  82.4939919 102.6900387  53.9097929
  82.2121620 103.5794163  55.1016617  84.8026466  91.0634613  75.2285004
  85.5444813  91.3396740  74.6903467  84.5473576  90.2147198  74.8669767
  81.4638805 112.1520805  60.1058102  82.1139240 112.4332905  59.4619226
  80.7998657 111.6933441  59.5911551  79.8401976  89.3430805  64.8034430
  79.4171667  88.7845516  64.1512775  79.1759634  89.9947929  65.0277042
  95.0728226  98.8581085  80.1809311  95.6648827  98.5338497  80.8595848
  95.6194592  98.9245701  79.3979883  85.4387379  89.3800545  60.2058840
  85.4340649  90.2786636  59.8761654  84.5285225  89.0931606  60.1321840
  99.2679024  97.4375629  84.5590973  98.4698677  97.8824902  84.2737675
  99.8120499  98.1340027  84.9266815  81.4396763  90.8321762  61.5382719
  80.6043720  91.0042477  61.1036634  81.8115902  91.7002010  61.6946316
  78.8641930 108.8896942  79.7362280  78.7312365 108.0321312  80.1401424
  78.8881207 109.5003319  80.4729652  80.9654427 104.5644474  77.3792696
  81.0458946 104.7517395  76.4440250  80.2571011 103.9230633  77.4350309
  72.9670668  81.0888481  67.0277929  72.0349026  81.2397766  66.8712044
  73.0499172  81.0707378  67.9812288  81.2183952 102.2733212  73.3918333
  80.4263306 101.9520378  73.8227034  81.0451412 102.1606159  72.4572134
  64.8058748 110.1344681  89.4371700  64.4576597 110.1274776  88.5455894
  65.1998329 111.0014915  89.5336533  89.3440056 111.0652733  73.1531143
  89.1441727 110.5585861  72.3659897  89.6969795 111.8914795  72.8229141
  96.3572025   5.9549576  77.1894026  95.4962826   6.0014570  77.6051998
  96.2214470   5.4039454  76.4185667 104.8196030  98.1661797  68.7001324
 105.0308800  99.0777302  68.4984636 103.8632870  98.1314850  68.6782408
  98.5019016   3.6464682  90.9984016  98.1570816   4.2356047  91.6694069
  97.7782822   3.5363373  90.3815651  89.3762779  81.1968231  78.1030464
  89.3794823  80.9802437  79.0354156  89.9750042  80.5631065  77.7078867
 110.2941227   0.5098005  78.0153179 110.2206516   0.6281454  78.9623308
 109.6212864   1.0838525  77.6492882  99.3403530  86.7982578  55.5789900
  99.0430641  87.6121426  55.9857321 100.0344753  86.4812946  56.1568928
  75.9276676  95.6245708  91.7031288  75.3845406  96.2355423  91.2051678
  76.7050982  95.4972935  91.1594105  70.7502842  95.2977562  92.1379948
  70.4064035  96.1439419  91.8517113  71.2185574  95.4918289  92.9499626
  99.5648289  82.3475838  83.0239010  99.9162388  81.7153835  83.6508465
 100.3139400  82.5843430  82.4770832   8.8556892  13.5166466  75.7131863
   8.0145895  13.5682631  76.1671877   9.3936044  12.9526675  76.2688875
  42.6790524  31.1053658   1.0157096  42.3842096  31.9233465   0.6154479
  42.0041943  30.4678011   0.7826721   8.4788460   1.4884891  85.2191448
   9.2175764   1.6370125  84.6288490   7.9351413   0.8446892  84.7651196
 101.5713024  93.0150509  78.0765247 100.7813358  92.4972153  77.9215097
 101.6800880  93.0071545  79.0274906  91.5585327  91.0114384  75.6813145
  91.6433811  91.9146347  75.3759098  91.3722897  90.5072784  74.8892498
  66.8001223 102.6950169  96.7972755  66.1595821 102.5536251  96.1001778
  66.5845585 103.5587502  97.1490383   3.3003753  19.9755323  69.6691418
   2.9992124  19.4703948  70.4243708   4.2543387  19.9781621  69.7477531
  91.9658279  89.8633480  70.3848553  92.9168987  89.8097229  70.2909708
  91.6421413  89.0408230  70.0175667  94.3328476  90.5422401  79.7707987
  94.3423653  89.5921803  79.8870754  93.7911892  90.8662033  80.4904366
  71.3351154 107.2541714  60.9973001  71.2939215 107.8295898  60.2334785
  71.4032936 107.8504562  61.7429733  85.7748318  86.5372849  72.9685307
  85.0777531  85.9388638  73.2372475  86.4758301  85.9643078  72.6578188
 109.5268440  14.0631580  52.0763397 109.6545219  14.2170000  51.1402512
 109.6639538  13.1221151  52.1852970  68.2108593 104.1434002  91.8607235
  67.3585367 104.3752956  92.2295094  68.4208679 104.8664951  91.2697411
  72.4007511 103.6456203  78.7735128  71.5140009 103.2938766  78.6949062
  72.9705334 102.9140282  78.5361195  92.0241833  95.5408192  71.9674635
  92.8934479  95.2183819  71.7294455  91.4333820  94.8199081  71.7496109
  86.3731480  92.4597168  69.2655993  87.1442032  92.1302986  69.7273207
  85.6750870  92.4392700  69.9202156  96.6145134  83.7837887  76.4738321
  95.7886791  83.3898544  76.1926937  97.0382690  83.1037331  76.9974566
  92.5636673  69.4711304  91.3419247  93.0989742  70.2330017  91.1200523
  92.6291180  68.9011002  90.5757523  83.5656643  86.6315269  64.4267559
  83.0459785  86.2007141  63.7481165  83.2598209  87.5385475  64.4229841
  95.4320145  95.3799152  55.1154995  95.2542019  94.8749542  54.3220139
  94.9743652  94.9050045  55.8092165  77.9785490  81.9612694  68.7604189
  77.0761347  82.0528507  69.0661955  78.4569931  82.6545715  69.2150068
 105.3496456  82.0078564  71.9965124 104.6386337  81.3775539  71.8806887
 105.0721264  82.5487804  72.7358437  78.0778360  88.1607246  90.6052589
  78.1206942  87.2915363  91.0038948  77.2155237  88.1919384  90.1909161
  90.2017975  87.4132061  69.8541451  90.2351284  87.0915699  68.9532137
  89.3058872  87.7326775  69.9614143  84.4385052  92.0884514  54.5247841
  83.7681675  92.6041508  54.9730349  83.9647198  91.6328430  53.8289595
  88.7421417 109.8267269  70.8835363  88.4935474 108.9344788  70.6420279
  89.3518925 110.0993729  70.1978970  73.2847309  78.9060020  87.0538139
  72.5194788  78.3884048  86.8033886  72.9196787  79.6923304  87.4595928
  83.7375164  95.6863689  57.5564718  84.3440342  95.2351093  56.9693375
  83.6809158  95.1185036  58.3249426  84.4263649  91.8814945  71.3159323
  84.1861439  90.9600258  71.4129972  84.9733925  92.0680618  72.0789385
  86.4308071  99.0137672  63.3818197  86.2320328  98.0982399  63.5781288
  87.3841953  99.0707970  63.4453011  12.7939928   3.2523832  62.7082729
  13.2066631   2.8771153  61.9303846  11.8924665   3.4291089  62.4394798
  99.5777702 104.8684120  67.6782417 100.1182461 104.0952396  67.8404951
  99.2353344 104.7399235  66.7936754  81.6845036 103.7760258  57.8006792
  81.1786652 104.3506908  58.3752298  82.5953293 103.9250565  58.0544901
 115.2622414  82.7079582  56.5765429 115.2834702  83.1665230  55.7365990
 114.4068336  82.9257774  56.9467783 107.4920177 100.6369877  82.8979683
 108.1440067 101.1260128  82.3959732 106.6505814 100.9376621  82.5547218
 114.8169518   6.6877633  75.3364849 114.5311737   6.6829365  74.4229555
 115.3355980   5.8886439  75.4294205 118.1653309  96.8947315  70.9987736
 117.6602650  96.2298965  70.5306530 117.9863453  97.7079487  70.5266857
  94.1158104  87.6700783  70.8946800  94.1217709  87.5773335  69.9420023
  94.9095345  88.1674099  71.0918856  88.0943203 106.2162399  85.9833717
  87.5186729 106.9798279  85.9410477  88.4116554 106.1055374  85.0871086
  82.3113728  77.1421146  95.0634289  82.5693703  76.5881109  95.8001423
  81.6742992  76.6162348  94.5798779  97.5334740 105.7539272  86.8213367
  96.7725468 105.3030014  86.4554405  98.2629871 105.4839230  86.2635326
  84.9544716  99.0081978  60.9251022  85.2556992  98.4612465  60.1996136
  85.4995251  98.7442875  61.6663837  78.8218546  84.2299938  70.3943968
  78.8959837  85.1700211  70.5590010  79.2963696  83.8218689  71.1186218
 118.5368156  14.0211320  75.8633327 119.4550991  14.2912352  75.8571768
 118.0470657  14.8392797  75.9470510 102.1014214  83.9711857  85.2212429
 102.3408890  83.0531406  85.3480721 101.4723301  84.1532612  85.9193420
  87.5656128 106.2544441  73.6181736  88.1039333 106.9711685  73.9539480
  88.1884766 105.5493164  73.4419298  98.3353996  80.2909565  58.2093287
  99.1449738  79.7814465  58.1744432  98.2581234  80.5553722  59.1260290
  97.0416260 104.8014832  59.7355700  97.8643036 105.2734756  59.6065044
  96.7907047 104.9998093  60.6377506  72.1913624 102.6342201  66.9416046
  71.9998455 101.7083073  66.7924500  73.0856466 102.6418781  67.2828102
 115.0909519  90.8135319  89.4141674 114.9569130  91.0947132  90.3192616
 115.2402401  91.6259861  88.9305687  91.2045574 101.4963150  65.5489826
  91.5787888 101.0662174  66.3178730  91.6899395 101.1300945  64.8097134
  72.0333147 104.5723248  62.1055508  71.7189407 105.4476166  61.8791294
  72.9776335 104.6791553  62.2199202  97.1923256  99.0390110  90.8014679
  97.6025009  99.1016674  89.9388790  96.2526131  99.0284061  90.6196308
  17.3499203   1.8539017  73.3267307  17.5570989   2.5224739  72.6738024
  16.7386520   1.2664352  72.8823614 100.6159782  98.8327408  73.3101845
  99.8557472  99.2816067  73.6800623 101.2362766  98.7738132  74.0368080
 117.8330803   6.6381329  72.0055771 118.4578609   5.9218967  72.1190786
 117.0319557   6.3260782  72.4263668 106.2142181  71.1975813  75.9105825
 106.0800076  71.9297266  75.3087616 106.6577148  71.5857315  76.6648245
  77.6987648 108.3306694  73.3004856  77.9970026 107.5631332  72.8124619
  77.9289246 108.1405449  74.2099428  87.0815372  85.4525757  75.6912899
  87.2431183  85.6432819  74.7672987  87.2159100  84.5079613  75.7679510
  90.3907490  87.1021843  94.0514183  89.5653629  87.5860214  94.0220070
  90.7291698  87.2592354  94.9329185  95.3403473 108.4371567  84.5087242
  94.6405029 108.3484364  85.1556969  96.0981369 108.7309647  85.0143528
  25.9829569   6.1309522  93.5917187  26.4316368   6.2048519  94.4340038
  26.6770363   5.9157342  92.9686832  86.0314846 103.5997963  78.9884710
  85.1707458 103.9605045  78.7757349  86.0760498 103.6341190  79.9440193
  82.6482964  80.3450584  89.2273140  82.2724628  80.3783512  90.1070118
  83.1036663  81.1813068  89.1296005  91.7483139 110.2145100  96.0089779
  91.6508007 109.9661827  95.0897026  90.8540440 110.2259636  96.3501358
 100.4141617  97.1231174  63.5448790  99.7424889  96.5292358  63.8801336
 100.7970238  97.5183010  64.3281269  95.6492424 101.5961170  62.1088123
  95.9132671 102.5094509  62.2198915  94.7163868 101.6403008  61.8988991
  97.5100803 104.9066448  75.0323677  97.9148579 104.9076080  74.1649628
  97.6564503 105.7918167  75.3659582 112.4380112   5.7079571  92.5774097
 111.9899464   4.9962974  92.1202374 113.3685112   5.5027884  92.4862957
  90.6744385  97.9518604  60.9616375  91.3149452  97.8982449  60.2523422
  90.1691246  97.1420956  60.8897638 116.2244797 108.6963081  73.5926676
 116.3978100 107.7661610  73.4476995 116.8048573 109.1465855  72.9789591
  90.9558582  83.1610012  69.3610525  91.1208534  82.5619602  68.6329269
  90.3538132  83.8132763  69.0028572  84.8164654  86.0698605  94.7168064
  85.2410030  85.3993320  94.1816425  84.5658684  86.7510986  94.0928364
 109.6656704  94.5683193  81.4694118 109.0018940  95.0394535  80.9657574
 109.2358685  93.7532711  81.7286301 110.0820351   2.2999124  33.0538797
 110.9200001   2.1589282  32.6132393 109.4866562   1.6734955  32.6423502
  82.8114891 105.2824211  64.8654652  82.2810650 105.7120323  64.1944122
  83.3499718 105.9843826  65.2308655  89.8128986  80.0236893  80.5359554
  90.7584190  79.8774099  80.5071068  89.5762253  79.8804808  81.4523125
  68.2148266 109.9375725  67.2092295  68.9380932 110.3518009  66.7385578
  68.5122585 109.8975754  68.1181669 102.6887035 103.0361652  70.5795622
 102.7679825 103.9900398  70.5709314 103.0425644 102.7740955  71.4294624
  23.5870290  33.0069113   3.0926031  23.5105729  33.9498806   3.2381940
  23.8033152  32.9247284   2.1637879  91.7824459  75.2519703  93.6699200
  91.0665321  75.6868172  94.1331863  92.1794510  74.6792603  94.3261433
  75.6198406 102.8257656  81.1600018  76.2651777 103.2205009  80.5735302
  75.5973244 101.9033527  80.9053135  97.3655033 100.3731728  63.9346790
  96.9696140 100.7411671  63.1446886  96.8663597  99.5738888  64.1027021
  41.6953611   1.2907138  69.1456985  42.0760298   1.7458199  69.8968315
  41.3497543   0.4755858  69.5095062  67.4758577 107.6718426  79.1255379
  68.2957220 107.3803520  79.5243931  67.4299145 107.1951199  78.2967710
  98.1255150  91.5956497  40.8004856  97.8484821  92.4756432  41.0556269
  97.8717804  91.0412979  41.5384150  86.7379379  98.8360882  72.5004482
  87.1973324  98.2859516  73.1349039  87.3476410  99.5509434  72.3174667
  46.3875914  10.7364440   3.5240641  46.9970465  11.4492989   3.3326650
  45.5704165  11.1763918   3.7583748  86.6528797  96.0222626  70.8113766
  87.2761917  96.7309189  70.9711313  85.8891582  96.2510777  71.3410902
  88.3868313 101.5571880  61.9351673  89.1971397 101.0870934  62.1317339
  88.5309505 102.4379635  62.2811222  35.7620907   0.5529721  80.7571316
  35.2874446   0.9193736  80.0110149  35.1050186   0.4871067  81.4500618
  94.0385437 103.5169983  81.2682247  93.4891129 104.1444016  80.7984161
  94.5789433 103.1153679  80.5878639  79.2378664 100.8584785  74.8329353
  78.3804369 100.7017040  74.4373751  79.5309973  99.9936390  75.1199055
  98.9254570   8.4747213  72.0260763  99.2434502   8.5510457  72.9256821
  99.1298771   9.3205070  71.6272116  89.5321655  92.7628422  91.3967037
  88.8868332  93.0762100  92.0304108  89.1615868  92.9917622  90.5443573
 111.1239147   6.5762115  58.1402111 111.7459965   5.9872890  58.5673141
 110.2652168   6.2700546  58.4319925  59.9007416  49.8863554  18.2546353
  59.6645546  49.1817665  17.6513112  59.5141125  50.6721592  17.8682947
  65.4247141  28.2536578  10.5945790  64.6437931  28.1471825  11.1377680
  65.6126690  27.3729658  10.2700949 113.4070301   2.1381338  54.8918533
 113.2981396   3.0706337  55.0784540 113.9804554   1.8197325  55.5890179
 111.9486141  84.4417191  79.6733284 111.0388947  84.3302250  79.3972588
 111.8912888  84.6658325  80.6021500  72.8188562  93.4777164  75.3064728
  73.1208181  92.5774193  75.4269791  72.8040409  93.8456631  76.1900091
  91.2066364 102.1004963  50.3009367  91.0332775 101.1600113  50.2601528
  91.9800854 102.1774673  50.8595800   4.1000643 108.8183975  84.5522118
   3.4102887 108.2999611  84.9665356   4.1134730 108.5168171  83.6438560
  42.4796820  52.6046658   5.9130198  41.7909718  53.2605362   5.8046508
  42.9777575  52.9038191   6.6737199  89.6320820  92.3014832  80.8352470
  90.1572132  92.0447540  80.0772572  89.8608780  93.2187080  80.9855461
  88.2803345  80.7208347  73.5735273  88.3462906  79.9566555  74.1461706
  87.4772453  80.5765057  73.0730724 112.7167606 101.9388008  86.6350079
 112.3221111 101.0725880  86.5341473 113.2169342 101.8808079  87.4490738
  96.6116810 101.7165089  76.0574961  97.1155262 102.3906612  76.5134430
  95.6976891 101.9460869  76.2252331  85.8027077  83.0322170  73.8232756
  86.3830090  82.5216770  73.2586193  84.9295616  82.6802349  73.6502171
  89.1055012  95.5832577  57.4361086  89.4190121  96.4047527  57.0578432
  88.9412880  95.0189495  56.6805744 106.1437798 112.5938892  29.4727373
 106.0436535 111.6420937  29.4555926 107.0878696 112.7341461  29.5452380
  25.1763272  19.4645405  63.0652952  25.4194951  20.3094554  63.4437418
  24.4626975  19.6692133  62.4610853  82.9118538  89.0125942  59.9328423
  82.2030735  89.0227699  59.2896032  82.6098061  89.5932961  60.6312609
  96.9696236  83.1876278  70.5733204  97.7690792  82.8100204  70.2065563
  97.0700359  83.0878639  71.5199947  64.2372227  28.2062149   5.5913854
  63.7033892  27.7954936   6.2715065  64.9864769  27.6195478   5.4881096
 115.6161976  86.4463615  56.9817924 114.9696445  87.0555878  56.6253710
 115.8720970  85.9048080  56.2351561 108.7085533  89.2332268  73.9881754
 109.1001129  89.7417450  73.2780170 107.9671383  88.7849712  73.5812378
  34.6575379  12.1334016  87.1280956  34.8830557  12.2396302  88.0522633
  34.1339207  11.3326156  87.0998383  93.7397766  80.6276703  67.3758221
  93.9006042  79.9560547  68.0386162  94.2213631  81.3933563  67.6889420
  91.4508629  86.4462566  67.2896767  91.2413120  85.9931278  66.4729738
  92.0742035  85.8690357  67.7307034  72.9570293  88.2351589  90.1603317
  73.8636065  88.5212612  90.0485611  73.0040312  87.5422764  90.8190727
  81.3322449  85.7427597  68.8025427  81.5918159  85.1696396  69.5239115
  80.8456802  85.1728344  68.2070017  86.8257904  82.9359818  69.7749376
  86.1207962  82.3104954  69.9422216  87.3067856  82.9813766  70.6012630
 101.7001820 102.3257923  53.7245607 101.8221760 102.0168495  54.6222878
 100.8001423 102.6508999  53.7033749  83.3233833  85.4328442  72.7378559
  82.4663544  85.8304501  72.8916359  83.2170010  84.9421215  71.9229317
  97.1770859 108.0334663  94.8442554  96.3288021 108.0909443  95.2839756
  96.9664860 108.0735970  93.9113712  85.5074310 103.7591362  65.3700590
  85.6471634 102.8333092  65.1711607  84.5691967 103.8938332  65.2366209
  83.2972431  81.7426300  73.5353327  83.3850861  81.1199951  72.8136301
  82.3652267  81.9601059  73.5519266   1.1220446   8.6908889  94.5509911
   0.6824807   8.7595552  95.3985119   1.9136135   9.2202401  94.6481323
  98.4282684 100.0301647  74.5704365  97.8092861  99.3005276  74.5972776
  98.0965137 100.6497192  75.2203035 100.8099270 102.9511261  60.7587004
 100.3791809 102.3315239  61.3475752 100.6801701 102.5813580  59.8853970
  85.7620716 100.9280205  65.3527069  86.0935974 100.4577637  64.5877361
  86.5483665 101.1993885  65.8263493  97.5043297 103.6414528  50.8412552
  97.6784420 102.7529430  51.1518621  98.3693504 104.0459633  50.7753754
  85.8638382 101.9563389  60.3796291  86.6032219 101.5304089  60.8133650
  85.3379822 101.2333775  60.0375319  18.5405219 109.4857883  56.7822838
  18.4201801 110.1445007  56.0982847  19.3199623 109.7736263  57.2575235
  92.0319080  96.1047459  46.4670992  91.8280220  95.1717091  46.4030504
  91.6838360  96.4819908  45.6591606 103.1808472  97.6571369  72.1170521
 102.4390984  97.8395939  72.6939011 102.9528141  98.0842113  71.2913132
  15.0267327   2.7813372  52.9345751  15.3608906   2.6334023  52.0498800
  14.0762448   2.8200367  52.8282356  72.9711866  96.3297558  51.0319519
  73.2212114  97.2488499  50.9371376  72.3134041  96.1890030  50.3509665
  75.9785795  77.6753235  92.5376415  75.3713131  77.6930618  91.7979431
  75.7412529  78.4409809  93.0607796  38.9793086  16.1286306  88.1254482
  38.0224228  16.1044979  88.1298542  39.2006946  16.9353700  88.5906219
  18.3468354   1.8062012  58.2862902  18.5097373   1.4642443  57.4072218
  17.5493765   2.3279330  58.1963587  99.7618866 108.8867474  73.1004286
  98.9974213 108.3592033  72.8690958  99.5197678 109.7797394  72.8551388
 110.5641556 105.2225208  84.4157887 111.4993095 105.0511169  84.5269012
 110.1363564 104.4204617  84.7156811  34.3511844  48.2914686   4.1486892
  34.4572973  49.2415380   4.1970357  33.9975834  48.1342030   3.2732081
   3.2254228  95.0214958  82.3008251   3.6879006  94.5082951  82.9633713
   3.1554735  95.8968735  82.6816940 101.3270569 107.6667690  77.2651005
 101.7146111 107.2258759  78.0211830 101.8941593 108.4225082  77.1118879
  37.1759272  20.0329232  75.7713890  37.0530534  20.9821892  75.7766390
  37.1822810  19.7871161  76.6964674  93.4026718 107.7469730  52.7633762
  93.4718323 107.4454021  53.6691952  94.2260551 107.4761581  52.3572540
 101.2564850  96.8577385  76.6529036 101.9231701  96.3368130  77.1005678
 101.3020039  97.7167892  77.0726490  30.3537631   3.0819726  67.8926563
  30.4915237   2.3065233  67.3486567  30.4167604   3.8168287  67.2825336
  65.5070734  60.4429436   1.0562669  65.3209066  61.1613274   0.4517024
  64.6770239  59.9722528   1.1317752  83.2484913 103.9371777  68.8698149
  82.6277924 103.2657337  68.5867453  82.9625607 104.7324371  68.4203291
  76.5953970 102.8486824  59.6651697  76.3940573 103.7476540  59.9250555
  76.9574070 102.4464798  60.4547358  87.3690510 104.5454693  76.8134737
  87.0090866 103.9797497  77.4965715  86.6007328 104.8894596  76.3578558
  19.3983972   4.0979069  92.8718758  20.0532079   4.3630707  93.5177422
  18.7232649   3.6528772  93.3841038  67.4497175  61.1632204   2.4872404
  66.7415333  60.7663059   1.9801228  67.1861792  62.0774651   2.5917888
  89.7345543  94.6860695  69.7387457  90.2828503  94.0869522  69.2321205
  88.9757442  94.8482418  69.1782665   7.2995728   7.9060823  79.5927334
   6.4523232   8.3214933  79.4320059   7.0888859   7.1186203  80.0944805
  86.0791302 101.3316059  81.6751480  86.7901993 101.4863110  82.2969818
  85.4375267 102.0146370  81.8702030  61.6567278 107.3264503  65.3857899
  62.3849154 107.9464340  65.3459597  61.6332245 106.9283676  64.5156097
 110.7672215 106.4236832  75.6409311 110.7095146 107.2941303  76.0349178
 110.6947708 106.5815544  74.6996260  91.4330006  91.7576694  63.2012796
  92.3179054  92.0273876  62.9554749  90.8866596  92.5177479  63.0012035
  72.9919338 108.3856678  79.7521687  72.8928852 108.0261993  80.6337643
  73.3206654 107.6535130  79.2305183 117.0878792  15.6876922  54.2136335
 116.2762070  16.0156155  53.8264751 117.7724552  15.9632194  53.6039829
  30.2424145  16.2638855  68.0532026  30.0270104  15.3709161  67.7840567
  29.3934989  16.6818273  68.1977749 101.8025303  96.4785671  82.8143024
 101.0702515  96.5929031  82.2085667 102.0558834  97.3697758  83.0547142
  16.6443241  17.5029862  60.7883263  17.1424913  18.2823145  61.0347176
  16.0836899  17.3281991  61.5442181  13.4228706  33.2826471  86.0242367
  12.6903582  32.7505565  86.3349438  13.0131221  34.0753245  85.6778240
 107.9431343 100.3681278  66.0253859 108.4404945 100.2440548  65.2170086
 107.9532719  99.5088959  66.4471054  83.3817577 111.5913200  66.5363646
  84.2692566 111.8350983  66.7993402  83.1149101 112.2796440  65.9270668
  21.9913006   4.5113814  54.8300886  22.2388172   3.6100492  55.0364065
  21.8893933   4.9330652  55.6833363 111.9269466  25.9158707  64.1504097
 111.7391491  25.3959227  64.9318314 112.3074722  26.7267156  64.4879961
  76.0329819  59.3165302   0.6408607  75.9340620  58.6365175  -0.0254936
  76.0506773  60.1358223   0.1462035  83.5136604 104.5927429  78.5294867
  83.4670353 105.2670860  79.2072153  82.6668644 104.6401882  78.0857325
 119.0191650  26.6540217  67.8270674 119.3131065  27.5203347  68.1087399
 118.3328533  26.4191818  68.4516096 104.6491528 101.5898514  82.1779728
 104.3215084 101.6576481  81.2811565 104.6327400 102.4883747  82.5075340
  33.7294436   5.2158934  60.3354979  33.2964158   4.7939384  61.0775757
  33.1732035   5.0091875  59.5844316  86.1704922 112.2017479  79.6881723
  86.7623520 111.7801857  80.3112507  85.3660965 112.3507786  80.1851368
 107.8298950 105.4152870  71.5484810 108.3438969 105.1153183  70.7987738
 108.0965996 104.8414993  72.2667170  50.7804394  10.8620095   5.4962498
  51.6757345  11.0536778   5.2170748  50.8158636   9.9586946   5.8108896
  10.3198397  14.7469282  46.5863800   9.8601645  15.3302789  47.1902275
  10.9717739  15.3056467  46.1632395  16.4258862  10.6454587  83.5760117
  15.5464673  10.8454132  83.2552719  17.0041049  11.1974812  83.0495453
  31.9427752  64.2336035   7.6861012  32.5552440  63.9879465   8.3794743
  31.2883306  64.7763491   8.1258291  91.9801998 109.6471024  75.7121372
  92.5510693 110.2948570  75.2989006  92.3837280 108.8045311  75.5036592
  27.8576279   6.6155267  55.1775169  26.9458413   6.8557507  55.0126743
  28.1446004   7.2200447  55.8619404  91.8558502 105.0372028  89.5164585
  91.7980289 104.4151878  90.2417088  90.9476471 105.1786995  89.2492962
  20.6485009   7.0896733  85.3601933  20.1220465   6.8370044  84.6017551
  20.2349281   7.8903723  85.6828022 113.6391830   4.5170498  68.1742764
 114.3205357   4.4447991  67.5058699 112.8537178   4.7700721  67.6892471
   5.5921638  99.8198986  72.0727682   6.4435649  99.4151783  72.2387552
   4.9901295  99.0816021  71.9794559 106.8626785 100.7600212  91.9783783
 107.3001385 100.5451870  92.8022099 107.0500183 100.0156498  91.4064980
  88.5814762  89.7860241  80.8303833  88.6924076  89.5886421  79.9003458
  88.6134338  90.7415104  80.8779240  91.7290115  85.9510994  55.4839516
  91.3769627  86.0308075  54.5974159  92.6456356  85.7065392  55.3565693
  59.7428656 109.6689892  92.8090763  60.2269316 109.4082451  92.0255470
  60.1116323 109.1299725  93.5088730 110.2228451  93.1916237  74.3944550
 110.3569984  93.4553623  75.3047705 109.2753792  93.0816746  74.3140936
   2.9608259   1.2042619  71.4610624   3.2331014   1.5376639  70.6061125
   2.9371908   0.2537036  71.3510084  60.7058764  25.8153582  90.6312561
  61.4272594  25.7820892  90.0029755  61.0288572  25.3333044  91.3925266
  24.3696308   2.0483315  71.4890909  25.0259900   1.7485422  70.8601618
  24.1470742   2.9331431  71.1995935   9.9098992   4.5762175  65.2677250
   9.3348801   5.1602274  65.7622099   9.5824212   3.6977449  65.4607916
  78.0315733 104.6581841  49.4215727  77.4651051 104.5052814  50.1778603
  77.6321650 105.4013824  48.9695263  35.7625151  10.8326101  70.2337074
  35.5512547  11.5838218  69.6793747  35.5798841  11.1330235  71.1240053
  95.6098080  98.0843639  64.7239304  95.3412151  98.2753944  63.8252687
  95.0645447  97.3419476  64.9841928  88.2159233  99.0548992  80.0354576
  88.6766624  99.8893833  79.9483967  87.9998684  98.8057137  79.1368723
  86.8671417 112.0947742  60.4046249  87.7420521 111.7242527  60.2885151
  86.7801380 112.7306271  59.6944571  96.3220882  92.5128937  68.2400894
  96.5728474  92.8451252  69.1020489  95.7407570  91.7758560  68.4273100
   4.4809142   3.3026537  67.3955679   4.1787431   4.1516635  67.0729113
   4.9945995   2.9409871  66.6733789  88.3705807 108.8223839  44.7711563
  89.0804100 108.3921432  45.2478743  88.5538960 108.6371517  43.8501167
  78.5113001 106.3277245  64.3202543  78.2105446 105.8245850  63.5635328
  77.9033852 107.0650959  64.3745565   9.6356696   7.5821716  57.5282097
   8.9726925   7.0638156  57.0721388   9.3149632   8.4824109  57.4739122
  98.0772400 101.9566822  68.6318016  97.3048210 101.7757893  69.1674185
  97.7637672 102.5553894  67.9539251   0.0750550  16.0355580  65.6824207
  -0.5576106  15.9548068  66.3961744   0.6022685  16.7998755  65.9150076
   1.9376360   8.3028960  71.3401031   2.0285930   9.2511976  71.2469244
   1.0764945   8.1074351  70.9706974  13.4803307   0.2257736  76.6353559
  12.8476095   0.2220710  77.3536062  14.3140328   0.0028184  77.0494366
  99.7535229  93.0710602  64.8159885 100.2907944  93.5769272  65.4256392
  98.8748169  93.0944729  65.1948977  92.5944519 100.2510262  86.4998436
  92.5666142  99.8281288  87.3581123  91.7394829 100.6725311  86.4126778
  31.0776806   2.9812387  84.4860077  31.0850787   2.5250986  83.6445141
  31.3826227   3.8653135  84.2819118  45.5941200   6.4649004  73.2887363
  45.2682972   6.7595637  74.1391754  46.4786911   6.1463434  73.4684324
  90.1190376  96.5456486  78.1505156  90.0819206  96.6114426  79.1047287
  89.6493912  97.3192215  77.8386545  31.7519832  14.4609880  71.6556835
  30.8037448  14.5229602  71.7707205  31.8641424  14.1357911  70.7624340
   2.3814172   8.2440966  81.4061356   2.6744404   9.0361094  80.9554863
   2.2805215   7.5955325  80.7094193  69.5895815 105.8113194  40.7054615
  69.1690779 105.1595497  41.2663603  69.0270138 105.8609295  39.9326181
  85.1935577 106.0894108  48.1814051  86.0491276 106.1627102  47.7584934
  84.8571014 105.2400780  47.8956413  99.8856068  88.2270527  74.2234898
  99.8313522  87.7060986  73.4223080 100.4558659  87.7195835  74.8009920
  91.6358280  84.5565414  65.4634094  91.4249134  83.7664604  65.9609222
  91.8778610  84.2351818  64.5948601 111.3020802   4.0366060  71.4145374
 112.0808411   3.6517867  71.8166304 110.5730343   3.7041798  71.9382048
  95.5802822   9.0925795  51.7798042  96.4543152   8.7674928  51.5638733
  95.0526333   8.3023608  51.8954420 114.6508503  69.1168451  53.8126564
 114.3539143  69.8214960  53.2368708 113.9292336  68.4879494  53.8133144
   1.9947568 105.8733845  55.2172518   2.7596790 106.0581970  55.7622004
   1.7376453 104.9836731  55.4591894 113.1426048   1.8070458  71.0731888
 113.2792568   2.4354976  71.7821360 114.0252399   1.5834904  70.7778502
  26.9165897  28.0398870  75.4244280  27.6668191  28.6041331  75.2373171
  26.2219167  28.6440825  75.6863642 101.6978645 103.1143951  68.1384182
 102.0043850 103.0433464  69.0424252 102.3673534 103.6387539  67.6990223
  86.0752773 100.6847000  77.2051668  85.5392933 100.5914307  77.9927254
  85.6717587 101.4078331  76.7250776 106.9401360 110.6083870  86.5717983
 107.7655983 110.9535027  86.2315941 106.7218399 109.8859024  85.9830761
  31.8167472  10.4181302  61.5086603  32.6966882  10.6633866  61.2226820
  31.2949204  10.4198933  60.7062101  44.8188305  17.5158799  92.0855522
  45.4377747  17.0419276  92.6409912  45.1080370  18.4273434  92.1282673
  13.7213945   8.1772703  40.6597805  14.2413914   8.5037011  39.9254251
  12.8303742   8.4724867  40.4722738  67.8299904  98.4713936  47.6027441
  68.2023764  99.1092587  48.2115841  66.9656229  98.8218880  47.3876667
  99.5233345 111.3197517  71.7195368  99.5898914 112.2269917  71.4216757
  98.5847950 111.1755466  71.8402719 108.4083176  92.7698517  52.8438234
 107.9084301  92.7716827  52.0275259 108.5772419  93.6947823  53.0233002
  98.1411552  91.6532230  61.9042253  98.7134457  91.8558598  62.6442575
  98.1244087  92.4584103  61.3868999 102.4369621 107.7158451  65.0011253
 101.5811157 107.7324200  65.4294729 102.8147411 108.5753727  65.1874733
  20.6839442   2.1617293  79.6673489  20.1551056   2.5599113  78.9759636
  21.0162306   2.9039556  80.1722431 107.4771500  98.3589363  56.5084267
 107.6446152  97.4856377  56.8627310 106.5398121  98.4969997  56.6447115
  84.0345955  93.5166168  66.8483257  84.1905212  92.5738525  66.9041872
  84.0142059  93.7007713  65.9092283  87.3269653 110.6899834  55.0096273
  87.7536583 110.3547287  54.2211056  87.9694271 110.5536938  55.7059765
  81.9327164 109.7328949  84.3083858  81.7640877 109.8697853  85.2406216
  82.2867870 108.8450813  84.2568779  28.2726073   0.9365880  35.2141809
  28.2313728   1.3992807  34.3772531  29.0984917   1.2217861  35.6050897
  88.4596539  83.2225990  67.6603746  88.0560493  82.6719570  66.9894648
  87.9024982  83.1091309  68.4303999 118.0596924   8.0128103  74.5233440
 118.5321999   7.6760733  73.7620401 118.3070850   7.4256945  75.2377176
  69.1763401 103.8238621  61.0049820  69.8087311 103.7356091  60.2918720
  69.3706131 104.6769714  61.3931799  79.8192072 108.4929085  94.2131042
  80.7466030 108.3033562  94.3553925  79.8166275 109.2574024  93.6371136
  43.3878231  65.9602880   8.9403224  44.1600227  65.6664753   8.4569800
  43.7394762  66.4997482   9.6485263 101.2525654 105.3639126  61.6191387
 101.1293793 104.5121861  61.2000799 102.0379543 105.7227325  61.2060595
  90.9146595 101.5268803  68.4788609  91.7323494 101.3778496  68.9536238
  90.8184338 102.4790573  68.4605837  16.7779362  22.1537185  94.1378021
  16.8993556  21.2742972  94.4957161  16.6361260  22.7073479  94.9056625
  19.1531301   3.5003862  54.7201490  20.0221682   3.7871227  54.4394588
  18.7671435   4.2735884  55.1317406 110.0811005   7.4329126  62.0063019
 109.1445446   7.6302612  62.0186281 110.2018261   6.7999297  62.7141047
 113.2816696   5.7435572  63.8424158 112.5553226   6.2108362  64.2550993
 112.9613590   5.5287474  62.9663467 100.7944965 112.1226501  65.2314854
 100.6252861 113.0503464  65.0672579  99.9504662 111.6956234  65.0848770
 105.7079697  94.0786552  65.4265261 105.6770706  94.1836548  66.3774490
 105.8784103  93.1461334  65.2939415 109.2322159  98.0562305  81.5593433
 109.5201778  98.3464050  82.4248505 108.4406853  97.5454330  81.7290688
 105.4171371  88.3245754  82.3973083 106.1285877  88.6758423  81.8618774
 105.3063965  88.9659977  83.0991364  78.8001490  57.4436045   1.8336593
  78.9212608  58.3930540   1.8232107  77.8624725  57.3201227   1.6862072
  79.0114975 106.2878704  71.6606236  79.0322924 105.6265259  70.9689426
  79.9327993 106.4725494  71.8431997  95.9347439 105.9031868  64.6139479
  95.8749199 105.5277252  65.4924059  95.1280022 106.4085674  64.5140362
   7.4815798  29.7851562  94.8252296   6.7623711  29.6517849  95.4426289
   8.0976903  29.0786886  95.0189972   1.6629288  95.5053234  71.2978125
   0.8567204  95.9974194  71.1425591   2.2393650  96.1249352  71.7450666
  14.0637660  10.7429373  82.1719742  13.3931768  10.1019084  82.4078178
  13.5751247  11.5469480  81.9958305  94.2074013  99.5342064  56.7422152
  94.1174316  98.6009502  56.5494108  94.7060680  99.5631027  57.5587511
  38.0212951   2.2605892  60.1618528  37.6175594   2.3202524  59.2960167
  37.3229313   2.5049967  60.7691288  25.4361844   6.3619709  67.9947615
  25.4127359   7.3184711  67.9666567  25.4444695   6.0954726  67.0754480
 112.9812527  95.4767704  89.5053482 112.3525906  96.1971092  89.4593239
 112.8618717  95.0017643  88.6829472  20.3544402   9.3935126  87.4111843
  20.8585739   8.8085729  87.9768085  21.0157204   9.9103475  86.9509506
  26.0945272   2.0169632  75.3434992  25.9461427   2.8347290  75.8183384
  25.8838344   2.2266990  74.4336319 101.5666008 100.1188374  77.5929594
 102.3666573 100.1956177  78.1127977 100.8758259 100.4516697  78.1659222
  99.3561935 105.9224606  79.0635252  98.4853554 105.5375099  79.1619396
  99.9578667 105.1880264  79.1852522  16.6661739  22.9437160  60.3665209
  17.0697200  23.6951542  60.8009434  16.1597514  22.5126004  61.0549307
  83.4220886  89.0904331  71.4821243  83.6979866  89.0715218  72.3985052
  82.6659107  88.5045815  71.4475155 115.2143764 110.8923531  69.5099592
 115.5134487 111.2460709  70.3476143 116.0066509 110.8404446  68.9753103
  98.5178661  89.1220093  56.7600107  98.8444328  89.6983719  56.0690832
  98.8744164  89.4909191  57.5681019  80.7539845  99.0206337  76.5158367
  81.6289616  99.1522789  76.1507130  80.7277393  99.5888519  77.2856903
 101.2532330  89.9878216  51.0744047 100.3488350  89.6816730  51.0067415
 101.6639519  89.3861389  51.6953135  91.1027145  97.0025921  80.9872818
  91.9143200  96.7114162  80.5716419  91.1797047  97.9560852  81.0212421
  97.2418499  93.4234428  86.5563107  96.6633987  93.9332867  85.9891510
  97.9556847  94.0235806  86.7719746  34.4332218  27.1688104  82.0584106
  33.5030079  27.1863747  81.8334103  34.8712564  26.9136381  81.2464714
 105.6866837   7.3635906  84.3275547 105.4103756   8.1681120  84.7664547
 105.2983379   7.4214941  83.4545803  23.1650329  53.5369062   0.9009926
  22.9023385  53.9439774   0.0754536  23.0758715  52.5969553   0.7435870
  15.2463341  18.9449084  57.2853327  16.1216521  18.7548244  57.6228523
  15.1601338  18.3845901  56.5140724 103.1757832 101.2149715  91.5898228
 103.5103703 102.0959854  91.7574024 103.4834576 100.6964779  92.3332787
  69.1109943  27.6593304   1.6648695  69.7433853  26.9935632   1.3945568
  68.2613993  27.3010159   1.4079033 117.6730442  95.8538342  93.9041710
 117.8785038  95.4671955  94.7553635 118.5262299  96.0623360  93.5235977
  12.1492159   2.2155158  91.0826969  12.6094806   1.3814622  90.9891891
  12.6236153   2.8165776  90.5083275  14.8648477   5.5430323  44.9743795
  14.0178061   5.4063231  44.5500422  15.5071628   5.2589560  44.3240261
  39.6944046   8.7963527  86.8702888  39.5552874   9.7326678  86.7281818
  38.9360690   8.5166466  87.3830509 101.0602283  95.8508587  69.4468689
 100.5528259  95.8793259  70.2580214 101.9075394  95.4893970  69.7069359
  47.6810169  67.6564026   0.6440307  48.3473921  67.0708895   1.0036810
  48.1665802  68.4372950   0.3782059 109.3406391  95.5961704  75.5552530
 109.4228268  95.1966953  76.4212227 108.6136723  95.1287174  75.1438665
  91.1409378 109.1298580  83.4086037  91.3119984 109.9433708  82.9340649
  90.7677555 109.4133568  84.2432213  42.2138119  15.6080878  74.2850590
  41.9485950  15.0696456  75.0306940  42.2854042  16.4932537  74.6422577
  43.4059238   8.3913285  67.5346613  42.9549313   8.5084546  68.3707952
  44.2709494   8.0584186  67.7736855  20.9658813  14.0236604  52.2756767
  20.1160717  14.2301166  51.8865299  20.9479499  13.0748141  52.4005747
  35.3358388  17.6752114  41.9409180  34.5021319  17.6625001  41.4708090
  35.9412169  17.2049046  41.3677168  11.4010608  10.0072908  36.5492392
  11.1912990  10.9411490  36.5611148  11.3009310   9.7509599  35.6324506
  35.0028110  19.7412252  51.5872383  35.5347204  19.9145365  50.8105373
  35.6400800  19.6018374  52.2877312  22.3142290   5.9510523  64.8252392
  21.9114947   6.1669034  63.9841413  21.9659257   6.6041440  65.4321861
  29.8961163   1.5574864  54.3820381  30.5517149   1.1544681  54.9512482
  29.2399740   0.8730987  54.2504263  26.3900709   9.3158609  45.1563215
  26.7825365   9.1519868  44.2987967  25.9167242   8.5094941  45.3611326
  81.3313293 111.4788818  51.1258745  80.4273415 111.7005253  51.3493204
  81.4498711 111.8212032  50.2398777   6.2319595 111.8364525  40.9973001
   6.1551487 111.9863701  40.0550365   5.4320413 112.2116661  41.3655138
  60.1079035  10.3346610  62.6881838  60.6558323  11.0906446  62.8991175
  60.1643181   9.7745132  63.4623194  40.1562786  10.3649962  68.6354828
  39.9353814   9.4506705  68.4581614  40.6509256  10.3373933  69.4545031
   1.5384796  99.2738056  66.4307404   1.3677302  98.5066891  66.9771862
   2.1234548  98.9533901  65.7441759  18.3577073  12.2077656  44.2548990
  18.8317525  12.6398146  43.5443735  18.9920115  11.5961802  44.6288681
   0.0936431  92.8983784  59.6122789   0.3004717  92.5451279  58.7470198
   0.9422652  93.1473732  59.9784422  12.3758364   1.0091441  58.4461880
  11.9125140   1.8095036  58.6931467  12.3533189   1.0049324  57.4892616
  16.8192840  90.0978661  58.8757658  17.3289037  89.3037033  59.0364695
  15.9705341  89.7796631  58.5681915  92.7412415 106.2606239  46.4436340
  93.0379009 106.0478592  47.3284864  93.5058594 106.1020374  45.8900642
 108.4949017 103.7323475  65.1389217 107.7556801 103.3374500  65.6013536
 108.4844303 103.3206558  64.2748404  97.2080231 109.8297215  54.9735403
  96.7141724 110.2264404  54.2559385  97.6599884 109.0877342  54.5717716
   5.4657221 103.7352753  58.4197474   5.2226388 103.3521461  59.2625713
   5.3029633 104.6724415  58.5268068   0.5301764  15.5308342  33.1702328
   0.7810371  15.3373575  32.2669792   0.8335833  14.7733164  33.6705756
  61.0183096  56.3255644   0.4071978  61.6006565  56.5162992  -0.3281447
  61.1829281  55.4048061   0.6105091  60.3751230   9.4880939  79.0005350
  60.5878687   8.5578281  78.9258528  60.8566809   9.7826052  79.7735834
  46.7263365   2.2898777  57.7552938  46.4827824   2.5654894  56.8715811
  47.6197195   2.6139700  57.8695774 111.8817520  95.3324795  73.8650084
 111.4055824  96.1308670  73.6368179 111.2024403  94.7222042  74.1519642
  24.8324776  17.0665348  43.5202456  24.1892552  17.7720129  43.5895061
  25.2904797  17.0766330  44.3606997  29.8160172  12.5413108  73.3395863
  30.3048873  11.8417239  73.7729645  30.4903889  13.1122887  72.9715633
 100.3638554  99.6237469  51.1973095 100.9604836  99.3401623  51.8900156
 100.9117413 100.1393509  50.6055212  36.5520167  11.8086171  41.7612982
  35.6912923  11.5503883  41.4315939  36.3848352  12.5998485  42.2733879
  21.6017222  83.4750080  58.3246040  22.2430873  83.1853199  57.6757860
  21.1113715  82.6834965  58.5466337  10.3012013 102.7709866  57.9265881
  10.9605753 102.5472927  58.5834122   9.7848433 103.4670258  58.3329582
  47.1120548   0.5781460  53.4140015  46.4688873   1.2495654  53.6415243
  46.6660833  -0.2502601  53.5903168   1.2974666   3.5609701  40.8619785
   1.8844986   4.2893040  40.6591082   1.0980042   3.6660749  41.7922449
 110.9462070  93.8484192  77.0988083 111.1092567  93.5801697  78.0030680
 111.2687302  94.7485352  77.0541382  17.7800500   9.8904699  35.6168151
  18.6189902   9.6109688  35.9832716  17.2738075   9.0823507  35.5337930
  49.6261263  15.6163740  71.2544966  49.3115330  16.5121746  71.3761663
  50.4560041  15.5872202  71.7306089  21.3547850  28.3718419  84.0287971
  22.1538782  27.8818035  84.2225742  20.8675075  28.3708739  84.8526859
 116.3619804 105.9415722  72.8547859 115.5421066 105.5214691  72.5948954
 116.9846344 105.2195549  72.9397869  91.5027809  60.9822416  11.3628042
  91.9469833  60.1466799  11.2187362  91.1642742  60.9226322  12.2561622
 116.9837966 111.9792917  43.0862284 117.8983821 111.7503834  42.9208088
 116.9701423 112.9362940  43.0723763  34.2284775  11.0838008  52.9160976
  33.8670564  10.9919834  53.7976742  33.4930086  11.3919616  52.3866129
  87.4557590 100.3943539  46.6591930  87.2333813  99.4960499  46.4145994
  87.8097248 100.7801342  45.8578730  12.7343714   3.6791360  48.0397415
  13.1306338   4.2563748  48.6924314  12.0639336   4.2176193  47.6192904
 105.0364399 104.4743347  82.9384995 104.9792576 104.8923683  82.0793056
 105.8803749 104.7601604  83.2882214  30.5912709   8.3256525  36.9504380
  29.7863650   8.0787075  36.4950538  30.4449487   8.0579066  37.8577065
  45.5176592   8.7581915  71.5672064  45.4818916   7.9580665  72.0913744
  45.8264065   9.4295251  72.1756649 118.9788723 110.2530003  54.2055655
 118.9538860 109.3604851  54.5505810 118.6082172 110.7907486  54.9053288
  20.3578854   3.1193879  40.2540493  19.8501074   2.3770365  40.5816221
  20.5769396   2.8809056  39.3532848 104.1631317  94.1030598  50.7819510
 103.7553883  94.6891975  51.4194632 103.9055729  93.2255077  51.0644341
   8.9776409  25.1199985  57.9286432   8.1300753  25.4333043  58.2444048
   9.5507324  25.1673913  58.6938572   8.4724820 110.2123165  71.5245104
   8.7185943 110.4700565  70.6361246   8.8725615 110.8762741  72.0860481
 117.6391315  98.5421181  68.5714579 118.5238075  98.3815956  68.2431078
 117.6004696  99.4895458  68.7023211   4.5328599   7.9219252  56.1414623
   3.6223948   8.1831771  56.2794209   4.7895011   8.3656502  55.3330851
  38.5821986  10.4519510  46.7566967  38.8211441  10.0185049  45.9373951
  38.5946059  11.3856328  46.5461826 105.5287552  99.4393444  76.2173796
 105.6959629  98.5009575  76.1295700 106.3902664  99.8459148  76.1239338
  95.3650284 100.2772236  31.0450530  95.4265308  99.4003391  31.4238882
  95.9551048 100.2546024  30.2917123   0.5356175 106.8399525  65.3093815
   0.8090515 106.5873051  66.1912203  -0.1703286 107.4710941  65.4491138
   0.7640830   6.8735301  61.2259865   1.7100996   6.7531562  61.1435604
   0.5798335   6.6981781  62.1487761 118.5576248  88.7632370  65.5029106
 118.7212372  89.6958351  65.3624821 117.8908253  88.7377167  66.1891747
  31.2346745   0.6723389  50.3913307  31.4209223   1.3360272  51.0554552
  31.8337417   0.8771725  49.6734238  41.8820381   4.8648143  36.0571408
  42.6600456   5.1637542  35.5864286  41.1475468   5.2052397  35.5463934
   2.8890461 102.5543308  42.2458839   3.2500458 103.0630875  41.5198851
   3.2649016 101.6808414  42.1364450  81.8627930 101.4089584  67.9990482
  82.7025604 100.9676361  67.8715277  81.5854645 101.6556644  67.1167469
  27.0918775  11.1645472  49.7381115  27.6994634  11.5608478  49.1135979
  27.2629261  11.6215193  50.5616140  51.4134073  18.1896865  97.5360012
  51.7678261  17.4421036  97.0546150  51.5396738  18.9346313  96.9483471
 117.9961777 105.6972218  61.3766146 118.2817745 106.2736797  60.6678391
 117.0826340 105.9391499  61.5287352 118.5141850 107.4947453  59.4634056
 119.0786648 108.1929970  59.1317034 117.8410435 107.3910809  58.7908173
  54.8465729  24.2535400  82.2307301  55.1553535  23.3475137  82.2321510
  54.2271948  24.2966366  82.9592419  36.3767266   4.7705418  43.4160328
  36.0388589   5.4678822  43.9779854  36.7215323   5.2271998  42.6486969
 115.4313850  97.6375961  67.4192476 116.3320351  97.8178596  67.6886463
 115.4603100  96.7481613  67.0666933   0.5224295 110.2490520  87.5895309
  -0.1982708 110.0710201  86.9852734   1.2147997 109.6450710  87.3210907
  33.0246329   2.8356907  54.0926218  32.3147511   3.0572957  53.4899712
  33.8238645   3.0039951  53.5934925  22.6720881   0.5941751  67.5857019
  22.7781653   0.4007284  66.6542721  21.7852068   0.2991110  67.7921200
  47.3107767   8.7859082  27.5399923  47.2300148   8.6387318  28.4823537
  47.7335072   7.9933900  27.2091627  41.5477943   6.7545617  62.6092243
  40.9606457   6.0200059  62.4305630  41.3464594   7.0085365  63.5098839
  38.1388259  12.9160285  56.6995764  37.3755312  13.4851110  56.7983484
  38.7413812  13.4168041  56.1496830  55.0438309   2.9118538  32.5866222
  55.0005817   2.6207271  31.6757941  54.1304541   2.9455054  32.8709412
   8.6636609   2.1987635  65.1008034   9.5153034   1.7626883  65.1286507
   8.1108737   1.6119707  64.5847321 110.0091076 112.1665955  70.2579403
 109.8970318 111.2182617  70.1921225 110.9567261 112.2984028  70.2284384
  39.8941231   1.8192884  62.0640421  39.4435668   2.0098135  61.2412882
  39.1911364   1.7355326  62.7082682  68.5828781   6.8736619  47.0481396
  69.5297670   6.7817682  47.1539307  68.2178736   6.0983050  47.4745512
  31.8519926   9.7176898  41.2037182  31.5343094   9.9976408  40.3452682
  31.1006260   9.8310554  41.7858076  97.1812534 108.7483692  35.9385133
  97.2422695 109.5496655  36.4585495  97.8807068 108.1893730  36.2769055
  18.8738668  96.3543606  67.5218439  19.6031821  95.8439064  67.8736496
  18.2247424  96.3608646  68.2252836   5.9688061  98.3366489  49.2742920
   6.4249086  99.0126419  49.7755146   6.6351384  97.6692009  49.1107225
   0.2861115  13.2877576  58.8966036  -0.4893285  13.7543786  58.5848522
   0.5328730  13.7439883  59.7010851  13.3040154  23.5077763  61.3300991
  12.6851404  23.3797646  62.0490170  12.7854002  23.3622432  60.5388403
   8.8140953   8.6532170  66.2666464   9.0970147   8.3558226  67.1313715
   7.9979360   9.1255563  66.4309978  38.2916927  85.2227020  28.3295441
  38.7870312  84.4106960  28.2222128  37.6140022  85.0069618  28.9701843
   8.3390176  99.2429256  72.7885818   9.1245329  99.6232605  73.1817007
   8.5548240  98.3180809  72.6689529  86.2330914  83.9219952  20.4368496
  86.3696861  84.1876698  21.3462353  85.8255672  83.0580616  20.4983568
   3.2708874  92.2274780  60.0231981   4.1407275  92.6003456  59.8797464
   2.9654121  91.9885635  59.1480780  51.6427803  19.3700242  45.5052614
  51.5432692  20.1909041  45.0230932  50.7685041  18.9803910  45.4978418
  26.6443706  13.8392556  69.6843004  25.7096195  13.9401412  69.5045996
  26.9549489  13.2382429  69.0071297  28.1957698  27.0217061  72.3395967
  28.9178395  26.8400145  71.7380667  27.6192546  26.2619495  72.2581673
   4.6200007   3.3458221  72.3396015   4.3090710   3.7064719  71.5092516
   4.0744823   2.5726855  72.4841785  18.0228436  28.3199811  53.2085133
  17.2158992  27.8486466  53.4156752  18.5149181  27.7183723  52.6497984
  13.0296981  11.2092805  70.8958626  13.8700092  10.7780862  70.7403660
  13.1444466  11.6635919  71.7305279  49.1377497   2.9719925  58.3322287
  49.1208410   2.1854421  58.8774633  49.8094845   2.7929145  57.6742458
  17.2908366 102.1495056  41.9324827  17.8934741 102.8649330  41.7294502
  17.8240287 101.3582420  41.8560886  58.4170771  10.8725727  74.5593452
  58.3080673  11.7942798  74.7934484  57.5305033  10.5125916  74.5845079
 108.9397240 104.5182133  61.3145542 109.2017365 104.3057156  60.4187679
 109.1990757 103.7530327  61.8278503  57.0558596   0.7441172  62.4640894
  56.3224697   0.3479810  62.9346704  57.7947092   0.1607382  62.6373005
  39.5453763  19.5126617  75.1376677  39.4580007  19.2153251  74.2320251
  38.6656380  19.8008347  75.3810787  32.3844671   8.9638031  57.0125914
  33.3078718   8.7128657  56.9883728  31.9383764   8.2004827  57.3794413
  61.6481018   3.9040202  66.6103935  60.9564257   3.4124833  66.1674404
  61.6880560   3.5235268  67.4878073  45.0785303   7.2945344  54.3214989
  45.1461458   7.7250236  55.1737499  45.0635719   8.0139619  53.6902809
   8.8214517  20.2123308  80.7093430   7.8656447  20.1624870  80.7227421
   9.0477192  20.6879592  81.5085983   8.4414941 103.0074978  51.5475941
   9.3893313 103.0435085  51.6762018   8.3260840 102.4651814  50.7673407
  37.1863127   6.5950149  49.3090630  36.8754101   6.2867707  48.4578514
  37.4442220   7.5038624  49.1550827  22.4945998   4.8987120  67.5147104
  22.5125599   4.8568141  66.5585947  23.1860971   4.2985612  67.7937841
  31.2234497  32.1366715  49.8365402  31.3866758  32.1706176  50.7791090
  31.7046285  31.3650250  49.5377731  31.7735600  22.8104162  85.5911255
  32.4868870  22.2799706  85.9461212  31.9346261  22.8278518  84.6477318
  27.3911428   5.8331311  47.7382708  26.5956855   5.6959081  48.2527113
  27.4296498   5.0783682  47.1508312  62.9623222  34.9161005  72.9107285
  63.0691671  35.0463343  71.9684649  62.0174265  34.9690962  73.0542183
  63.1466293   1.3964207  63.2887840  62.4292994   1.6699898  62.7170992
  62.8264380   1.5690176  64.1741753 115.0048256 111.5847969  65.7791758
 115.5802155 112.2837543  65.4683447 115.2066612 110.8392239  65.2138376
  25.3576326 103.2066727  70.5949497  25.1122856 102.3410511  70.2682400
  26.0404301 103.5048103  69.9940062  98.5040760 101.1967754  94.6880627
  98.6509418 100.6573868  95.4650593  97.5638294 101.3760090  94.6951580
  41.1094332   5.6205636  54.2965794  41.4631224   6.2673157  54.9071884
  40.2423525   5.9557134  54.0683794  55.0704384   7.8840148  47.8472376
  54.4964314   7.2178495  48.2253504  54.7507429   7.9954594  46.9519138
  15.2247846 108.9544010  49.9530411  15.6000245 108.8947487  50.8315992
  14.6376610 109.7092724  49.9941063  21.8002820   5.3944576  52.2792196
  22.0462275   5.0533080  53.1390762  20.9714198   5.8488739  52.4299622
  31.3499117  14.6382654  49.1589594  32.1179175  14.0964174  48.9778566
  31.5991926  15.5136931  48.8627911  41.3173819  26.3581920  85.2344322
  41.2335539  27.0880747  85.8480072  41.8759871  25.7269502  85.6880093
 101.5273190  99.9201488  56.0993814 100.6401348 100.1505566  56.3751411
 102.0596886 100.6751537  56.3499308   5.0275487 104.8611832  47.2556400
   5.2129787 103.9393997  47.4349642   5.3994679 105.3300476  48.0026865
  16.4385927  83.5209084  69.3289185  16.3989043  83.9730835  68.4861898
  15.9475362  84.0847111  69.9266052  10.0057542 112.0278072  34.5344925
  10.9359872 112.2192287  34.4150972   9.8744684 111.1905670  34.0894914
   9.0017420  20.9196401  49.4059134   9.7173685  20.2976918  49.5374060
   9.2377508  21.6739655  49.9458504  55.4643154   0.1677703  80.7125187
  55.9271908   0.6931637  81.3651562  54.5434666   0.4039907  80.8241749
  31.8487334  21.2588787  56.1881208  31.0340285  21.0072446  56.6230583
  31.5798044  21.5166163  55.3063726  17.4680138 106.8014240  57.3945141
  18.3378017 106.4284706  57.2509670  17.5280452 107.6905823  57.0451975
  94.1183567 110.9888554  74.3106127  93.7929916 111.8475628  74.5807600
  94.5939636 111.1579418  73.4973240  34.6203351  11.0357392  60.5299664
  34.1550279  11.5917194  59.9049807  35.2090549  10.5087423  59.9896765
  36.9385695   2.1818489  54.8707294  36.7260838   1.2655401  54.6933556
  37.8149128   2.2997820  54.5041943  17.1838999  17.7545929  54.7632313
  17.9162765  17.4594903  54.2221451  17.3809958  18.6717522  54.9534988
 107.8438568 100.8184814  76.2507200 108.1836700  99.9426460  76.0672283
 108.5215282 101.4112568  75.9257364  13.4702122 111.7406178  62.3716879
  13.6992240 112.1706486  61.5477610  14.1701329 111.9905281  62.9749203
 108.8748837  94.5347023  68.6640596 109.2908859  94.3353748  69.5027781
 108.0352879  94.9287224  68.9007950 101.7426968  82.6894569  81.3678932
 102.0103931  83.5362530  81.0108185 101.6355705  82.1286201  80.5996323
  98.3518124  98.8925171  67.9760361  97.6653004  99.3859386  67.5271845
  98.6928558  99.4997311  68.6327028 103.7430096 100.0150013  79.0995264
 104.4824028 100.5545902  78.8195658 104.0691185  99.1165352  79.0480518
  38.5614157  12.2790539  69.7731113  38.3998442  11.7770374  70.5719280
  38.7752008  11.6184700  69.1142082 110.7604122 112.4335003  56.0447454
 111.6714764 112.3529434  55.7624340 110.5233669 111.5552044  56.3424730
  30.3365970 102.1429062  21.1185455  31.0237026 101.5538120  20.8069563
  29.6274495 101.5606976  21.3912606  15.8844841  17.1447361  42.2704458
  16.4975822  16.4407611  42.0588732  16.1880040  17.4813628  43.1135273
   9.5957744  11.8507755  54.7754526   9.1625416  12.4025834  54.1242599
  10.4494953  12.2626841  54.9085855  13.9851654   5.6839252  41.1753082
  14.9395549   5.6174278  41.2061357  13.8152468   6.6079223  40.9920359
   1.4282750  99.2102528  48.1651497   1.7205064  98.3123112  48.3217669
   2.2373545  99.7094059  48.0534792  63.9969730  11.0695004  45.4750347
  63.3500338  11.7733860  45.4276657  64.3918610  11.0480702  44.6033525
  12.5871849 107.1103096  30.0797653  12.4288189 106.9479179  29.1498280
  12.4751663 106.2550354  30.4947281  13.4544909   8.7255740  54.0478897
  13.3274853   9.4918489  53.4884930  13.0126226   8.9508080  54.8665810
  48.8587809   6.4285213  43.4579420  49.0030527   5.6693405  42.8930855
  47.9068756   6.4910901  43.5365963  29.1396332  14.4628894  45.1196718
  28.8695097  14.9506104  44.3416023  28.3370447  14.0438449  45.4302931
   2.7769542 102.4395943  79.5742559   2.2734366 101.8100071  79.0581846
   3.6429876 102.4452782  79.1665983  37.8131795  24.1098046  45.4497099
  38.0696583  23.7721491  44.5915508  38.6261487  24.4447184  45.8280563
  14.9007332   0.8242651  55.0152302  14.9460721  -0.0189942  54.5645761
  14.9017680   1.4725545  54.3109894   5.1862997 108.8207436  78.7872314
   5.0787693 108.8310909  77.8361464   4.3510249 109.1426659  79.1262245
  33.1925488  23.4446287  57.7319241  33.0802989  22.7152443  57.1223116
  34.1394687  23.5097075  57.8557777  40.2925777  16.3062656  60.0533533
  40.0129843  16.2131882  59.1426420  40.1423883  17.2294474  60.2568483
  48.9152765   2.8036654  35.4870248  48.6278439   3.6391300  35.1187682
  49.8391390   2.9397568  35.6972361  40.4732513   1.3888587  49.4420671
  40.5282879   0.4334353  49.4612741  39.5647478   1.5811487  49.6741867
  56.7502689  10.4493642  51.5454102  56.0524130  10.0240207  51.0471058
  56.5534258  11.3840461  51.4833403  27.6676726  10.8350825  55.5060530
  26.8489861  10.6434548  55.9635067  27.6099110  10.3348923  54.6919823
  27.0015764  19.6756554  55.5256939  26.3246918  19.8155761  56.1878729
  26.5617967  19.1805351  54.8345470  48.1009054  35.0504446  86.9404411
  48.5240746  35.9056783  86.8647099  48.3536386  34.7341299  87.8077984
  42.3932219  16.6853833  78.4173775  42.7597046  17.2798860  77.7627850
  41.4516449  16.8562472  78.3956385  72.7843237  19.6486807  83.7102795
  72.1345425  19.0807796  83.2961464  73.1623602  19.1118920  84.4068241
  42.6884604  16.1461747  88.3909607  41.8420649  16.5869319  88.4656525
  43.3328295  16.8485343  88.4787750   2.9183352  89.2507839  61.9173002
   2.2809997  89.9313545  62.1337461   3.2329261  88.9386845  62.7657461
  44.8295021  16.0238910  66.6388607  45.1177311  15.2703059  67.1538973
  44.7040844  16.7205334  67.2832155  23.4983826  11.7414856  64.4449282
  23.0837584  11.0264993  63.9621067  22.7758384  12.3254335  64.6755075
   6.1362845   1.3426052  50.4094362   5.9803116   1.3338491  49.4650745
   6.9114536   0.7939830  50.5292654  67.0185137  20.4364729  42.7576780
  67.8350401  20.3939176  42.2599792  66.4166212  19.8660123  42.2796345
  32.1250939  14.8070955  42.5656319  32.5875902  14.2615867  43.2018328
  31.3025904  14.3441486  42.4062538  99.2183495 105.6025696  52.4305296
 100.0969505 105.6334400  52.0519209  98.7575054 106.3378906  52.0265865
  30.3953838  11.6585720  51.6812134  30.5793166  10.9637463  51.0490608
  29.5281959  11.9815910  51.4365149  27.1248841  99.6944904  62.4730015
  27.5379395 100.1805210  63.1867123  26.3558912  99.2886353  62.8732157
  13.1582797  11.1601627  66.5262270  12.5665259  10.9397924  65.8068562
  14.0146637  11.2589550  66.1102009  36.0185790  13.4190917  52.8959990
  36.8699145  13.5100174  52.4679852  35.5643392  12.7486444  52.3857117
  45.6470108   7.3254818  68.7047625  46.1059093   6.5727937  68.3317947
  45.3566122   7.0261103  69.5663166  34.1115046   2.0501195  60.2359962
  33.8342333   1.7037259  61.0841465  34.8542762   2.6181823  60.4405117
  44.4776154   7.5212276  65.0456858  43.5401964   7.3319560  65.0863695
  44.6901369   7.4795371  64.1133070  51.7478323   8.8275260  49.2181826
  50.8311605   8.5737818  49.3256950  51.8627882   8.9148176  48.2719278
   3.0753738  98.0970001  64.3104649   3.7762883  97.7725220  64.8758554
   3.1526163  97.5767994  63.5106802   2.7410606 105.9786415  46.3073015
   3.4694016 105.5730343  46.7776585   2.3057751 105.2496815  45.8652973
  40.1109028   4.5609036  49.1267061  39.2899704   4.8816580  48.7533188
  40.1132059   3.6239707  48.9307928  22.8381252  10.9316504  51.4925861
  22.5066948  10.0480986  51.6529751  22.9993153  11.2891638  52.3657608
  39.8669267   9.1709119  61.7224789  40.0980282   8.2466012  61.8145323
  39.3756390   9.2144114  60.9021282  56.1093903  24.1832042  25.9902716
  55.8793783  24.9135685  25.4159045  56.9488716  23.8693380  25.6541300
  44.5729923   9.0548277  56.5594769  45.1906490   8.8769126  57.2687531
  45.0363827   9.6650469  55.9857750 117.8781509 112.0250893  56.4663124
 118.6145592 112.4871159  56.8668985 117.5252438 111.4809704  57.1703196
  47.4972963  15.0257123  56.8759966  47.8609180  15.9090137  56.9375563
  46.5668726  15.1355124  57.0721722  67.6835489   5.3172874  78.2538843
  67.7242613   4.4091511  77.9541159  67.4640703   5.2530837  79.1833687
  15.4185164  23.4819698  31.9998884  14.7325754  24.0879917  32.2799873
  15.5601799  22.9139781  32.7572179  32.0751739  15.2355254  29.8628783
  31.6679406  16.0451913  29.5549273  32.2961307  15.4113674  30.7774758
  41.1861134  18.0609536  41.8246412  40.5291939  17.3786056  41.6864729
  41.8974018  17.8334022  41.2258768  49.3191147  20.6625986  79.5343590
  50.0755405  20.6409836  80.1205254  48.6233187  20.2251482  80.0250149
  58.6870909  14.4351387  60.5120182  58.2001781  15.2306592  60.2968550
  58.8256121  14.4875026  61.4576960  34.3640018   1.1650122  63.1778955
  33.7218022   0.5088324  62.9072666  34.1384673   1.3599950  64.0874815
  54.7499514  -0.1552703  53.0946112  54.8558855   0.7960472  53.0967283
  54.9028063  -0.4112637  52.1850348  33.8198137   8.8978904  77.9055786
  32.9106236   8.7530702  78.1675529  33.8168406   9.7645563  77.4992371
 115.1754379  91.2817097  66.1947012 115.0280857  91.6156292  67.0795870
 114.3078709  91.0128021  65.8926249  54.8717928   8.8710433  64.1857910
  54.2756653   8.3245790  64.6978855  54.3361330   9.1973263  63.4627151
  37.7282095  11.1853576  59.2977142  37.8877997  11.5683210  58.4351015
  36.8627000  10.7831073  59.2247820 116.1539459  99.3866634  77.7909899
 116.9019890  99.8987389  77.4836588 116.0004234  98.7462997  77.0963049
  32.8318977  13.4142137  20.6285191  32.6992512  12.6878870  20.0193501
  31.9475460  13.7086594  20.8463621  54.3678570  20.1560211  63.5039186
  55.1576567  20.1628733  64.0446520  54.1128778  21.0764670  63.4406948
  28.7052250   8.2766050  57.2175741  28.3177233   7.5213921  57.6599836
  28.2242489   9.0289456  57.5623608  33.7768698   7.9227525  41.3677168
  33.9969420   7.7955657  42.2905540  33.0889678   8.5883111  41.3750648
  36.9821644  19.5635128  53.4404707  37.6074791  18.8939345  53.1631994
  37.3990965  19.9838114  54.1926289  50.8473921   1.6549271  48.0299759
  50.4754400   1.9622914  48.8566637  51.7591906   1.9451532  48.0549908
  32.5505257  13.1616080  51.8602943  32.4554515  14.0586877  52.1803617
  31.6680288  12.7943885  51.9111013  22.2567129  16.0065866  60.1216793
  21.4008641  15.6406212  59.8984718  22.6248550  15.3875613  60.7521629
  39.4957495  14.7348726  35.3149629  38.9726591  14.1245067  34.7952890
  39.2694521  14.5316827  36.2225604  50.9576852   0.3007197  40.8579588
  50.6304306   0.2026915  39.9637961  50.2471525  -0.0255323  41.4101696
  35.4667282  23.1978297  72.7160978  34.5621729  22.9681659  72.5033426
  35.6782699  23.9157152  72.1193361   8.5345280  33.8737702  65.9407520
   8.4875637  33.7642956  66.8905067   8.8726956  33.0378175  65.6197262
  33.1043267  12.4909031  58.4297562  33.6526871  12.1513510  57.7224827
  33.0793738  13.4361088  58.2807779  46.6848278   6.4681321  79.9845600
  47.0413113   5.6218362  79.7144938  46.9778395   6.5736210  80.8896828
  36.8996048  28.5004473  33.9876628  36.5734482  29.1006613  34.6581841
  37.6463032  28.9571047  33.6001849 109.4959164 108.2382298  55.3222227
 109.8300838 108.5968494  56.1443853 108.5967159 108.5618210  55.2677107
 113.2552624 107.0617962  56.0137463 112.4184418 106.6167927  55.8798218
 113.0928421 107.9646587  55.7404613  33.6564374   8.6644810  30.6486058
  33.2180452   7.8487253  30.8906555  33.2230926   9.3350649  31.1765838
  66.7200804  30.0939012  56.9400501  67.3187876  29.8269248  57.6375437
  67.2908878  30.4386711  56.2533569  12.2515798 105.9091377  78.5435534
  12.4848795 104.9963951  78.7129784  12.2682321 106.3246059  79.4057226
  40.2230883   1.5880093  57.5752306  40.3440666   2.0672959  58.3949137
  40.1189518   2.2702686  56.9119740  43.7462616  15.9537697  42.2866106
  43.7109661  14.9983799  42.3336744  43.1318855  16.2495291  42.9583931
  50.1455975  12.2805274  47.0673084  49.2982912  12.0714939  47.4605083
  50.5175638  11.4300656  46.8336630  46.7532349  15.5477166  49.0731955
  45.8865738  15.7766843  49.4089127  46.6580963  15.5819547  48.1213522
  55.1129150   7.1818113  42.6529503  54.2397547   7.2667909  42.2700644
  55.1821566   7.9204875  43.2577562 117.2925282 104.1295338  53.0738068
 117.3611641 104.1308212  54.0285397 117.6043034 104.9952698  52.8101015
  20.0772333 111.2609482  63.1277990  20.9949207 111.2751961  63.3996058
  19.6287060 110.7807827  63.8238525  21.7557645   8.3586901  51.5849590
  22.0941830   7.8211218  52.3010063  21.7749381   7.7809697  50.8220005
  54.1664124  12.1728063  49.9630976  54.3008471  11.2603951  50.2193499
  54.8094225  12.3242712  49.2704010  23.1914115  28.1848764  62.4554110
  22.8540421  28.7999511  61.8041849  22.5173092  27.5081491  62.5175142
  45.4181290   9.0369797  47.7873087  45.5113697   9.5282924  46.9711304
  45.1170731   9.6852040  48.4240198  72.6725388  31.0499883  71.7618275
  73.0970287  31.0526991  72.6197529  72.3109961  30.1678300  71.6762733
  49.2820644  17.7631116  68.1402111  49.3760586  17.5140953  67.2207594
  48.6288214  18.4627211  68.1332970  16.9269776 109.8400784  51.9190025
  17.3025787 110.0273418  52.7792883  16.9299209 110.6840992  51.4674997
 102.3995876 110.2087879  70.7478714 102.2186852 110.0024414  69.8308563
 101.5421391 110.4130936  71.1210632  47.7640915   2.0304264  50.9904385
  48.0537701   1.4947197  50.2519703  47.4573994   1.3975015  51.6397285
  23.9585924 105.0026035  74.3224430  24.2894292 104.4202995  75.0063324
  24.5198560 105.7762432  74.3744183  27.9003787  17.8042853  71.0069895
  27.3748970  18.5870743  70.8416414  28.1392622  17.4877477  70.1358032
  18.1572473 110.3707314  64.9847364  18.1685269 110.5381584  65.9271145
  18.0603254 109.4212818  64.9113035  40.2665854   2.0687051  53.6232328
  40.7286406   2.2257143  52.7997780  40.7332325   2.6035100  54.2654610
  71.4024782  17.8487647  40.4530621  71.2802505  17.4266326  39.6027088
  72.2127008  18.3494282  40.3576708  15.9310830  97.8472328  68.9558792
  15.4256499  97.5081635  68.2170916  15.4748559  98.6493683  69.2101812
  43.1398201   5.5533642  70.5380821  43.9605141   5.1006508  70.3437948
  42.8916121   5.2370352  71.4067364  46.7725134  33.1964111  41.1608696
  46.8506765  33.9728785  40.6065989  47.0782852  33.4843588  42.0209980
   8.2223982  18.6423719  63.3055878   8.5662669  17.7500999  63.2627106
   8.1324315  18.8196492  64.2419147  37.2250295  19.9455488  33.5330987
  36.5985942  20.0350380  34.2512918  37.8810096  19.3312538  33.8625908
  28.6042690  92.8403473  69.5376873  29.0556192  91.9988632  69.4712639
  28.5376406  93.1484032  68.6338663  42.1949959   0.6404418  62.3590469
  41.9322157  -0.1662198  62.8023052  41.3794041   1.1288106  62.2470760
  56.8553352   2.1300288  77.5617647  56.2496424   2.8391719  77.3461580
  56.2893295   1.3948765  77.7971840  34.7826242  13.5843003  63.1244755
  34.1808867  12.8880572  63.3878946  35.0468445  13.3487475  62.2351313
  26.0757613   3.2597196  60.2564383  25.6436038   2.7242857  59.5910215
  26.9351745   3.4570742  59.8840284  55.4633904   5.2592731  64.4449282
  56.0208082   5.9908903  64.7099781  54.6994972   5.6733823  64.0434170
  44.4993496   1.2142564  58.5712099  44.3238831   0.3223597  58.2712698
  45.3576422   1.4259034  58.2041025  61.5476418   2.0332502  74.7815704
  61.2915945   2.0614219  73.8596821  60.7309198   1.8661979  75.2519894
  13.7251556  14.1560507  69.8239660  13.2164919  13.3452284  69.8317766
  14.3741381  14.0250063  69.1326714  16.1390007  24.8562479  36.5494752
  16.4622843  24.2666769  37.2307420  16.8142724  25.5306864  36.4761758
  55.9566355  19.9188364  37.1603847  56.5430784  20.4820538  37.6654601
  56.5071630  19.5649350  36.4618874  44.7950220  13.6402822  50.1967764
  44.7989178  14.4998312  49.7756004  44.8669434  13.8314581  51.1319304
  52.6996326  17.1769702  40.3408003  53.4324265  17.0042372  39.7496939
  52.8612375  18.0608702  40.6707001  33.4075165  10.6247687  67.0110369
  33.9135361  11.4260626  67.1455908  33.0448055  10.4228783  67.8735399
 116.2028313 105.7352638  43.4850264 115.5936623 105.4254532  42.8148365
 116.6211033 104.9398613  43.8146019  28.5744667   9.2545229  68.1940842
  28.3287644   9.2157781  67.2697687  29.3559480   8.7054265  68.2574034
  44.3860292  16.4160633  50.1012897  43.4395885  16.5397561  50.1733160
  44.7597075  17.2403967  50.4128504  65.4555655  32.5556302  56.7383289
  65.8770704  31.6963506  56.7239952  65.6982946  32.9554343  55.9031773
  64.1850710  18.5086262  52.4710226  64.5876884  17.6419520  52.4162006
  64.4203854  18.9346123  51.6467714  56.6766834  26.2637043  69.4732332
  56.7950821  25.3736782  69.8049974  55.9239531  26.2019587  68.8851738
  71.8958521  16.2724030  72.1533489  71.5541029  17.1541691  72.0052767
  72.3556042  16.3312292  72.9908466  50.9170341  17.0126963  48.9771557
  50.4881001  16.2583745  48.5731173  50.3721428  17.7594697  48.7288427
  60.8524179  16.6480184  71.1370230  60.7276201  17.4913669  70.7017994
  61.0713720  16.0428905  70.4284239  76.8843317  27.0884943  63.8885736
  77.1821022  27.8241205  63.3533955  77.2923660  26.3205981  63.4884787
  76.6559458  38.2412529  73.2624102  76.2076139  37.3955846  73.2539320
  77.2959852  38.1659389  73.9701605  52.7898264  26.4463353  65.9160805
  52.8677750  27.2031689  65.3352547  53.2520056  26.7071676  66.7126942
  53.3545494  31.9619918  63.2758713  53.1961346  32.8411055  62.9319286
  53.3885479  32.0787907  64.2253113  57.2611094  30.1058102  65.0546026
  56.9303179  29.4341421  64.4582176  57.1796656  30.9233499  64.5634508
  47.4903631  23.9779329  83.3897495  48.2456398  23.8757253  82.8106594
  47.4238777  23.1395912  83.8469028  47.4706602  15.7735789  69.4325256
  48.1368732  15.6946492  70.1152849  47.8706884  16.3389146  68.7717628
  65.0874233  15.9068382  51.4888620  65.2827072  14.9715805  51.4306307
  64.4426203  16.0603297  50.7982826  69.4316864   9.5445669  55.1035929
  69.3295097  10.3284979  55.6432629  70.3402758   9.2763072  55.2404737
  59.7217464  25.7231069  54.5993710  60.1312160  25.5656338  53.7486219
  60.2059174  26.4635444  54.9648285  63.0483007  17.3989642  75.0432014
  62.9679585  16.4606464  74.8719215  62.1694326  17.6701534  75.3083086
  50.7293797  25.1805305  64.2111683  51.5036488  25.7216597  64.3658209
  51.0805273  24.3252468  63.9633465  53.1124353  38.7955952  56.1500359
  52.8884220  39.0343189  55.2505541  54.0357065  39.0324330  56.2378359
  54.0716839  35.6191826  55.4257393  53.3127213  36.0624909  55.0466824
  54.2579556  34.9023986  54.8193121  67.1061754  33.4185767  31.8662739
  67.7860212  32.9305792  31.4016199  66.4473438  33.6069250  31.1979198
  56.2253332  35.7816887  59.7173691  55.8715010  36.6710448  59.7085142
  56.7298126  35.7326984  60.5293608  56.5078115  34.7295237  57.1827269
  55.8396769  35.3017235  56.8053532  56.7014885  35.1177239  58.0359650
  78.2961130  42.7742052  74.5277119  77.7012587  42.2644377  75.0777340
  78.5516787  43.5165453  75.0752926  52.2667217  19.5817423  61.7107916
  51.3600922  19.8497486  61.5610504  52.6811218  20.3488708  62.1057796
  66.7395735  18.6892581  58.9474344  66.0903072  19.3920422  58.9753819
  66.8719625  18.4488821  59.8644495  62.3742437  26.4424753  70.2835417
  62.7105045  26.6876841  69.4215488  61.9865084  27.2473288  70.6272078
  90.5938053  25.3768015  50.8587933  89.6621990  25.3695393  50.6390572
  90.8649540  24.4619632  50.7827616  75.3002882  27.6396513  40.1849461
  76.0375643  27.2315550  40.6389427  74.5749187  27.0272160  40.3074169
  51.5870857  27.1653295  57.4201584  51.8331480  26.2454915  57.5180483
  52.3503542  27.6518798  57.7314901  53.8745832  28.4494424  58.9791679
  54.0101528  29.3896961  58.8618135  54.7289515  28.1167412  59.2541170
  46.2136984  23.4782529  34.5265102  46.2376118  22.8016829  33.8498187
  45.3725863  23.9165354  34.3973756  78.5839796  25.3021669  76.8576908
  78.6058903  24.3470812  76.7980051  78.2495499  25.4796004  77.7368402
  69.6183777  27.2192931  75.5720329  68.8004732  26.7636728  75.7712221
  70.1371241  26.5785909  75.0855827  56.3899851  40.2465010  60.8521652
  57.0903349  39.7478032  61.2729311  55.8144140  40.5051899  61.5719080
  62.7343416  30.9416819  62.3433590  62.2334766  31.3454652  61.6346121
  63.2337952  31.6635156  62.7251101  52.5967932  29.1782784  64.7017527
  51.7771387  29.6295214  64.9036884  53.2378674  29.8813915  64.5973873
  59.0335131  33.7087202  65.4209375  59.0701199  34.5383763  65.8969212
  58.1292439  33.4125805  65.5250072  86.7271328  37.7010846  37.9392266
  86.6086388  36.8357778  37.5475216  85.8523369  38.0895472  37.9310012
  69.3867254  17.5886261  64.7809124  69.9370861  17.4442589  65.5506468
  70.0067616  17.7557182  64.0710783  57.1350956  25.6499052  81.5793419
  57.2185183  26.1832762  82.3697853  56.2706852  25.2455044  81.6534138
  57.4938583  25.2660632  60.6935549  57.9582405  24.6678305  60.1081562
  56.7660713  24.7479844  61.0372877  63.7608290  21.3875651  65.8564663
  62.8866529  21.5601897  66.2061071  64.1699553  22.2509074  65.7974195
  55.1718950  21.4379168  66.4179277  54.3615580  21.9394231  66.5077925
  54.8980522  20.5241346  66.4969397  66.8150663  36.0024762  56.0779762
  66.6566610  36.9233274  56.2857628  66.2035465  35.5223298  56.6363096
  69.0660000  20.6497717  75.6186962  69.4244242  20.8823895  76.4752340
  69.7843170  20.2015972  75.1721668  61.5948009  35.0707316  49.2928696
  61.3552713  34.7602057  50.1660395  60.9584665  35.7594800  49.1006851
  60.7249928  22.2487736  39.0737224  61.5581703  22.1607876  38.6107874
  60.5865717  23.1935716  39.1402602  63.5862112  35.5337071  55.1266289
  63.7109137  36.3872313  55.5415678  62.6396847  35.3928208  55.1483774
  77.3624182  42.5691462  61.7451000  77.7359962  42.3893118  62.6078463
  77.2119761  43.5144424  61.7415524  85.1210117  26.2032247  55.7360649
  85.1909447  26.7974544  54.9889183  85.8520412  25.5949068  55.6275225
  67.0225048  42.6533556  28.7195802  67.8831482  42.2544622  28.8476706
  66.5364552  42.4347258  29.5146823  66.9393682  27.3174691  63.8754225
  66.4341450  27.7832127  63.2090425  67.0865250  26.4489675  63.5008812
  54.8702097  39.4405389  53.4862328  54.9531937  40.1977015  54.0659332
  53.9266443  39.2970872  53.4131861  55.0907040  38.2076240  58.9515066
  55.0088644  38.6146283  58.0890179  55.0705290  38.9416003  59.5655966
  83.5631466  54.6077251  45.4883289  83.4892941  53.6792898  45.7092094
  83.5176277  54.6308756  44.5324945  64.5722342  29.9595737  58.8204098
  64.7175407  29.1854286  59.3642998  65.3503132  30.0117946  58.2653475
  57.6979971  40.2833176  58.3865261  57.1563435  40.2039766  59.1717291
  57.0905447  40.1392174  57.6609516  53.5824108  38.9558291  66.9105816
  53.0899382  38.5950160  66.1733437  53.6822605  39.8843241  66.7004347
  95.3685379  35.3110623  80.3096199  95.8530903  35.6667995  79.5647097
  94.6601868  34.8031259  79.9140406  76.5361118  46.7519808  59.9798965
  75.8121920  46.1277246  59.9301195  76.9057322  46.7610025  59.0969849
  85.6725788  47.5795746  73.1968260  85.7038593  48.3343124  72.6089239
  86.5400028  47.1817732  73.1222582  58.9784193  36.2009215  66.4945936
  59.3197012  37.0890355  66.3896608  59.0301132  36.0341096  67.4357319
  90.8097839  16.4457560  69.8461628  90.7992649  16.8471003  68.9772320
  91.0598469  17.1572697  70.4356098  61.8835402  48.9488888  70.5022573
  61.9587326  48.0473614  70.1894855  61.2381840  49.3510675  69.9208832
  76.5378141  37.6181197  64.0223646  76.3866186  38.3206868  64.6546364
  75.6650639  37.3956847  63.6982346  63.7158966  31.1550975  78.5668325
  64.1483927  31.1864376  79.4201756  64.3984556  31.4027905  77.9431391
  72.3609591  15.1847112  67.9868174  72.4320364  14.4647765  67.3600197
  73.0452394  15.0085330  68.6325407  74.2387581  65.7849026  52.0646572
  73.5138607  66.1339664  51.5460873  74.9231148  65.5956602  51.4227295
  80.6747150  54.8866463  53.8663244  80.5659962  55.8373260  53.8913298
  80.9530830  54.6540260  54.7521162  69.5833731  63.0275106  49.1265249
  69.1623259  63.8812637  49.2267942  69.3399477  62.5460625  49.9172115
  79.6289158  58.3453417  70.5110216  79.8111153  57.9260826  71.3520050
  78.6790705  58.2805538  70.4118967  80.8587933  65.0043678  54.2066908
  81.0629559  65.8337212  54.6388102  81.6899300  64.5297194  54.1944361
  74.4858885  45.9166670  83.6086273  74.2603016  45.0184727  83.3665657
  74.7056627  45.8660173  84.5388794  67.4554586  42.0996094  76.8798256
  67.6833820  42.0430994  75.9518766  67.8008556  41.2923098  77.2608852
  80.2845097  58.2528353  65.7079649  79.6867657  57.5342131  65.9141445
  80.6269169  58.5307932  66.5575123  80.3118420  57.6915646  84.7437191
  79.9200583  56.9247961  85.1618195  79.7817993  58.4278393  85.0489807
  83.4994507  61.7781401  58.6663437  82.9035854  61.0584497  58.4584427
  83.0422401  62.5626993  58.3635807  90.9370136  57.6352501  70.1227379
  91.2756729  57.4035263  69.2579556  91.3491344  58.4753895  70.3241205
  81.7463303  45.5304623  50.7695866  81.4498615  45.1024914  49.9663544
  81.0610390  45.3391171  51.4098978  78.7299347  27.8907156  40.0235271
  78.4799004  28.7514186  39.6875191  78.1140423  27.7239799  40.7370424
  70.5558825  58.1051254  50.2339506  71.3751125  58.4388494  50.5996275
  70.5805731  58.3662462  49.3133879  83.1756115  54.0322828  48.7901783
  84.0633106  53.6970758  48.6642551  83.2998848  54.9065113  49.1596603
  70.9173870  71.1712551  34.8567033  70.4629898  71.5217209  34.0905905
  71.8053436  71.5224028  34.7899246  75.5031872  64.7039652  49.9140024
  75.1841354  64.7993612  49.0165949  76.3157749  64.2055035  49.8275900
  87.5554657  19.6455681  61.2984896  86.6932774  20.0010014  61.0827732
  88.1395435  20.0156379  60.6365728  87.5039864  40.3515339  69.7119999
  86.9192791  40.4103470  68.9564276  87.1765995  39.6028399  70.2105045
  65.2848482  65.6044292  65.5265331  65.4066277  66.4603662  65.1157141
  64.8531008  65.7974386  66.3587475  63.8987780  54.2399359  72.0319271
  64.1479731  53.6406898  71.3283396  63.8370466  55.0955248  71.6072035
  74.2710781  49.6430826  59.1418171  74.6517467  49.3359661  59.9646187
  74.9443865  49.4649553  58.4851885  88.5068607  54.3292427  32.7229166
  89.2448521  54.2504883  33.3274055  87.7380943  54.3893099  33.2900238
  92.7879715  55.5169010  87.2032356  92.2620392  56.0208130  86.5821838
  92.6676369  54.6059275  86.9351292  76.2320328  35.4592586  52.7932835
  76.8815279  35.7134247  52.1377039  76.7472363  35.0878191  53.5094070
  97.7838802  54.2782784  41.6074514  97.7383518  53.7047243  40.8424664
  97.8712082  53.6806393  42.3500347  87.3771286  43.4401178  58.3885765
  87.4993992  42.5632811  58.0246544  88.0076313  43.4913445  59.1069603
  79.0024900  61.8369150  55.1180744  78.6798096  61.1458254  55.6964397
  78.2941675  62.4803352  55.0953197  87.6371384  56.1386395  61.9715261
  87.0422554  55.8478498  62.6627493  88.0743408  56.9066811  62.3392248
 104.7525597  55.6209946  59.9460459 105.4493523  55.0031137  59.7248459
 104.1109943  55.5202723  59.2428541  87.5889492  50.4428148  44.2514086
  86.8881416  49.8704004  43.9392376  87.7198219  50.1854086  45.1640129
  64.5321226  27.2702050  44.9544907  65.3205252  26.9464660  44.5187759
  64.1963196  26.5136337  45.4351807 104.3101120  70.3576469  52.1589518
 104.1429806  69.7693348  52.8952885 103.5123062  70.8813429  52.0849371
  62.6529837  25.1662159   0.6620061  62.9793739  25.2987242  -0.2280192
  63.2749891  24.5550203   1.0566998  89.6868229  90.8263969  65.7581949
  90.3302383  91.4982986  65.9835911  88.9317322  91.0221672  66.3129377
   8.1324112   4.8068225  70.2391958   7.3877972   4.3612218  70.6432056
   8.2835084   5.5719680  70.7941341  96.8885422  92.0409584  74.0979338
  96.0581875  91.7933464  74.5046568  97.5426483  91.4999485  74.5403004
  97.4830437  86.8396854  69.6018600  98.0363941  86.2578011  69.0808582
  97.7311230  86.6579819  70.5083227  90.8018875  78.5203075  54.1256285
  90.9741592  77.9834270  53.3521223  90.0160885  78.1356764  54.5139742
  99.4019413  79.9587965  54.6798801  99.2844391  79.4764137  55.4982519
  98.5287762  80.2897739  54.4694614 104.5067787  76.9350004  75.9297895
 103.6498070  76.9830084  75.5060911 105.1097870  76.6998100  75.2245951
  95.8245945  81.8413639  59.2603350  96.2347412  82.5336647  58.7419462
  94.9076653  82.1066952  59.3314695 103.0586624  80.0348854  41.7483807
 103.8674927  80.1699162  42.2421360 102.8831959  80.8824825  41.3396978
 103.4414482  93.0610371  42.8609276 102.9968262  92.2524452  42.6065302
 103.7770271  92.8835869  43.7396383 103.9058781 106.5083218  55.5565882
 104.4957638 106.9061565  54.9162769 104.1640759 105.5869007  55.5800056
 105.9497643 110.0101662  75.0143576 106.2313843 109.0969944  74.9591255
 106.6594315 110.4518700  75.4807329 113.2110500  76.4678478  36.0544801
 113.9524364  75.9410238  35.7561040 112.7438545  76.7000628  35.2519631
 108.3374119  98.2781315  50.2306604 107.3958683  98.3100605  50.4000950
 108.4960270  99.0003967  49.6228743  99.2994022  91.0203457  78.4698534
  98.8427830  90.5364704  77.7816629  98.7089539  90.9812450  79.2222357
 116.8367767  87.7834415  70.3785992 116.0643387  87.4388790  70.8267593
 117.5720406  87.3159027  70.7748604   3.6261868  72.6011610  59.3561172
   2.7037686  72.3555708  59.2849636   3.6599359  73.5015392  59.0329981
  99.2190552  62.9457569  57.2896814 100.0886250  63.3440590  57.2518206
  99.3555260  62.1156406  57.7463245 103.0077839  71.9763565  55.7365274
 103.8373756  71.5080309  55.8297110 102.4925327  71.4342880  55.1391125
  93.7902260  91.7152309  77.3533678  92.9114914  91.8171024  77.7189875
  94.2413616  91.1396313  77.9709435  88.5987854 108.5985756  74.6017218
  89.5049477 108.6820602  74.8985910  88.4716129 109.3395519  74.0092564
  81.1643219  91.3183594  67.5439167  81.0313511  90.9004593  66.6930866
  81.9746399  91.8175030  67.4415684 107.7309513  76.6996384  87.3894119
 107.0156384  77.2376299  87.7287197 108.4047508  76.7413855  88.0680084
  90.8966160  92.6068401  68.3091402  91.1442852  92.8811073  67.4261522
  91.7035961  92.6818466  68.8184357 101.5152645  75.5787706  50.7210255
 101.7975521  75.8141136  49.8371935 100.9759140  76.3169193  51.0047054
 114.8162460  71.8068695  78.9115047 115.1745987  72.2627974  79.6730471
 113.9244461  72.1444368  78.8280010  79.4071531 104.2514229  69.6730280
  79.2476654 104.1435337  68.7353945  80.0907898 103.6125278  69.8747635
 116.6947556 104.9135780  64.7292852 116.8301868 105.8441067  64.5504093
 115.7963276 104.7435379  64.4461727  97.2018147  61.7828846  83.2384968
  98.0711937  61.9870710  82.8939438  96.7194653  62.6072502  83.1753445
  77.2601652 102.5007725  54.2605925  78.0240583 101.9242477  54.2428303
  76.8338728 102.3078728  55.0956345 114.4746780  94.8822308  50.3450108
 113.7395382  95.1504707  49.7937727 115.1328373  95.5650616  50.2154493
 114.9098492  90.0789452  51.0933208 115.5127716  90.6078625  51.6157818
 114.2894173  89.7239113  51.7299175 116.9949150  89.9943066  42.4235010
 117.7902985  89.9110889  41.8975067 116.8634129  90.9383678  42.5111580
  97.1631432 109.6690464  59.8868084  97.9954243 110.1414967  59.8686934
  96.7344952 109.9073792  59.0647984   2.2313637  94.1855145  50.4912806
   1.4610416  93.9909649  51.0251188   2.3610933  93.3984566  49.9621916
  27.9634142   3.0221525  47.5433207  28.8601947   3.2203555  47.2736311
  27.6627231   2.3678485  46.9126844  98.5209465  84.5666122  46.7181730
  99.0348053  84.2318630  47.4531126  98.6106873  85.5177879  46.7767239
  94.4649792 111.4296055  40.3624010  94.1993332 111.7021179  39.4841051
  95.4021454 111.2510300  40.2845764  84.2770386  82.9462528  76.4902353
  84.6603870  83.5185242  77.1549034  83.8436699  83.5437679  75.8808041
  16.6327405   3.6115521  32.7441263  17.0955408   4.3952706  32.4477601
  15.7351470   3.7318495  32.4341464  90.3129005 101.2947369  54.2697716
  91.2181759 101.3393116  54.5775414  90.3629971 101.5303135  53.3433676
  95.0135231  85.6892872  66.3179111  95.0024986  85.2724361  65.4563141
  94.4865036  85.1117802  66.8701458  41.3921785   4.0963140  72.6648712
  40.8249950   3.6933705  72.0074749  40.9399652   3.9471206  73.4952164
  25.3527379  10.4016483  57.0381355  25.4917264  10.6313872  57.9569006
  24.5538282  10.8683062  56.7927694 115.3372192  78.2804489  64.9787712
 114.5703602  77.8748369  64.5742464 116.0702705  77.7256584  64.7121620
  89.2550564  82.4451733  75.6620359  89.2826462  81.9988346  76.5083551
  89.1131020  81.7440510  75.0260162 100.5290699  98.6964321  66.3438606
  99.6398926  98.8768864  66.6488886 100.9715939  99.5444107  66.3805914
  18.1691206  12.4753845  58.0182123  17.8366303  11.6035748  57.8046036
  18.5155463  12.8090119  57.1906185   7.9065156   6.2838632  83.4988308
   7.4155295   6.6259378  84.2459202   7.2471535   5.8500934  82.9572392
 108.3902550   3.4571856  68.5253000 107.8548527   3.9760739  67.9250193
 107.8830338   3.4305957  69.3366337   3.5613978  99.8576450  51.1448431
   3.4852639 100.6415939  50.6009150   4.4732338  99.8557854  51.4360237
  89.6544933  99.6014786  87.4385262  89.0734577 100.3612232  87.4761295
  89.2887783  99.0544415  86.7433643  85.7232380  97.6490116  67.5649881
  85.8323383  96.7974567  67.9882765  86.4307976  98.1861210  67.9215336
  96.6277027  69.4644022  48.6286736  97.5190639  69.3446398  48.9563370
  96.5900898  70.3845549  48.3676338 101.5094376  90.8315659  64.9578953
 101.3426113  89.9636650  65.3255367 100.6756973  91.2934113  65.0462484
 105.8956814 102.3461533  65.9286261 105.7511806 102.4124527  66.8725300
 106.1167526 101.4260960  65.7842016  81.9208813  83.6485386  70.6862116
  82.3103046  82.8076458  70.4464483  81.2688923  83.4294319  71.3518906
  88.5932922 104.2852879  82.2267914  88.0343246 104.9845314  82.5657082
  89.2888641 104.1975880  82.8784943 113.1970692 110.4138565  67.6189232
 113.7636566 110.3012753  68.3821630 113.7948704 110.6498623  66.9095802
  12.9073596   8.9426655  76.1073923  12.3111022   8.4606260  76.6804075
  12.3317325   9.4497979  75.5349398 106.5347004 102.1931362  58.3435297
 105.7086658 101.8140030  58.0432796 106.4313889 102.2719002  59.2918730
 111.4992523  99.0874195  75.7718754 110.7939339  99.2094803  75.1363754
 112.2949886  99.3224907  75.2946234 115.9261131  77.9708004  42.2127628
 116.2212181  78.1478453  41.3195658 116.6810131  78.1843185  42.7611780
  31.9509101   7.3310441  64.3998146  32.7855682   7.5071985  64.8340321
  32.1947622   6.9274122  63.5668373  90.6293201  77.9437494  38.3806753
  91.0058880  78.6256552  37.8244042  91.3792896  77.4139977  38.6511064
  10.7743323   5.5989248  69.3095779   9.9337202   5.2927959  69.6500015
  10.6311548   6.5252608  69.1155863  93.8943958  85.0809765  53.7425470
  93.5561466  85.0944901  52.8472042  94.4926167  84.3339825  53.7613344
   2.1028435   1.4411752  55.6225348   2.1278729   1.5823297  54.6761274
   2.0723790   0.4896504  55.7220554 101.8871784 101.1687088  66.2700605
 101.8946838 101.7517376  67.0291758 101.4952850 101.6914177  65.5704641
 107.0196819  87.0759106  86.0223389 107.0539284  86.5267563  86.8056011
 106.3376617  86.6785526  85.4808712  10.1687539   4.3214339  62.2702599
  10.2007771   4.3147331  63.2269001   9.3435222   4.7591093  62.0612955
 103.2858944  89.7476673  84.0462017 103.3087444  90.5390167  83.5081577
 102.3858833  89.4311619  83.9685535  95.8615303  98.2843113  86.1602497
  96.2387085  98.7466049  86.9087505  95.0045776  97.9891682  86.4680767
 105.5980015  78.1724834  66.7043161 105.0336361  77.4007893  66.6572618
 106.4353180  77.8791237  66.3450480   2.6048967 110.5396271  79.2582798
   2.6553243 111.4020634  78.8460827   1.6856819 110.2867031  79.1728258
 109.2918873 106.7807674  68.4116268 108.8639164 107.4941826  68.8850260
 108.9447308 106.8416977  67.5216818 100.3937244  94.4029331  36.6530228
 100.6921291  95.2365875  37.0166302 100.3109169  93.8262939  37.4125361
   7.1178120  91.6722107  46.5492058   6.5761715  91.9730282  45.8195734
   6.5913248  91.8516064  47.3282194  93.2859612 106.9698715  61.1740923
  92.7395821 107.7337933  60.9893417  93.3185196 106.4925480  60.3450346
  79.9718666  87.1356583  71.3001013  80.4206467  87.3413181  70.4800224
  79.0437365  87.2630215  71.1036873 111.4543819  98.8019657  55.9067822
 111.8374634  98.8482952  56.7827606 111.9046307  98.0690002  55.4869318
 117.6593971  71.9521475  62.1546650 116.9949818  71.2663078  62.0882273
 117.6063061  72.4186563  61.3205242  81.7825794  80.2520466  76.0135794
  82.2267818  79.8412991  75.2718258  81.5613365  81.1303043  75.7038260
  93.4389019  82.7299976  57.8920650  93.2208252  82.9191971  58.8046837
  93.5381794  81.7784405  57.8618479 108.6540794 109.5774269  64.6291924
 108.7640476 108.6265755  64.6236610 107.7205753 109.7096157  64.7944975
  49.0653849  10.6491649  58.8996506  48.6816883   9.9487847  58.3719444
  48.5851622  11.4353609  58.6398220 100.6626415  83.4153938  53.0512810
  99.9070930  83.9925575  52.9405403 100.4275894  82.8519154  53.7884951
  13.5650873   9.0048504  85.7752228  12.7703834   8.4882557  85.6417751
  14.2674053   8.4599447  85.4201698  86.3661289  95.1963806  61.0579348
  85.5937386  94.7347260  60.7315636  86.4245129  95.9808540  60.5125618
  12.6291943   6.3067424  88.6462402  11.7999864   6.7554682  88.8114452
  13.2841551   7.0047706  88.6499596 102.6031685  86.1466312  48.1825542
 102.6523399  85.2309895  47.9079342 101.6898441  86.3922024  48.0350637
   4.5084697 103.1824017  52.4952364   3.6170945 103.4262180  52.7447033
   4.4949606 103.1719398  51.5381908  96.8409252  96.7630005  71.5700531
  97.7255344  96.4776039  71.3414812  96.9509697  97.6639366  71.8740654
 103.1320286  86.4234829  60.2718925 103.4364700  87.1211720  60.8522272
 103.8674641  85.8125687  60.2254915   7.4647349 106.6465950  71.5819168
   7.0554578 107.4546719  71.2725019   8.4042138 106.8006706  71.4825630
  82.8799534  89.0774536  63.8769388  82.0207787  89.4441700  64.0857029
  83.2960701  89.7406673  63.3262730 114.0402985  20.0783348  74.4171476
 114.0023518  20.8518124  73.8545465 113.4101200  20.2584386  75.1147652
 112.0653534  88.1373215  72.2783422 112.5172138  88.3062840  73.1050873
 111.2196827  87.7717018  72.5379658  94.0604782 100.3560638  35.4522276
  94.4975185  99.5373058  35.2180219  93.3185673 100.0853443  35.9930754
  11.1235714 100.1586342  64.9347591  10.4350555 100.7699108  65.1964998
  11.7271185 100.6870174  64.4124794 119.0454102 112.0372868  52.2055721
 118.8045692 111.3532066  52.8302717 118.9752960 112.8517914  52.7034712
  89.5512676  95.1650906  60.1125097  89.5904636  94.9771976  59.1747522
  88.6155701  95.1926231  60.3123617  96.4128876 101.9639111  86.3465691
  95.6092834 101.9620037  85.8265114  96.2291622 102.5642586  87.0691013
 112.4295330  86.3206482  59.3371391 111.8819618  86.2152100  60.1151323
 111.9838619  85.8118534  58.6598301 105.7533741  76.3749552  73.6676931
 105.3756428  77.0542574  73.1090260 106.6976166  76.5252352  73.6223745
   5.7893145 108.3766460  69.9961853   6.2775052 108.6072350  69.2057848
   4.8703659 108.4781265  69.7482586 103.5251522  84.5719337  54.0881062
 103.9693642  83.7670803  53.8214111 103.0668545  84.8648453  53.3004475
 108.2472706  92.9771996  35.9693956 108.3658886  93.7550545  36.5144753
 108.8163567  92.3176765  36.3661194  87.8735924  89.2814159  76.0939455
  87.0119953  89.2774487  75.6769705  88.4514904  88.8664055  75.4536009
  99.5677948  69.6284199  69.5050478  99.2530441  70.0112867  68.6861610
  99.1039467  70.1113129  70.1890755 103.6215973  90.0915432  57.8959131
 103.2532215  90.4973125  58.6806917 104.0981102  90.7990551  57.4616337
  83.6803150 106.2247086  70.7748890  83.2668304 105.5677128  70.2148676
  84.5340252 105.8506298  70.9927940  96.3222599 100.2758694  43.2062531
  96.2572575  99.3605137  42.9339886  96.0892582 100.2667427  44.1346169
  93.1843472  96.8694305  66.7485094  94.0608311  96.9103527  67.1310377
  92.6199245  96.5961552  67.4716806  96.8734169  79.4671583  50.5162430
  96.5225315  79.3890619  51.4033794  96.7192459  78.6089802  50.1212883
  87.6978016  94.0070152  77.9372215  87.5579834  93.0627441  77.8662252
  88.5584641  94.1519260  77.5441742 107.0800114  81.6755295  47.4220753
 106.4161491  82.3569202  47.5279713 107.2994614  81.4138985  48.3162928
 105.2269745  84.6410370  59.2936277 104.8847103  84.9321938  58.4484529
 105.8094883  83.9127064  59.0780926 100.0742531 101.3530159  64.2820120
 100.7451630 100.8228207  63.8518810  99.2752838 100.8304214  64.2129564
 114.8531437 102.9571533  66.5535641 114.0977287 103.2274055  67.0756292
 114.5119858 102.8757000  65.6629419  17.3822713  79.3194437  56.5933847
  17.3019052  79.8347473  55.7907438  18.0374873  79.7855663  57.1126652
 102.5093269  82.7846622  69.6616077 102.2436905  83.5949612  70.0964594
 102.8638363  83.0698967  68.8194656  43.8395071   4.8719567  54.8116302
  44.3511724   5.6136721  54.4886923  42.9448318   5.0552088  54.5249128
   7.5880206   5.0404161  76.9324303   7.0977211   4.6247515  77.6417017
   7.2426009   4.6389121  76.1351156  82.4711800  78.5307646  73.2335043
  81.6843414  77.9981899  73.1174326  83.1853008  77.8953266  73.2833433
 110.1987362  90.3801441  71.8886137 110.4910564  90.6569958  71.0202074
 110.9712696  90.4807758  72.4447536  85.2937698  80.9678268  71.0311317
  85.4207706  80.6424904  71.9223404  84.4092369  80.6865311  70.7972431
  87.0900345  97.5735474  59.5499897  86.9214249  97.5764942  58.6077642
  87.7463818  98.2584190  59.6780014 102.9415703 110.5779076  65.5741262
 103.3068562 110.7381821  66.4442444 102.1492004 111.1141014  65.5445242
  30.5224252   3.2989004  56.6513968  30.5459189   3.8499424  55.8690739
  29.9797416   2.5510812  56.4014149  88.9099026  99.2214966  64.0814161
  89.4579315  99.5846844  63.3857203  89.1174126  99.7514153  64.8510647
  40.0346756  12.6124275  75.3281116  40.1024818  12.6778316  76.2806654
  40.3700924  11.7395854  75.1234865 105.7118034 108.0620003  54.2931318
 106.5361977 107.8462124  54.7290659 105.8524227 108.9385605  53.9352179
  94.8008060 107.6001740  72.6641512  94.3509483 107.6083279  71.8192863
  94.0958214 107.5621700  73.3105135  15.3249323  14.2016494  65.2529049
  14.8860347  15.0182343  65.4912138  15.3978097  14.2383909  64.2991924
  17.9561508   3.7732127  71.6357422  17.5202358   4.1961291  70.8959103
  18.1476462   4.4888610  72.2418833  93.1180382 106.7714787  63.9043999
  92.3152447 107.2128296  64.1818285  93.1444931 106.8964577  62.9557610
   6.7488080  99.5808029  57.0154715   6.4743960  99.3951035  57.9134941
   6.0374683 100.1080608  56.6518450   1.8407151 110.1173687  81.9507217
   1.8725635 110.3440571  81.0212898   2.5009117 109.4318390  82.0528126
  20.3937769  66.4706993  54.9766159  19.4960058  66.1597681  55.0930500
  20.4378271  66.7369509  54.0582466  85.9672546 110.8049679  29.0796781
  85.1347446 111.1536503  28.7609529  85.7428074 110.3571415  29.8953414
  36.2566543   8.6250055  46.8743467  36.1140776   9.0235126  46.0158062
  36.9775391   9.1269320  47.2546434 106.2551880 105.0131416  52.5923300
 106.5357113 105.8314800  53.0020285 107.0704269 104.5499992  52.3996496
   9.2870289  18.3014929  16.3071883  10.0801313  18.5506392  16.7816842
   8.9861733  17.5052226  16.7449915  48.4327221   2.1092306  65.5792093
  48.2180023   1.5916617  64.8031616  48.5792208   2.9938191  65.2441406
 113.8496399 107.9075909  77.8057957 113.9970303 108.4906578  77.0611238
 113.4630013 107.1209335  77.4211931  10.9628403 107.6180077  67.4321795
  11.7597330 107.1356487  67.2119045  10.4490829 107.0046139  67.9575682
  85.1601410  90.6127357  24.1177130  85.5560589  89.8147297  23.7674737
  84.4003677  90.3059101  24.6125245 111.0377789  12.1264970  70.5315018
 111.0591793  13.0828583  70.4976273 110.4310226  11.9255924  71.2440443
 102.3660851 104.5915413  73.1927490 103.0881119 105.1169968  72.8480768
 102.7934742 103.8932991  73.6887550  98.6250973  99.8353577  45.5111361
  99.0109253  99.1740513  44.9366379  99.3565559 100.1445293  46.0455608
   5.7423240  95.1221657  69.8038387   6.5191293  95.0731087  69.2467070
   5.0453681  94.7295570  69.2781544  22.5427485  30.0794864  51.9061470
  21.6314363  30.1861095  52.1788597  23.0390859  30.6356406  52.5066233
  24.3603802   2.7047104  68.2106256  24.5778298   2.5916418  69.1359138
  23.7535119   1.9899461  68.0181265  79.4796133 101.2534237  54.7813320
  79.4578362 101.6209602  55.6648874  80.3286552 101.5226460  54.4307852
  25.1453257   1.7114206  62.7219963  25.8259606   1.4081280  63.3228159
  25.6025457   2.2961640  62.1176338  20.4716063  17.8865397  68.0667543
  20.1463079  18.6085212  67.5290251  19.9401569  17.9218996  68.8620806
  19.8951054   7.4413252  59.7262144  19.9412978   8.0385870  58.9796400
  19.1719782   6.8504924  59.5158911 111.1180019  89.8546028  82.4871731
 110.3682041  90.4495907  82.4916744 111.5155125  89.9636841  83.3510685
  37.4755359   5.2920312  46.6511822  36.5738940   5.5973244  46.5508270
  37.9989839   5.9257692  46.1606646   7.4866903 109.5332336  67.7810860
   7.2438335 109.8931503  66.9280243   8.2585025 110.0356483  68.0420828
 101.5654278 104.6334267  25.8185410 100.9828949 105.3868961  25.9142208
 102.0114422 104.7799015  24.9843645 102.8825951  78.3963442  64.3935776
 102.5148964  77.8742123  65.1066065 103.3065701  79.1345358  64.8312426
  90.7593155 109.4732285  58.2129955  90.7559681 110.0359440  57.4386835
  90.5057240 108.6110115  57.8835773 118.5667324  13.5421610  48.6860037
 118.3078861  13.8452351  47.8157330 117.7531052  13.2317472  49.0833426
  35.6657553  12.9327345  44.5630121  35.2079940  13.3703578  45.2807665
  36.2668157  13.5954905  44.2228460   1.6292457  83.5315800  69.9129868
   2.2341895  83.8504696  69.2432213   1.0011316  82.9931068  69.4315815
 119.4483566  77.4433756  49.7284126 118.7114525  77.8503466  49.2728090
 119.1155148  76.5906525  50.0082588 109.0051651 108.3959103  94.6241474
 108.2501984 108.9809799  94.5612717 109.7468090 108.9786243  94.7874069
  90.7996178 104.0383720  56.1968040  90.0607491 103.5402775  56.5463781
  90.5154324 104.3070412  55.3231382   6.2851936   6.9294029  68.1630516
   5.6075495   6.5283394  67.6188278   6.3040644   6.3933587  68.9558554
  24.1774893   9.2448747  65.6913280  24.0919590  10.1925421  65.5872059
  24.0707374   9.0965557  66.6309214  73.4831572 104.6711922  81.5002823
  73.0506516 104.6420860  80.6468678  74.1498137 103.9858437  81.4544392
  97.5237274  18.6218071  61.7062569  96.9240475  18.1888461  62.3138428
  98.3147335  18.0831337  61.7257833   7.0545429  66.5114212  81.5433979
   7.3446190  67.3584127  81.2047386   6.6695821  66.0698891  80.7863712
 110.8058834  80.9397411  46.7439890 110.0905704  80.3115654  46.6441917
 110.4377079  81.7713642  46.4455462 105.1558876 104.8037434  42.7520466
 105.8614159 105.1221657  42.1889591 104.7904873 104.0563011  42.2787046
   4.2908064 102.6553535  67.2199535   3.5181284 103.0244541  67.6476955
   3.9856166 101.8288040  66.8459082 104.4846916  88.8292980  71.8356323
 104.1410828  87.9461575  71.9706631 104.3028545  89.0189075  70.9151888
 107.2525406  85.1684952  61.5699530 106.8267632  84.7124481  60.8440256
 107.9701424  85.6522465  61.1609697 106.4642620  90.8390903  62.5454187
 106.5990639  91.7582893  62.3149204 106.5986729  90.3642941  61.7252207
  82.9710674 110.9374237  36.8310094  83.0496979 110.2670956  37.5097632
  82.1104240 111.3290882  36.9797421   4.5366946 108.7617493  54.4557858
   3.8093024 109.2954540  54.1359520   4.1267297 108.1228542  55.0388575
 113.2048130 104.4644356  54.4436407 113.1005573 103.5373211  54.2295837
 112.6675797 104.5915985  55.2255821 111.0434628 105.4321861  55.8033657
 110.8207130 104.8541069  56.5330505 110.3758240 106.1176586  55.8284235
 113.9478493  18.3153474  61.0951424 113.7326145  18.5711122  61.9920778
 113.5393810  18.9876556  60.5498075  29.8502183   3.8403344  62.7885151
  28.9725447   4.2219913  62.7723646  29.7132993   2.9368261  63.0733967
 114.6759415 110.7093143  43.8953257 115.1060581 109.8640537  44.0247774
 115.3912735 111.3146782  43.7002230   8.3327103 111.4182186  65.4009438
   8.9640898 110.7266045  65.5990744   8.3574116 111.4991093  64.4474840
  28.8134766  13.1763113  48.3632374  28.0615783  13.6039686  47.9533672
  29.3282819  13.8957250  48.7288189  89.1259098 102.4828053  47.6390791
  89.7563839 101.7951012  47.8531122  88.3578587 102.0115471  47.3161888
  16.1132371   4.5851025  66.5056372  15.7637823   4.0616694  65.7844353
  15.3428686   4.8332536  67.0167017  90.3986740  92.4770927  39.9003983
  90.7297421  92.5523376  40.7953644  90.4133606  93.3729172  39.5634842
   0.6283469  14.1359067  71.7797470   0.0639146  13.4817517  71.3677645
   1.3984108  14.1789639  71.2128448  35.2798295   0.7849039  67.9289055
  34.6865392   0.4749412  67.2446823  35.6799245  -0.0115771  68.2778692
 108.1741428  95.4543495  53.6781263 107.4758816  95.8137512  53.1308699
 108.6024475  96.2228298  54.0552473 107.1150398 105.2106762  48.3193827
 106.8346405 104.6238995  49.0217400 107.1703243 104.6493053  47.5460529
 114.3002987 107.9221725  88.6985207 114.8497677 108.7051010  88.7350178
 113.4450150 108.2149220  89.0131950  19.4487154   4.9154699  64.2371273
  19.2804742   4.2853570  63.5364962  19.5522642   5.7533062  63.7859774
 109.0543938 111.1839485  51.7193460 109.1452122 112.1205330  51.5438271
 108.2770157 110.9221077  51.2260437  90.4000664 103.9342880  44.0602684
  91.0416031 103.2240391  44.0743494  90.3477001 104.2278099  44.9698496
  79.0348482  97.2030544  57.4317074  79.3726921  97.9596901  57.9108620
  79.8085690  96.6695499  57.2501659 103.0678844  90.3341961  77.6186609
 102.3855114  89.6937561  77.8197670 102.6967907  90.8666325  76.9150782
   4.3094489  91.4898300  90.3117943   4.4145942  92.2616768  90.8680439
   3.5736555  91.0147285  90.6979561  34.6240354 102.0079041  63.4976673
  35.4176188 102.2952461  63.9492035  34.3132091 101.2620640  64.0108395
 109.3648529  99.9058914  57.6175785 108.6419678  99.3846893  57.2682571
 110.1183414  99.6605778  57.0806456  25.0058270   1.7157748  58.4364033
  24.0537930   1.6326658  58.4907675  25.2879310   0.9331187  57.9630089
 116.2319565   9.5420867  55.6357718 115.7527065   9.1620290  54.8994923
 116.3734150  10.4546833  55.3840017   3.1064722 111.5724564  57.2680187
   2.5658903 112.3600483  57.3289251   3.6432835 111.7101765  56.4875698
 101.4465618  93.4057426  53.5277557 100.6079674  93.0104637  53.7659645
 102.0913792  92.7182770  53.6945724  -0.1655898  83.5511303  72.0683718
  -0.2843336  82.6033783  72.1307802   0.6041075  83.6598110  71.5098143
  97.5815201 109.4354057  42.2006416  96.7651081 108.9397240  42.2639704
  98.1190681 109.1044998  42.9202080 101.0441875  89.3197155  62.0037508
 100.4086304  89.0860271  61.3272190 100.6376266  90.0483036  62.4729013
  80.4356766 111.5650654  63.8668442  80.5105782 111.6867733  64.8133183
  79.8987055 112.3007679  63.5725069  92.1844006 100.9431553  58.9054823
  91.3505936 101.1560154  58.4863329  92.2618389  99.9932957  58.8160276
  81.2459087 107.7495193  60.7611656  81.1758041 107.8850079  59.8161983
  81.8661785 108.4173775  61.0535145  30.6825733  11.8344426  58.7965536
  31.5937400  12.1070313  58.6883688  30.5159640  11.2551916  58.0529547
  36.7900133   2.5842038  57.7779198  36.7571926   2.3440711  56.8519115
  35.9935808   3.0954883  57.9211426 111.7369843 101.4352512  67.2204590
 112.1658325 102.2657967  67.4266291 112.4580574 100.8288670  67.0513821
 119.1731453  92.1416473  68.5749102 118.7684536  91.9074917  67.7396679
 118.5439491  91.8518448  69.2354918  93.5375690  92.9837704  69.6355724
  93.8232136  92.0879078  69.8146391  93.8350010  93.4861374  70.3941250
  30.0441670  13.6952507  41.2641048  30.4980016  13.5703766  40.4306364
  29.2572165  14.1903579  41.0364914 101.2417221  99.5459843  62.3538876
 100.9295177  98.6799622  62.6161289 102.0812225  99.6441078  62.8031588
  76.1521292 106.5895748  66.7950964  75.4600286 106.0608768  66.3979626
  76.4614058 107.1518421  66.0848618  90.3242397  86.3355255  77.1471691
  90.5204868  85.5369377  77.6370335  90.0681877  86.0266018  76.2781286
 117.7170563  89.9021435  85.6847286 118.4493160  90.3930187  86.0576534
 117.2336674  89.5786476  86.4449310  10.8558488   1.2226414  69.6528959
  11.3601995   1.7549831  69.0376949   9.9476254   1.4904185  69.5126963
  27.1476245  11.8158865  67.8962088  27.4055195  10.9158325  68.0952597
  26.7255449  11.7600667  67.0389032  13.0917549   6.6995853  57.0694065
  12.3989093   6.0473949  56.9652748  12.6989126   7.5172281  56.7638445
   6.9501901   1.9132113  72.1197987   6.1763185   2.4753483  72.1566391
   6.5999556   1.0315897  71.9920826  24.2842865   4.2009449  45.5756903
  23.6840987   4.8377109  45.9636784  24.4996691   3.6061829  46.2940884
  25.5560422   2.5025356  36.0536599  25.3935909   2.5605965  36.9951868
  26.5019298   2.3749341  35.9812331  11.8890214   2.2250485  67.1763468
  11.9206810   3.1015012  66.7928648  11.4778471   1.6835327  66.5026045
  99.6012115 103.9184856  64.9065447  99.8216724 103.0345726  64.6127272
 100.3732872 104.4418716  64.6915865   9.0563452 104.7496891  46.8575478
   9.6469575 105.1856995  46.2432957   8.6723018 104.0328503  46.3526964
  44.9209404  11.2198806  28.1085563  44.7721720  11.3729441  27.1754599
  44.1759586  11.6368461  28.5414267  41.2695456   8.8992923  58.6124611
  42.0406151   8.3608270  58.4343004  41.3193083   9.6084094  57.9714394
  87.3076153  89.1044521  72.5529957  86.8177700  88.3240032  72.2937870
  88.0722904  88.7640381  73.0173445  14.8889959  98.7366581  60.7825708
  15.6767321  98.6463356  60.2463436  14.6660995  99.6658325  60.7261562
 103.8824177  80.5039787  83.6598492 104.6122456  79.9224901  83.8730717
 103.3990574  80.5927849  84.4812489 106.6955948 109.2000198  51.0371065
 105.8172798 109.2402840  51.4155054 106.5551090 108.9089680  50.1361179
 104.9077892  97.6712036  58.8318872 104.7134495  96.8227482  59.2301083
 105.5170536  98.0878925  59.4413185 106.3807964  93.1868649  40.9548998
 105.4772663  93.4894466  40.8637047 106.8086910  93.8646030  41.4781618
   9.4627649  39.7377276  66.0065794   8.9645791  39.0986538  65.4970455
   8.8002402  40.3319359  66.3590145  93.0104065 105.9810734  49.3444633
  93.8023186 105.4448414  49.3840361  92.5602722 105.8048248  50.1706266
  85.7468796 110.6652546  64.2200136  84.8291302 110.5131531  64.4454813
  86.1715698 109.8190975  64.3610716  33.1299520  20.7910538  69.1894913
  32.2750306  21.1679912  68.9815044  33.7394595  21.2434745  68.6063576
 110.8998108  86.7076969  70.2433729 110.1231384  87.1818447  69.9463940
 111.2360001  87.2307014  70.9711552 115.4782104 106.4699745  61.3270378
 114.9840736 107.1400261  60.8547211 115.2518368 106.6090870  62.2466183
  32.2731853  26.4634728  39.7997332  32.7279496  27.2790241  39.5892668
  32.9608846  25.8831000  40.1260328  27.5989676  10.4983485  65.1498461
  28.2041979  10.5404127  64.4094658  27.1551967   9.6562648  65.0488901
  21.3259125   0.4059982  61.5970278  21.7631197   1.1484045  62.0140553
  21.4758348  -0.3266914  62.1944571 108.1841755  97.8909874  66.8359804
 107.7373409  97.3297310  67.4696684 108.3206367  97.3293495  66.0729790
  81.6656113  97.9128647  26.0638547  82.0168304  97.2570515  25.4615402
  81.4122772  98.6441231  25.5005503   2.9682058  91.2282562  71.0680723
   2.2612271  91.3898754  71.6928053   2.8094929  90.3389454  70.7515621
 118.4497929 110.3706169  63.3230114 119.3941498 110.4870415  63.4272718
 118.0720901 111.1980629  63.6211824 105.6489944 109.7581291  64.9072742
 104.8182964 110.1864624  65.1139259 105.6366062 108.9508247  65.4214144
  92.9769897  60.6533051  95.8634281  93.1776714  61.5890217  95.8436394
  92.9135036  60.4024220  94.9418736 106.0562325  97.8322220  42.7919960
 105.4766273  97.0826530  42.6562023 105.5632687  98.4145546  43.3700085
  49.5199347   2.2597507  79.3492794  48.8081646   2.8809685  79.5032310
  49.1571665   1.4116745  79.6050072   8.3355165  10.8555365  62.1625710
   7.6160192  11.4631677  61.9912815   8.4126997  10.8385360  63.1165028
   6.5655643 104.9414730  38.1579614   5.8246565 105.4695511  37.8606057
   7.1141988 104.8391819  37.3802924  20.1346588   6.0337746  44.6980667
  19.1901553   6.1886281  44.7108650  20.2543640   5.3366917  44.0531015
  97.8768921 107.0092773  72.5015974  96.9996452 106.8557739  72.1507359
  98.4210587 106.3394737  72.0874929 108.2635021 106.9497299  52.7611876
 107.6739693 107.5098610  52.2562790 109.1229630 107.0853901  52.3622465
  94.9523163  90.6736946  53.6030483  94.5087147  90.0572491  53.0204344
  94.6612740  90.4256916  54.4805574  34.6808171   0.2457292  58.1960583
  34.5346642   0.7939737  58.9669657  34.2227578   0.6998863  57.4888420
 101.8090534  96.7229462  45.6623030 102.3827934  96.8192005  46.4224243
 101.4943314  95.8203602  45.7125425  98.7014294 107.4490452  57.1520472
  97.7694893 107.6601982  57.2080564  98.7844276 106.6095924  57.6044369
 112.1111965  96.6744232  59.0417671 111.6273403  97.4615192  58.7915897
 111.4349556  96.0109615  59.1787243 115.9628296  97.7954292  75.6044292
 115.8821964  97.6354122  74.6641541 116.4258194  97.0274639  75.9392452
   1.1284798  14.1037345  63.8259745   0.9122817  13.3226168  64.3352365
   1.1582700  14.8098636  64.4715214 103.3346844 107.2664738  35.1908278
 102.8847313 106.7221069  35.8369207 104.2371273 107.3158836  35.5060983
  95.7292366 111.9537640  64.8608732  95.0861645 112.6070309  65.1364136
  95.2391434 111.3604832  64.2916107  37.7854443   1.1290456  63.7274170
  37.8966331   1.9354331  64.2310095  37.2296786   1.3817687  62.9901981
   0.8943667 103.6981487  48.5644960   1.5511459 104.3858814  48.6736012
   0.9949096 103.4128475  47.6563501  13.7939477 109.1529846  23.0623221
  14.3745458 109.8678684  23.3232594  12.9192436 109.4520283  23.3107233
  96.5826797  95.7045364  50.6172657  97.1291542  96.3800240  51.0189009
  96.1417580  95.2831841  51.3550186  14.6474719   7.1343827  77.4601078
  14.6965015   7.7556485  78.1866455  14.1993165   7.6148045  76.7639875
  59.0905857  54.9246883   3.4114483  59.5207739  55.0089693   2.5605276
  59.2785025  55.7504082   3.8576633 101.3326359  86.3216400  57.6687431
 101.4413166  85.4926682  57.2026587 101.5278339  86.1104679  58.5817242
 102.2667885 101.3696957  72.9045057 102.5228691 101.5622330  73.8064909
 101.8364334 100.5161667  72.9547071  41.0839224   5.1649356  68.7898207
  41.8508148   5.1116294  69.3601418  40.6550789   5.9830189  69.0409470
 114.0623856  98.5303497  69.4908953 113.2562733  98.7529564  69.0252113
 114.6505165  98.2047367  68.8094902  94.1710186 104.5293999  32.3819852
  94.3916702 103.8707733  33.0405879  93.7836933 104.0293312  31.6635561
 107.8707695  99.1744423  79.5389938 108.2929230  98.7536812  78.7900066
 108.3511543  98.8473701  80.2995872   1.4516450 108.3008480  32.2943616
   0.9174678 108.9573383  32.7414680   1.9990678 108.8062954  31.6934633
   6.0255396 111.7710876  32.3581910   6.0796404 110.8245373  32.4898958
   6.2804168 112.1452141  33.2015777   7.8888255  77.9294586  75.1288319
   8.3273864  78.7567663  75.3274727   8.5746211  77.3798656  74.7495365
   5.6631953 112.1316147  38.3708000   6.2683225 112.8223324  38.1006885
   5.4507279 111.6688728  37.5602698  54.7242737  12.6174605  53.5689878
  54.0643644  13.0027926  52.9925585  55.5497026  12.7314031  53.0979109
 117.8015137  91.1770153  28.3782744 116.9787216  91.3671970  28.8289213
 117.7003002  91.5785599  27.5152850  52.0787954   4.6303585  56.9286013
  52.9778051   4.8102614  56.6535616  51.5459156   5.2418780  56.4203548
 111.0317135 103.9866734  58.1166601 111.6169643 104.5072842  58.6668253
 111.5985298 103.3211040  57.7268076 116.0705376 102.2445393  34.0919089
 116.5915108 102.8280354  33.5402298 115.5421257 101.7392731  33.4740710
  51.3925123  16.5290177  42.5353193  51.2048626  15.5906284  42.5142384
  51.6716528  16.7375445  41.6437912 118.2893467  90.3816128  31.8235731
 118.3787823  91.2897110  31.5344334 119.1157722  89.9682426  31.5738320
   1.8913159 104.6313381  27.1543336   1.4090058 104.0231037  27.7143884
   1.3018657 104.7985268  26.4189243  50.2436638  13.1026578  50.5578709
  50.5637074  13.9832056  50.7539320  49.3663645  13.0761170  50.9398079
 103.3940029 104.6257210  20.6520581 103.9521599 105.2496719  20.1879764
 102.5713062 104.6303272  20.1627851   3.9610034  84.4801807  47.2284889
   3.3538207  84.0790749  47.8503180   4.5293710  85.0290394  47.7688122
   5.3878713 105.6026268  53.9511776   5.7048386 105.3699875  53.0784559
   4.8746043 104.8441696  54.2296362   7.7397293 109.6653557  24.3239164
   7.0256841 110.1059914  24.7845840   7.9909360 110.2763367  23.6312175
 114.6649265  97.5170994  59.4631910 114.8322010  97.4797153  60.4049206
 113.7892723  97.1444035  59.3604803  23.6289167  77.6629782  31.5009522
  24.3594003  77.1929502  31.0988355  22.9697967  77.7183151  30.8090496
  70.3857851   9.3263155  39.5730829  69.5979214   9.8353118  39.7639394
  70.5462503   8.8245970  40.3723097  48.7127638   0.0468242  42.4079514
  48.2458305   0.8823919  42.4134541  48.1934023  -0.5139893  41.8317699
 106.5088177 108.0964184  71.2784767 105.6742954 107.9052639  71.7065763
 107.0746136 107.3624802  71.5181589 107.6919937  96.9067192   4.8975512
 108.0103016  96.0202312   4.7270837 107.3558235  97.2070026   4.0531299
  50.7068634   1.0801973  50.6746197  50.6018591   2.0307423  50.6337452
  51.6230917   0.9302041  50.4416943   9.0502882 102.2301483  37.6681662
   8.7448955 101.6657162  38.3783698   9.2985702 103.0468845  38.1012130
  30.1743865   7.0128548  68.7524462  31.0178113   7.1629274  69.1794682
  29.8327136   6.2214345  69.1685534  43.1410217   3.7829560  38.2253408
  42.7989578   2.9952782  37.8025079  42.5589323   4.4840729  37.9323602
  10.7344723 100.6124020  56.4319849  10.3739023 101.4386845  56.7536688
   9.9772793 100.1383400  56.0882473  63.2728386   6.3608021  19.7245347
  62.3405981   6.3848466  19.5087063  63.3721113   5.5813122  20.2711344
 111.8906784  86.5023994  76.1610174 111.7780685  87.4193764  76.4114046
 111.8106174  86.0181522  76.9828033  44.8166132  20.5420756  75.3961515
  45.5960131  20.2247071  75.8522701  44.8005629  21.4822578  75.5751228
 104.3169498  98.7572193  44.6985865 104.4333744  97.8640270  45.0224590
 103.8743210  99.2152786  45.4130745  52.3631048   2.3065577  65.5084610
  51.8889809   1.4763069  65.4623842  52.2904825   2.5733048  66.4248705
  19.6595454  88.9256573  50.6285572  18.8378024  89.3851662  50.4558659
  19.5351350  88.5281277  51.4903736 118.4897804 105.6778526  46.0815048
 118.2389927 105.4960442  46.9871998 118.2972050 104.8661804  45.6121063
  63.5364914  16.6498446  49.0110350  62.6346111  16.4708936  48.7449121
  63.6000013  17.6049268  49.0150547  27.5336719 107.8424358  39.2344761
  28.2333207 107.4448776  39.7528100  27.9649878 108.1281853  38.4291506
  13.3878040 110.1107025  17.9696846  12.9802275 109.2564774  17.8267944
  12.6541555 110.6995773  18.1463540   7.1747333  83.4967327  43.1104469
   6.6486514  83.7218189  42.3431110   6.8375313  84.0612888  43.8060093
  11.6953468  89.4838619  33.0178261  11.6376317  90.3166771  33.4861326
  11.9448924  89.7271729  32.1263337  47.0740032  16.3430870   7.6314735
  47.1799231  16.3825440   6.6809702  46.2740374  16.8395507   7.8041393
  17.1319401 110.5411530  41.4997053  17.4893117 110.1884747  40.6847572
  16.4514458 111.1525536  41.2180233  16.7566586   5.0320107  53.2219553
  16.2734997   4.2851216  52.8684759  16.9369292   4.7921684  54.1309166
   3.2899216 105.6499195  42.7944469   3.8453829 106.3218594  42.3992491
   3.7421942 104.8266220  42.6104164  13.7323868 105.1751804  33.4498477
  13.8377190 104.2376709  33.6117220  12.8069639 105.3459740  33.6249304
 106.2246799 109.9190998  57.3542452 105.2933311 109.7643089  57.5119305
 106.3273430 109.8184586  56.4079046 115.3712177  89.6642685  73.2451916
 116.0508156  88.9931011  73.3077145 114.6195984  89.2874146  73.7026596
  24.3808198 103.1727695  37.0558023  24.9223089 103.9393044  36.8675280
  25.0003695 102.5120735  37.3654366  53.7417793   0.6215718  47.4639606
  54.1367006   1.4927706  47.4281836  54.4805288   0.0292952  47.6042700
  21.2820888 106.8284321  64.7818804  21.8279624 106.0657120  64.5908165
  21.2289405 107.2993088  63.9502048  41.4507437  23.9309764  34.7981405
  41.6956854  23.0476093  35.0736380  41.0753918  23.8142395  33.9253783
 112.7141666 105.0217915  76.8438005 112.4121857 104.8060513  77.7261257
 111.9171810 105.2569771  76.3686943  48.1177330   2.0232897  85.4532623
  49.0730381   2.0821546  85.4408264  47.8226614   2.8265953  85.0244713
  10.7603931  88.3008099  68.2010603  10.4443240  88.6719227  69.0248394
  10.0100517  88.3572865  67.6094294  42.7399206   0.2110092  38.6935306
  42.6309776   0.4857716  39.6039534  43.6877918   0.1586076  38.5709500
  13.5078502 101.3842392  56.3734818  12.6045513 101.0704803  56.3305807
  13.9705956 100.7139492  56.8762827  47.8109741  13.0659080  63.0750227
  48.2211161  13.9067197  62.8724098  48.1771898  12.4594879  62.4313068
   5.5074471   8.2074535  58.9016914   5.3637981   8.4341884  57.9828930
   6.4582610   8.2334447  59.0089703   2.4213086  96.2736034  29.7813392
   3.1127417  96.9355297  29.7796392   2.8388071  95.4902172  29.4232297
  28.4036803 101.8322182  55.0372505  28.5753965 101.8564796  54.0958929
  28.1097174 100.9366894  55.2040958  42.3656511  10.4069972  51.5747070
  41.5734577   9.8714322  51.5319300  42.1408796  11.2056684  51.0973883
  46.4876652  22.1773362  43.4130001  45.8914137  22.9245448  43.4619474
  45.9229183  21.4125633  43.5244465  35.0095630   1.8126234  50.8325624
  35.1164389   2.4497309  51.5388966  34.7972274   0.9931260  51.2792969
   5.3839338  97.6558304  65.7191324   5.3711134  96.8665123  66.2604570
   5.8358949  98.3069706  66.2557697  15.2903187  96.9298744  39.6353102
  15.1886928  97.5535965  38.9163637  15.9326124  97.3370266  40.2166224
  22.4154449  14.8509598  50.3474855  22.7261829  14.0117359  50.0078201
  21.8886852  14.6194839  51.1124563  57.0559931  15.7924497  25.9511805
  57.1403551  14.8622823  26.1607122  57.9297924  16.0524654  25.6594753
  32.2167611  15.5647731  53.0220175  32.2136807  16.2394333  53.7010288
  32.9482913  15.8019280  52.4520588   2.0056170 111.0907459  50.3898287
   1.3052845 111.4184380  50.9540796   2.7104759 110.8573437  50.9939194
  41.5631628  19.0744448  34.1435313  40.6775761  18.7722123  34.3450809
  42.0908499  18.7825060  34.8868656  45.3648281 111.2314606  25.7902169
  45.9052515 111.9889450  25.5657601  45.6813097 110.9581470  26.6512442
  51.5917540  11.8943202  58.2975435  51.3979292  10.9670043  58.1606102
  51.5095663  12.0191169  59.2430067  42.0786285  12.3580992  39.1122675
  41.6952181  11.5709317  38.7254930  42.9297352  12.0718801  39.4438291
  39.2191792  10.9930789  42.6432467  39.7966123  11.7515850  42.7296877
  38.3355737  11.3581824  42.6898623   4.6248242  94.3861008  44.0497637
   4.3552470  95.2003098  43.6247635   5.5797148  94.4405651  44.0878439
  30.8139133 103.6463642  34.7690129  31.7503428 103.5458469  34.9399686
  30.5646062 102.8391647  34.3189907 102.1074295 110.5118179  62.5476217
 102.9136848 110.8267879  62.1389961 102.3501968 110.3437614  63.4581470
  19.2460775 104.5559311  45.6941843  19.3051732 105.3942394  45.2359581
  18.4694409 104.6395969  46.2474203  43.2874250  14.9970245  46.8469620
  42.6804543  14.7182703  47.5326061  44.0904903  14.5073032  47.0244074
  45.9236526   4.7436231  15.0725150  45.6229496   5.6367159  14.9046052
  46.1629772   4.7417450  15.9993112 117.2983074  96.7710972  65.3149080
 117.1499920  96.1314201  64.6184540 117.9903793  96.3847446  65.8515692
  42.7905846  12.2089434  47.9278660  42.2086668  11.6786230  47.3834705
  43.6007500  12.2715890  47.4219656  39.9876738   3.7130427  32.9161406
  40.5779219   4.4613996  33.0044818  39.2003918   4.0755853  32.5099611
  65.6083250   2.2545667  42.4745369  65.2367353   2.3635481  41.5991640
  66.3179016   1.6230372  42.3566008  27.6402807  28.4018683  44.5269346
  28.5267043  28.7629914  44.5183325  27.7397895  27.5319767  44.9137449
  44.3210649   2.4312252  47.9409218  44.9506044   2.0412824  47.3344088
  43.4691143   2.2808984  47.5312757  18.1676626 103.5456085  53.7390947
  17.2933149 103.6889839  54.1012955  18.0378973 103.5510063  52.7907467
  31.8362403  10.4167032  38.2073522  31.2649202   9.7455782  37.8339696
  32.2301722  10.8456051  37.4476862  86.9200897   3.8401511  74.1739321
  86.8885326   2.9614678  74.5522833  86.4239502   3.7677911  73.3585548
  39.0873003  19.0253603  24.2262459  38.3368421  19.6193039  24.2096519
  39.2054939  18.7631953  23.3132672   5.3422481 112.1310711  81.4335155
   5.6760973 111.3574600  81.8877220   4.3932688 112.0865917  81.5505314
 115.3057098  74.9293423  49.7458410 114.6637630  75.2673912  49.1214561
 115.0261593  75.2812672  50.5909681  50.1388502  29.5439029  33.8100886
  50.8623743  30.1705813  33.8145590  49.4062853  30.0210619  34.1998291
   1.2335486 108.3474445  51.7535400   1.3102098 108.7261677  50.8778000
   1.6694590 108.9783955  52.3263502  53.6030102   7.9909152  34.6245575
  52.6569748   8.1312805  34.5851970  53.8861275   8.4820402  35.3958368
   1.8361723  93.3913136  87.2533417   2.3864195  93.7785435  87.9341507
   0.9839580  93.2728100  87.6727676 116.6775703  93.2398129  59.8097372
 117.5908947  92.9952145  59.6605825 116.6100883  94.1321945  59.4701338
 105.5045795  91.2131500  65.0310993 106.2740993  90.7007408  65.2790976
 105.5038643  91.1963081  64.0740490  37.2516584   1.8598041  72.8212118
  37.3272896   2.1065110  73.7429762  36.9105005   2.6436952  72.3906803
 103.8718224 105.3455925  39.3148232 104.3629837 105.0671577  40.0877857
 103.6180210 104.5287228  38.8852429  41.8110275  15.5274105  33.0048466
  42.5842714  15.7700121  32.4954700  42.0193815  15.7966626  33.8994551
  45.5518103   1.4441083  69.7135448  46.0596561   0.9101827  69.1026020
  45.0352478   2.0232943  69.1532421  55.4329824   4.4713107  43.2730770
  55.9443855   4.3296415  42.4764395  55.2803993   5.4160190  43.2949114
  33.2243609  10.9370363  55.4962301  32.8635287  10.1891971  55.9724331
  32.5660586  11.6247332  55.5959606   7.9318815  93.8902950  52.8459597
   8.3197016  94.3463421  52.0990705   8.6796534  93.6413574  53.3891916
  61.2216139   6.4243078  45.4777479  62.1225500   6.2341279  45.7392311
  61.2465048   7.3322093  45.1755428   4.7527808 110.3075314  59.0849781
   4.1550434 110.6567669  58.4239388   5.6260961 110.4773521  58.7318277
   2.7458268 110.5593586  53.2222986   1.8151432 110.6832027  53.4086370
   3.1761298 111.3005924  53.6484909  59.7299194  25.1978421  17.6274371
  58.8662577  25.3750014  18.0001748  59.7544718  24.2468691  17.5212395
 116.6503239 111.5757942  25.7684302 117.4253273 111.2144756  25.3382587
 115.9489155 110.9605885  25.5544519  43.4868431   6.9613338  43.7912321
  43.0313635   6.8196565  42.9613543  43.4720039   6.1064571  44.2215776
  38.1910157  10.1673961  38.5940623  38.0315518  10.5388415  37.7264023
  38.0040336  10.8846509  39.1997123  50.2959585   9.2971969  41.5082693
  50.6929064   9.2646027  40.6378651  50.8294487   8.7040061  42.0371771
  39.9240899  13.5694420  54.3604469  40.6488132  13.8144386  53.7851286
  39.4955587  12.8420389  53.9093637  56.2575769   7.2794479  53.3562231
  56.9948673   7.6918846  52.9061890  56.3274574   7.5853819  54.2605162
  38.1859756  12.9670155  33.8510299  37.5490546  13.2480633  33.1940866
  39.0040636  12.8672743  33.3641863 118.3191872  92.7999878  49.8389912
 117.4648952  93.0256653  49.4708967 118.8748550  92.6425552  49.0756607
  18.9575803 111.7394829  28.5358238  18.8085711 110.9834671  29.1036987
  19.2460930 111.3617611  27.7049637  46.9618225  17.2103918  38.7654972
  46.9071484  16.2829590  38.5350370  47.2075987  17.6459146  37.9493189
  42.2877645   6.9458497  41.1336708  42.9690266   7.0633328  40.4716206
  41.8580866   7.7993822  41.1892748  53.6657763  14.8668766  31.9628620
  53.3263922  13.9738953  31.9025803  52.9696035  15.4128623  31.5975189
  49.0214348   8.7310243  52.5838184  49.6885633   9.1495585  52.0397615
  48.2240677   8.7674767  52.0555115  33.2139111 103.0630970  57.1040678
  33.2268810 102.7257347  57.9997492  33.5651493 103.9505196  57.1772718
  60.6259060  19.2237473  37.5997972  60.3114796  19.9914765  37.1223450
  59.8773718  18.9473748  38.1285191  32.5231194  10.9948599  46.4710951
  31.6153049  10.7169104  46.5929508  33.0083895  10.5350924  47.1561909
  34.5167136  23.8399816  52.1508980  34.9401903  24.6859288  52.0050573
  35.2416635  23.2278872  52.2774744  17.4050820 108.6628723  43.5929251
  17.3185265 109.3396568  42.9215813  16.5622425 108.2092190  43.5857534
  45.5033398  13.1433046  46.9743681  45.9934664  12.7854478  46.2341309
  46.1391306  13.1761670  47.6891565 108.7934589 110.7974911  40.6722641
 108.7711716 111.7531490  40.7216358 107.8885841 110.5283165  40.8303165
  19.7768545 107.9887104  71.5473700  19.6611965 107.0804501  71.2682199
  18.9100444 108.3822441  71.4473629  75.2814531   5.0307393  47.3548079
  74.6556473   5.3633171  47.9982281  74.8715162   5.2079529  46.5081787
  15.0627947 110.1795292  39.0902472  14.6017396 109.8478985  39.8607516
  15.4784000 109.4063282  38.7085938  45.9298801  23.8791466  47.2541142
  46.2293434  23.7249637  48.1500959  45.7912302  24.8250985  47.2073603
   8.0354971 106.3399315  54.7324657   8.3636540 105.5751514  55.2053928
   7.1370399 106.1085510  54.4969511  35.6853724  96.5348434  47.7436638
  35.5535793  97.4821281  47.7824783  34.9685454  96.2155533  47.1955347
  17.3969495 107.6425457  65.0633669  16.9305193 106.9624138  65.5492592
  17.2009802 107.4578190  64.1448355  71.7469883   8.2423043  41.8459225
  72.0993948   7.3540103  41.7913628  71.3208866   8.2787538  42.7022743
  79.7661114  25.1601291   3.1113595  79.8031235  25.4035592   2.1863709
  79.1149616  24.4595313   3.1487808  58.5172749  15.1404691  31.6524482
  58.4285784  15.9984875  32.0673800  57.6176548  14.8668432  31.4734387
  15.4576099  96.9241047  27.2945046  15.9194767  96.0951805  27.1688247
  15.7878053  97.4904060  26.5970111  16.7487967  83.6170769  27.9706764
  17.3232353  84.3539524  28.1786585  16.1014998  83.9810181  27.3667049
  46.8046331  35.6691194  40.0954819  46.8217564  36.5357661  40.5015182
  47.3799515  35.7496381  39.3347239  48.5670805  16.1759853  51.0461521
  47.9729557  15.7673144  51.6756248  48.0433702  16.2733650  50.2508640
  70.6668091  10.5039370  45.2633905  69.7480679  10.5733621  45.0039196
  70.9853983  11.4065576  45.2604008  20.1515126  14.4239771  59.0366030
  19.6099603  13.6383939  58.9603662  19.6516395  15.1042020  58.5853243
  33.5481882  16.2598085  49.4137335  34.0630078  15.8104777  50.0840282
  34.1631269  16.4007092  48.6938524  40.6594419  13.8153481  65.6359386
  40.2305603  14.3859053  64.9981642  41.5942144  13.9840782  65.5177498
 113.7055779 110.0818539  57.6965427 114.0107536 110.9761524  57.8493023
 113.7454987 109.9741936  56.7462540  47.8843975   8.4723651  62.6888323
  48.4928799   8.7727439  63.3639288  47.2114563   9.1521585  62.6533031
 118.0510426 102.5352955  59.3199682 117.3111534 102.6760960  59.9107075
 118.3432865 103.4167290  59.0878153  77.1758938  20.2761292  40.3509426
  77.9147577  20.6994963  40.7880592  77.1712399  20.6517339  39.4705296
  43.0549049  19.8723614  27.6847172  42.6573181  20.6456304  28.0849791
  43.0885410  20.0768852  26.7502260 117.5890064 103.6460114  44.4623327
 117.2568798 102.7822208  44.2178011 118.5220623 103.6123943  44.2513371
  59.0536785  24.3747735  36.6396403  58.2816792  24.8748207  36.3746858
  59.4452810  24.0844035  35.8158898  43.5476732  13.2960618  36.5827227
  43.2399082  12.7093291  37.2735596  43.8744497  12.7108192  35.8993912
  61.7949724   9.5429802  34.9823356  62.0875406   8.6880642  35.2981734
  61.1276865   9.8154801  35.6121802  54.5530701   6.7834795  75.0690317
  54.8459482   6.3898087  74.2471600  54.4310617   7.7097589  74.8608255
  14.3812561  88.5212040  31.9649863  14.8784494  89.2299938  31.5567565
  14.4968605  88.6582088  32.9052496  50.9826088  10.5240059  27.4606609
  50.8438158   9.9373436  26.7171597  50.1778126  11.0396194  27.5124025
  43.1366491 111.8037319  51.8640661  42.9216909 112.7086258  52.0903206
  42.9057503 111.7269993  50.9383059 118.3608246 107.3628139  14.1272688
 119.1588306 107.0038986  13.7391961 118.1485367 108.1198597  13.5813344
  47.2425556  12.6458538  58.4103203  46.4822578  12.7432334  58.9836454
  47.5187731  13.5432589  58.2243156  28.5640979 107.8685570  36.4127278
  29.4904280 108.0839729  36.3044024  28.4556818 107.0377541  35.9498549
   1.8096682 106.4210224  19.3385398   2.6361656 106.6087055  18.8936687
   1.1624264 106.3808918  18.6344814  10.7735562  92.1070766  33.9311004
  11.2107182  92.8350449  33.4892988   9.9164116  92.0505810  33.5087943
  41.9608021  13.7932825  52.3678970  41.7202902  13.8540101  51.4434004
  42.9175901  13.7654030  52.3651409 112.7142811  98.9432526  33.3591199
 113.2462215  98.1480980  33.3906412 113.3476925  99.6579075  33.4245229
  50.8759308  11.4367712  37.9193115  51.4577055  12.1346354  38.2205749
  50.4392338  11.8040693  37.1507955  28.2450938  83.3161545  25.0490165
  28.6265731  82.8047180  24.3354797  28.5432863  82.8761864  25.8450937
 108.9635181 112.2572613  63.6506939 109.7891712 112.5408173  64.0432787
 108.8242626 111.3755894  63.9963913  39.7891545   9.2557770  44.6805334
  39.7141814   9.5084220  43.7603235  40.1735926   8.3794665  44.6577549
  42.3518229  16.9638622  39.2356634  42.1841145  17.4136567  38.4075379
  43.2831049  17.1089375  39.4027019  19.4582975 106.4025402  17.8787148
  20.0096607 106.8614960  17.2450066  19.5177293 106.9307613  18.6747587
  14.1696155  85.7984734  30.7061744  13.9838743  86.6030598  31.1902952
  14.4955599  86.0991859  29.8579025  29.8070836  18.0723774  43.3609247
  29.1139627  17.5020385  43.6933804  29.6293068  18.9235985  43.7609863
  89.1277027   0.7049335  56.9300604  89.9376678   0.6668925  56.4213896
  89.4152069   0.6596502  57.8419399  14.3848395  93.0973339  50.9960985
  14.8809028  92.5125122  50.4232740  13.6995149  92.5428009  51.3689947
  29.3475080  24.8430753  55.1026297  29.1802311  24.0519953  54.5903349
  30.1111412  25.2416921  54.6852589  91.7374427  -0.3068280  62.5936699
  92.3595626  -0.0784326  61.9029951  91.5834720   0.5154490  63.0588388
  66.0391665   4.9228144  25.9953833  65.9747410   4.9362180  26.9503188
  65.1332474   4.9881539  25.6932688  69.7170973   5.4976130  54.6937943
  69.0026999   6.1346281  54.7028637  69.2884111   4.6594158  54.5209217
  30.3812337  18.6470854  36.0854602  30.7159376  18.3642447  36.9364643
  31.0282540  19.2787898  35.7715368  70.3297377  11.5860105  36.3199139
  70.5750751  11.3723695  35.4196930  70.1992083  10.7362187  36.7406845
  47.9839087   5.4343754  30.3744721  47.1245337   5.8532274  30.3268361
  48.5915756   6.1534554  30.5473852  33.2508588  21.1808681  13.4926033
  32.7829146  21.9951200  13.3075178  34.0943623  21.4642453  13.8453496
  59.4064808   6.2415093  59.1762495  59.1781950   5.7678205  58.3764124
  58.9962673   5.7370466  59.8787260  42.3812294  14.3870246  59.4797134
  41.6526890  14.7674775  59.9703455  41.9635344  13.9050567  58.7659407
 118.8472462 108.3473301  35.6743503 118.0066490 107.9771805  35.4048634
 118.6256218 108.9585018  36.3769031  48.4976006  11.4331794  39.4058084
  49.2622614  11.7790091  38.9454556  47.9726028  12.2063780  39.6126318
  15.1482689 108.7968826  54.7115564  15.6010425 109.6026421  54.9605131
  15.1419806 108.2691574  55.5101204  34.7788405   6.1548328  46.3139677
  34.8596835   7.0580196  46.6204834  33.9356828   6.1300111  45.8615303
  89.5021629 103.2383156  27.4641109  89.1987419 103.3757782  28.3614802
  90.4450417 103.3986282  27.5028849  50.5975914  20.8075023  30.5134034
  50.8739758  19.9467158  30.1989341  51.2512541  21.4120770  30.1620483
  33.2833672 105.5448055  42.7881765  33.8149548 104.7758865  42.9940987
  33.8965869 106.2785053  42.8314924  17.7717566  84.6661377  62.0650053
  18.1290197  85.1500320  62.8096104  17.2032487  84.0048504  62.4596357
  42.4010706  98.0446720  56.8374634  42.5731468  97.9295254  55.9029245
  43.0124998  98.7284184  57.1111107  62.1657562   3.1885108  69.6560812
  62.0000267   4.1311896  69.6671820  63.1127024   3.1131727  69.5384026
  11.0064650 110.8301926  57.5508070  10.9413695 109.9230671  57.2522831
  10.4774690 111.3264370  56.9262028  23.6207652 108.6984062  52.5586271
  23.8849783 107.8487206  52.9114151  23.0195546 109.0531921  53.2135391
  81.6066170  23.3806801  42.0766258  81.4321899  24.3199706  42.0170975
  81.6542244  23.2050037  43.0163622  46.1790133  17.1455526  64.3754768
  45.6762218  16.6401565  65.0142288  46.9608021  16.6173697  64.2140293
  60.7013512  32.6743603  29.9188733  61.2844753  31.9154263  29.9336290
  59.9189568  32.3663998  29.4614410 117.7073002 111.8507671  49.9349833
 117.9325199 110.9940910  49.5721960 118.3074474 111.9640446  50.6720161
  15.4117286 109.7936249  21.0149193  15.7698011 109.2490387  20.3138900
  14.8483372 109.2020321  21.5137577  32.2565317  15.4661310   8.6966473
  32.6672196  15.6457186   7.8508836  32.6519012  16.1006200   9.2944264
  65.7427168   4.2400554  46.8010855  66.1704063   4.4135261  45.9625006
  66.4379358   4.3446159  47.4506760  33.8604784  23.6298990  54.8220062
  34.4342089  22.8679156  54.9022818  33.8859224  23.8518763  53.8912487
   6.5215629 102.2332764  42.4095201   7.1427226 102.5459671  41.7517853
   6.2065238 103.0287361  42.8387356  42.8587103  21.0480714  32.6406217
  42.5653315  20.1973891  32.9669642  42.0510244  21.5096283  32.4151516
 109.5401382 102.1646976  46.6323090 108.8014889 102.7544403  46.4811897
 109.8500347 102.3889256  47.5097561  23.5188532  86.3933849  34.8397446
  23.1510806  87.0206833  35.4622126  24.4502616  86.6109276  34.8025036
  23.9786100  27.1346688  39.6211696  24.7603369  26.6620731  39.9071550
  24.2859364  27.6986504  38.9114451  16.1215663 100.1111794  53.8846397
  16.6148531  99.3407059  54.1661930  16.5432954 100.8432007  54.3346691
  62.2871780  15.7084823  39.0269566  62.0811176  16.5127861  39.5032620
  62.5700617  16.0076427  38.1628323  52.4557972  13.6211932  37.6154828
  53.3913755  13.5112786  37.7853155  52.3671389  13.4930789  36.6710472
  47.0494556 111.7397213  58.9283895  46.5725708 111.8600464  58.1072092
  46.4253044 111.9955444  59.6075201  45.4096556  11.5802395  53.5680485
  45.2026987  12.4963248  53.3831501  46.0045862  11.6155624  54.3170786
  60.2728367  10.1092327  57.4683666  60.5134535   9.5910740  56.7003536
  60.9632158  10.7685602  57.5383425  12.7367580  98.1794643  51.4369774
  12.4836493  97.2682953  51.5851116  12.3998022  98.6487484  52.2001648
  68.5620975  28.2163835  42.5709152  68.3725214  27.7363086  43.3770275
  68.7426662  29.1103911  42.8613949   4.7710893 107.7398872  32.4663258
   4.0293956 108.2410336  32.8053999   4.4691172 107.4074173  31.6210365
  51.6782427  19.0280342  23.4685302  50.7834959  19.3133962  23.2835150
  52.1388769  19.8296583  23.7164116  57.1105003   7.4079400  29.5943379
  57.2823143   6.9729817  30.4295158  56.1578751   7.3847890  29.5037508
 116.0119534  95.8105946  42.9170656 115.8819866  94.9033356  43.1931400
 115.1857471  96.2456989  43.1275511  58.0538321  19.0981197  70.2808189
  57.7410316  18.4631908  70.9252167  59.0075684  19.0646267  70.3550053
  23.0603838  96.8038845  38.4537625  23.0802846  97.2175598  39.3167281
  23.0672073  95.8646393  38.6381769  65.8415222  26.7762423  28.1034660
  65.5261040  27.2958040  27.3640084  65.0626373  26.3245988  28.4284067
  65.3894281   2.4033959  73.3596659  66.2782669   2.0484579  73.3448172
  65.2838564   2.8207028  72.5047159   7.8371471  96.6895294  48.3993578
   7.3871768  95.9898376  47.9258728   8.7674397  96.5171719  48.2541704
  21.1832905 112.2412777  40.7936764  21.0422325 111.3137054  40.9832668
  20.4708266 112.6898766  41.2490797  14.5825696  92.8323841  40.8699369
  14.1068280  93.6589336  40.7879305  15.4330158  93.0804825  41.2324572
 114.8518276 100.9955120  55.7462740 115.3934956 100.4703426  56.3353682
 114.7417736 100.4471684  54.9694538  24.5604348 111.7205715  68.6696863
  24.9352527 110.9976864  69.1728592  23.6292624 111.5089417  68.6036539
 111.0918617 106.4957047  30.6428528 111.8184948 106.9024754  30.1708770
 111.1650944 106.8359089  31.5345550   5.0121492 101.9302082  44.7790241
   4.3865997 101.2057400  44.7706842   5.3600794 101.9565010  43.8876820
  79.9927092  25.4485917  46.2371016  80.0784206  26.3050938  46.6557837
  79.2937374  25.0126004  46.7245245  38.8656926   8.5551631  48.6877728
  39.4450021   8.2080394  48.0094385  38.5721707   9.3986702  48.3434296
  42.5363731  18.2495248  31.4685798  41.9393110  18.0673254  32.1942163
  42.0649862  18.8789427  30.9228134  51.5875578   2.8747934  12.0209670
  51.6766167   3.2087034  12.9136050  52.3233318   2.2715253  11.9163883
  61.2866068  21.9560385  43.2214642  61.5420485  22.6982498  42.6736498
  60.9827805  21.2936473  42.6008511  50.4521990   3.9007950  50.3538036
  51.1396646   4.4101548  50.7829571  49.6466684   4.3849528  50.5353212
  86.9493389   9.1977715  53.1016111  87.8960419   9.3387252  53.0905485
  86.6857529   9.2696476  52.1842337  17.8975105 105.5931282  33.8504672
  17.3040009 104.9241924  34.1917968  18.7576532 105.1731491  33.8513517
  41.0914183  10.9437406  56.9312334  41.3349819  10.8573604  56.0095787
  41.1232901  11.8853784  57.1001530  51.8170357  30.0432181  46.7901182
  50.9552860  30.4448557  46.6791868  52.2610235  30.6013560  47.4285460
  52.1430731  13.2289970  66.6599178  52.8200817  13.6169612  67.2143316
  51.9245434  12.4029338  67.0913076  31.3904524  16.9894099  45.7913733
  32.0231652  17.1555161  45.0925779  31.2670875  16.0402381  45.7821369
  54.8759937   5.5100960  51.7199755  55.5817509   5.3196406  51.1020184
  55.3254461   5.7525176  52.5295734  41.7000961  18.5621405  68.5780096
  41.5305471  18.3437669  69.4944143  41.2917566  17.8518689  68.0830288
  48.0641556  40.6740189  43.6557817  48.3004951  40.7936335  44.5756006
  47.5984049  39.8380303  43.6349201  51.2525272  15.5079114  51.1949778
  51.3891697  15.9686136  50.3671408  50.4097748  15.8317149  51.5130138
  17.0573008 107.1684456  48.4901190  16.9631052 106.2380600  48.2857800
  16.5002418 107.3028660  49.2568302  52.5161648   7.2960132  52.3445940
  52.1030951   7.2242635  51.4840984  53.3757210   6.8900919  52.2322512
  78.3146620  17.2611356  37.0431900  78.6229420  18.0074883  36.5292311
  78.8739538  17.2578728  37.8199887  52.2739267   5.2348691  59.4872093
  52.1050692   5.0820816  58.5574913  51.5189886   5.7407999  59.7877693
  42.3426962   6.8379682  73.0978537  43.2150221   7.0134324  73.4506941
  42.1603107   5.9325594  73.3492565  63.7315130  21.4154100  46.7384100
  63.7290525  22.0694518  46.0395098  63.1187487  20.7434344  46.4397478
  67.7651024   5.6493944  50.9058809  67.1125746   6.3426888  50.8069801
  67.3635435   5.0272977  51.5124893  47.7050400  23.5733986  38.9075971
  47.8595924  22.7941370  39.4415426  46.7750788  23.5306120  38.6849570
  56.4939642  31.8783522  45.8465910  57.2986078  31.3640738  45.7810307
  56.7929983  32.7681231  46.0339928  12.1606088 105.7570744  50.8421516
  12.8574979 105.4692936  51.4318657  12.1891463 106.7128372  50.8860683
 101.7268848 100.8568382  32.8211570 101.0837460 101.5223408  32.5768161
 102.1582985 100.6270885  31.9981527  45.9976816  29.7613811  27.4888539
  45.0858259  29.8277402  27.7723193  46.3439846  29.0098429  27.9699945
  46.3009024   1.0263965  17.9273009  45.5033112   0.9363341  17.4057972
  46.0713768   1.6580740  18.6088669  55.6697607   7.6283163  80.3974915
  55.9015560   7.6817161  79.4703150  54.7127151   7.6432967  80.4063606
  25.2513981  30.5518103  28.1149530  26.0599351  30.1088786  28.3724666
  24.8052692  29.9243593  27.5461793  47.6311731  19.7532606  50.4697037
  47.7776003  19.8339343  51.4121914  48.2101488  20.4085970  50.0804090
  26.7408609 110.0628281  56.4374685  27.1410322 110.8586693  56.7877913
  27.4463391 109.6327686  55.9541655   9.4745868 111.7915630  47.3004150
  10.1840270 112.1508503  47.8331804   9.3775934 110.8900642  47.6072073
   4.3829632 109.3311977  45.2941418   3.9140990 109.5335102  46.1037493
   4.9017370 110.1155186  45.1154137  47.1739054  17.9813576  44.4152308
  46.6232252  18.6992061  44.1026926  48.0433941  18.3702505  44.5099974
  15.2140284  91.8409348  56.3554382  14.4068861  91.8517685  56.8698645
  15.4154253  90.9116650  56.2453413  87.8987789  12.1698475  77.2593927
  88.8116741  12.1193886  76.9760084  87.4401760  11.5401304  76.7031765
  19.0973604   5.9717053  52.4728012  18.4363210   5.2939481  52.6138830
  18.6180878   6.7956400  52.5603294  41.5791273   2.9985166  20.2185607
  40.9120703   3.6793402  20.1305294  42.1634483   3.1379217  19.4733310
  66.1070013  21.8057251  69.6095085  65.7227373  22.5223160  69.1044664
  65.8481741  21.0142827  69.1374254  17.0180893 107.7016926  35.3032255
  17.7032578 108.1265545  35.8192372  17.4932635 107.1450615  34.6862912
  60.3562164 102.7774143  38.5888124  61.2922716 102.9774857  38.5868812
  59.9534273 103.5115528  38.1250858  59.4636154  13.4153843  70.4554176
  60.0730848  12.9043794  70.9880066  60.0251913  13.9773226  69.9214792
  47.3268795  10.7082009  35.3140020  47.3204279   9.8835963  35.8000231
  46.4480495  10.7727945  34.9402213  61.3733530   2.9487601  15.0246513
  60.9879875   3.7349194  15.4115367  62.0840025   2.7121776  15.6206679
  25.3446269  22.4805999  17.7535582  26.0917068  21.9280148  17.9832470
  24.5936584  22.0499825  18.1620252   5.8166480 109.7964096  51.9568443
   5.2962250 109.3481255  52.6235056   5.6267440 109.3233967  51.1466408
  40.4043150   5.7779253  45.6709528  40.7494545   6.4832842  46.2182903
  40.1785421   6.2047154  44.8444510  74.7908878   8.2292032  62.0666790
  75.2979803   8.8276976  62.6152182  73.9233398   8.2108712  62.4707270
  25.2799249 100.4076099  69.5763588  26.1298966 100.0131798  69.3808985
  24.6504736  99.8713398  69.0942383  83.7341881  20.7294559  49.5022058
  83.9574242  20.0642848  50.1533175  84.4672012  21.3445258  49.5271349
  20.7147384  86.5581799  37.1265292  21.4430404  87.1593571  36.9703293
  19.9471331  87.0186520  36.7874336   6.7569101  23.0058599  54.3648958
   6.9726604  22.0753932  54.4274759   6.7141098  23.3034468  55.2736568
  33.1361842  17.0406163  43.8093662  34.0644312  17.0874834  43.5804701
  32.8502870  16.1896002  43.4773064  44.4588089   2.5280744  43.5873413
  43.7196827   2.9924214  43.9801693  44.9687338   3.2125428  43.1540871
  64.2365503  13.1409705  53.3137751  64.8670435  13.4360528  53.9707661
  63.8184309  13.9447725  53.0050468 116.2503147 107.6133156  35.3135490
 116.0199738 107.8684139  36.2069130 115.6457996 106.9012451  35.1043797
  22.1426964 111.2854767  24.6733403  23.0720925 111.3655663  24.8879194
  21.9467354 112.0698643  24.1609263  31.5829182  15.3377497  37.2631335
  31.8847203  15.7561970  36.4568758  31.4719844  16.0603619  37.8809977
  62.0829391  34.9992371  52.4579000  61.8207741  35.4676986  53.2503891
  62.6067591  34.2641306  52.7764320  54.4917297  31.4628720  34.1680455
  53.6575031  31.6734982  33.7486005  54.2661190  30.8202910  34.8406672
  39.0609980  11.2204158  52.4030924  39.5545411  10.4038799  52.3261929
  38.1481361  10.9612393  52.2776175  37.8919697  21.5859222  13.5174251
  37.2085571  22.2448897  13.6396670  37.5818944  20.8252740  14.0088522
  46.3478851   3.7444040  55.5006218  45.4503536   3.9734608  55.2593708
  46.8380451   3.8002038  54.6803427  66.9374704   5.2060860  61.6402388
  66.2126541   4.8002645  61.1646509  66.5684128   6.0151845  61.9943428
  74.3032455  37.2333741  36.4230013  73.3963728  36.9320798  36.3679218
  74.3377733  37.9959440  35.8454823  62.7616405  30.5341983  29.4133496
  63.5981083  30.3933167  28.9698267  62.1077681  30.4709983  28.7171555
  56.4842463  28.7848926  34.2439198  55.8702946  28.6341834  33.5251856
  57.2479677  29.1837001  33.8268900  80.4711819  46.7775440  61.8666172
  80.8622742  46.3778114  62.6434660  81.2103748  46.9303751  61.2780046
  54.4168806  30.8782077  53.0034161  54.7229052  30.8512783  52.0968533
  53.5630178  30.4461884  52.9809046  57.4264383  47.3153782  33.1369138
  57.2659731  47.1248055  34.0611243  57.8393316  46.5215826  32.7968597
  55.9431791  27.5272679  51.7971849  55.4758549  26.9164252  52.3670244
  56.6046858  27.9247475  52.3634434  76.2839270  41.6422701  76.1350250
  75.7155800  42.3396826  76.4618731  76.7627621  41.3417578  76.9074535
  61.7964077   2.8548023  61.1022854  61.7623854   2.3602027  60.2834797
  61.0465860   3.4479144  61.0551643  73.1831074  13.7497890  47.9298162
  72.4351311  13.6399651  48.5169315  73.0792809  13.0570483  47.2774649
  95.7386208  56.6313457  41.5761137  96.0785389  55.7429695  41.6832399
  95.6430435  56.7387247  40.6297684  67.7363586  16.1944306  35.1092172
  68.6841202  16.3255978  35.0813818  67.6290226  15.2658892  35.3154230
  86.8269634  30.2936125  42.4043417  86.6068172  29.4764447  42.8515625
  86.7975521  30.0726342  41.4734602  71.0986948  48.3724213  38.1432366
  70.8792162  48.1397533  37.2410583  72.0526028  48.3037567  38.1830025
  57.4593306  30.8675694  48.9682341  56.6766548  30.7268405  49.5010042
  57.2084808  30.5748749  48.0920839  67.2999811  34.1085219  47.5221872
  67.7199745  34.3963361  48.3327436  66.4917946  34.6193981  47.4767017
  79.8663187  12.7806330  75.8714581  79.0091324  13.0786598  75.5670929
  79.8301029  12.8788769  76.8229103  95.2514648  45.2743912  52.4616575
  95.9912586  45.3455591  53.0648756  95.6516266  45.2628756  51.5921926
  61.9162130  28.5551500  50.8043528  62.4448395  28.2854557  51.5553856
  62.4170732  29.2642546  50.4011917  29.2203832 109.4218159  58.3193302
  29.7030997 110.2478218  58.2887983  28.7267375 109.4630241  59.1383791
  60.4240036  21.2533498  24.6019411  60.2877522  22.1743941  24.8240829
  60.1620626  21.1871624  23.6836600  28.5832906  24.1638517  33.3153534
  29.0061855  23.3294153  33.1125998  27.6461768  23.9782357  33.2554126
  53.2487059  16.5362883  70.5843973  53.4230900  15.6293952  70.8361244
  53.5809517  17.0561171  71.3162565  80.7876682   3.9666837  46.8627739
  80.9201813   4.3117863  47.7457094  79.8681784   4.1495982  46.6696215
  61.5482998  23.0618429  22.7687001  61.9669151  23.7615871  23.2700467
  60.6383514  23.3443356  22.6769233  83.2805443  32.0086837  73.3593655
  82.8523636  31.8805647  72.5129175  82.8732586  32.7977204  73.7168169
  63.3668709  33.6437011  58.0394745  64.1967392  33.3785510  57.6429367
  63.4665298  34.5823097  58.1985855  48.4421444  34.1012502  32.4498940
  47.6897287  33.6908650  32.8761339  48.6404085  33.5276175  31.7097139
  58.2110405   7.9373848  44.0320873  57.7611113   7.5599813  44.7879744
  58.3017635   7.2081679  43.4187031  82.8062057  47.1943808  60.3917551
  83.2246113  47.9878092  60.7258797  83.4077454  46.8705511  59.7212982
  11.0591936 104.6611595  70.5213976  11.3614821 104.8794365  71.4029932
  11.7993319 104.8770523  69.9541044  72.6288223  39.8078108  38.5480142
  73.4540129  40.2375746  38.3230734  72.2570372  39.5471644  37.7053571
  79.9898481  26.1322045  50.3363466  79.4034052  25.5094790  50.7659149
  80.7915020  25.6344891  50.1755476  68.7141418  28.1978750  36.9318914
  69.0366697  28.6088204  37.7339697  68.2033014  27.4476266  37.2358656
  55.4489899  35.6592727  44.4925499  54.5991278  36.0980606  44.5304108
  55.9985685  36.1483955  45.1048851  46.7738390  21.6194630  46.2555742
  46.4635706  22.4779868  46.5435028  46.8946171  21.7129827  45.3106403
  76.9021654  17.7351642  28.9140296  76.8931580  18.4153390  28.2405949
  77.6404476  17.9660749  29.4778132  57.7183437  33.9270687  47.0503044
  58.6076689  33.9334154  46.6963387  57.8376770  33.9770389  47.9987192
  44.6978426  26.4157891  46.5232134  44.3762875  26.6237950  45.6459665
  44.3453312  27.1111107  47.0786381  84.6775341  40.1248884  76.4340448
  84.9431992  40.1684523  77.3526096  84.6812057  39.1901922  76.2277317
  67.3707151  10.5582845  45.6023169  67.2793055  11.2415266  44.9381971
  66.9377136   9.7943968  45.2212429  70.2783585  35.7919836  27.9357338
  69.6240473  36.4879394  27.9969907  71.1133146  36.2340093  28.0896664
  63.5233593  17.4743187  62.0572233  63.8074255  17.3375523  62.9610109
  63.8367844  16.7011023  61.5880394  70.6774950  16.7069519  49.8066664
  71.1848211  16.2277782  49.1514969  71.3349533  17.0704889  50.3998137
  63.2495499  41.0452080  68.4868717  62.4154949  41.1975336  68.0425930
  63.0043411  40.6929874  69.3424654  52.6972151  36.3852859  45.3832865
  51.8857479  36.8449712  45.1677847  52.4169445  35.4991460  45.6122684
  56.2588072  15.4189193  37.5389194  55.8169222  16.2278163  37.7970982
  57.1888399  15.6002724  37.6745152  72.8863001  34.0058374  73.0354929
  73.2769060  33.1515884  73.2196474  71.9457674  33.8341451  72.9890585
  60.9678221  28.1104684  47.6714134  60.7655430  28.2150030  48.6011362
  61.0117912  29.0050745  47.3338032  66.9640923   0.7165806  33.3249831
  66.1646223   1.1577146  33.0378008  66.6560030  -0.0792865  33.7584662
  81.0369873  23.3093739  56.1783266  81.6013336  23.5612750  56.9092751
  81.1144733  24.0322733  55.5557156  57.2254133   1.9365354  44.1903830
  56.6872072   2.6542455  44.5242310  56.6378975   1.1809126  44.1809464
  68.8799191   1.8692005  67.0755005  68.7046337   2.7425513  67.4258757
  68.0825996   1.6377918  66.5990973  29.4679427 112.2888851  45.7518625
  28.8987422 111.5958881  46.0865259  29.1239023 112.4810314  44.8795366
  86.8626595  43.2506323  20.3171062  86.4378357  43.9929056  19.8872375
  86.4181328  42.4812412  19.9612093  62.8928471   3.3484197  37.7030730
  63.1552362   2.6562101  37.0962548  62.4111080   3.9726961  37.1604490
  66.4913082  31.5797901  36.0851407  66.2933636  32.2655034  35.4472947
  66.7162704  32.0546317  36.8852329  66.0108709   1.2534739  63.3139753
  66.5103340   1.4048457  64.1163826  65.1031351   1.1765521  63.6077976
  84.9550629   9.0929580  36.3485432  84.2959023   9.0781999  37.0424604
  85.5726814   8.4027451  36.5901661  75.3715944  21.3163161  35.1161027
  75.0044060  22.0457172  34.6167231  75.4741812  20.6139708  34.4739056
  63.6136389  19.6312296  49.1517591  64.4638920  19.5574629  49.5851755
  63.6790085  20.4315615  48.6307716  23.9463830 105.7693386  61.5347672
  23.4270620 106.5696239  61.6127586  24.4212651 105.8714104  60.7099628
  81.6288471  40.7766342  44.7240448  82.5802422  40.6805658  44.7671127
  81.2891960  39.9937606  45.1576090  63.4583521  23.9209223  33.6499166
  64.4096899  23.9258981  33.5442662  63.1384611  23.3979368  32.9148054
  70.3572845  36.6734958  39.6826100  70.8961725  36.5886950  40.4691458
  69.5735455  36.1578131  39.8725033  70.6911087  15.3690577  62.9363060
  70.5698013  14.4955933  62.5640488  71.0926771  15.8763921  62.2309065
  51.5137625  30.0520253  50.9223604  50.6765604  30.2167368  51.3561726
  51.5736866  30.7320118  50.2513504  81.9675636  39.4076800  39.0417337
  82.7964973  39.5175648  39.5075846  82.1942520  38.8919282  38.2678843
  57.1457243  25.1563716  54.9186516  56.8183613  26.0028911  54.6145630
  58.0967617  25.2224469  54.8326778  44.0865231  12.3258913  56.2374878
  43.8848925  11.8844223  57.0625210  44.9571991  12.0059896  56.0012150
  75.5734491   3.0770642  67.2184849  74.6458483   2.9890859  67.4376869
  76.0321188   2.6508090  67.9424763  90.5043793  42.2851706  39.0089917
  90.3631878  41.3831425  39.2964792  91.3354301  42.5374985  39.4113827
  73.4280157   6.0774291  37.9661274  73.6000061   5.5316925  38.7334752
  74.2554522   6.5305847  37.8041792  53.0537987  30.0488234  40.5944061
  53.5872459  29.2597294  40.6892252  53.6788321  30.7703567  40.6647778
  78.9190769   4.8298219  38.4673643  78.1351376   4.2836893  38.5257149
  79.3570375   4.7109902  39.3101573  52.0176458  33.4768271  46.5115261
  52.8435707  33.7393951  46.9179010  52.2771454  33.0557609  45.6920195
  95.1035404  27.9701042  57.5788546  95.5793476  27.3940039  58.1771469
  94.3393135  27.4594164  57.3116922  39.2572856  17.7641320  34.4459343
  39.3881679  16.9774020  34.9752331  38.7559628  17.4624622  33.6883688
  69.0203238   2.8779691  54.8922253  68.7659645   1.9555873  54.9195004
  68.7142658   3.2355684  55.7257032  78.0713558  41.9489861  47.5307369
  77.8444624  41.2197590  46.9536877  78.5694408  42.5482750  46.9748640
  75.7466459  18.4251559  18.4047878  75.8093739  18.8877785  17.5691581
  76.3125420  17.6605284  18.2983112  50.4610872  30.2634645  40.6653643
  51.3833904  30.0602126  40.8211660  50.4714489  31.1347818  40.2692175
  38.6294103  22.4123025  38.8630748  38.8881993  23.1723332  38.3419085
  39.4302750  22.1487188  39.3162560  44.5631266  11.7137146  40.1886415
  44.9455833  10.8369815  40.2246284  45.3016233  12.3035800  40.3400135
  72.2814274  39.0992022  56.4457607  72.1834517  38.1631517  56.6202307
  71.3840818  39.4255376  56.3786268  74.3533134  10.8706653  35.9560943
  73.5661793  10.6757557  36.4646840  74.5729256  10.0431395  35.5280709
  69.8146820  24.1587782  59.9206924  69.2626047  23.4902811  60.3263426
  70.3184795  23.6843657  59.2593622  72.2993851  24.2265034  56.1946535
  71.9731522  24.4759035  55.3300142  72.7290106  25.0153971  56.5252590
  52.9465199  32.4298787  44.1886950  52.7714539  31.5468884  43.8632536
  53.9008570  32.4803734  44.2427778  63.0405045  30.4209852  49.2941093
  63.3422184  31.2847948  49.5752287  63.4922647  30.2678657  48.4642315
  83.0245113  33.5786557  19.6045578  82.4801445  32.8516245  19.9067497
  82.5541973  33.9323521  18.8496161  55.1543379  30.6319118  43.4822559
  55.1382208  31.2042284  42.7151680  55.8560324  30.9845853  44.0295076
  44.4943428  30.7242274  47.2938347  45.0423431  30.2897978  46.6402292
  43.9354515  30.0279140  47.6388264  78.4213781  37.5875378  75.7009888
  79.1879225  38.1352425  75.8702850  77.7855778  37.8534651  76.3652706
   2.1709402 104.5413971  52.4566793   1.2668175 104.5864773  52.1456146
   2.1998425 105.1469231  53.1974506  83.2297325  26.9394994  28.4399056
  83.8313198  26.8730092  27.6983547  82.5651646  27.5661540  28.1537461
  56.8884182  45.7559299  37.6230145  56.5852070  45.2103806  38.3487368
  56.1815739  45.7123661  36.9790363  69.2044306  36.0801816  61.7943192
  69.3809414  36.1478066  60.8559704  70.0655651  36.1529970  62.2058773
  68.5598326  33.2164001  60.2241039  68.8597298  33.5803676  59.3911409
  67.8555298  32.6147437  59.9828672  60.8618355  31.7756486  34.7716784
  59.9605274  31.8426323  35.0869393  60.8460045  32.1932149  33.9105034
  64.4412899  57.8810501  26.7103910  64.4832325  58.1932878  25.8065224
  64.1672373  56.9669771  26.6355538  60.4001045  34.8317194  46.7834520
  59.7648382  35.3200173  47.3071241  61.1336899  34.6780801  47.3788309
  70.7808542  18.4795725  62.5638294  70.2230740  18.3808970  61.7922211
  70.9355640  19.4219637  62.6285982  76.6496849  35.9980416  36.8117785
  75.9253120  36.6051984  36.6605306  76.2382364  35.1339602  36.8294144
  83.2066441  26.8236971  57.8534365  83.2747555  27.7784657  57.8502989
  83.8231087  26.5373850  57.1794748  94.8595142  46.4754725  30.4056787
  95.6225395  47.0291042  30.2398181  94.2035484  47.0729923  30.7647276
  64.2266560   0.9083727  29.5988679  63.9169645   0.1218987  30.0480723
  63.7162018   0.9387121  28.7897038  27.4651861  97.8135586  42.7634907
  26.6626430  97.5446892  43.2105541  27.9428911  96.9970894  42.6171875
  60.3321314  46.5059948  35.1891613  59.4996548  46.9259405  34.9726963
  60.1893568  46.1232328  36.0548043  81.5273476  51.2134552  25.1852107
  81.4045334  51.7784643  25.9480405  82.2038651  50.5919027  25.4539633
  78.4663296  35.6700015  63.3643150  78.1372643  34.7994709  63.5881948
  77.7200603  36.2521744  63.5071039  54.8446941  30.7809782  50.2319908
  54.2467880  30.5758977  49.5131826  54.7879553  31.7317724  50.3268623
  56.2942743  17.5435519  47.1682549  55.7047415  17.8472877  46.4780188
  55.7464457  17.5072825  47.9523468  63.2900333  26.0990620  64.2004251
  63.3130598  27.0543313  64.2566872  62.3791504  25.8701468  64.3851519
  35.0088072  25.6070709  21.9132853  34.5230818  24.8608804  21.5618539
  35.7352352  25.7293153  21.3020658  71.5795088  27.1905708  43.8014269
  70.9510803  27.8562617  44.0810108  71.0924911  26.6462660  43.1827354
  64.9981689  28.2305551  49.9819374  64.8409128  28.7429857  49.1888905
  65.1464415  28.8850284  50.6645155  67.2003460  41.1581612  53.6899567
  66.3148069  41.4960623  53.5562420  67.6499748  41.3306761  52.8627300
  63.1541061   4.5435837  32.2308040  62.5367737   5.2283454  31.9734383
  62.6404047   3.7362906  32.2058558  66.1225748  17.1930254  38.7822938
  66.5889263  17.6467931  38.0802679  66.0093737  16.3001156  38.4565163
  81.8538284  10.2242231  32.8834152  81.9124889  11.0719681  32.4428272
  82.6432896  10.1795077  33.4228444  80.3602505  16.8789399  44.1879749
  79.5015955  16.7461789  44.5896292  80.9837627  16.7103720  44.8944044
  55.0051212   9.5880181  44.9065495  55.6392717   9.7850108  45.5959511
  54.5960236  10.4306662  44.7095251  34.3316698 109.6497917  30.4249740
  33.6788702 109.0082932  30.1446724  35.1582360 109.3201160  30.0723624
  58.0827284   5.7768875  37.9073882  58.0045128   5.5741876  36.9751716
  57.4667215   6.4957786  38.0486894  65.9765244   8.5476422  25.5264473
  65.7310152   8.7173283  26.4359307  65.3943110   7.8402686  25.2491784
  58.9864063  24.6196127  40.9838057  59.0126848  25.4439259  40.4979610
  58.1015444  24.2844462  40.8391666  54.6253061   9.2389083  50.1771688
  53.6767101   9.1118729  50.1932240  54.8949766   8.9210606  49.3154955
  58.0880117  12.2690558  64.6488953  58.3995771  12.0662200  65.5309486
  57.2421455  12.6956463  64.7858572  64.5673466  33.7999988  38.1108189
  64.1052198  33.3779240  37.3865771  65.3015566  33.2155561  38.2994843
  75.8979750  18.0423713  38.2770658  76.5756893  17.7440190  37.6704979
  76.2284708  18.8747823  38.6148500  59.3025684   1.8683062  68.7064314
  59.2996788   2.7747321  69.0140247  59.1198730   1.3490528  69.4895172
  78.3981180  25.7185197  17.2315848  78.4096003  25.9993076  16.3165665
  79.1404676  25.1190281  17.3074889  62.1121264  42.5762510  38.4657764
  61.7973471  43.2341909  37.8458905  61.7638588  41.7486525  38.1340718
  67.2389650  51.4238214  36.3926387  67.3163223  51.1188745  37.2966576
  66.3018513  51.3767385  36.2033415  49.6761847  31.5207386  43.7480021
  50.5165482  31.1051321  43.5548878  49.0240240  30.9252071  43.3788633
  70.1117754  16.8703008  45.3453350  69.4756413  16.1553681  45.3661633
  70.9623957  16.4359558  45.4087925  45.5445290  40.3560495  29.1789174
  44.8273516  39.7291136  29.0848565  45.1587868  41.0916090  29.6547151
  56.8986893  29.1520882  57.2992468  56.5614319  29.2166328  56.4057541
  56.1638737  29.4173050  57.8523588  71.3283014   9.9185616  70.4056931
  71.3932228   9.1182601  70.9267807  70.6269121   9.7402191  69.7792101
  58.6634779  15.0965786  40.5644655  57.7347946  14.9117720  40.4243851
  59.1195869  14.4757044  39.9963856  49.9735117  12.4640989  21.1799049
  49.4926405  12.1828389  20.4015160  49.3487310  12.3609042  21.8977022
  80.9506321  31.5618563  45.5313969  81.7540836  31.6653037  45.0214958
  80.9346485  30.6344104  45.7676601  53.0991650  28.0569601  38.0472016
  53.3294106  27.1950078  37.7004242  52.4422026  27.8769016  38.7196708
  80.8729744  10.5766702  66.6328478  81.4894676   9.8543125  66.5129852
  80.3382397  10.3133965  67.3818302  54.2231512  19.2313111  46.4426947
  54.8228741  19.3555284  45.7070780  53.3708858  19.0801537  46.0340071
  60.9006453   6.1891770  31.1400580  60.3867292   6.2419558  30.3342414
  60.9245443   7.0880568  31.4681983  77.8870535  39.5040512  50.7527876
  77.8833246  38.5710263  50.5390596  78.6056709  39.8657131  50.2341127
  77.7599430  16.0297263  25.7388997  77.7041292  15.9883833  26.6935778
  78.4453392  15.4013920  25.5116153  63.3501101  37.1635723  30.5778503
  62.6423502  37.7841091  30.4039502  63.7405491  37.4689198  31.3967228
  95.4170990  19.3748987  55.3791904  95.6800747  19.6752393  56.2491751
  94.9989986  18.5279489  55.5344343  52.9432106   1.9040784  26.8179369
  53.4686804   2.5495473  27.2906733  52.8018618   1.2002488  27.4510837
  70.2617168  17.0728898  24.5470786  70.8978748  16.3595128  24.5983100
  69.6818876  16.9309366  25.2953315  74.6678686   9.5898616  43.8947010
  74.0853930   9.2900413  44.5925951  74.8385239   8.8063341  43.3720207
  92.2961807  22.0200467  38.0089664  93.0911160  21.4924002  37.9321718
  92.6133823  22.9165530  38.1180143  24.1823435 102.6478958  32.6353455
  25.0118589 102.4408245  33.0657601  23.6534071 103.0582523  33.3195043
  51.9488001  19.7944045  37.4720454  51.0950756  19.4982982  37.7878094
  51.7996597  20.6964397  37.1886349  99.4436836  21.3952565  60.3780222
  99.1335773  21.8951058  61.1331463 100.3789043  21.5928936  60.3276491
  77.3915815  17.7446115  41.6351700  78.0449533  18.1444359  42.2091722
  77.1366692  18.4468651  41.0367584  86.8528366  29.7853661  51.5050459
  87.3718929  30.2825046  52.1372366  86.8399143  28.8940883  51.8538809
  57.2246552 107.6233959  36.3058591  57.8301811 107.0307350  35.8605170
  56.5148497 107.7570152  35.6777215  75.5424690  21.3354373  53.4020233
  75.8291912  20.9776497  54.2422676  75.2106285  20.5780292  52.9198933
  91.9363213  12.0266283  41.7618036  91.0398865  11.9254017  41.4418125
  91.8806553  11.8289900  42.6967192  64.5026016  21.2920427  39.4192076
  65.4036140  21.5219378  39.1921353  63.9666557  21.9302464  38.9483714
  44.4276571 100.4135990  60.9935665  43.5307169 100.1736259  60.7609034
  44.4063139 100.5275059  61.9437265  71.7823362  35.7812738  62.6387501
  72.5797510  35.8730483  63.1602287  72.0152998  35.1553655  61.9530344
  82.7504253  12.9130411  34.8345518  82.6508236  11.9666767  34.9380279
  82.7293015  13.0540264  33.8880277  22.7367997 105.0710678  38.6992717
  22.9678392 105.0557995  39.6280432  23.1995225 104.3213749  38.3249974
  52.7131224  17.5163698  36.3316512  53.3515167  17.1223140  36.9261289
  52.5947332  18.4064913  36.6631627  57.1391582  27.1817970  62.6425457
  58.0096388  27.2581601  63.0332756  57.2503519  26.5508246  61.9313908
  69.1928911  28.4206605  51.0371017  69.3098736  27.7054167  51.6623831
  69.0077877  27.9840374  50.2056408  78.4567547  20.1891732  43.3283949
  77.9926777  20.7767558  43.9247274  78.8014507  20.7644200  42.6453876
  13.2503521 111.0509968  49.8784781  13.1033039 111.4081860  49.0026760
  13.3884299 111.8204212  50.4308748   3.1835550 109.7085285  38.5273242
   2.7471855 110.5506325  38.3981919   2.8218836 109.1440868  37.8440666
  53.3664179  35.1826859  41.0594749  52.4924040  34.8280573  41.2224770
  53.2146072  35.9492135  40.5066442  75.3720760  25.5519009  55.9499645
  76.0997438  25.0129652  55.6396627  75.3857040  26.3225150  55.3823376
   5.9017634  31.5863657  91.0849476   5.7133019  32.5221515  91.0140991
   6.6050017  31.5319967  91.7320442  71.7088842  15.0961006  42.5963068
  72.4737644  15.5658042  42.2637939  70.9607887  15.5602717  42.2206259
  62.7433538  17.3348105  55.8077383  63.3424759  16.9507325  55.1676035
  62.0656443  16.6700661  55.9304333  51.4445066  32.2942233  49.3839788
  52.2512960  32.7716160  49.5774126  51.2453794  32.5188017  48.4750557
  71.2726736  23.1332922  23.8323689  71.9186449  22.4630618  24.0553999
  70.4271698  22.7049279  23.9660072  97.4409103  37.8406262  20.6115389
  97.6125431  36.9574809  20.9383869  97.0236206  37.7043223  19.7609365
  90.2372551  47.5850058  56.0459614  89.7266960  48.2923746  55.6520224
  89.6784019  46.8121672  55.9644985  25.6897402  29.9715447  35.9451056
  24.8138666  29.6062446  36.0701418  26.1198044  29.8581028  36.7926955
  77.9633665  23.6157846  27.0480537  77.1051931  23.2021403  27.1411490
  77.7989388  24.3900156  26.5097547  53.6891699  15.4023397  34.9895310
  53.2233381  16.0458314  35.5235267  53.1985140  15.3724587  34.1681910
  61.8292093  31.2161088  43.8069296  61.8537807  30.3532791  43.3932209
  62.4712658  31.7332888  43.3205986  60.0761414  32.1120763  54.5422506
  59.1265202  32.2069120  54.6161270  60.2559423  31.2337685  54.8776340
  71.1168623  35.1855230  52.3001480  71.5418911  35.8239174  51.7274046
  71.6346788  34.3873644  52.1950483  98.8234806  30.1581979  63.7562513
  98.6058140  30.7670450  63.0504465  98.0022621  29.7025776  63.9413023
  83.9229488  39.7410059  33.4765029  84.7204208  40.2585411  33.5879827
  83.8674545  39.5866561  32.5334620  80.8396816  41.2233877  31.9533849
  81.7253304  41.5028191  31.7214680  80.5341434  40.7362318  31.1881685
  76.7334318  39.8607635  21.2320113  76.9313622  40.3800726  20.4526687
  75.8175564  40.0599098  21.4262795  66.4964962  54.4405651  40.8132792
  66.0521603  55.2791071  40.9383583  66.2523651  54.1698122  39.9282217
  74.9362087  26.5119433  28.8605261  75.1272631  27.0892000  29.5997858
  75.2489567  25.6519008  29.1411471  88.8816166  48.8048792  58.3349419
  88.7715816  48.7626028  57.3850298  88.3802795  48.0603695  58.6675024
  55.4582548  49.1213560  39.0215564  55.3854847  48.8611889  38.1032705
  56.3867140  49.0139198  39.2280841  72.4226189  35.1676941  41.1834908
  72.0189905  35.2333403  42.0489407  73.1235266  35.8194637  41.1960411
  66.5985632   8.0948400  62.9908085  66.9556761   8.6472231  63.6862040
  67.0287085   8.4049296  62.1939087  92.5274467  44.6443319  37.0928216
  92.8941345  43.7934589  37.3332334  92.4902344  45.1304770  37.9165387
  72.8391027  63.9099455  53.8145924  72.7688217  63.7302303  52.8770447
  73.3464432  64.7200155  53.8658142  73.8818979  34.6440363  23.4742117
  73.6089659  33.8762259  22.9720092  74.7574234  34.4234896  23.7920880
  70.6577539  29.8554420  33.8751602  69.8229408  29.8114347  34.3413997
  70.5172014  30.5129194  33.1938362  67.6240969  30.5500770  63.1608391
  67.8805780  30.7538581  64.0602398  66.7623425  30.1418376  63.2441807
  81.4723587  43.3748436  53.3759260  81.7874908  42.5960398  53.8346100
  82.1236324  43.5298109  52.6917791  88.4741211  28.3513880  15.9798408
  88.5594082  28.3954692  15.0274682  88.4110451  29.2653441  16.2572193
  62.7576494  24.7532868  57.2781563  61.9589520  25.2313733  57.5011969
  63.4257507  25.4326129  57.1865892  68.8605928  33.7480807  53.2405376
  69.6912718  34.1236591  52.9487467  68.3232784  33.7112880  52.4492264
  84.0890026  15.4398727  80.2661037  83.7665176  15.1898992  81.1319828
  85.0239754  15.2362645  80.2907753  88.0289268  52.4575663  54.8916149
  87.0965576  52.6201200  55.0347996  88.4228134  52.5415707  55.7599640
  81.9737148  28.3897209  50.1847363  81.0982132  28.0031300  50.2013683
  81.9084167  29.1551995  50.7557106  72.0386076  36.7925477  54.2939663
  71.2313223  37.0853186  54.7168159  71.7462397  36.3688183  53.4869909
  76.4418554  29.2158747  57.4980927  76.0441542  28.7386632  56.7698526
  75.9590054  30.0415134  57.5355673  89.0295506  35.5219889  71.8842745
  89.3420124  34.6263576  71.7560482  89.8202705  36.0264754  72.0753050
  38.6102939 112.2191715  38.9091372  37.6897955 112.4110889  38.7300277
  38.6006522 111.7643642  39.7513318  30.3406143 102.1340752  38.0907559
  30.1867223 103.0782127  38.1249070  29.5507145 101.7771912  37.6846528
  82.3369884  41.3538885  41.4479733  81.6292953  40.7397985  41.6436815
  83.0159283  40.8152771  41.0415649  71.1035824  21.2091422  42.4212360
  70.8933640  20.4422140  42.9540253  71.1825848  21.9246840  43.0521011
  91.3890457  56.2940025  51.7920351  92.0517349  56.9127560  52.0989943
  91.3485050  55.6269312  52.4773121  68.9251041   6.0006386  40.3924274
  68.9220667   6.0901409  39.4394279  68.8216496   6.8950504  40.7173252
  81.4097595  40.7737684  69.3277597  81.9963932  40.8144426  68.5724878
  80.5306816  40.8007574  68.9499617  93.6538219  32.8049994  44.3979025
  93.3291435  32.9802561  43.5146666  93.1746674  32.0254683  44.6789312
  54.6269131  33.0773854  54.5787954  53.9154768  33.0012178  55.2146244
  54.5859766  32.2644901  54.0750456  56.0332489  37.1830130  51.6823101
  55.5906439  37.9261494  52.0922852  56.7406511  37.5773191  51.1720753
  73.2524204  42.8184605  58.4315014  72.4161816  42.8904629  57.9713392
  73.5884190  41.9569302  58.1843138  65.4575157   6.9327980  56.2930012
  65.1463413   7.4407554  57.0422554  66.1512566   6.3787490  56.6507483
  74.0922928  27.3105931  45.2842331  74.6257830  28.1001997  45.1940203
  73.3133793  27.4862003  44.7563219  79.2850256  38.0168724  53.9362812
  78.7311363  38.6621070  53.4968328  79.7406483  38.5149050  54.6149540
  74.0884447  12.4849343  31.9082332  74.5655394  11.7121339  31.6059256
  73.3893585  12.1341574  32.4600172  79.9475527  41.8366957  43.0681372
  79.8163319  41.1356878  42.4296999  80.6307220  41.5051413  43.6508703
  63.9305353  40.1542091  41.2575626  63.4298992  40.6367540  41.9153976
  63.3942795  40.2017069  40.4661036  67.4652624  31.7520809  68.9567375
  68.1274462  32.2476149  68.4748745  67.8081703  31.6986513  69.8488045
  66.1992931  26.8805599  41.6743231  65.9328365  27.6069736  41.1108017
  67.0717716  27.1246409  41.9832563  78.7180281  46.5877485  53.0691528
  79.4180346  45.9366131  53.1165838  78.2191372  46.3466501  52.2886372
  93.4183693  32.5650573  16.8445075  93.5339642  31.6148806  16.8504381
  93.1810284  32.7830935  17.7458179  83.0924511  34.6785593  14.3222547
  82.1472073  34.6025181  14.4525397  83.2933235  34.0339732  13.6437333
  95.8424664  45.0721407  56.7068815  94.9433231  44.8102951  56.9048834
  96.3832474  44.3844604  57.0953274  65.5253744  11.8287909  72.1804285
  66.3209724  12.1621525  71.7655563  65.7556629  10.9439242  72.4636459
  91.9864655  11.5804660  51.9955683  92.8342342  11.1511910  51.8804932
  91.8546486  11.6001105  52.9434443  91.8934250  41.7693424   6.2567896
  92.1791935  42.5626373   5.8037418  91.2682438  42.0796490   6.9118327
  88.7016201  48.0081272  33.0637264  88.6693478  48.9647675  33.0693936
  88.2350159  47.7574635  32.2664285  80.0001717  37.9175830  63.0220366
  80.2569771  38.0241179  62.1061039  80.1494884  36.9902396  63.2063437
  78.5424852  45.7478380  44.5215225  79.0127039  45.2953196  43.8212729
  78.1332016  46.4975929  44.0895700  55.8016157  12.6527488  40.7367992
  55.2437830  13.3801937  41.0122538  55.7025433  11.9993949  41.4292908
  72.1702194  27.0287728  47.6921415  72.6872873  26.9357467  46.8920040
  72.2204447  27.9611683  47.9027224  72.8970575  40.4266787  50.1825285
  73.3758116  41.1565542  49.7897053  73.4130716  39.6526837  49.9569368
  89.2288589  23.6817408  61.0726595  89.5840740  24.5547938  61.2394762
  89.7821808  23.3269668  60.3768158  48.2517815   7.1628463  90.3867722
  47.5422096   7.7603656  90.1507473  48.5884428   7.5059360  91.2145329
 108.8169479  32.7644014  54.2754507 109.2406082  32.5629830  55.1098204
 108.5355568  31.9139051  53.9382458  75.1689959  44.3922377  66.0242271
  75.8347464  44.9053621  65.5662775  74.4405890  44.3383646  65.4055595
  70.5619764  31.3948989  21.2095118  69.6104097  31.4354730  21.1140990
  70.7836962  32.1672821  21.7296028  83.7350559  37.8404808  43.2170677
  83.8023281  37.0799470  42.6397467  82.7957249  38.0155659  43.2740641
  58.4116840  32.4696755  36.2583852  57.7899313  31.8022561  36.5485811
  58.5102892  33.0496335  37.0134735  90.1680756  25.1870441  54.3758869
  90.9129333  25.7409644  54.6095181  90.5614471  24.4185019  53.9625788
  82.1793270  39.4927764  24.8580074  82.2636700  38.5849166  24.5666146
  81.2637043  39.5746112  25.1248002  81.2062740  12.1063197  58.1165791
  81.5631580  11.3616765  58.6006927  80.7824898  11.7146015  57.3529053
  94.6189404  36.6293812  42.7987432  94.9906540  35.7853675  42.5424099
  93.8802719  36.7565060  42.2033930  69.0570879  48.5584879  40.0393915
  68.4302378  47.8562069  39.8659039  69.6615982  48.5285473  39.2978358
  55.8663702   7.8017616   9.0884197  55.3895235   8.0030292   9.8936170
  56.6798210   8.3010769   9.1606164  71.9593716  28.5619569  50.8134985
  71.0552073  28.6742759  51.1069250  72.2258520  29.4331503  50.5198288
  58.3221579  19.2321849  67.5497341  57.7624846  18.5755706  67.1351767
  58.2785988  19.0286040  68.4840202 105.4878902  27.9124904  57.9960680
 104.7166920  27.9867291  57.4339581 105.1361656  27.6827550  58.8561487
  83.8541126  25.7569170  31.1740255  84.7565174  25.4417610  31.2247968
  83.7099648  25.9214950  30.2421641 101.5926933  43.4410143  39.6254349
 100.6543255  43.6018229  39.5262504 101.9029427  43.2765245  38.7349749
  65.1333046  29.0346289  62.4549055  64.5379066  29.7814131  62.5185204
  64.9796581  28.6797261  61.5793085  88.0616474  30.8473158  66.5540361
  88.8470936  30.3121924  66.6678905  88.2640362  31.6682601  67.0027208
  88.4798336  40.5484915  26.6805220  87.6212502  40.7004213  27.0754647
  88.6250687  39.6073866  26.7777777  56.1556053  27.4326777  59.7683096
  56.7337418  28.0828714  60.1673508  56.4621353  26.5947628  60.1149654
  81.5079784  40.8503389  34.6347713  82.0683575  40.0745392  34.6534395
  81.4547348  41.0851002  33.7083340  52.6908493  24.6152496  45.3022146
  53.3662033  24.3632793  44.6724176  52.6303196  25.5670357  45.2205372
  75.3297663  44.7313881  62.1457624  75.1241112  44.6179056  61.2178278
  74.6452427  44.2440033  62.6041412  73.4144735  26.4902949  57.9108238
  73.1111431  25.9848905  58.6650038  74.2739677  26.1222005  57.7058506
  64.6340799  17.5918877  21.5186286  64.2380667  18.0804431  22.2402382
  63.8897324  17.2745955  21.0072517  83.5298634  38.2552314  85.4314613
  84.3408585  38.0070114  84.9877167  82.9446697  37.5100541  85.2954483
  53.8013458  35.0761986  52.4830866  53.3691072  35.5871964  53.1673956
  54.5181179  35.6353045  52.1832991  70.0826073  44.7887659  37.6453400
  69.9073124  44.4820309  38.5349560  69.2293882  45.0729752  37.3175049
  73.1812239  29.4200182  34.8970819  72.4456549  29.4887233  34.2884398
  73.1141758  30.2032709  35.4432058  81.8927002  34.9076605  64.1052914
  81.4048004  34.0918994  64.2180777  82.2539711  35.0924873  64.9722099
  66.0182571  14.7941113  37.4515200  66.7020988  14.3308783  36.9677734
  66.0912704  14.4623041  38.3463979  72.6329184  31.5345311  36.8228650
  71.7166996  31.6660380  37.0667553  72.9711199  30.9271741  37.4808693
  96.9950676  29.5634055  74.1245222  97.8184605  29.5700431  73.6364508
  96.3989639  30.0938296  73.5958099  86.8288994  37.9902339  46.6331863
  86.8291092  37.0558476  46.8409204  87.1110916  38.0325294  45.7195091
  96.7538071  44.2358017  30.1501679  96.1252308  44.2788935  30.8707714
  97.0308971  45.1426506  30.0194883  66.1452055  16.7916524  47.8605938
  65.3894567  16.4591861  48.3448887  66.8553543  16.8017495  48.5023308
  75.9043217  53.6663055  41.9246101  75.5895948  53.4016466  41.0602427
  76.6702127  53.1136417  42.0801926  67.7662516  31.2541556  54.6722841
  67.7728224  30.8441305  53.8073730  68.3019066  32.0406365  54.5685816
  69.6966743  33.0779982  34.9325967  68.9018154  32.6479936  34.6171093
  69.6931934  32.9244089  35.8773875  75.3409481  44.4464731  59.2701912
  76.1765480  44.0941811  58.9637613  74.6835566  43.8510513  58.9102745
  79.4211578  61.6875839  38.7697983  80.0108242  61.2167454  39.3587232
  79.7502089  62.5864506  38.7696838  58.0104971  29.0025401  53.2038116
  58.2804632  28.8027215  52.3074722  58.8320017  29.1209483  53.6806202
  84.7419643  46.1000443  50.0356913  83.9453793  45.6217766  49.8056030
  84.8268127  46.7662287  49.3536139  68.7649155  22.5276995  51.9670677
  68.1327152  22.1924663  51.3313150  68.9653921  23.4124804  51.6617727
  83.6740303  15.3226984  76.2366676  83.7429237  16.2748945  76.3060045
  84.3398094  14.9899328  76.8385220  70.6365204  26.6040015  33.5000634
  70.6408024  27.5326443  33.7320924  71.4032412  26.2424970  33.9446831
  71.5376854  43.0082512  35.4810834  72.3532677  42.6198149  35.1645756
  71.8150854  43.6413670  36.1432362 103.7055779  38.4146976  56.0492659
 102.8108788  38.1548572  56.2688780 104.0244770  37.7160621  55.4779100
  49.2200041  43.0903196  37.0992374  48.6408901  43.6400795  36.5713882
  48.6416245  42.6834154  37.7443218  68.5383940  53.0466175  49.6951199
  68.9704704  52.4995852  49.0391541  69.2495823  53.3523417  50.2581215
  87.2536945  13.4937382  45.6209660  87.8447533  13.2339072  46.3276291
  86.9910240  14.3866229  45.8445454  96.6218853   4.9746373  69.7983503
  97.4819851   5.3498912  69.9871588  96.6406631   4.7934723  68.8586378
 112.2967148  55.0949669  38.1993341 112.2386169  54.1681767  38.4315395
 111.5738392  55.5063534  38.6730886  82.6945686  32.9735827  41.6898441
  82.4921417  32.0872140  41.9891882  82.8413200  32.8808141  40.7485199
  73.8312054  36.3394737  56.4960575  74.4630718  37.0027328  56.2184477
  73.1168604  36.4092827  55.8627558  82.9006672  37.3884940  36.8585515
  83.5277939  38.1104851  36.8175316  82.4698544  37.3966002  36.0038233
  84.7739506  19.5956111  38.6017036  84.5071316  18.7341273  38.9224648
  84.3922329  20.2124810  39.2262006  89.7070312  45.9002781   7.6847821
  89.4711113  44.9960327   7.8919452  89.7894382  45.9138584   6.7312330
  98.0631351  20.1576495  24.3882227  97.1916866  20.5514741  24.3469071
  97.9462624  19.3730867  24.9239779  79.2820692   9.4453514  68.5681725
  78.3694839   9.1705006  68.4794283  79.7260237   8.6845064  68.9426708
 101.5168762  15.2800119  20.8303308 102.1339798  14.8024154  21.3846922
 101.8142033  15.1073182  19.9370182  71.2284613  73.7004280  27.8994584
  71.9555521  74.1509199  28.3291435  71.6457701  73.0124235  27.3810649
  58.7249947  37.2405076  21.9478893  58.6591291  36.6990590  22.7344823
  58.6149311  36.6247439  21.2233543  64.4542503  29.4900465  55.6039572
  65.2199793  29.7989297  56.0881948  63.7900925  30.1634264  55.7512093
  97.7133560  49.7128296  26.0017848  97.1979237  49.2745829  25.3246617
  98.3763409  49.0693903  26.2521386  87.3678970  30.2050447  63.6274147
  86.8752861  30.1658368  64.4471884  88.2746029  30.3469968  63.8993931
  75.2096558  41.5471792  52.9838324  74.3672705  41.1175585  53.1322956
  74.9942636  42.3256445  52.4701834  76.3673019  37.8134012  57.7678776
  76.3660479  37.6852870  56.8192911  76.8663883  37.0713115  58.1091261
  96.9470406  62.5930977  53.9126253  96.3528824  63.3326626  54.0400982
  97.6577473  62.9463148  53.3774996 103.2522869  62.9860258  55.9697962
 102.6931286  63.5325480  56.5219545 103.6218548  63.5927677  55.3282928
  85.1070213  31.9369102  51.4765310  84.8933697  32.1411419  50.5661106
  85.5889606  31.1111927  51.4300203  67.7253866  28.9243460  59.3395758
  67.8963995  28.0459642  59.6793222  68.5623074  29.2051530  58.9695120
   1.8892992 109.0541744  20.3901672   1.6907978 108.1220531  20.4794693
   2.7355641 109.0771198  19.9434662  32.5378156 105.4431534  47.0547295
  31.8662620 105.7297421  47.6736879  32.0608878 104.9239159  46.4072990
  74.7474623   4.6804842  39.8249006  75.2789068   5.4508883  40.0255871
  75.3318548   3.9388418  39.9820113  71.7933083  29.7672248  30.1516223
  72.0224953  30.0704026  29.2731094  72.6031923  29.8551321  30.6542063
  71.3196039  70.8360052  42.0201397  70.8953238  71.3355017  42.7177954
  71.9999218  70.3317022  42.4663258  86.2284851  54.7627640  19.9849498
  86.4753914  55.6711388  20.1585174  87.0498371  54.2751980  20.0474048
  78.3823729  56.9840193  38.5049319  79.0189505  56.5929842  39.1033411
  78.6088467  57.9138947  38.4885287  76.2577009  37.3901057  23.1224227
  76.2754869  38.1911993  22.5988126  75.7385921  37.6192975  23.8932872
  78.1036186  24.2268586  47.7330828  77.4332428  24.7549415  48.1666183
  78.2103348  23.4629011  48.2998371  74.0042543  31.5841126  46.6201973
  73.7440252  31.7265511  45.7101250  73.7248850  32.3779655  47.0762444
  72.5579023  22.5072765  53.0100107  71.9207287  21.8086147  53.1587076
  73.3924055  22.1350336  53.2950926  88.1621647  50.6590128  47.0821857
  88.1728554  51.4897251  47.5576210  88.9988804  50.6380701  46.6177559
  71.2971401  35.9860706  37.0883608  70.8758688  36.3897705  37.8471661
  71.8815136  35.3262496  37.4616957  65.7759666  27.9819894  39.1118670
  65.4154539  28.1038666  38.2335687  66.3483191  27.2189212  39.0320778
  79.5708704  21.3024783  55.9991693  80.1450443  22.0589328  56.1188793
  79.2187023  21.1285734  56.8720770  95.2502632  17.2418773  35.7868624
  94.5594311  17.8897190  35.6480098  95.7634354  17.2620833  34.9790978
  83.7921906  12.4831545  50.6209421  83.9798927  11.8927836  49.8912382
  82.8623867  12.3490083  50.8044910  43.7484217  41.5428352  16.6937542
  44.0647030  41.9343901  17.5079286  43.4123278  40.6855106  16.9550347
  75.5042934  24.6513224  31.9003606  75.4527521  25.5909467  32.0755148
  74.7546864  24.2795563  32.3652387  56.2917376  34.9191236  50.2851629
  56.4367485  35.7434034  50.7496738  57.0917320  34.4155097  50.4355383
  78.1328917  34.7843671  54.4428253  78.8735199  35.3906488  54.4537163
  78.3217478  34.1628885  55.1459074  74.4016695  12.7754939  62.9443598
  73.7536240  13.1700516  63.5279608  75.2445841  12.9802644  63.3490801
  60.0933027  50.8250856  43.8477516  60.4612350  51.7078066  43.8885212
  59.6529198  50.7100344  44.6898031  81.8426514  38.7190366  50.3361320
  81.2885952  39.3641400  49.8967123  81.2350750  38.2022810  50.8653212
  94.3917561  47.6081657  44.8129702  95.3398609  47.5473881  44.6961498
  94.2534828  47.4337912  45.7439423  87.4187565  57.2336054  20.1878953
  87.9347610  57.0335674  19.4068968  87.0839214  58.1170177  20.0339437
  86.8953228  47.3441458  21.2402654  87.6989460  46.9664526  20.8828259
  86.3303471  46.5899706  21.4083600  93.5253716  31.0900426  34.0230393
  93.4596062  30.4861116  33.2833290  93.7299347  31.9358277  33.6242485
  82.2046185  52.3417807  87.2722626  82.4962425  51.6248369  87.8354549
  82.1374226  53.0951023  87.8589630  81.6803551  47.2317553  40.6659794
  81.9227028  48.1325293  40.4512548  81.8413258  46.7417192  39.8596358
  46.6585779  26.8718719  14.6617544  45.7038403  26.9323659  14.6941388
  46.8953228  27.2675323  13.8229251  56.5486813  37.4858856  55.6613636
  55.8558989  36.8734622  55.9088039  56.1766481  38.3507872  55.8338881
  84.6489048  49.3716049  44.1822100  84.5655251  49.6787357  43.2794619
  84.1428471  48.5594845  44.2066097  77.3602200  39.4672632  39.7638750
  77.9804516  40.1943159  39.8181653  77.9104853  38.6892605  39.6735787
  81.8680668  51.7480803  38.0440688  81.1585331  52.2740984  37.6751447
  82.5312614  52.3880816  38.3025455  68.2402277  35.1316190  49.7459078
  67.7367210  34.7233653  50.4502106  68.2861805  36.0562396  49.9892044
  79.4550896  59.6474886  36.3939977  79.3294668  60.1568365  37.1946335
  79.1702557  60.2317047  35.6912923  85.3579617  46.6402245  43.3337116
  84.4555092  46.8977594  43.1453085  85.4522324  45.7804298  42.9237175
  75.0198650  47.3087645  49.4747591  75.1741457  48.2533884  49.4854784
  75.1561975  47.0541573  48.5621691  72.6840591  43.4046316  66.5360212
  71.8023777  43.0504799  66.4200687  72.8933382  43.2305193  67.4536896
  67.1336222  63.6452723  59.2416859  68.0476570  63.3722687  59.3206406
  67.0349121  64.3421745  59.8903942  71.1748743  55.4229879  49.6282673
  71.9340134  55.9649515  49.4132900  70.5286312  56.0408068  49.9701786
  86.4872551  35.7126451  32.9804254  87.4312592  35.6570911  32.8320837
  86.3997936  35.8263040  33.9268208  71.6036797  52.3117828  73.2389498
  70.9442139  52.3222923  72.5452471  72.2689247  52.9347897  72.9464674
  96.5139580  20.3389716  59.8090458  96.8240070  19.6163273  60.3548336
  97.1462822  21.0415411  59.9600077  61.1116648  68.9696741  54.3438816
  61.3765144  69.8638535  54.1281748  60.4164743  69.0758419  54.9932432
  84.1545773  52.4310064  52.5908422  84.3656445  51.8243170  51.8811846
  84.4672489  53.2807779  52.2804213  66.1963749  66.2461996   6.1133450
  67.1008396  66.4567518   5.8813107  65.8565044  67.0502090   6.5061474
  68.2423687  64.3538427  41.1374283  68.7462378  64.3200397  41.9505739
  68.8946629  64.5263004  40.4584551  93.6246109  43.2768726  56.4436340
  93.6140919  43.6104584  55.5465078  94.3913460  42.7048588  56.4774990
 109.9422455  44.5972204  62.1453762 110.1779175  44.7307396  61.2273026
 109.5190811  45.4154587  62.4054670  79.8481417  46.3668060  56.0821390
  79.3983841  45.7690573  55.4849434  80.5609798  45.8453369  56.4511395
  78.3688498  59.2934036  44.4042826  78.8735056  58.6203480  44.8609543
  77.9838085  59.8204041  45.1044559  65.1410913  56.2953949  48.0594444
  64.3575382  55.8317947  48.3549929  65.0491095  57.1764994  48.4219694
  78.9488316  38.9196992  58.1554461  79.1632748  39.2594957  59.0242243
  78.0366039  38.6386180  58.2266617  69.9157190  40.8154202  78.3756447
  70.4425764  40.0360012  78.5521603  69.8568392  41.2611389  79.2206907
 107.3947048  42.8248978  35.8023596 107.0516109  42.9301500  36.6897368
 106.6655159  42.4529696  35.3061843  87.4407864  62.5778008  42.5421619
  86.7521191  63.0837631  42.9734087  87.8309250  62.0572281  43.2443237
 111.8472672  48.7244797  55.1263142 111.0018635  49.1335344  55.3112602
 111.6242504  47.8843069  54.7255611  86.1857891  55.1448822  46.0851526
  86.4488220  56.0651445  46.0979462  85.2661228  55.1623011  45.8202982
 107.2022152  30.6391811  53.2276773 106.2921143  30.4157066  53.0327606
 107.6471615  30.5910063  52.3815489  98.0287838  29.7083235  38.5043454
  97.8598022  29.4542384  39.4116044  98.4571838  28.9446998  38.1175828
  92.1262264  66.3712978  41.4311028  91.2187195  66.6639328  41.5148592
  92.3486423  66.5396976  40.5154562  82.6293755  62.8785610  45.8626604
  83.0251694  62.3098040  45.2022839  82.9240227  63.7586498  45.6284428
  87.2873497  61.5031862  47.7799702  87.3511696  60.5482197  47.7939939
  86.9296360  61.7319536  48.6378384  85.3387356  39.8517776  48.5972166
  84.7487354  39.5027351  47.9291630  84.8211098  39.8426318  49.4023275
   4.7306308  31.3501120  44.2349339   5.4596639  31.3711905  43.6150169
   4.5108941  30.4219031  44.3147850  67.4712086  54.5614719  47.2974491
  67.8827333  53.9863586  47.9425240  66.8147755  55.0487947  47.7952909
  85.2476311  58.8204670  49.1199780  86.1852932  58.9815617  49.0147638
  84.8293400  59.4447947  48.5271263  77.8768349  17.8917062  53.6643791
  77.4683380  18.5380566  53.0885315  77.5991058  17.0466089  53.3109522
  81.5393162  49.9507093  32.6519251  82.4507141  49.6761799  32.7529526
  81.3639641  50.4879856  33.4244680 101.1832714  39.0291119  48.3269835
 100.8732700  39.4459677  49.1309500 100.5952168  39.3554544  47.6458645
  55.4813480  54.9562025  35.1464415  55.0215006  55.7957077  35.1442504
  56.2299442  55.0916481  34.5655084  82.7018642  62.4940729  28.2419467
  82.4512959  62.1345997  27.3909330  81.9318581  62.9835558  28.5313082
  76.9354582  30.5018783  19.5157063  76.9629765  29.6679831  19.0465665
  77.0394850  31.1644530  18.8327658  93.4080219  47.6571560  63.8077259
  94.2318439  47.5519800  63.3318233  93.3000755  46.8341827  64.2844772
  77.7284241  64.0877628  35.8599114  77.5431156  64.5430470  36.6812587
  76.9413948  64.2181683  35.3309369  91.0896873  53.6166859  56.1021757
  90.6096077  54.2034674  56.6865063  90.8776474  52.7382326  56.4177608
  80.7836342  57.4961042  50.3224230  80.0887489  57.9025221  50.8403063
  80.3607082  56.7495441  49.8981428 109.2440605  69.7450590  34.0066457
 108.8083363  69.7792482  34.8582339 109.4600296  70.6568909  33.8113236
  92.2792530  39.4076324  34.0858698  91.7475605  38.6957741  34.4419408
  93.1828117  39.1182733  34.2127419  89.4770813  49.5858192  83.8466454
  90.1516247  50.2571630  83.7441158  88.7205219  50.0576639  84.1948128
  96.2932491  42.4302149  61.7992258  95.7934952  42.9205418  61.1464977
  96.3665009  41.5491009  61.4324808  76.8498468  60.2974796  38.9511895
  77.7171421  60.7007933  38.9141273  76.3304186  60.7874441  38.3137250
  98.1515503  39.0145206  34.5141864  99.0974617  39.1427827  34.5851374
  97.8312302  39.8171139  34.1025209  90.5758095  53.5958242  69.9840117
  89.7738075  53.2555819  70.3805733  91.2445736  53.4799623  70.6589651
  97.1538734  14.5367825  60.2114487  97.4700069  14.9170184  59.3918657
  96.6183090  13.7917089  59.9389315 114.0158272  31.7176437  40.9102011
 114.7519207  32.3139381  41.0474348 114.0211582  31.5431952  39.9690461
  83.3287334  53.8813496  39.1886950  83.3067226  54.1879702  40.0951862
  83.0983734  54.6518469  38.6695671  93.8184547  42.5562716  63.9296770
  94.3812084  43.3299017  63.8974810  93.6021042  42.3792076  63.0142164
 112.6216507  46.7828798  45.8620548 111.8252945  47.3138809  45.8715534
 112.8315735  46.6494226  46.7863703  73.3758736  51.2705708  51.5525007
  72.7419662  50.6989145  51.1193705  72.8539324  51.7818928  52.1708536
  69.4090605  65.5725384  43.6510563  70.2052927  65.1227140  43.3683825
  69.6102715  66.5027285  43.5486412  82.8545856  50.6891584  21.5040827
  83.5414028  51.2430096  21.8752503  82.1828651  51.3047743  21.2107563
  87.1580505  45.0870037  49.5346165  86.3106537  45.5315685  49.5573378
  87.8010559  45.7947445  49.5778990  87.8614426  57.7732897  42.7422905
  87.4441624  58.4762144  42.2442865  88.7504768  58.0892229  42.9036617
  75.1873779  48.5780334  61.4555645  75.7670259  48.0484724  60.9080172
  75.4347801  48.3541298  62.3527241  95.1301098  53.7452650  43.4872961
  95.0120258  52.9209805  43.9593506  96.0728359  53.9076281  43.5209703
  77.0601273  56.4407158  44.5488167  77.3699999  55.7471561  45.1312113
  76.7779398  55.9811354  43.7580013  98.9965725  32.9281950  38.4078312
  98.9826107  33.8797188  38.5109711  98.4295177  32.7605224  37.6551223
  84.7762775  51.8221378   6.8566048  84.1653824  51.1827993   7.2230601
  84.9026775  52.4616814   7.5574905  85.4666138  44.3966818  32.8396106
  84.9551010  45.0433969  32.3534608  86.1273098  44.0958023  32.2157669
 111.4293957  47.4118137  35.3628254 110.5906773  47.5694609  35.7963228
 112.0720673  47.8561878  35.9157705 106.7663860  52.2856045  49.0319872
 106.5379620  53.1451797  48.6781836 106.9075298  52.4408054  49.9659157
 102.1721554  47.7411032  46.5650368 101.9160461  47.3648119  45.7229853
 101.8006706  47.1459818  47.2162342 103.5631084  80.4231930  37.8332520
 104.0889359  80.4793358  37.0353889 103.5418224  81.3191032  38.1696081
  98.7554550  51.8673134  62.9905224  98.1180859  52.5764465  62.9060459
  99.1356277  51.7815638  62.1162558  93.7564468  93.4498215  35.7822490
  94.3046093  93.0873394  35.0862837  93.2927418  92.6930046  36.1406136
  99.7974491  71.5097809  42.6014709 100.5869389  71.2482882  42.1275949
 100.1202583  72.0375967  43.3318329  70.9087038  13.2182932  49.7381783
  70.7829237  13.9664507  49.1545105  70.2126503  13.3031583  50.3897476
  84.4295502  53.3936787  57.4704933  84.7843838  53.0738974  56.6409969
  84.1380501  54.2849874  57.2785711  98.8454914  27.5870013  69.2590857
  99.5240402  27.8359675  69.8866367  98.2363129  27.0497775  69.7655678
  83.7337589  52.7892733  60.2757454  84.2472744  53.5923100  60.3632879
  83.9423752  52.4659252  59.3992996  75.1604033  59.5048094  48.2122993
  76.0067606  59.7762203  47.8569746  74.6897125  59.1441584  47.4608898
  78.6486864  52.2806120  49.4724417  79.5563889  51.9777584  49.4482374
  78.5106897  52.5514841  50.3800821 106.4204502  60.8050299  11.7710900
 106.8462181  59.9534750  11.8700731 105.6324673  60.7430267  12.3109710
  85.6437969  29.8864484  65.6653833  84.8831463  30.2226949  66.1392832
  86.3907146  30.1137805  66.2191677  80.5856514  68.1723309  42.4662447
  80.3310585  67.3920441  41.9737387  80.8938217  68.7863111  41.7996931
  96.3919163  37.5627708  28.2224894  95.5932522  37.5856590  28.7495971
  97.0963287  37.4457431  28.8599396  81.9899273  28.1539917  43.6366653
  82.4751759  27.9059076  44.4235706  82.4701881  27.7410650  42.9189825
  97.7647972  47.1003485  65.6589603  98.6866665  47.0408392  65.4082584
  97.7684784  47.6179647  66.4641237  90.9864998  47.1154213  68.4022760
  90.7967663  46.7152500  67.5536871  91.7892551  47.6160812  68.2568598
  82.4054241  56.1404657  38.1582046  81.4838028  56.1724663  38.4147644
  82.7663517  56.9751358  38.4570217  85.1124191  55.0286627  60.2999449
  85.8333206  55.4792452  59.8600435  85.3785324  54.9910116  61.2186384
 106.8350506  50.1136684  73.3829594 107.4345398  49.8170185  74.0676832
 106.1583519  49.4376087  73.3477020  88.0511570  44.0536833  47.1856165
  87.9019451  44.6975946  47.8779650  87.2552299  44.0840006  46.6547537
  86.5824127  47.1566010  46.0943937  87.3684311  47.6899672  46.2123966
  86.4783764  47.0900774  45.1451921  83.2618237  54.8681784  20.4132771
  84.2052460  54.7429514  20.5157542  82.9380798  54.0175009  20.1170087
  86.6796494  62.0311880  34.1904211  86.8766212  61.1801100  34.5816970
  86.6366959  61.8582535  33.2499528  66.1753702  23.0173564  59.7721100
  65.3212070  22.5854158  59.7799206  66.1336994  23.6170602  59.0272284
  76.8877459  62.0889950  46.5081692  77.2668982  61.2520027  46.7763329
  77.5446987  62.4748468  45.9287167  91.6381931  55.5574465  30.2970004
  91.2085438  56.3736010  30.5529881  92.3462772  55.4501104  30.9320784
   5.9899312  46.7307711  52.3942852   6.3591313  46.4593983  51.5538836
   6.7072988  46.6194820  53.0181694 104.4833851  26.0208607  34.8804235
 105.3226757  26.1738467  34.4463587 103.8773441  25.8220291  34.1666913
  93.0293274  55.6421852  43.1072235  93.6481953  55.0689316  43.5595798
  92.2738838  55.6889391  43.6931849 112.2589779  38.7420201  12.1188188
 113.0610466  38.2650352  12.3318744 112.1877766  39.4082689  12.8023934
 107.6348305  25.3526902  65.3377676 107.9576969  24.4738626  65.5368853
 108.3296013  25.7498312  64.8126078  83.1904984  51.5535975  68.5666180
  82.5772572  52.1882486  68.9372826  83.6068726  52.0185423  67.8408861
  78.9754820  22.6766491  24.2317581  79.4938374  23.4804559  24.2695785
  79.0523577  22.3845935  23.3234477 107.5595665  50.6050873  38.5353494
 107.0501518  51.4107895  38.6223984 107.3486900  50.1022196  39.3220425
 104.3656158  46.3134289  49.6429205 104.5870781  46.0123301  48.7617111
 103.5659218  45.8365917  49.8650455  97.2384357  57.9383039  43.2236433
  96.5199566  57.6186085  42.6779127  97.2276878  58.8876486  43.1017590
  76.8447828  27.4542427  32.6716900  77.4786139  26.7460656  32.7855730
  77.0748997  27.8486538  31.8304300  79.9124956  40.3526878  49.0855980
  79.9461174  39.5242286  48.6073112  79.6006107  40.9885263  48.4416437
  76.9512510  66.0206556  47.4816418  77.3916960  65.4891348  48.1447601
  77.4164104  66.8570805  47.4973869  78.6269045  64.8868656  56.1251497
  79.2885208  64.7128010  56.7946291  79.0604830  64.6737814  55.2988100
  81.6542625  53.8164377  51.7143726  81.2608147  54.0854025  52.5444841
  82.5793171  54.0462303  51.8021822  79.6530914  63.0472422  41.8140936
  80.3750038  62.4736881  42.0712137  78.8860893  62.6776552  42.2515297
  87.7278233  56.3584185  49.2895937  88.6090851  56.4012671  48.9184284
  87.2427559  55.7913589  48.6901045 103.2315350  41.1981916  51.5574789
 103.0510139  40.8531713  50.6830597 103.5381317  40.4403543  52.0553875
  82.0662689  51.6949940  10.1279366  81.7658710  51.7739344   9.2225277
  81.9275475  50.7735395  10.3468299  84.2104912  49.9667168  61.0935211
  84.0886688  50.8967781  60.9027958  83.8601112  49.8555565  61.9773245
 109.9351025  45.9293604  41.8431520 110.5053043  45.9181118  41.0744047
 109.4611931  46.7584324  41.7777348  81.8432903  49.8714018  40.3908730
  81.1342525  50.2657223  40.8988142  81.8241978  50.3344917  39.5533657
  74.7430182  68.2001877  32.2315288  73.8965845  67.7536201  32.2504783
  74.6675348  68.8848543  32.8961849  68.4207439  41.8353462  51.3424063
  68.9216137  42.4787140  50.8409691  67.6705408  41.6286135  50.7850122
 101.6112328  46.0835409  48.8248634 101.0323334  45.4142094  49.1897058
 101.7993069  46.6649866  49.5616007  97.8421307  65.8607054  45.5565453
  98.1376457  66.7469358  45.7650900  97.7714825  65.4256296  46.4062214
  79.6806145  20.1763844  46.4743042  79.1002083  20.1091933  47.2324896
  79.7898006  21.1176515  46.3389206  84.9158955  35.7852626  29.6759987
  84.9686718  36.1023474  28.7743878  85.2231407  36.5202117  30.2067351
  92.2968102  35.0084352  55.3089714  92.8697491  34.9146771  56.0700178
  92.7393818  34.5205855  54.6144485  89.6602535  42.9022074  49.7084379
  88.8349628  43.3787060  49.7983122  89.7578812  42.7679777  48.7657356
  90.1540756  53.6613226  38.4252238  90.7542896  53.3761215  39.1141582
  90.5033207  53.2681656  37.6254177  77.9330969  35.5906081  58.2066584
  77.9970598  35.8439112  59.1275167  78.6703157  34.9955368  58.0701733
  76.9354486  27.2032332  70.1625633  76.8389082  27.5885105  69.2916584
  76.5600300  26.3266420  70.0796318  94.5826817  50.0440741  56.4858580
  93.8706589  50.3068590  55.9025860  94.8008633  50.8398104  56.9710732
  95.0427628  63.1315613  27.2361207  94.1568565  62.8965950  26.9600749
  95.4478264  63.5015392  26.4517307  97.7608490  46.9224739  29.4766617
  97.7686119  47.5770283  30.1750374  98.6811161  46.8202353  29.2339778
  85.1253605  42.7474880  48.9141417  85.6869698  43.0531693  48.2018375
  85.2183056  41.7949104  48.9004946  68.3148146  67.3241520  57.7078056
  69.0785980  66.8614578  58.0524492  68.0888224  66.8503761  56.9073725
  80.4485703  64.0235567  28.8421082  80.1118279  63.1314278  28.9254165
  80.0215149  64.5077229  29.5488143  72.9986668  51.6665030  27.2910666
  73.3463717  51.2775326  26.4885473  73.6706257  51.4952230  27.9508924
  89.4201279  51.8455982  59.7830439  89.4926262  51.1942387  60.4806900
  88.6380959  51.5878010  59.2949915  98.1257343  48.5296631  50.5751562
  97.5726318  48.7162685  49.8165512  98.1664562  49.3588400  51.0516405
  79.2811489  41.6293192  39.4139957  78.9526415  42.4609900  39.0724730
  80.0695324  41.4540863  38.9002132  82.1306515  62.2935677  48.2921886
  82.8183842  62.6970625  48.8217592  82.1929741  62.7325439  47.4438667
  86.5239239  29.2429304  76.9645262  87.4682331  29.0864205  76.9595480
  86.2245369  28.9285016  76.1114550 116.6136551  38.9290714  36.9269800
 117.1425438  38.4538841  37.5678444 116.4659786  38.2976246  36.2229204
 113.6507988  71.7519093  62.2773457 113.4284306  70.9654140  62.7755499
 113.8643837  72.4050903  62.9436541  70.5064011  64.6022892  31.1030912
  70.1677704  65.3686237  30.6401753  70.2565002  63.8601637  30.5526066
  97.4275684  29.6354556  67.7327299  98.0033016  29.0015078  68.1603670
  97.3961353  29.3521595  66.8189573  73.9106131  40.6094217  31.3083339
  74.4384718  39.9050665  31.6844702  74.0889788  40.5668926  30.3688622
  74.1633415  24.2378354  48.1796789  73.5153008  23.8758659  48.7840414
  74.3128300  25.1293135  48.4945631  90.1811504  61.2959003  31.7927480
  91.0203743  61.3439655  31.3348985  89.9317741  62.2094488  31.9322944
  77.8306770  27.0449829  58.4865427  77.5557041  26.4059711  57.8290606
  77.2581577  27.7984262  58.3423996  62.0038319  83.7860107  17.0604026
  61.7526102  82.8888226  16.8409181  62.3960924  83.7187386  17.9309392
  84.8574448  58.5719156  36.6931653  84.0262222  58.9168549  37.0192456
  85.0991631  57.8936148  37.3238063  93.2623100  42.2802687  43.5081625
  93.4975052  42.8469944  44.2428303  92.3316383  42.0964718  43.6358213
  84.8071671  60.5103827  25.7327294  84.3138695  61.3062286  25.5339503
  84.1632557  59.8056364  25.6624675  96.8448448  44.8984957  37.2573185
  96.9571304  45.6535149  36.6797590  95.9378910  44.9591923  37.5572848
 109.8045349  38.9867210  33.8377333 109.6957779  39.7996306  34.3312764
 108.9731789  38.8731480  33.3770919  97.2719002  46.0431957  54.4282627
  97.1154308  46.9863129  54.4759798  96.9162750  45.6996393  55.2478552
 100.5903625  66.9798374  70.4982281  99.9915695  66.4637184  71.0379553
 100.3058243  67.8851414  70.6234789  92.6635838  34.0319395   6.6565567
  93.3820152  34.6461010   6.5052640  92.4257851  34.1629267   7.5744510
 104.3457222  77.5410891  52.3135471 104.1725636  76.6527319  52.0019960
 103.5000134  77.8500986  52.6383734 102.0101643  47.5144863  66.1704731
 101.5216351  47.4877644  65.3477621 101.6033745  48.2241154  66.6676426
  71.1841345  36.4816523  66.4457607  71.8491697  35.9248686  66.0408497
  71.6647387  36.9954348  67.0948219  90.1317692  73.2303333  41.0214186
  90.3807068  72.4836159  41.5660954  89.5053387  72.8704739  40.3934717
  46.8530607  59.3428040  26.3300467  46.9406557  58.3984089  26.2009001
  47.2192907  59.5005322  27.2002363  92.3939228  39.8078752  41.9360924
  92.1979427  40.6582260  42.3294449  92.0006561  39.1714311  42.5331783
  87.8399086  26.4027309  41.5432882  88.4798717  26.1173034  42.1953678
  87.1728611  26.8665719  42.0493841  81.7219353  58.5851622  58.8948059
  81.1644840  58.2086515  59.5757771  81.2170887  59.3230057  58.5528183
  86.5366840  53.5471773  29.4263554  86.8506527  52.6505327  29.3093801
  87.3332214  54.0763426  29.4680452  74.5534515  56.7363930  28.0804729
  74.1174030  55.9238386  27.8238702  74.2406225  56.9057894  28.9691091
 118.0062008  51.3357067  52.8402615 118.0160999  50.9008694  51.9875860
 118.1772900  50.6343460  53.4687948  97.5376225  42.2287941  35.4990983
  97.3483372  42.9519510  36.0969687  98.3836937  42.4533701  35.1118636
  84.6373558  56.0311079  55.4725599  83.8124466  56.3992977  55.7890940
  84.9834538  56.6958046  54.8770571  92.5433636  45.2567101  60.7357168
  92.2112751  44.8615885  61.5418339  91.7825222  45.2938271  60.1560736
  68.2736540  70.1633739  57.6263571  68.6150599  70.3416300  58.5026550
  68.4043694  69.2229271  57.5051117 103.3348560  31.7235422  44.0371466
 102.7988815  31.2703347  44.6879673 102.7031994  32.0769072  43.4107542
  92.2148991  49.3956995  28.0066180  92.3240948  48.5469818  27.5776792
  91.9158936  49.9796343  27.3095894  84.9755478  52.8054571  25.4284739
  85.2886581  51.9117212  25.5678821  85.6511211  53.2142591  24.8874378
 109.7933960  73.9046097  57.3695469 109.3521976  74.7539330  57.3543072
 109.0834522  73.2649040  57.3148870  96.8243790  56.0628557  30.6060195
  96.0568333  56.0300303  30.0350285  97.3070908  55.2611637  30.4047489
  98.1445026  38.5983086  68.0991125  98.3170700  37.6569915  68.0797052
  98.6374187  38.9166355  68.8553715  89.7681999  51.4086962  42.9739714
  88.9856243  50.9910917  43.3337069  89.4727325  52.2778606  42.7028894
 103.7510204  52.9287434  16.7683244 104.0167427  53.5921669  17.4051046
 104.4603920  52.2862101  16.7817020  83.1545258  62.4864912  51.0702038
  83.1012154  62.9756308  51.8912601  82.5987530  61.7200708  51.2114859
  93.8612747  61.4899683  43.4632444  94.3242168  60.7466936  43.8498497
  92.9403973  61.3336992  43.6724997  84.4244576  39.8184061  40.1237202
  85.0945377  40.4836130  39.9664855  84.8907852  39.1082454  40.5646801
 107.5599670  44.3140554  79.2869186 107.0353985  44.7296762  79.9712467
 107.1205044  43.4799194  79.1216278  84.8118496  51.5585279  45.9970570
  84.9081516  50.6953049  45.5948114  83.9190483  51.5636921  46.3421774
  78.0635834  56.1908770  56.5635109  78.9543819  56.4817667  56.3683367
  77.5015926  56.8439007  56.1464262  93.8808632  37.1786308  50.3588390
  92.9389668  37.2237802  50.1944113  94.0368748  36.2680674  50.6093645
  60.0152016  30.1077127  58.1038761  60.6375408  30.5264473  58.6985064
  59.5236444  30.8343911  57.7210665 107.1108341  45.8124208  64.7303057
 106.2813187  45.5828953  65.1491594 107.7773094  45.3867769  65.2696228
  94.3401051  79.7205639  48.1166697  94.7728157  80.5465221  48.3329582
  93.4079361  79.8986721  48.2414770  87.5028133  79.3937302  15.5323970
  87.9879189  78.8410664  14.9196470  87.7478695  79.0647840  16.3972497
  94.9550152  55.5371332  51.3736439  95.0943375  56.4779282  51.2653208
  94.4910049  55.4581213  52.2071218  99.4989967  62.6137829  43.2649946
  98.7839127  62.5109482  43.8929319  99.8473454  63.4880495  43.4397697
  92.5323296  62.9880953  30.2020860  93.4567642  63.0824566  30.4317856
  92.1441936  63.8360786  30.4177189 105.2146053  52.4090385  33.8831472
 105.8281040  52.5328350  33.1589079 105.4132748  53.1222057  34.4899035
  88.2177258  82.2121143  34.8800397  87.6493549  82.7887535  35.3906035
  89.0835190  82.6161003  34.9385428 107.5493717  78.1211376  60.0995159
 107.2432899  78.9757204  59.7958279 108.4574699  78.2714605  60.3621817
 110.0458813  59.2431927  42.7776909 109.4124794  58.5257530  42.7955055
 109.6125793  59.9328089  42.2747850 100.2737904  71.8702078  23.6853194
 101.2176418  71.7456245  23.7846136 100.1266670  72.7855778  23.9233971
 101.4361191  63.2405281  52.7089024 101.7034245  64.0999985  53.0346203
 101.5703678  62.6508474  53.4508514  91.5597725  75.5471897  29.9281788
  92.2400379  75.0772762  30.4105210  92.0408154  76.1550522  29.3666387
 101.1271381  93.8709164  46.0883951 100.5454826  93.4349728  45.4656124
 101.9778347  93.4530163  45.9545374   3.0847561  56.4615822  53.6356449
   2.6051453  56.1621523  52.8632784   3.9259905  56.0075951  53.5860968
 101.1842346  55.7671261  46.8329620 101.7542648  55.6140375  47.5865316
 101.1015606  56.7195272  46.7847443  90.9555149  58.2637548  44.5806408
  91.1456299  58.6293077  45.4446173  91.2980366  57.3707104  44.6177626
 108.0109215  60.4012442  34.4315243 108.2730103  61.1321020  34.9913383
 107.8514004  60.8000040  33.5760832  97.3648453  75.8464432  72.0964432
  97.3208809  75.3185463  71.2991858  98.2614231  75.7308340  72.4111080
 112.3122883  78.9967155  73.2687759 112.3242378  79.9078035  72.9754972
 112.0990086  78.4946823  72.4822044   6.4073652  82.0844269  68.8700438
   5.8661079  82.7779865  69.2472029   7.1885353  82.5367069  68.5515356
 112.7049446  31.7509317  49.3143940 112.2721767  32.4282742  49.8341560
 112.4922466  31.9722772  48.4077549 110.7599068  69.4331408  46.7396402
 110.6085777  70.3781700  46.7239952 110.2508068  69.1214085  47.4878883
  91.0554504  67.9513025  22.3280001  91.7284489  67.8137732  22.9946303
  91.4887619  68.4761095  21.6549110  96.6629887  72.2747374  48.1798649
  97.2326374  72.4144697  47.4234200  97.1288776  72.6835251  48.9092970
  12.8116238  73.8799667  44.1542196  13.7593102  73.9559841  44.2653179
  12.6979101  73.6161327  43.2411528  99.3401051  68.2533693  54.6923447
  99.2383194  68.5200071  55.6060028  98.5332775  67.7798700  54.4897079
 108.1068611  84.3679714  52.1353817 108.6347103  84.6523190  51.3892221
 108.6157036  84.6302319  52.9025412 112.3334980  73.2711935  42.6492023
 111.3930988  73.1243515  42.5475788 112.4405766  74.2169571  42.5477123
  99.5782566  35.3747129  71.1097527 100.4124451  35.1810598  70.6821156
  99.6257210  34.9136329  71.9472408 102.6218510  74.6703577  40.1604939
 103.4322929  74.3905115  39.7349358 102.0254707  74.8627663  39.4369340
  98.3988190  64.7876692  81.5735722  98.6479187  65.1943588  82.4034977
  99.2243576  64.6840954  81.1003017  93.8533306  74.8411703  34.2160296
  93.1864262  75.0918722  34.8552704  94.6848297  75.0334024  34.6494770
 102.5836277  58.8815498  32.5116634 102.1695900  59.0495920  31.6651607
 101.8761444  58.9821911  33.1485128 114.3173504  94.0995884  37.4480677
 115.1498699  93.7988091  37.8123093 114.0451241  94.8107147  38.0280805
 102.5874615  67.7978611  41.8736935 101.9050026  67.9029369  42.5365973
 102.2062302  68.1666946  41.0769129 105.7655144  73.9218807  57.1325779
 105.3917789  74.6312332  57.6554298 106.1864948  73.3484316  57.7730131
  91.6146564  54.4990873  53.6881924  92.4107075  54.9434614  53.9798498
  91.1920452  54.2095280  54.4967651 112.9152203  91.8205929  44.1118288
 112.3254108  92.0256424  44.8372984 113.1892204  90.9178448  44.2737293
 107.1242046  59.5538425  19.9477541 106.5497589  59.4138861  20.7005239
 106.5460873  59.8952579  19.2655158   6.0037613  90.6425762  94.9485588
   6.1230916  91.5878868  94.8570061   5.2499974  90.4414845  94.3939114
  21.4802790  71.7895794  40.5248499  20.8983445  71.9403982  41.2697268
  22.1867681  72.4250031  40.6403542  98.1273270  55.9383535  17.1648455
  98.8885975  56.0824871  16.6027665  98.4517097  55.3752756  17.8676653
  77.1429634  94.0321541  37.7346015  77.5750160  94.8463535  37.4764442
  77.2066116  94.0196037  38.6895990  99.4838810  72.9194927  47.1185398
 100.0756836  72.5903177  47.7950382  99.9508572  72.7671289  46.2969923
 118.3002090  80.6768894  53.7695599 118.6879444  80.0116539  53.2009125
 118.5014915  81.5074253  53.3383656 101.2082767  69.4404984  39.4890690
 101.5045738  70.2130318  39.9703479 100.2535629  69.4715357  39.5506668
  87.6584435  71.0335398  26.2278605  87.2699451  71.4061308  25.4363537
  87.4899769  70.0938845  26.1578679   6.0735661  75.1623249  50.7871819
   5.2920640  74.6136904  50.7201910   6.2092400  75.2720213  51.7283440
 107.5236511  72.2496605  58.4572124 107.0015430  72.1549797  59.2538738
 108.0279160  71.4378357  58.4034348  95.5064869  56.2190914  47.4325657
  96.3904762  55.8604527  47.3539734  95.3586674  56.6754961  46.6042662
  85.6060028 104.1673851  26.5859509  86.2430000 104.0437126  27.2896314
  86.0950470 104.6162510  25.8963299  96.1643600  47.4432898  27.3892355
  95.9399509  46.5428972  27.1543550  96.6816711  47.3600149  28.1902909
  96.4294338  97.9841232  41.7024660  96.7066956  98.3989143  40.8855772
  97.1952724  97.4876499  41.9909573  88.7294102  96.0352612  48.5157442
  88.2959557  96.4858437  47.7909517  88.2677269  95.1999569  48.5888815
  93.1533813  60.8116007  33.0597472  93.0118275  60.3654623  33.8947058
  93.7446213  61.5340042  33.2714033 100.1496506  55.2664089  51.4074469
  99.2177296  55.2605486  51.6259241 100.5780506  54.8881054  52.1752930
 102.0349121  76.7123365  45.4970121 102.0199299  76.3172626  46.3687468
 101.7059231  76.0255289  44.9171019  13.6752355  75.4794312  63.3675385
  14.3298364  74.8910332  63.7437248  13.2767570  74.9731588  62.6596260
  95.3679562  62.2569942  57.7289915  95.7757950  61.4470434  58.0353785
  94.6305466  61.9658375  57.1926165  95.1165581  71.4298010   9.3409842
  94.4257069  71.6511202   8.7164998  94.9900818  72.0427418  10.0652373
  97.4448204  67.1197939  33.4407234  97.7291870  67.6279402  32.6810169
  97.6114082  66.2095213  33.1960011 115.4785728  60.4908991  25.7030749
 115.1058769  61.3544989  25.8806205 115.5111885  60.4358530  24.7480154
 107.7664185  62.4140692  42.7530289 107.6132107  63.2434559  43.2056665
 106.9315624  61.9498777  42.8145218  94.8612595  55.7676649  57.7376556
  95.7394314  55.3942537  57.6626873  94.7815800  56.0089588  58.6605120
  92.7267265  71.7260933  52.2975016  92.8748322  71.0978508  51.5906715
  92.0407677  71.3270903  52.8327560 101.0216999  73.7079191  27.8101659
 101.2137032  72.9773188  28.3980393 101.8730545  73.9547920  27.4489427
  96.9449425  72.4478340  44.9440813  97.2378635  71.6646957  44.4781160
  97.3980141  73.1695032  44.5080233  84.8866844  93.1744194  18.7674022
  85.2591991  93.8347244  18.1830597  84.6274948  92.4592495  18.1863737
  98.4368706  58.0430889  31.4541435  98.2391548  57.1299267  31.2461090
  97.6694489  58.5290766  31.1522841   6.6105026  46.3805103  49.5735788
   7.0705348  45.9185696  48.8727140   5.6828773  46.2676716  49.3661880
 103.0195522  70.8094358  33.1480026 102.5543499  69.9882746  33.3077550
 103.8674641  70.5396318  32.7951932 101.0997868  64.5476294  25.0242662
 101.5178680  65.2991629  25.4445481 100.9273624  64.8391533  24.1289926
 116.6623974  63.6571598  55.6327152 116.1210823  63.3483601  56.3592529
 116.1013603  63.5699511  54.8620939 107.1176910  69.5547819  42.1709919
 106.2335968  69.7499800  41.8603516 107.6918316  69.8695660  41.4727783
 117.2389126  47.6647997  52.1691227 116.5601730  48.2140112  51.7768097
 116.8565559  46.7874622  52.1868086  92.2055817  75.1918697  47.4138021
  93.0670929  74.7915030  47.5310040  91.7175102  74.5597839  46.8860865
 107.3493671  84.2966652  56.0663652 108.0180454  84.7551727  55.5575705
 106.5220833  84.5461941  55.6545734  86.0860634  78.5073709  27.3378921
  85.6183243  79.1844654  26.8490195  85.4329109  78.1533813  27.9414821
 106.6273880  83.2911110  69.7733879 106.3736629  82.7220154  70.5000162
 106.0405159  83.0433941  69.0589333 101.7578983  77.8287172  42.8040075
 101.0948658  78.0505610  43.4577703 101.9840431  78.6658287  42.3986197
   6.7257661   2.3889454  55.7708740   7.6410198   2.6609626  55.7034206
   6.7001939   1.5284193  55.3524542 112.0994091  39.4052196  61.0697699
 112.3507881  38.4817719  61.0865498 112.6815701  39.8001599  60.4206514
 104.3236446  41.5014076  18.6398828 104.1998196  41.6905928  19.5699942
 105.1600838  41.0377932  18.5990548  94.3811893  81.8157578  39.6571469
  94.7955322  82.4849415  40.2018881  94.6971989  80.9861374  40.0150585
  89.3539238  65.9277248  36.8874145  89.4153214  66.8270636  37.2093606
  90.0617599  65.4642391  37.3350525  80.4440689 100.1929188  31.2030387
  80.6932735  99.2810822  31.0524392  80.0518608 100.4737091  30.3762603
  84.4921303  62.2308016  41.1374950  85.2710438  61.8432951  40.7382822
  84.5995617  62.0721960  42.0753336  99.4452095  68.3869553  51.4686394
  98.7772655  67.7430630  51.7041874  99.3885899  69.0525436  52.1542215
  86.9130898  63.5273600  30.3094339  86.7648888  62.8748655  30.9939170
  87.1074772  64.3344402  30.7859468  86.9406223  57.8257179  45.5392551
  87.4923801  57.5466633  44.8085546  86.7156029  58.7336969  45.3363323
   3.4068677  70.1343679  57.4680090   3.7368175  70.7411718  56.8053246
   4.0380192  70.1963520  58.1849766 111.9263268  54.5967340  43.9090681
 110.9912395  54.7547388  44.0389585 112.2915745  54.5801544  44.7936869
  98.8555050  81.2820148  60.8218288  98.4206200  81.5463638  61.6325235
  98.8027382  82.0543766  60.2588749 113.4643459  74.5442915  39.7087669
 112.6120090  74.7435236  40.0961447 114.0993595  74.8782158  40.3423977
  96.9808197  61.1470795  71.2870073  97.0120811  61.5625286  70.4252338
  97.7592945  61.4732218  71.7385054 108.2328415  79.9916124  38.1265426
 107.7935314  79.5771933  37.3839140 109.0936947  79.5743370  38.1588650
   9.1554344  95.3458786  51.0341930   8.7085462  96.1843300  50.9178972
   9.2834413  95.0172424  50.1443386  92.0173359  42.0859432  84.1636086
  92.3771477  42.8302383  83.6811256  92.1922684  41.3299990  83.6030960
  97.5101185  61.7920637  61.0615444  96.8818092  61.7240810  60.3426266
  97.1554661  62.4794626  61.6253948  97.8605556  70.3235435  36.1298442
  98.7988472  70.1347494  36.1437535  97.4433708  69.4624901  36.1020970
 102.8661346  65.1464558  70.0869560 102.4256897  65.0709438  70.9334421
 102.6162815  66.0119390  69.7633219 107.5635529  63.6048937  53.5008526
 107.1291161  63.1930637  54.2477751 108.4719181  63.3086872  53.5589266
  95.3998375  67.3192406  47.7077770  95.3112888  67.6343203  46.8082666
  95.7996559  68.0500364  48.1792736  95.8507824  68.8875628  40.9998131
  95.9681988  68.8389826  40.0510883  95.3554344  68.0988073  41.2205458
 103.6154556  80.2998352  54.7932959 104.5554829  80.1534843  54.6876097
 103.4588814  80.1838875  55.7304573  77.3060846  65.1965189  25.4826403
  77.7268457  66.0092449  25.2021623  77.9711962  64.7512722  26.0076332
 107.8945255  57.5573921  42.6296043 107.2330856  56.9880867  43.0228281
 107.3926258  58.1794024  42.1028852  89.7050381  75.9281254  41.7886639
  89.7916031  75.0012207  41.5659809  90.6061745  76.2376308  41.8802452
  98.5168552  68.5621929  46.0881853  97.8350830  68.7728357  45.4501820
  98.2327271  68.9941311  46.8937492  93.1556129  69.4059944  45.8696079
  93.9082241  69.6191931  45.3179216  93.0081844  68.4716558  45.7229757
  13.1972110  85.8127785  59.7257328  14.0811610  85.6427097  60.0512171
  12.8692639  86.5198040  60.2814245  88.3349705  51.9191027  15.6787002
  88.4593105  52.7921724  16.0508776  88.0518913  51.3815165  16.4183652
   8.0979246  76.6723824  44.0811539   8.2796544  76.8463421  45.0047064
   7.1854901  76.9363403  43.9627409  98.4832382  38.7084150  59.0796900
  98.8031483  37.9000163  59.4801712  97.7930069  38.4224439  58.4813356
 115.1169205  43.5507011  37.5209904 115.0873470  44.1813850  36.8015480
 115.9605026  43.1100798  37.4187207  92.6605797  82.3939896  60.3924370
  92.7491188  82.4199867  61.3451815  91.7370796  82.5882721  60.2323294
   0.5136487  95.8359528  24.0228724   0.9038611  95.6062984  24.8662138
  -0.3371121  95.3972816  24.0252137 107.5573540  73.4907055  41.8934584
 107.2370243  72.8668833  41.2419510 106.8896961  73.4847355  42.5793362
  95.2818203  57.4488163  45.1200628  94.5475388  57.6059961  44.5264626
  96.0556316  57.6993847  44.6154261 107.5228024  65.5460167  25.1263142
 107.0661926  66.1385155  24.5290804 107.7982330  66.1042786  25.8534455
 103.3803749  77.3299837  55.6288910 102.8666687  77.8089333  54.9785471
 103.1390190  76.4131689  55.4968739 112.8311729  66.0246420  49.9347067
 113.3672905  66.5335083  50.5428648 113.4384346  65.3910780  49.5525265
 112.0599937  73.5101843  70.8735609 112.6289272  72.7752304  71.1024380
 111.5989017  73.2200813  70.0864983 111.4844513  65.2697134  41.1503696
 112.2394180  65.3632927  41.7313194 111.4015961  64.3256950  41.0154819
   5.2108461  49.9426031  41.1501360   5.4386187  49.8539305  42.0756006
   4.7738644  50.7922077  41.0913658 109.6348572  93.2538509  25.4224110
 109.2815304  93.5666084  24.5896006 109.0320873  93.5967445  26.0822010
  90.1384735  70.7896900  42.4108410  89.2822552  70.3617811  42.4109697
  90.6230640  70.3560305  43.1132269 114.2017460  43.0808210  50.8676958
 113.2852459  43.3567715  50.8572245 114.2697906  42.4488449  50.1520109
  99.6175861  53.9273882  43.9638424 100.5161858  54.1601706  44.1974306
  99.0737820  54.4528580  44.5506859  99.7002506  97.8470039  48.2427406
  98.7494087  97.8814793  48.3473587  99.9959373  98.7343025  48.4464645
  98.8611603  59.9889374  62.6932478  98.2848454  60.6350946  62.2851181
  99.3694878  59.6285677  61.9666290 105.3316975  73.1363916  16.0681510
 104.6002388  72.9729128  16.6635203 106.0236740  73.4863806  16.6293263
  98.3368587  59.8842096  50.8870554  97.6766396  60.5724573  50.8054209
  97.8486633  59.0690517  50.7711983  91.6713905  80.5217266  48.8017607
  91.4842510  81.1633968  49.4869328  90.9116745  79.9394464  48.8049698
 113.4804440 102.6389122  57.2731876 113.8788033 103.5075283  57.3284149
 114.0541744 102.1493340  56.6838026   0.9135395  56.6057014  59.6082258
   0.8506731  57.3606968  59.0231895   1.0754637  56.9849062  60.4720640
 109.3333340  97.6265240  54.7806311 110.1516819  97.9813194  55.1279640
 108.6495876  98.0467033  55.3023243 103.2236671  91.7821789  63.0869770
 102.9142857  91.4303207  63.9216709 102.4560833  92.2109222  62.7085352
  96.4951324  95.5544090  62.1320486  97.1277428  95.5483341  62.8503847
  95.6569004  95.3559113  62.5494051 114.2287350  87.5981808  33.8737297
 113.7160778  88.1905079  34.4237733 114.9506855  87.3149490  34.4348097
 105.0419044  98.2806587  38.6355543 104.1784191  98.6905289  38.5843563
 105.1967430  97.9375839  37.7554655  10.9804165  95.3825855  55.4384947
  11.5233934  95.9546947  55.9808016  10.4791367  94.8623753  56.0664511
 109.1419888  83.7866020  62.9811954 108.3388424  84.0752602  62.5477600
 109.6553898  83.3760834  62.2854090  91.9590092  71.8815613  24.6285868
  92.0576191  72.8334618  24.6484590  91.1568546  71.7134905  25.1230907
 118.6116409  96.7284870  47.8496742 118.4386253  97.3008060  48.5971642
 117.7713776  96.6673470  47.3952913 115.8135128  83.2525444  24.9667549
 115.3097153  83.0022907  25.7412219 116.7122936  82.9952621  25.1722479
 117.5004578 100.4001808  11.6344547 117.2824001 101.1530304  12.1839058
 117.0270729  99.6689510  12.0312440 100.4340172  81.3423443  37.6384091
  99.5290375  81.1820602  37.9058886 100.8836651  81.5848064  38.4478951
   0.5383275  74.4953299  55.1346207   0.0806231  74.9253273  55.8570051
   1.0669528  73.8174725  55.5556917   3.8078895  65.2117014  36.3317180
   3.2573086  65.3107643  37.1084285   3.2747036  64.6992970  35.7239461
  93.4079170  74.2860222  31.6315031  94.1002846  74.8515892  31.2894630
  93.4144211  74.4436741  32.5756073 109.6991348  95.7045555  17.1840739
 110.3931999  95.0753784  17.3806632 109.1216183  95.6701279  17.9466498
  94.8373032  93.5564137  44.1766882  95.7011127  93.3141232  44.5103931
  94.9537659  94.4412518  43.8306570 103.0199718  72.5717545  47.0699549
 103.8935661  72.2746801  46.8153715 102.4281025  71.9106817  46.7109156
 100.8519554  57.1436453  49.8331547 100.6422806  58.0158520  50.1671124
 100.6042862  56.5498829  50.5419111  87.6942253 100.9465218  52.6241493
  88.0916405 100.3246212  53.2336903  87.8216362 100.5512905  51.7617178
  80.4646587  90.2321148  32.7017164  80.1436234  89.6574020  32.0068169
  80.9585762  89.6531296  33.2822895  95.6584167  68.0466747  50.7711554
  95.8608818  68.8159990  50.2388239  94.7175980  67.9150677  50.6538010
  22.2126722  61.7879629  60.2149200  22.6979160  61.5654516  61.0094404
  21.2957954  61.7995262  60.4895782 118.9326286  86.0203743  32.3861742
 119.6205235  86.6188335  32.6775289 118.1794071  86.2352180  32.9363918
 100.8897400  93.5224342  56.7517281 101.7688370  93.5600853  57.1285677
 100.3938103  94.1839027  57.2341633   5.6225753 106.0065937  49.4905663
   5.6861156 106.9516277  49.3523979   6.1539161 105.8421707  50.2695847
 104.8020554  81.5859509  51.2749290 105.1642132  80.7372570  51.0203838
 103.9538002  81.3768101  51.6660309 110.7730579  60.6177187  50.8440876
 110.1313782  59.9786758  50.5340815 111.3841057  60.1058292  51.3740206
   5.4992115  92.3453617  70.5369759   5.5270666  92.6015854  69.6151257
   4.6581736  92.6762676  70.8522320 109.4175816  84.8909283  49.7319078
 108.7925148  84.8342514  49.0091991 110.2749348  84.8105717  49.3139172
  98.7552357  98.2973385  76.9923830  99.4085312  98.3280659  76.2934542
  98.1328773  97.6274681  76.7092323 104.6500874  74.2135286  64.5138216
 104.4147015  74.8758221  63.8640594 104.1228199  73.4498501  64.2792702
 109.7070026  91.6240215  45.0848055 110.1588058  91.0311222  44.4843245
 108.9842224  91.1040497  45.4361773 104.9225616  96.3888264  45.8201790
 105.8755970  96.3026047  45.8430767 104.6132946  95.8155918  46.5215969
  91.7084122 101.8024063  39.1062474  91.3303757 101.6191959  39.9663424
  92.3869038 102.4556255  39.2770529 110.5258751  62.5573063  68.7184763
 110.1052475  62.5728321  67.8587818 109.8245430  62.7756405  69.3322325
 111.7848778  61.3215208  45.1273680 111.9002151  60.7743883  44.3504715
 111.5645313  60.7039309  45.8246946 116.8397141  92.0300007  52.0192862
 117.3530197  91.9199562  52.8196907 117.4588966  92.3923302  51.3855886
 101.7319012  82.6585865  41.7723465 102.3745918  83.1547832  42.2792578
 101.3830376  83.2905579  41.1437511 100.6733322  93.9884377  49.1231060
 101.3146496  94.6913242  49.2274237 100.2199459  94.1971493  48.3063316
  97.8525257  70.8400869  24.4837809  98.4222984  71.4703226  24.0428805
  97.0475388  70.8417511  23.9658689 103.8659859  67.0167685  32.1325564
 104.4465256  66.6446877  32.7964544 103.1538200  66.3820076  32.0542312
  96.4845467 100.1016712  28.5866094  96.5594673  99.1582394  28.7300038
  97.3858356 100.3964233  28.4561443  91.3863087  81.6305161  51.3997173
  91.1836529  81.7256451  52.3303699  92.2852325  81.3020611  51.3826942
 107.5525379 107.3399925  39.1139030 108.4073639 106.9576740  38.9155602
 107.1441936 107.4706268  38.2580853 107.5128555  85.3575897  45.2178955
 106.8414497  86.0275745  45.0891781 108.3181572  85.7598877  44.8925114
 103.6188221  91.4296913  51.4741325 102.7137756  91.1486912  51.3393641
 104.1342926  90.6280899  51.3849401  91.8238258  97.1276188  69.3434143
  91.4564133  96.3343525  69.7332430  91.0827732  97.7305508  69.2837667
 105.0037861  85.9439659  55.8718109 104.6618271  85.3302860  55.2216578
 104.2566013  86.5000439  56.0925484  95.7319641  88.6221600  75.1721239
  94.8103619  88.6915112  75.4212761  95.8086300  87.7535439  74.7773266
  98.9066696  90.2303314  21.7399406  99.6400833  89.9673462  21.1839056
  98.1567001  89.7488308  21.3907599 109.1896915  69.7057009  43.9623737
 108.5032082  69.7814798  43.2996368 108.7211323  69.4919872  44.7692251
 108.6301517 101.7049408  28.7599730 109.1933060 102.2897530  28.2529330
 107.7401161 101.9863796  28.5481930  96.5321445  97.8220463  32.2540498
  97.4296665  97.7113247  31.9403338  96.0365677  97.1340752  31.8098140
  90.6558609 100.3549957  62.2271109  90.4769421  99.7672081  61.4931297
  91.5092564 100.7382584  62.0245075 108.7641430  69.7814226  39.8188877
 108.9626980  68.8922739  40.1125336 109.3721676  69.9363089  39.0960169
   6.4580762  82.1203423  30.5511379   6.0895044  81.9509792  31.4181471
   5.7148314  82.4242401  30.0301147 117.6583767  82.9572487  44.9611568
 117.8119087  82.4336243  45.7475901 118.3534145  83.6153030  44.9721003
 100.7245827 102.9483318  49.2705870 101.6117477 102.6968193  49.0138388
 100.8466721 103.7045193  49.8446131   4.9303883  74.8403454  16.1665237
   4.9939170  74.2808628  15.3924584   5.6343901  74.5369816  16.7397463
   7.4338043  81.0959053  60.5692816   7.4484318  81.2976933  59.6337080
   7.7900046  81.8790627  60.9888220 109.0707302  79.3261290  49.7354364
 109.7379684  79.4854927  50.4029894 108.4348392  80.0307655  49.8593760
 100.1961613  68.9467287  25.4274178  99.9355412  69.7624826  24.9998069
 100.8729744  69.2090034  26.0514092  84.7865391  92.4229813  14.3084240
  84.6915817  92.0545292  15.1867497  85.6973648  92.7145195  14.2681682
  25.4128003   2.4663106  30.8299088  25.4080319   3.2150638  30.2336049
  25.9468865   1.8086877  30.3843570  96.7155457  88.0616283  49.6903229
  96.6027260  87.4058723  49.0022182  96.6679287  88.9005375  49.2318439
 116.5067291  69.4375038  60.1353216 115.8522034  69.9904108  59.7085667
 116.2085247  68.5429287  59.9708652 108.8056469  69.0482235  52.6879835
 109.2070293  69.0262794  53.5566854 109.2958450  68.4008217  52.1812201
   9.0998316  73.4645653  47.6450729   9.5357174  73.6946106  46.8245173
   9.3602681  72.5581264  47.8086901  82.1819019 101.3814640  24.0641332
  83.1075859 101.2395191  23.8661408  82.1489620 101.4509392  25.0182390
  20.4276919  90.0348759  48.2852840  21.3787055  89.9993420  48.1826019
  20.2536106  89.5307827  49.0801573 105.6096172 100.1572227  60.3962994
 104.9819851  99.5706272  60.8184576 105.3113937 101.0359955  60.6309271
  98.3183479 106.1647892  39.2991090  97.6701164 106.8684673  39.3288016
  98.8005161 106.3174534  38.4864330  94.5849133  96.2107658  13.8046694
  95.4947376  96.3633537  14.0599251  94.4142342  95.3034115  14.0572715
 101.0026264  84.6082878  17.4470913 101.9319725  84.3905640  17.3754561
 100.7982063  85.0584221  16.6274416 118.3968925  75.0363350  34.5619893
 118.8750267  75.4329491  35.2902222 118.1882191  74.1527939  34.8653769
   6.2956768  95.9377003  53.0831671   6.9811469  95.2747345  53.0005217
   5.7846534  95.8555222  52.2779751 116.5237999  81.1987591  42.8920221
 116.1953259  80.4946232  43.4510660 116.8078423  81.8777370  43.5040188
 118.4573364  68.5993242  54.1898775 118.2739162  68.2058716  55.0429773
 119.2263985  68.1282043  53.8692188 106.4452076 100.7512569  45.7443047
 106.5463352 101.1638737  44.8865461 106.9971943 101.2724018  46.3273573
  22.7410650  99.4356918  53.7093735  22.8542042 100.3242970  54.0467358
  21.9466710  99.4808483  53.1772709   1.9788893  83.0159473  51.6423130
   2.0575283  82.4147892  52.3830318   1.1426571  83.4602356  51.7821598
   4.9687693  89.1257763  47.9565048   4.0580606  88.8344383  48.0008125
   4.9185407  90.0794888  48.0208302  30.5790496   0.5825516  66.4036274
  30.9151077  -0.0280741  67.0597029  29.6399927   0.6329827  66.5821314
  91.4629269  85.8506298  28.8999057  91.3185406  86.6544437  29.3991780
  90.5833340  85.5455017  28.6775684 106.8884087  92.7825928  50.3707838
 105.9907341  92.7548409  50.0396633 107.1413231  93.7030888  50.3003597
  93.9390564  91.6763401  45.7448816  94.6195889  91.0167885  45.6103563
  94.2673874  92.4545765  45.2945662   8.3693212  69.3631840  68.7206984
   8.2259917  68.9425373  67.8729105   7.5003141  69.6600676  68.9907360
  99.0305996  90.7379150  67.0391703  98.4836483  91.3064766  67.5812101
  99.9183846  90.8726406  67.3707294 109.2068100  95.9980583  32.9882360
 109.5258141  96.8355560  32.6519775 109.3819904  95.3745842  32.2833800
  98.9002323 101.2342834  57.3049212  98.2717037 101.2703609  56.5838957
  98.4388733 101.6291428  58.0448246 107.6089287  91.6552448   7.9901528
 107.1088028  92.3560524   7.5718510 107.5068188  91.8152332   8.9283472
 101.8190670  59.4758797  43.8161516 101.1515522  59.8662138  44.3803310
 102.0850563  60.1866150  43.2327700 101.4562225  91.5476418  68.4147406
 101.7494774  92.0271683  69.1895199 102.1413231  91.7016029  67.7642298
  95.3081799  81.7668247  32.3806167  95.7184315  82.1576977  33.1520724
  94.4559288  82.1981049  32.3181510  97.1789455  63.1973124  41.5751028
  96.8397617  63.4227896  40.7088804  98.1238556  63.3332109  41.5051508
 110.9641171 110.4007053  42.5556564 110.1494217 110.3120518  42.0610476
 111.0644913 109.5611572  43.0043411  97.3540115  91.8285179  45.1797962
  98.3088017  91.8279648  45.1120186  97.0710659  91.1363602  44.5822287
 103.4048176 100.2834320  42.5695324 103.0297089  99.5733833  42.0486069
 103.6203384  99.8767185  43.4088039  83.2245159  84.5578098  28.6847329
  83.9251995  84.4322395  29.3246579  83.0889034  83.6898422  28.3046412
  11.5143681  78.7800789  55.7775259  12.0679033  78.8636971  56.5539503
  12.1118152  78.4921408  55.0873232  96.9584846  85.3959084  56.7499161
  97.1819210  84.4763756  56.6057873  97.3466301  85.8561802  56.0057878
  38.3804679   5.3801948  57.3223448  38.3989882   5.3304052  58.2780695
  38.5968661   6.2916523  57.1257496  97.7321243  89.8715401  43.0521488
  98.4258366  89.4613743  43.5686398  97.1796799  89.1421509  42.7710295
 114.8008060  79.2595625  74.5867300 113.9453697  79.0736103  74.1995621
 114.8180008  80.2116966  74.6835566   0.6470349  57.4769735  55.3997707
   1.2300818  56.7717457  55.6807327   1.0036324  57.7616453  54.5583248
 105.9614944  95.8489513  69.8403788 105.5546379  96.6210938  69.4473219
 106.3912678  96.1799526  70.6290293 109.6937275  90.5307770  39.3384075
 110.4877281  90.4586601  39.8681164 109.0188694  90.8133221  39.9556351
 116.6023159  65.5896854  46.2772369 117.1765804  65.2858400  46.9801760
 116.2040901  66.3889647  46.6219091   3.5743645  85.1999092  40.3216457
   3.9106652  84.4105721  39.8972869   2.9465824  85.5597591  39.6950436
  98.7973499  83.5826111  59.4938135  98.3637238  84.4341755  59.5489168
  99.1084671  83.5302830  58.5901022 118.0515575  77.4612045  69.8846769
 117.4528313  76.8901253  70.3659487 118.1977463  77.0091152  69.0537310
 108.5982513 100.3181648  53.0526638 109.0565205  99.7942638  52.3955870
 109.2436790 100.4491520  53.7472820   6.1661392  73.8983154  45.3466988
   6.0298002  73.6986113  44.4205427   5.5900538  74.6432114  45.5184269
  91.9254017 106.4885998  23.6821747  92.2419453 106.6111088  22.7871752
  92.6783657 106.1358356  24.1563487  95.6564713  88.1850338  31.1510539
  95.2923775  87.3800850  31.5194631  94.9035645  88.7692261  31.0611033
 110.2591038  79.3359995  34.3616223 111.0408592  79.5018721  34.8884702
 109.5363808  79.6676540  34.8944545  99.0912724  94.3767166  60.4133463
  98.5213566  94.2464924  59.6554089  98.9328766  95.2824783  60.6793070
 111.6480637  88.2326412  50.9665728 111.3273716  88.7000847  51.7378616
 112.2163963  87.5484467  51.3202858 109.4721699  80.3627777  43.2382202
 108.9278889  79.8000908  42.6874208 108.9414215  80.5189800  44.0193367
  79.7370195  61.4830399  49.4292974  80.3079128  61.0399342  50.0569630
  80.3357029  61.9717312  48.8645029 104.5617676  74.7512102  51.7163038
 103.9857292  73.9928341  51.6200018 104.8971748  74.6852160  52.6103830
  90.8131695  73.0432177  49.2348719  91.5375042  72.6051235  48.7880611
  90.3694057  73.5364723  48.5449409  93.4420490  93.5645962  56.6036510
  93.7844658  92.6838207  56.4512920  92.5382137  93.5276604  56.2906647
 118.0494499  79.0629148  43.7578201 118.5637188  78.6486387  44.4507360
 118.6989498  79.3463421  43.1143570 101.3587189  72.8006029  44.2806721
 101.6658115  73.6279535  43.9099693 102.1583080  72.3435068  44.5413399
 103.0835629  85.3369331  44.9540806 103.4701729  84.5607853  44.5486736
 102.3288631  85.0030804  45.4390526  77.0328140  49.9059534  45.4229784
  76.8969870  50.2242994  46.3154173  77.8484821  50.3208065  45.1422453
  92.5870514 102.3664665  42.5544643  92.9801750 102.9630756  41.9174862
  93.3249283 102.0567322  43.0796671 112.5043106  67.7480221  45.4032850
 112.0378304  68.4198427  45.9005594 111.8473625  67.0711708  45.2404118
 114.9419594  90.2032089  38.8718414 115.6544685  90.3635025  38.2530808
 114.8489666  91.0278320  39.3488932  94.4746399  95.3768253  63.7518740
  93.5516453  95.5871677  63.6102343  94.4851971  94.8868656  64.5741034
  21.4553857 109.6104527  43.4194946  21.0299730 109.4049644  42.5870085
  21.6954899 108.7579632  43.7826109 101.5842533  58.3881092  28.3983755
 101.9161320  59.2609644  28.1881142 101.8052292  57.8571177  27.6332307
 117.6021767  88.1861115  60.3725243 117.2271633  87.6867485  61.0979414
 117.3629093  89.0942001  60.5579090 118.7392712  82.0019150  41.8684340
 119.3988037  81.4106846  42.2313166 117.9128456  81.6983414  42.2440720
 113.3401394  76.9854879  49.3122864 112.7498341  76.7544460  50.0295019
 113.2175255  77.9275513  49.1951847 107.2791481  92.3834896  30.4103684
 106.9190979  91.5009689  30.3222513 108.2204819  92.2725487  30.2768660
 116.6701889  91.2451267  37.0133781 117.6096916  91.0657120  36.9763446
 116.3346672  90.9399796  36.1704421 107.2800541  83.0093575  58.5945368
 107.3376560  83.5498428  57.8066349 108.1616974  82.6536560  58.7059641
 101.0778332  76.2498283  38.0624652 101.3472176  76.2393332  37.1440125
 101.6839314  76.8598557  38.4828758 103.8948250  88.3650589  26.6792893
 103.2322884  88.8340187  26.1719799 104.7265720  88.7445831  26.3957810
 111.1529064  71.5497780  44.8013926 110.6642532  70.7870007  44.4921637
 110.8401012  72.2717237  44.2562485 117.0236874  77.8686428  57.0308876
 117.2915173  78.7873840  57.0106030 116.7891884  77.6674604  56.1249304
 118.8079739  84.8356247  42.6897097 119.7549820  84.9141979  42.5746441
 118.5755539  84.0336609  42.2216558 110.1510334  92.6397800  60.5441380
 109.7974491  93.0077648  59.7343254 109.4417572  92.0986557  60.8910418
 103.8741493  80.4300213  69.3189859 103.2918167  79.7250700  69.6021223
 103.3998680  81.2332535  69.5337152 110.0758648  84.4539165  34.4474244
 109.9242210  84.5911026  35.3825283 110.9003353  83.9693069  34.4070458
  92.3433876  87.0929337  50.7387209  91.5950775  86.7949390  51.2558842
  92.4658585  86.4101124  50.0791836 105.1094055 102.7860641  61.1456919
 104.8809338 102.9489613  62.0608377 105.4876423 103.6114979  60.8426666
 101.6498184  72.8316355  63.9648390 101.8727684  72.1979523  64.6467257
 101.1059570  72.3399115  63.3494854  17.2853577  67.8640985  37.0583391
  17.7792215  67.9191256  37.8764486  16.3702822  67.9537630  37.3244739
   2.0117798  96.6433620  49.0777588   2.1085034  95.7566071  49.4249678
   1.1721090  96.6304493  48.6183929  96.1359787  60.1841974  46.8045187
  95.9600258  59.4033766  46.2795496  96.9861794  60.0136852  47.2098827
 108.3229160 103.2239342  52.7123690 109.2467976 103.4614468  52.6332235
 108.3340168 102.3255634  53.0425644 107.9853249  92.3052120  71.8118143
 108.6007404  91.5765572  71.8927860 107.2674179  92.0792389  72.4032307
   4.3172824  82.2469521  58.5451365   3.8649648  82.5426006  57.7550507
   5.2032506  82.5991249  58.4598780  52.2358227   3.9168102  38.6016250
  51.3228607   4.1917062  38.6862469  52.7049017   4.7152543  38.3593726
 110.9433079  78.1295300  41.6632557 111.6745186  78.5164356  41.1817265
 110.1806355  78.6401510  41.3915300  23.7784004  69.4886303  49.6387100
  24.6133423  69.0267658  49.5626450  23.2012701  68.8683367  50.0841188
 107.6746750  66.0270596  61.1170626 107.1265125  65.6723833  61.8170261
 108.5665798  65.7828379  61.3642597  94.4915104  84.5096016  49.0847158
  95.1423454  83.8077641  49.0764189  93.6526203  84.0572739  49.1736269
  98.7325764  88.9503098  51.5031910  98.2578278  89.2382050  52.2829103
  98.0478382  88.6718369  50.8950615  99.1502380 111.1965561  34.8774314
  99.7198200 110.4629612  34.6458244  99.6750927 111.7274475  35.4765224
 110.8654308  99.7190094  51.2457705 111.5702915 100.2606869  50.8908129
 110.4029369  99.3919659  50.4741669  98.3902168  75.6793976  38.4194946
  99.2563438  75.7433844  38.8219523  98.5555363  75.3072548  37.5532317
  15.6620467   4.6450660  47.8837967  15.1123130   4.7214717  47.1039343
  16.4180160   5.2025396  47.6994991 113.2867146  84.4955254  41.8813229
 113.6264992  84.2781258  42.7493763 114.0065002  84.2912769  41.2843084
  92.3318005  72.3489904  70.8182955  92.6600170  71.5006495  70.5202675
  92.9260159  72.6007843  71.5252209 102.8966236  78.3867979  39.4903612
 103.0677795  79.0272188  38.7998533 102.8854752  78.9017200  40.2971840
 104.2782688  98.5501957  48.8966608 104.5008278  98.6822891  49.8182106
 103.3966064  98.1779194  48.9141703 105.4769039  86.8809605  45.0145674
 104.6321774  86.4419556  44.9147892 105.3107929  87.7841568  44.7446203
  14.3126130  81.8210220  60.4083633  14.8580921  82.4943161  60.0017214
  13.4558403  82.2356987  60.5094528 103.0507183  67.2846413  58.1378365
 103.2997513  68.0320883  57.5942039 103.5785007  67.3788166  58.9308167
  98.5949612  57.7937222  53.9927483  98.3903599  58.5309696  54.5679235
  99.1042614  58.1799650  53.2802439  99.5284176  85.0100613  68.4992933
 100.4568863  85.2158928  68.3906317  99.5032501  84.3981266  69.2349148
  17.7686501  63.0618000  44.9771738  18.6402106  62.7605391  45.2337933
  17.9189384  63.5894489  44.1928053   5.0619942  85.2852249  26.0905862
   5.8911002  84.9949265  26.4707732   4.8314157  84.5978832  25.4655790
 111.2009335  74.5240879  87.0482731 111.8022156  75.2569723  86.9156933
 111.7667007  73.7525749  87.0784950  99.8698044  84.2358685  36.9706178
  99.0370941  84.0910149  37.4198914 100.3371906  83.4052086  37.0587873
  94.0712547  80.9874821  51.3293409  94.6795559  81.0009575  50.5904055
  94.3601227  80.2478790  51.8639135   3.9952740  41.6432524  36.0674071
   3.9916444  40.7057953  36.2607908   4.9218330  41.8834734  36.0637927
 100.3613281  82.5631905  13.1345403 100.5575466  81.6988182  13.4959137
 101.2004757  82.8786469  12.7990317 118.3121872  82.7306938  59.7318888
 119.0050793  82.9270744  60.3624105 117.8034210  83.5395241  59.6754551
  95.4681492  81.6077137  43.5948658  95.9768486  81.6107273  44.4056988
  94.6389675  81.1934948  43.8338661  96.0699654  59.8922825  53.5369253
  96.2932873  60.7826185  53.8083172  95.7999516  59.9811220  52.6229048
 103.4249020  90.1381874  47.0559406 103.6746883  89.3352509  47.5132513
 102.8049946  90.5669117  47.6459742   4.9899489  81.7444992  46.5155172
   4.4870043  82.4859428  46.1785746   5.7092685  82.1450806  47.0037222
 109.4415855  76.4605284  36.1677551 108.7972832  75.8228874  36.4751983
 109.2265511  77.2649717  36.6398358  15.9568274  82.1570492  52.1472836
  15.2425086  81.5973663  52.4518156  15.9020913  82.1170139  51.1924887
  86.5849400  91.8999290  73.3462763  87.0387554  91.0608673  73.2671022
  86.8800449  92.4043083  72.5881577   8.5769606  98.2441616  51.1861944
   9.1771549  98.1270885  51.9225979   7.7796060  98.5972691  51.5808773
   0.5942013  83.5336590  53.9597607   0.8525538  83.2073689  54.8217487
   1.1917097  84.2620468  53.7904263 113.7374973  74.1355276  55.2797890
 113.4613705  73.3054304  55.6682682 113.2123566  74.7971249  55.7300568
   3.6196622 105.7606888  59.3097353   3.0981046 106.3509178  59.8536491
   3.0310050 105.0314045  59.1151524 111.5435886  76.4005709  32.7461076
 110.6449795  76.1205292  32.9202008 111.4536285  77.2805643  32.3803806
   1.1710567  86.2228489  47.9211760   0.8066661  87.0945454  48.0748320
   0.4749003  85.6220055  48.1868362 103.3853149  95.0490093  39.4681096
 103.0797005  95.4492664  38.6540890 104.2598152  95.4147339  39.6012545
 110.6742764  98.6266518  62.9224873 109.7644901  98.7875271  63.1727552
 111.1470699  99.4011021  63.2273149 104.8612118  97.5667572  36.0326624
 105.1100063  96.7413616  35.6166744 104.1222095  97.8835297  35.5132771
 107.6153946 101.5168285  71.3329744 107.8616714 101.9201565  70.5005646
 107.2392750 102.2333145  71.8442678  99.2793560  69.6734571  48.9536476
  99.9550629  70.3399944  49.0776539  99.4763947  69.0072489  49.6121120
   4.3705183 100.6952286  64.4717741   5.0877762 100.6974983  63.8379192
   4.1057959  99.7772408  64.5306206 112.2192287 104.1503811  45.9915018
 112.6925468 104.8962593  46.3601065 112.2383881 103.4890175  46.6832066
  98.0151749  89.8529243  75.6732130  98.5733700  89.3744850  75.0602388
  97.1650028  89.4172192  75.6131124 109.8569298 109.3913651  46.6381073
 110.1611233 110.0102711  47.3019218 109.4402885 108.6894608  47.1380854
 112.0921326 109.0887737  35.2919245 111.2043667 109.4440174  35.2483678
 112.6497555 109.8540878  35.4318929   4.3407559  94.0029144  54.5301247
   3.9505342  94.8195839  54.2186737   5.2746624  94.0968513  54.3424368
 111.3884830 100.7249260  64.4200420 111.5796757 100.5542850  65.3423023
 112.2386265 100.6654739  63.9842081   3.6640176  93.5533905  13.5597885
   3.1358737  93.5115814  12.7625751   4.5672575  93.6007118  13.2464981
 113.8359261  77.4989176  46.7052031 113.5034275  77.1871948  47.5469303
 114.4604206  76.8273830  46.4308262 100.4953861  98.9666939  39.1012168
  99.8353291  99.6598434  39.0911961 100.1075363  98.2743645  39.6364617
   4.8769981  83.9890766  56.3248873   4.1438898  84.5898533  56.4584923
   5.6276727  84.5599270  56.1610365 112.2882652  98.1724358  52.9209471
 111.8444538  98.8961792  52.4788427 111.8411350  97.3877525  52.6038074
 117.4416733  85.9411049  45.0702143 117.8740311  85.5250072  44.3244553
 117.7051640  86.8598366  45.0177765 114.7800541  88.9589119  41.3326597
 115.0395775  89.1704655  40.4359341 115.4449272  89.3774223  41.8794870
  99.4416809 110.2445602  56.8123960  98.7171078 110.6066322  56.3023663
  99.1828251 109.3397713  56.9873190   1.7464107  91.9354534  57.5641346
   2.5622597  92.2312260  57.1602297   1.3978870  91.2866879  56.9526863
 114.5174599  82.7341557  50.4943180 115.4412937  82.4885750  50.5438709
 114.2620945  82.5257301  49.5956612  11.1605656  76.0356808  52.3664665
  11.0790384  75.1694202  52.7654457  10.7870591  76.6336679  53.0138731
  11.1838269  75.0772905  55.2148056  12.0169783  74.6154737  55.3087139
  11.0060871  75.4303312  56.0865879  29.5905232   7.0297402  52.9565287
  29.3998957   7.8921705  53.3254528  28.9200640   6.4566439  53.3283854
 113.7009716 100.2137661  62.9824591 114.4974995 100.0751209  63.4948540
 114.0111256 100.5658913  62.1481657   0.3798237  10.8713841  43.8722610
  -0.4469134  11.3326597  43.7309694   0.4805513  10.3177261  43.0979586
  21.7664742   6.5674108  49.3065739  21.0374880   6.0200727  49.5985174
  21.9534636   6.2634730  48.4183788  15.9863752 112.5303391  38.0867672
  16.8713897 112.1662913  38.1080914  15.4163306 111.7854801  38.2777238
  94.9888992  76.1193371  46.4921618  95.7835674  75.6007195  46.3665676
  94.8093700  76.0590839  47.4304390 118.6241913 109.7702885  24.4353628
 118.0105019 109.4836330  23.7590218 119.4299889 109.9695873  23.9587021
 111.7684650  86.8306065  37.6944590 111.9858646  85.9664536  38.0440474
 112.5973511  87.3091888  37.7062297 106.6678238 104.0189838  39.4368291
 106.2198448 104.4218636  38.6930299 106.7728615 104.7312641  40.0675917
   4.8920941 111.4466000  48.8991594   5.6094605 111.7519951  48.3438683
   4.6242121 112.2219658  49.3923855   3.2372642  75.3077841  46.5823507
   3.5114658  76.2238550  46.6254568   3.2836783  75.0873995  45.6520224
   3.8563532  95.0474644  47.5378942   3.2095155  94.6428490  46.9598627
   3.3682007  95.7239628  48.0072403 116.3100529 101.1533737  74.6162558
 116.7770004 101.1554527  75.4518318 115.5199909 100.6398869  74.7846794
  27.1792245   2.6116416  52.6244688  26.5748930   3.3224127  52.4104166
  27.5526071   2.3528259  51.7819548 110.0155067 109.7382545  60.6772852
 109.8925686 110.6181908  61.0334301 109.1603279 109.5042610  60.3165102
 115.4844666  80.6130028  53.7771988 116.4366055  80.6415558  53.8712788
 115.3118801  79.7790575  53.3401918 115.1524830  78.0935574  51.8745327
 114.5442486  78.4898138  51.2506199 114.6354198  77.4221659  52.3196363
  85.7248116  63.8251591  94.8409367  85.5845737  64.7478533  94.6283436
  85.2286816  63.3480215  94.1757965  98.4027290  63.2574320  37.0418453
  99.1959953  62.9564714  37.4850059  97.9436398  63.7787867  37.7003694
  18.3302557 104.9176121  42.7453947  17.5563037 104.7715187  43.2893515
  19.0651762 104.6523190  43.2983351 113.1720543  54.5877409  49.8950386
 112.7344704  54.0245390  49.2566442 112.9404354  54.2120123  50.7443953
  12.0263696  65.8510733  49.1327238  11.4420903  66.0277271  48.3954048
  12.0793211  64.8961830  49.1729212  97.8582573  94.9470806  12.1022844
  98.6005974  95.3939342  12.5090873  97.3004341  95.6547260  11.7793310
  33.4129620   5.2207237  41.3354540  33.7792087   6.1037689  41.2872219
  33.4310722   4.9042562  40.4322624  13.2947326  70.9126663  60.4783249
  12.4765801  70.4357195  60.3391027  13.8302183  70.6977129  59.7145939
 102.6708221  67.7692127  50.6239271 102.8947449  68.2787228  49.8451567
 103.4171391  67.1831465  50.7494736   8.9107972  73.7490511  44.0006828
   8.0246526  73.9418936  44.3069363   9.4509381  74.4435835  44.3776464
 100.1833439  79.4342041  63.8728476 101.0693741  79.0949821  63.9997673
 100.0399303  79.3818903  62.9278994  98.1314087 104.7816181  32.8665090
  97.4708939 104.0943146  32.7796006  98.8777351 104.3459034  33.2780719
 110.3967476  88.5426807  60.7368898 109.8924637  89.1943741  60.2498436
 109.7515678  87.8842163  60.9945679  96.1791611  86.4099407  34.4836688
  96.1888123  85.8044243  35.2249479  95.4661560  86.0962105  33.9274049
   3.6873507  99.6413994  30.4965663   4.3867859  98.9886093  30.4667163
   4.1229925 100.4465961  30.7760453   8.7369758  87.5399017  66.5305805
   7.8648806  87.9273510  66.4559889   8.7654054  86.8789864  65.8387566
   5.6260568 106.1299992  78.5375786   4.8103458 105.8029747  78.1582355
   5.5033123 107.0779228  78.5886955 117.6217842  95.3304958  51.4085817
 117.5706387  94.5205879  50.9009743 118.3652115  95.1979733  51.9967842
  92.9500961  88.3474541  76.4484930  92.5895119  87.7894020  75.7594395
  92.5951385  89.2168140  76.2628889   4.8036158  87.0653820  44.7074270
   5.4306388  87.7139568  45.0274467   5.1795989  86.2227535  44.9620962
 101.7528534  78.0448580  53.7515163 101.1039543  77.3445702  53.6825371
 101.3205719  78.7214613  54.2726421  20.1873207  82.7497387  15.1781964
  20.5805373  83.2136250  14.4389951  20.7889056  82.0263577  15.3543949
 113.6711979  86.3208389  51.4870310 114.4851112  86.3297844  51.9907141
 113.9552498  86.3124943  50.5729914  82.9248810 109.3722153  45.6564522
  82.6921844 110.1140976  45.0981522  82.0996571 108.9066219  45.7923412
 105.4455090 102.1050072  31.0863209 105.3869247 101.1529541  31.1663342
 105.8491611 102.2490406  30.2304292 107.2452164  87.7219296  48.0382586
 106.3442421  87.9419231  48.2750702 107.4552250  86.9594574  48.5774803
  10.7131827 111.6223145  53.0592775  10.9480739 112.2448444  52.3711586
   9.7747576 111.4762115  52.9399347 112.3247719  96.1180305  55.9629679
 112.0567322  95.6739998  56.7674732 112.1457005  95.4841232  55.2684689
  54.8360491   5.2467161  56.9621372  55.3412819   6.0078669  57.2478390
  55.1559830   4.5283222  57.5078344  97.6012325 102.9423904  81.5780163
  97.1512699 103.6812782  81.1683846  97.6629829 103.1822968  82.5026035
 113.2007217  95.1293468  20.4148746 112.9777813  96.0047054  20.0981975
 114.0621281  95.2330780  20.8191562  41.4182091   7.9223698  47.0723200
  41.7896271   8.6366135  46.5544987  41.7282915   8.0858833  47.9630184
  83.7077522  89.8651028  34.1057897  82.8390789  89.6619034  34.4526982
  84.0672874  89.0162659  33.8480139 106.9684505  93.9927578  45.5357027
 107.8636169  94.1736412  45.8223772 107.0183468  93.1296825  45.1247835
 107.7443695  77.9285336  64.8218775 108.4862614  78.0739069  65.4089785
 107.7100563  78.7165689  64.2796087 105.8218098 110.7203197  43.3057642
 105.2707672 111.4466858  43.5972881 105.3700542 110.3701210  42.5379705
 105.5552197  80.7488728  42.7411413 106.1949444  80.8405876  42.0350456
 105.8447075  81.3706112  43.4088707  20.9502125 109.5956326  40.2910614
  20.0126600 109.6351433  40.1022196  21.0788584 108.7332153  40.6859398
  10.7887053  91.8124580  39.3465829  10.7400787  91.9160271  38.3962464
  11.5479207  91.2467575  39.4873261 118.8100338  65.6840849  40.1168633
 118.4230709  65.0074100  40.6723785 118.0592251  66.1427832  39.7398925
   9.0768409 112.2248554  59.1946125   9.3536639 112.0446682  60.0930166
   9.6194714 111.6483688  58.6566067   0.2984414  72.6682949  38.0994415
   0.4624251  73.5458851  38.4446597   0.3556602  72.0955229  38.8642240
   1.3310795  74.1552162  64.8270893   1.7739886  74.3277740  65.6579256
   2.0033705  74.3032837  64.1620064  23.0319548  25.4974079  43.3318472
  22.6326227  26.3298488  43.5844469  22.4164295  25.1168370  42.7053308
  23.7105632   2.9294306  40.7156134  23.4807897   3.5395998  41.4164209
  23.4308696   2.0740019  41.0415649   4.9265346 102.5570107  60.8372450
   5.3925568 103.0357265  61.5227270   4.0263486 102.4965572  61.1569977
 111.8460464  89.6636486  41.0163689 112.7759933  89.5308590  41.2002277
 111.4880276  88.7790871  40.9414673 117.7236176 102.5387669  87.1222019
 117.6399612 103.4115410  87.5062561 118.3632088 102.0930099  87.6775932
  84.0627956  92.6449203  38.3244467  83.9357853  93.5809135  38.1694937
  83.8380337  92.5221729  39.2467499  29.0822053  17.1262896  40.7448339
  29.2724109  17.4291635  41.6327095  28.6687827  16.2716234  40.8667326
 111.3515377  61.9924259  60.3880024 110.7358074  61.6074753  61.0116434
 110.9213924  62.7941322  60.0905609 112.9034424 111.9293785  22.5515795
 112.1854687 112.3751736  22.1021342 113.4123516 112.6357841  22.9493737
  10.1809144  81.8515873  52.0888996   9.6060717  81.2108231  52.5074863
  10.9413123  81.9053841  52.6678038  40.5108166   4.9054277  40.2392340
  40.1971769   4.3732315  40.9704161  41.1317730   5.5160338  40.6364775
 112.9633522  99.1691494  44.8167753 112.1176910  99.6175766  44.8181963
 113.4131622  99.5037079  45.5926466 109.8932362  91.8141460  29.8807669
 110.2873135  91.3984299  29.1138840 110.4515553  91.5475655  30.6111383
 107.8392506 112.0773125  58.5810518 107.7890587 112.7163887  57.8702116
 107.2483063 111.3737297  58.3127499   0.9531625  92.2923470  43.3518457
   1.4166038  93.0360794  43.7369680   1.0850026  91.5787220  43.9760160
  98.3613205  96.9753933  43.3629656  99.2988873  97.1306229  43.4774494
  98.1804276  96.1996269  43.8937140 104.4187069  97.9014683  61.7269611
 103.9554501  97.2824383  62.2912502 104.9140263  98.4530830  62.3324442
 103.8771152  88.8543987  19.6212351 103.5536098  89.3792248  18.8890243
 104.1056252  88.0115604  19.2292619 107.4627972  99.8507595  32.8945518
 108.0694199  99.1245747  32.7499938 106.7618370  99.7074986  32.2586584
 107.4438286  47.7220631  47.4665976 106.6749477  48.2824564  47.3616886
 107.0911598  46.8323708  47.4841881  44.6371555   3.4785146  50.9824419
  44.9038601   3.2743847  50.0860977  44.7627926   4.4242406  51.0602236
   3.8323209  96.7959023  43.1225157   3.6122251  97.1712971  42.2699499
   4.1607058  97.5362778  43.6326456 106.2040901  86.1330986  68.1353235
 107.1428013  86.2650681  68.0025434 105.9746647  85.4237747  67.5349426
   4.6634540  98.1040096  53.7715435   5.3380257  97.4253559  53.7468481
   3.8644761  97.6578712  53.4907818  98.8747787  85.8005524  52.7728796
  98.0230331  86.0943222  52.4496841  98.9222908  86.1407852  53.6663055
 116.5799427 102.2592831  27.5266767 116.5004921 101.3147354  27.3934412
 115.8189487 102.4909115  28.0590916 103.6679459  88.8333988  62.2663546
 104.0655804  89.7036552  62.2940016 102.7274990  89.0015411  62.2070360
   4.9417308  70.4411364  25.8265114   5.2844936  69.8389626  26.4869142
   5.4674459  71.2343502  25.9297776  22.4292541  84.1488934  54.5261145
  23.1413651  84.1365528  55.1656294  22.2762561  85.0783348  54.3559217
  55.2978134  16.9294274  24.1392994  55.6152582  16.3873494  24.8615265
  54.4324017  16.5745747  23.9359021   5.3017503  82.5392723  50.7370996
   5.9955096  82.4046898  51.3827085   4.6492282  81.8701172  50.9436798
 108.4539795  95.3584099  60.2675581 107.5774097  95.6035042  60.5638456
 108.3901119  95.3490639  59.3125391  48.9993238  18.6932552  31.5710425
  48.5255051  17.8956795  31.3352370  49.8766994  18.3903396  31.8048882
  41.9411182  99.7094536  51.9989252  41.5552330 100.0788212  52.7932119
  42.8494549 100.0111198  52.0112944   5.0170600  89.7514153  36.0149431
   4.0687713  89.8193359  36.1261487   5.1568860  88.8624668  35.6886554
 117.6204014 105.1302719  48.6606932 118.3783531 104.6827984  49.0368509
 116.8851852 104.8595142  49.2105770  24.8666954  19.3239963  40.6360340
  25.3243446  19.6378016  41.4159775  25.5302787  19.3397820  39.9463654
  37.1322012 101.2511349  44.4828081  36.5954065 101.2390614  43.6903811
  36.5012622 101.3297176  45.1983309  12.6784408  91.0313034  41.9260550
  13.4377599  91.5935612  41.7726755  11.9632864  91.6399193  42.1114445
  13.4823120  99.5935249  54.2151165  13.1856084 100.2348423  53.5694313
  14.1730237 100.0444794  54.7006941  45.4507351  23.2927656  37.3374271
  44.6010494  22.9219747  37.0991516  45.5861568  24.0034819  36.7107058
  27.3941660 109.3990993  32.4430132  27.6189446 109.8490334  31.6286063
  26.9657445 110.0687122  32.9762173 113.2616138 100.7582188  30.3994536
 112.4957085 101.1759853  30.7932639 112.9139137  99.9763393  29.9705052
   4.9891067 107.4149990  38.5891914   4.3116558 108.0546188  38.8086772
   5.6359249 107.9131222  38.0894589   9.8025042 109.0682793  30.1841974
   9.1501087 109.7074318  30.4707265  10.5493617 109.2113018  30.7655597
  38.4394121  13.7823963  51.6028833  38.3304334  13.4587884  50.7086658
  38.8099074  13.0413568  52.0822859  82.9267788   9.1249025  26.0877347
  83.6624718   8.5876405  25.7938933  83.3201885   9.9687076  26.3101125
  16.4310801  98.7076950  25.2002597  16.0459542  99.0720844  24.4033074
  17.0070446  99.3994141  25.5258679  53.6067963   0.6991281  15.1422024
  54.1111088   0.2802169  15.8396363  53.3652830  -0.0187548  14.5569289
  84.3440056   2.0685858  54.4052315  85.0152588   1.6501859  53.8661766
  84.1425037   1.4218938  55.0815630   0.5555428 110.2982903  33.8012862
   0.1460445 109.6490192  34.3731117   1.3571259 110.5498314  34.2600036
   4.1175514  81.9643784  20.7032800   4.8188534  82.4754238  20.2992535
   3.5156962  81.7730236  19.9839842  23.6533284 101.3893890  40.2294874
  24.2455053 100.8496571  39.7058082  23.9459896 101.2599659  41.1316156
  26.2503576 110.2214050  39.9373007  26.5406132 109.3117809  40.0048304
  25.6796193 110.3475952  40.6953049  91.0549736   4.7092116  31.6314697
  91.9875050   4.6485683  31.8387127  90.6744385   5.1774621  32.3745465
  74.3740368  12.5311685  44.7755289  74.5188856  11.9250536  45.5020809
  74.9131203  12.1854711  44.0641117  66.6445303  11.1400950  26.9988704
  67.1018791  10.7921803  26.2333512  66.0699081  11.8195748  26.6462421
  30.5367684 104.7172737   9.8018461  30.1396084 105.5239487  10.1301396
  31.4212990 104.9744511   9.5416617   8.7081671 104.7842216  30.7346296
   8.8547307 105.3627110  29.9862361   9.3376023 104.0731430  30.6145835
  68.5168839   5.8151817  34.6973228  69.2371941   5.8906668  34.0714717
  67.9882050   6.5993738  34.5497537  55.4834986   8.5639167  25.5489945
  55.0977135   7.9355568  24.9386120  54.8678541   9.2967933  25.5592442
  25.0742316 106.8265438  45.6871033  25.9480143 107.2147274  45.6418562
  25.0288630 106.4400005  46.5616083  10.4591715 102.5542927  30.6167698
   9.6370387 102.1353054  30.8712935  10.9692121 101.8537045  30.2102351
  21.3355231  92.3556137  33.0651140  21.6338873  93.0498695  33.6526608
  20.8652377  91.7461014  33.6339450  59.9841833  11.0774112  25.7833314
  60.9211063  11.1108255  25.9764361  59.8063946  10.1513433  25.6189489
  51.3365936   7.1817499  42.9343843  51.6715813   6.3156629  42.7022076
  50.4442406   7.0193142  43.2402468   3.0814648 104.9594498  49.6974516
   2.8132337 105.4785442  50.4556179   4.0149775 105.1460266  49.5975780
  54.2080641  17.4871302  49.4613981  53.5396671  18.1663513  49.5515823
  53.7120676  16.6733086  49.3724489  48.9908457  25.7410669   7.6592875
  49.0151119  24.8454714   7.3223138  49.9016523  25.9401321   7.8761590
  58.1224060   8.5225564  40.7566071  58.2413197   9.3530357  41.2174702
  58.3934879   7.8568774  41.3887596  46.0961342   5.8531505  51.9881916
  45.8969259   6.4353251  52.7214146  46.4905930   5.0817770  52.3951483
  63.9288807  28.2261777  26.7755079  64.0177822  28.1180835  25.8285952
  64.2148829  29.1243625  26.9419432  37.4860835   6.3187355   8.8091099
  36.7762852   6.3245457   8.1669378  37.0540738   6.4935070   9.6452045
  61.3594294  30.5798101  46.7613602  61.7067099  30.9289002  45.9405279
  61.8893719  30.9953427  47.4415970  58.4794474  15.0665247  44.4309378
  58.6395359  15.9313011  44.0530920  59.2922068  14.8507440  44.8882008
 116.9036770 108.4027100  40.5835247 117.6276207 109.0111923  40.4355955
 116.6790676 108.5176373  41.5068769  77.7853060  20.6654310  15.1921666
  77.1458387  20.7780123  15.8954692  77.3075294  20.1987457  14.5064807
 101.8829155  56.5189314  93.4890270 101.1879349  57.0888710  93.1597805
 102.2116566  56.0682106  92.7112007 116.4180279 107.1962643  23.3065271
 117.1909904 106.8924713  22.8306437 115.8443642 106.4309788  23.3450270
  65.4111052   0.2858999  14.7733819  65.0831652   0.0197162  13.9144087
  66.3392019   0.4702234  14.6288371  76.8120956  19.4284844  26.8467498
  77.2622776  19.9562836  26.1872053  76.0830164  19.0261447  26.3747358
  48.0178213  15.1984060  42.1790075  47.8564644  16.1296320  42.3307133
  47.9811096  14.8038995  43.0503559  74.8140287 105.8897972  45.4940510
  74.9044466 106.0480404  44.5543623  73.8906717 105.6665897  45.6115913
  29.4563556 103.7617397  18.6230087  28.6788702 104.2528248  18.8886881
  29.6867299 103.2427311  19.3935871  43.0914593   7.9876125   2.6629162
  42.3409224   8.5047770   2.9552644  43.0664539   8.0478573   1.7079413
  68.1211758   5.9935039   5.0619501  68.0599356   5.0690705   4.8213187
  67.6673031   6.4551091   4.3568584  34.6913195   2.3061898  48.2651663
  34.7960353   2.2900569  49.2164850  35.4758644   1.8718067  47.9304504
  42.5280333  10.6406260  54.6534538  42.5244474  10.7285142  53.7003040
  43.1871605  11.2684822  54.9493980  54.1547918  17.0276344   1.7903844
  55.0954247  16.9083321   1.6592075  53.7484741  16.3845122   1.2094095
  51.5792704  17.9029977  32.6014638  52.4056053  18.2680547  32.9179025
  51.7258263  17.7527606  31.6675591  34.9872446   4.4428819   9.3306136
  34.4126606   4.8725706   8.6970103  35.3490996   5.1602900   9.8508245
  34.4501781  74.5403576  34.4110250  34.7502851  73.7017679  34.0604043
  33.8080120  74.3040752  35.0803709  60.3629303 111.1839485  45.6202221
  61.1101341 111.2965584  46.2077904  60.4947996 111.8406963  44.9364662
  32.7912092  79.7348881  42.6759911  32.2437310  79.6012449  43.4497070
  33.6152244  79.2958689  42.8869200  30.0049257 106.3422585  38.4635043
  30.8265948 105.8669186  38.3404374  29.7321105 106.5822506  37.5779510
  78.8551235  35.6229401  10.0665426  78.1236124  36.1921048  10.3056526
  78.6074591  34.7611284  10.4014659  44.0616655  88.4447479  40.3844309
  43.6810780  89.3021584  40.1940727  43.3444309  87.8272247  40.2413273
  61.1620712  38.6978960  30.1117682  60.6287670  37.9040003  30.0723982
  60.6255913  39.3680573  29.6883273  41.8147755 101.9807529  39.1821265
  42.6926613 102.1735191  38.8529015  41.9350672 101.2244892  39.7564340
  58.8776684   5.9995812  42.3570728  59.7121143   5.6971651  42.7155113
  58.6487341   5.3445160  41.6977501  30.0936604  99.2146301  55.2004766
  30.5832672  99.8725891  54.7069168  29.5590448  98.7703705  54.5424080
  42.0370197   7.8835684  36.5699768  41.5760231   8.6157852  36.9793320
  41.3487387   7.2493923  36.3691688  60.8808994  22.6049852  31.3212085
  60.6838751  23.3138680  30.7089186  60.0390959  22.1731710  31.4665842
   0.5996921  87.8390026  51.2730885   0.3426883  88.3107853  52.0653057
  -0.1575746  87.2922897  51.0636091  71.1584949  18.6203361  43.0470610
  71.2953043  18.2145989  42.1909714  70.6039286  18.0000138  43.5202312
  35.2672601 103.4196091  42.3309278  35.5450559 102.5877571  41.9474220
  35.9836841 104.0239811  42.1367455  56.7728710  39.4291520  32.9924917
  56.3061333  39.6906996  33.7862039  57.6525974  39.7901535  33.1020045
 103.8649082  66.2583637  96.2900257 104.3857670  66.1937761  97.0905018
 103.0788326  66.7366838  96.5536976  64.6222544  16.0310543  35.3993773
  65.2709723  15.6732035  36.0054612  64.0144825  15.3079271  35.2446795
  45.0319958   5.1577038  35.9509277  44.9721193   4.2058837  36.0326886
  45.6728220   5.4151899  36.6137099  67.5910044   8.2725257  33.7546515
  67.2446346   8.9863992  33.2192588  68.2994175   7.9008919  33.2290387
  71.4408922   4.3754220   9.8097193  71.0147333   3.6295566   9.3874568
  71.8875027   4.8314518   9.0964121  61.9239283   9.0344656  44.7254181
  62.8671026   8.9324898  44.5979309  61.6569614   9.6579272  44.0499544
  17.4437428 111.0243702  45.7099771  18.2550156 111.1453629  45.2165890
  16.7718935 111.4444065  45.1729298  11.0961652  87.3534203  27.7750230
  11.7229891  87.6085758  27.0981026  11.3269639  87.8933716  28.5309458
   8.3127105 110.0009251  40.6492805   8.2367921 109.5992374  39.7837663
   7.4648213 110.4210472  40.7935572  62.7387762  17.7453458  45.2439070
  63.4255457  17.8485453  44.5851707  62.4225473  18.6349285  45.4016161
  75.1451015  21.2654519  60.3469849  75.0180006  21.7272425  59.5182323
  74.3885660  21.5139890  60.8781290  16.1977971  98.9632988  20.5720496
  16.1017430  99.9142933  20.6233525  16.1988926  98.7729454  19.6339715
  76.9810629  28.9644289  24.9074435  76.6971684  28.2238483  24.3715549
  77.0959377  29.6813273  24.2836738  14.3607521 106.9859409  35.6079626
  15.3168488 106.9504261  35.6370974  14.1310632 106.5743256  34.7748661
  62.4268436  24.7331071  24.7197437  62.9342604  24.6810436  25.5297136
  61.8593979  25.4943609  24.8411083  72.7151918   3.7554368  16.7134130
  73.2532740   3.4172720  15.9976280  73.2143307   3.5528341  17.5046420
 108.2326984  99.5794964  47.4424124 107.6851273  99.6610069  46.6615391
 108.7920380 100.3560734  47.4248457  78.7611580  57.1551037  29.7331738
  79.3700552  57.2552204  29.0014243  79.3177795  56.9312048  30.4790115
  47.6808786   8.2399946  55.0204611  47.0730591   8.1730276  54.2840433
  48.5463047   8.1252283  54.6279144  78.4356546  38.0833983  32.2194409
  78.7071228  38.0343890  33.1360316  77.9680204  37.2628117  32.0639396
  63.1192970   6.3583678  49.4557285  63.6239290   6.1970037  48.6585236
  62.3417759   6.8292660  49.1558218  62.6095009  13.0512071  28.9377952
  62.6528120  12.2431648  29.4490910  61.6823244  13.2889760  28.9437008
  16.4003527 112.1865177  27.3924708  15.8535421 111.9903660  28.1532311
  17.2973943 112.0733166  27.7066922  59.8775911  26.8036151  63.1490850
  60.1504755  27.6375675  63.5315704  60.0312805  26.9090247  62.2102022
  43.3932686 108.8223553  34.5763803  42.8994703 109.2401886  35.2819395
  44.2561150 109.2353249  34.6107650  48.2638597   8.3100802  36.3127303
  47.6001740   7.6484543  36.1177897  49.0142584   8.0631107  35.7722259
  54.1201496  25.7674313  36.3830614  54.5657444  25.9568715  35.5573559
  53.2167149  25.5780721  36.1297297  33.6306596 108.6960793  53.2008886
  33.9183402 108.1337357  52.4816895  32.7675343 109.0088081  52.9298830
  28.1089091 107.3137951  19.8659360  27.4777222 107.0591450  20.5389810
  27.7798057 106.9088745  19.0634644  40.5118561  12.3172557  16.1778188
  40.8275747  12.6622081  15.3426170  39.5784616  12.1605909  16.0347784
  28.2674265 107.0658779  50.9107876  27.4762440 107.1510029  51.4427805
  28.9796686 107.0108128  51.5478992  54.5100164  27.8306842  40.9230852
  54.6063614  26.8947864  40.7468939  54.7462463  27.9262710  41.8457365
  46.2943792 109.2614937  14.6691036  45.8116245 109.9663544  15.1007771
  45.7298136 108.9936256  13.9440227  57.1695662  33.3629203  29.3509340
  56.7646027  33.1670785  30.1958513  56.4573050  33.7211800  28.8212514
  69.9872684  18.2549548  18.5019267  69.9354029  17.6017535  19.1996872
  70.9239769  18.3436477  18.3260131  20.1893473  90.3894520  58.2616282
  20.1314783  91.0488892  57.5702333  19.2912602  90.0764751  58.3698750
  59.2035532  13.6246097  37.2804475  60.1452923  13.5449016  37.4321151
  58.8110018  12.9770577  37.8659511  38.4492326  18.7334120  14.0736604
  37.8198552  18.0844605  14.3882704  39.0395737  18.2386541  13.5053802
  32.8321218  18.5424221  41.1330891  32.0782256  19.0098298  40.7733631
  32.5235796  18.1998694  41.9719505  45.8188295  20.7052851  38.5451651
  46.4644003  20.1252818  38.1413531  45.7514191  21.4454699  37.9419947
  58.6668587  18.6278069  39.2542505  57.7285147  18.8107455  39.2064786
  58.7670183  18.0942142  40.0425911  47.4705648  16.1113560  29.7689652
  46.5480089  16.0202193  30.0073290  47.4834919  16.0075414  28.8174987
  28.9533997  11.1121356  28.8092709  28.9558887  11.9964671  29.1755843
  29.8639941  10.9533262  28.5606146  57.6844549  21.5773439  39.5450139
  58.3647060  21.1105871  39.0595937  58.0683088  21.7299461  40.4084921
  34.4924545 108.2046890  43.9512587  34.6457100 108.7407112  43.1731606
  33.7913966 108.6576462  44.4198513   5.9400547 110.9542847  26.2912512
   5.5972928 110.3627014  26.9611621   5.5766428 111.8100739  26.5188098
  75.2419615  15.3047907  18.3855665  76.1414146  15.6301975  18.3491266
  75.2059984  14.6243739  17.7132785  71.8812466   9.6698493  29.2636728
  72.5524616   9.5649797  28.5893559  71.8366718  10.6143737  29.4124007
 118.6369228 109.5593452  48.3584261 117.8951073 109.2744350  47.8247929
 119.3728256 109.0329075  48.0461121  15.8381772 111.6687965  34.5976233
  16.6246510 111.2381840  34.2625618  15.1637399 110.9900761  34.5710468
  70.0993681  25.3383422  51.4703703  69.6473265  25.1484752  50.6482744
  71.0260105  25.3696156  51.2324905  66.1648130   3.5312566  15.6164014
  65.5141640   2.9677626  15.1976430  66.6715479   2.9396206  16.1726558
  83.6486816  13.5156429  24.9657869  83.4523678  13.8129032  25.8542275
  82.9435062  12.9030049  24.7568989  70.0770521  26.5056729  23.4853220
  69.6629238  27.0454764  22.8120184  69.6035528  25.6745100  23.4506965
  68.7889671  32.1416163  49.7702026  68.9301920  33.0840087  49.6797419
  68.5157061  31.8556190  48.8985586  77.5249624  33.0936885  18.4191620
  78.0848026  33.8093233  18.7202871  76.8003416  33.0771232  19.0443707
  66.9524813  51.7676401  24.1764164  66.7994928  51.2843370  23.3644772
  66.6262341  51.1883593  24.8650599  68.3486462  29.0062809  28.3375049
  67.9207325  28.7698960  27.5145555  68.4854269  29.9514914  28.2734609
  73.9761639   8.3350825   2.2317249  73.2145882   7.7717286   2.0943707
  74.2836523   8.1121349   3.1103468  87.8247166  19.1582870  43.5423422
  88.0330563  18.9570379  42.6300240  87.4300480  20.0297856  43.5112619
  82.7409172  10.7782805  46.2242174  83.0731964  11.1553526  45.4095793
  82.1377850  10.0908804  45.9414577  11.1094272 109.3662930  41.5560675
  10.2972496 109.6514988  41.1374283  10.8227539 108.8887310  42.3345232
  82.7156258   5.6021291   6.7299300  82.3948193   6.0865355   5.9692299
  81.9247246   5.2618003   7.1481347  83.2383442  56.8942404  14.5959342
  83.6176205  56.0438013  14.8176134  83.8723087  57.2907925  13.9983857
  75.6003571  28.7748718  36.4136839  74.7213268  28.9545703  36.0801363
  75.7968521  27.8898907  36.1063910  50.9186697   3.5245553  21.3890648
  51.0656452   2.5823015  21.4714527  51.6467047   3.9231190  21.8658710
  53.2911158  16.4187968  46.3638353  53.5859680  15.7949567  47.0272493
  52.9754686  17.1704841  46.8653965  51.0891438   9.9450523  21.8719959
  50.8928680  10.8630228  21.6848159  51.8798113   9.9742138  22.4107265
  53.3184385  13.1300569  16.4772809  54.1479111  12.9041672  16.0563517
  53.4953833  13.0484211  17.4144340  92.7273083  25.6888413  55.1396561
  93.2575893  26.3356566  54.6741867  92.9556084  24.8535991  54.7316408
  83.5659981   8.5040760  40.8178139  84.2629433   9.1592485  40.7824373
  83.8669777   7.8690821  41.4677572  71.7329454  30.9824371  50.0125504
  70.8067131  31.1798024  49.8733568  72.1446085  31.8380785  50.1335478
  47.7167368   9.5252419  41.1204958  47.6796675  10.2436221  40.4889965
  48.6509657   9.4022149  41.2887430  73.5137558   2.3289229  33.7615824
  72.9469252   1.9000572  34.4026828  74.3973589   2.2222628  34.1138673
  78.1450796  16.6053295  10.3086758  77.5649261  17.3101819  10.5964947
  78.0355024  15.9204924  10.9683907  34.1601515 108.2893467  24.0163493
  33.3197045 108.4041691  23.5728478  34.7837639 108.1250763  23.3089900
  55.0722647  22.5200629  28.0604243  55.2488041  23.1543684  27.3656416
  55.7320786  21.8379831  27.9353404  75.3257799  12.9267240   9.7052443
  75.3400469  12.8242409   8.7536532  75.8192396  12.1754968  10.0344694
  69.4300461   6.7785197  43.6599159  69.6428967   5.9435791  43.2430220
  69.9630833   6.7920691  44.4548512  42.0889854 102.6706219  51.5631676
  42.9728699 102.8060627  51.9046926  41.5450954 103.2852554  52.0557499
  61.9678020  15.7799220   2.0090774  62.2593069  16.2227440   1.2121056
  62.6875067  15.9025550   2.6281250  77.0480061   2.2305660  46.1437130
  76.5033054   1.4481270  46.0581446  77.1775055   2.3302802  47.0868587
  70.5937099  34.6324921  47.9446936  70.7838535  35.4174089  47.4309015
  69.8151922  34.8613429  48.4524059  62.4216413  18.4359288  42.0096731
  62.8880930  18.6391449  41.1988974  63.0348921  18.6741185  42.7049541
  55.3702879  27.9529572  43.8002586  55.0311899  28.8455176  43.8679647
  56.2683392  28.0125690  44.1261053  38.6837220  16.5274203  25.8238196
  38.5800433  17.2844517  26.4003491  38.9214945  16.9028056  24.9760103
  82.7838707  11.0552526  28.0855846  83.5926342  10.5537760  27.9823542
  82.3657417  10.6786776  28.8599157  65.2410746  11.2810683  39.8786259
  65.2926636  11.0304821  38.9562511  65.4881144  12.2057724  39.8897791
  66.9433117  28.0115747  13.3287466  67.6943254  28.4213424  12.8994417
  66.3918400  27.7075529  12.6078582  89.7951031  10.6273925  40.6275129
  88.9884281  10.8818805  40.1794720  90.4181767  10.4576254  39.9209785
  30.7224178  13.4494114  33.9078379  29.9100637  13.9556611  33.9034009
  30.8236670  13.1510937  33.0039644  75.8269978  33.9266658  29.3635535
  75.0970173  33.3183551  29.4789624  76.3104296  33.5810566  28.6131692
  71.3359833  13.7161851  38.8015985  70.4838276  13.4762573  39.1656041
  71.9668579  13.4389794  39.4659638  64.2168188  24.8779416  29.8916316
  63.8288307  25.1161766  30.7336164  65.1470137  24.7569060  30.0822306
  54.0167856  41.3805676  45.7309389  54.0759945  40.4334736  45.8563900
  54.8985863  41.6427374  45.4665041  65.0594854 102.4837589  25.4504085
  64.1787243 102.3906422  25.8134818  65.1070881 103.3973408  25.1687431
  19.1214561 104.0080166  36.1806321  19.1387200 104.1830063  37.1215439
  18.5151279 103.2735825  36.0846877  54.5822477  10.1038206  36.3732576
  55.4362631  10.3617775  36.7201805  54.0823221   9.8340499  37.1436667
  59.2554760   5.7813352  47.2623777  59.9002552   6.1199570  46.6412306
  58.8169527   6.5616137  47.6016378  78.9756346  29.1261077  29.3784928
  79.4791222  29.3082476  28.5850477  79.6266603  29.1245413  30.0801969
  75.1956034  13.2518625  41.1928463  75.0514936  14.1438901  41.5086794
  76.1169910  13.2353592  40.9339809  64.4223309  31.6577506  32.3290372
  64.7585773  32.1841383  33.0543566  65.1800871  31.5220237  31.7601681
  73.0835342  22.1837997  61.9466877  73.4830236  22.2090292  62.8161716
  72.2207069  21.7951918  62.0907211  47.4072933  36.2126350  24.1259456
  47.7904367  35.3592038  23.9232421  47.6657915  36.3821530  25.0318575
  70.6890869  40.2676535  33.2196379  71.3336706  39.5843863  33.0355310
  71.0304880  41.0445738  32.7768421  76.2564707  28.9217973  30.0032425
  75.7220888  29.0159106  29.2146945  77.1562624  29.0378952  29.6980691
  47.6430655  12.8520525  51.3992357  46.9663620  12.1903610  51.5422869
  47.3155117  13.6308002  51.8492270  61.7180729  29.8401451  32.0429063
  62.2834396  30.4515934  31.5709662  61.7751122  29.0261889  31.5424538
  64.7432756   8.2676101  38.9762211  63.9281178   8.1747037  38.4831476
  65.2172470   8.9667284  38.5258722  75.0592709   3.7222579  25.1933575
  74.3897390   4.3832040  25.0169945  75.8776760   4.2165950  25.2389550
  69.3323040   1.6652811  32.3925018  69.2575645   2.5754881  32.1058512
  68.4670067   1.4524396  32.7420640  80.6084728   0.4864003  37.2324324
  79.7579336   0.5788375  37.6617098  81.2418079   0.5013191  37.9499960
   9.3486404  87.8876019  95.2640533  10.0731575  87.3091412  95.0259399
   9.0704876  87.5803757  96.1268806  45.5524254 108.4700680  39.7256899
  44.8148537 109.0400887  39.5082307  46.1434174 108.5468197  38.9766455
  71.6363907  12.5093460  29.6306801  70.9329271  12.9490411  30.1082110
  72.4371052  12.9326499  29.9403691  41.9400787 110.0087929  31.0271668
  42.3808479 109.1896152  31.2527847  41.0579109 109.7426224  30.7680011
  61.4357424  17.1028221  25.9044290  62.1060467  16.7646384  26.4981961
  61.1296034  17.9077160  26.3223505  63.5319805 104.7509193  46.2366962
  63.3181477 103.9801788  45.7108879  62.8111410 104.8214149  46.8625212
  39.6095681 110.5949211   5.6986475  40.0106812 110.2513123   6.4969438
  39.3007636 111.4675808   5.9422344  74.8149395  14.8590827  30.5534554
  74.5067978  14.2037690  31.1794329  75.7242632  15.0212359  30.8045816
  62.8921795  23.1050491  13.1029987  62.9161692  22.3602414  13.7037635
  62.9632425  23.8727379  13.6703014  90.0602818  24.7143936  10.8853674
  90.4183388  24.2953706  11.6679573  90.8177662  24.8422885  10.3143227
  47.7068567   3.6319402  53.1897354  47.5517464   3.2123962  52.3434734
  48.6080885   3.3978072  53.4115314  41.1518240  99.2419147  47.3836660
  40.1948214  99.2320728  47.3670340  41.3753223 100.0629044  47.8221321
  85.0529289  43.8411903  29.5073605  85.1918411  44.7860289  29.5722342
  84.4110966  43.7411785  28.8043118  10.2024043  91.2284184  22.6890588
  10.9873366  91.7181683  22.4435806   9.7030699  91.8347740  23.2360744
  73.7431526   7.6234365  16.4413071  73.7234735   6.9032317  15.8111084
  73.9756250   7.2085357  17.2719967  53.7120533 108.1699181  50.1377153
  53.2653236 108.9480305  49.8042345  54.5033455 108.5089397  50.5562305
  52.6435995   5.7450765  21.7586756  52.0532036   6.4922655  21.6618371
  53.1588411   5.7408160  20.9519911  32.8855991  87.9116631  43.1461430
  33.7936068  87.8581333  43.4442854  32.6477242  87.0078373  42.9393673
  84.9561691  21.6054177  36.7843294  84.0703773  21.5377712  36.4279127
  84.9641514  20.9969401  37.5231957  77.1213818   9.1058457  31.4158320
  77.3341465   8.4491420  32.0789313  77.8341913   9.0438670  30.7799935
  76.2884808   7.4093169  43.3216572  75.9209871   6.5537995  43.5436249
  76.8695593   7.2355562  42.5811243  42.1409559 111.7634296  33.0696058
  42.1614408 111.1564350  33.8094497  42.0386600 111.2014675  32.3015118
  59.3229342 105.4122543  37.8782845  60.0391674 105.8919907  38.2943392
  59.4932938 105.4938412  36.9399071  71.7967415  26.7647576  39.5888829
  72.2645569  26.4601874  40.3664541  71.7418861  25.9933209  39.0248728
 108.0237770  20.9755325  35.3057289 107.4123859  21.5361977  34.8281431
 107.6709843  20.9392476  36.1948037  64.8817682  29.8858595  52.3872757
  65.7205200  30.3185868  52.2276449  64.8598480  29.7478676  53.3342266
  86.0972786  32.6004910  38.2609034  86.8412018  32.6375604  38.8620949
  86.1798096  31.7498183  37.8298831  76.0917854  19.1398144  13.7327623
  75.1353455  19.1439939  13.7706113  76.3609505  18.6801696  14.5280671
  65.7331133  68.0148840  39.0813732  65.7403851  67.4301863  39.8392034
  64.8054981  68.1241035  38.8720179  61.4014101  27.5258255  30.7951784
  62.0572376  27.1145058  31.3581491  60.6721973  26.9058561  30.7844710
  83.7469769  17.8358817  36.0463357  83.2252979  18.0658996  36.8152189
  83.3516598  17.0266974  35.7220221  86.9247150  20.3286290  55.4148626
  87.2260380  20.9780645  54.7795105  86.0588741  20.6378770  55.6811666
  72.5387955   1.3594338  30.8116770  71.7007637   1.7883795  30.9847236
  73.1902361   2.0512560  30.9267402  92.9033947  46.9800854  32.6478601
  92.0121956  46.7584372  32.3779297  93.1221199  46.3262892  33.3118963
  76.3634777  21.5198827  24.6063399  75.7351494  21.5385985  25.3282022
  76.9803810  22.2235966  24.8074675  85.6936550  44.5051908  46.2418318
  85.7046986  45.4619741  46.2677765  84.9228382  44.2887020  45.7172298
  17.3391485 112.1522522  19.6656477  16.7229104 112.3906994  20.3581977
  17.7211392 111.3251591  19.9592841  69.5346689   7.1744579  52.2831535
  69.0096235   6.7317581  51.6163874  68.9185333   7.3530686  52.9935837
  29.4783258 110.6729126  25.9172559  29.7734952 111.4769173  26.3446736
  29.8393130 109.9688530  26.4559698  75.2189493  15.8098757  35.5585098
  74.3983984  15.6201243  36.0133958  75.7531643  15.0268352  35.6915259
  69.5455837   2.8485543  46.4974213  69.0369701   3.1759381  45.7555580
  69.3941593   1.9034176  46.4931870  26.3106871 109.7730541  36.9757056
  27.1731353 109.3586636  37.0020556  26.1605501 110.0708866  37.8729200
  84.0231419  45.6081295  18.2427549  83.4146500  44.9243069  18.5226631
  84.7231579  45.1359463  17.7919137  72.3988104   4.3397444  21.9957829
  72.3753595   4.5742607  22.9235148  72.2219229   3.3991319  21.9819641
  90.1678753  30.1668739  51.0484505  89.5222473  29.6019053  51.4729595
  90.4070091  30.8046889  51.7209387  74.0998220  19.5632815  41.2552214
  74.6799755  20.2722812  40.9777880  73.9630747  19.7175801  42.1899509
  26.2940121 100.3980923  50.7973957  25.6724572 100.7026482  51.4585638
  25.7680440 100.2930450  50.0045776  81.3139153  20.2619863  43.4285164
  81.6393948  19.6578825  42.7611732  80.5296326  19.8363364  43.7748575
  80.8301449   7.7156043  19.1711056  80.8905602   7.0754659  19.8801923
  81.5480328   8.3263630  19.3379939  91.7654419   8.6511874  22.3896503
  90.9548473   8.5474193  21.8912530  91.4829159   8.6765796  23.3038521
  89.3320084  10.2148819  52.9808617  89.0778255  10.5940449  52.1395206
  89.5222092  10.9707236  53.5365248  32.6137328 104.4016933  40.1678705
  32.9138970 104.7627068  41.0020208  31.6762543 104.5938873  40.1471949
  64.3791485  33.1380033  24.0473723  64.7890186  33.0019164  23.1931353
  64.6891689  32.4063611  24.5810580  72.9688406  33.4727645  10.1474321
  72.1466208  33.8666630   9.8558348  72.7147579  32.6180768  10.4955482
  48.4159660 111.4266586  39.8331523  48.6548424 110.5144310  39.9975514
  48.9254427 111.6722107  39.0609026  65.7037354  23.9815259  45.3773403
  65.8752012  24.3547773  44.5127535  65.0828266  23.2718134  45.2129793
  59.0910578   9.5156097  50.1879025  58.2688475   9.8539561  50.5424786
  59.7382259  10.1881516  50.4002523  86.2308502  20.1954818  27.8404093
  85.7097816  20.9229517  27.5005484  85.9241104  19.4320655  27.3511887
  71.4842176   3.2956055  48.2731676  72.0270681   2.6836056  47.7761745
  70.7245255   3.4518966  47.7122164  59.0244055  28.5398698  50.7345104
  58.5823822  29.1872334  50.1851749  59.9560881  28.6751699  50.5616188
 114.2949581  81.2744808  94.6881485 113.6781788  80.5717659  94.4832039
 114.5986366  81.5831470  93.8344955  37.1774483 110.4673195  44.1735458
  36.9271064 110.0621223  43.3432627  36.8130517 109.8876381  44.8424387
  71.5719080  31.7189670  41.0812712  71.6786814  31.9477034  42.0045853
  72.4349689  31.8698335  40.6957865  45.0106907  36.9203568  25.6638002
  44.4564629  37.6806688  25.4877639  45.7689762  37.0391488  25.0918531
  68.9344311  31.3382530  40.0151062  69.7362423  31.7737818  40.3043270
  69.1305256  30.4040122  40.0856352  76.9297600   2.1261846  49.1212940
  77.1573687   1.7577739  49.9749327  76.0305357   1.8364386  48.9674377
  81.1729145   1.3605775  34.7676539  81.0725307   0.5407609  34.2838597
  80.8888626   1.1500812  35.6571698  60.1060820   2.8920144  38.3685493
  60.6175280   3.5010287  37.8358650  60.4282904   3.0247539  39.2600608
  86.5877151  28.7123728  23.2415104  86.2574291  28.1171656  22.5685525
  87.5089073  28.4725928  23.3421445  65.3007412   9.5122886  22.9883409
  65.5379105   9.2618608  23.8812399  64.3666029   9.3136096  22.9239821
  72.4552774  10.5957460  37.8524828  71.8124723  10.0478852  38.3029079
  72.0323086  11.4514148  37.7806401  57.9021072  18.4588742  35.6880426
  58.1343699  17.7256656  36.2578607  58.7302923  18.9128280  35.5322504
  86.1211014  26.6457796  48.4585667  86.3405228  27.5383997  48.7256193
  86.9655800  26.1990118  48.3995390  73.6636496  22.7705431   3.9757991
  73.2455063  21.9354773   3.7659058  74.5188618  22.7242923   3.5483533
  41.2845516  28.5721159  37.3097825  40.4316759  28.1576419  37.1792293
  41.2062120  29.0213680  38.1513691  41.5842819   0.6013362  42.8787374
  41.4284849  -0.2999390  43.1609821  41.4556694   1.1255057  43.6692667
  61.2074804  13.7058604  40.4512262  60.7529736  14.2509902  41.0934782
  61.5719366  14.3293357  39.8229885  97.8186131  20.9264565   0.1942341
  97.0649719  21.4871073   0.3784615  97.5462818  20.3979731  -0.5559484
  88.8507080  30.8377528  21.3228512  89.2480373  29.9676490  21.2870073
  87.9674911  30.6841063  21.6583419  12.4113035 105.5726910  47.9827023
  12.8957963 104.7667122  47.8040981  12.1460426 105.4946136  48.8990927
 105.3272247  13.6772764  10.6172216 104.7859478  14.0459228  11.3153207
 105.7224178  14.4389284  10.1930273  92.3001575   1.2486024   0.1018798
  92.3272419   0.6221239   0.8250833  93.0678272   1.0353231  -0.4286264
  62.2990179  24.5904970  36.0637093  62.6614761  24.2076707  35.2647710
  62.1178341  25.5013824  35.8319974  46.5160799 105.5140972  48.2892418
  46.0999346 105.7239437  47.4531698  46.0964775 104.7001839  48.5680199
  77.9019308  26.8999147  27.3959541  77.6716948  27.7792931  27.6958132
  77.9339457  26.3748932  28.1956792  85.8596611  48.8755989  40.0061274
  86.0798740  49.5401335  39.3533444  85.5681324  48.1224632  39.4922924
  56.1197042   5.7959932  45.9105492  56.8228245   5.2981478  46.3276863
  56.0531950   5.4252446  45.0305748  71.7860937   0.6328826  42.3511600
  71.0833454  -0.0165931  42.3748159  72.3743439   0.3752266  43.0609560
  36.5009904 103.9063644  38.8691258  36.8455553 103.0614090  39.1581798
  37.2155571 104.2970085  38.3661056  67.7200222   1.8741627  39.5729637
  68.1221390   1.9480085  38.7074709  66.8386984   2.2297642  39.4587255
  75.5050802   0.5640615  42.2839069  75.9280205  -0.2814535  42.1340513
  74.8233557   0.3796826  42.9300356  70.1660538   3.6557403  39.1306067
  69.3363190   3.4376451  38.7061000  70.1506281   4.6094462  39.2108488
  73.9546061  35.8604336  45.1400614  74.4068670  35.1946712  44.6219444
  73.0252266  35.7029176  44.9737024  59.4523096  23.2663918  51.0922050
  60.3547239  23.4785724  51.3306427  59.5328236  22.5461698  50.4668808
  65.9612703  24.4464064  42.5105953  66.7446327  24.0455341  42.1339226
  65.9443855  25.3302526  42.1434927  80.2147865  15.4509246  63.5953617
  79.9501896  14.5346272  63.6767197  80.0165462  15.8342361  64.4497633
  86.2795639   1.9586021  52.2989273  86.6502380   2.4321172  51.5542078
  85.9851933   1.1255870  51.9306040  41.1574268  34.6923566  28.7653542
  41.5591335  33.8268805  28.6890888  40.9702682  34.9499297  27.8626585
  53.2087183  14.8357403  48.6550665  52.3367786  14.7119451  48.2800627
  53.5515213  13.9484811  48.7622547  74.6792507   8.4033406  35.0218225
  74.5038939   8.1327826  34.1205549  75.5243492   8.0055857  35.2311754
  24.9128866  95.3757668  41.7437553  24.1452241  94.9271393  41.3892698
  25.4124904  94.6863174  42.1811152  47.7712011   0.0785328  14.7409010
  47.0426941   0.6957407  14.8084450  48.1253004   0.2210994  13.8631082
  91.9749832  21.6352844  45.7819176  91.4189529  21.9738936  45.0801992
  92.8055954  21.4314175  45.3520966   9.7208983 103.3203888  35.1442838
   9.2331290 103.1547928  35.9510612   9.0976810 103.1277180  34.4437766
  67.8880310  24.1532755  16.7994285  68.0643892  24.3730521  17.7142107
  67.7952719  25.0002360  16.3632107  75.5992413  27.1882129  23.0825877
  75.1314402  26.3643909  23.2193875  76.3012457  26.9662976  22.4708867
  59.7402287  14.0274441  63.2656956  60.2006006  14.3289387  64.0488911
  59.1879368  13.3090734  63.5741568  56.8977213  15.2003026   9.5801663
  57.7105951  14.7112095   9.4526458  57.0681953  16.0553646   9.1851497
  74.9028158  15.5790949  25.2756619  75.7796001  15.8835733  25.0416279
  75.0444269  14.9846160  26.0123920  68.2509470  35.8330083   3.1162921
  67.9171038  35.8652949   2.2197773  68.1314421  36.7226982   3.4485599
  66.8078804  18.6631715  27.1113992  67.0266008  18.5961282  26.1819363
  67.5022459  19.2077959  27.4821734  72.8359795   3.5942575  45.2007484
  73.4360743   2.8557771  45.3045034  72.0276308   3.3075437  45.6257200
  67.1939850  11.6699195  63.6218691  66.6564751  12.3873234  63.9575005
  67.7942085  11.4646971  64.3387032  78.8054991   9.7201025  29.2249775
  79.6922588   9.9407107  29.5099735  78.3945894  10.5655921  29.0446186
  72.9019499  17.9958522  15.3122497  72.2966242  17.2546172  15.3317928
  73.7510061  17.6178086  15.5412102  86.0077000   8.4667599  43.2131958
  85.3701401   7.7956241  43.4567499  85.4829884   9.2539483  43.0674648
  68.4226084  14.5339656  23.9499307  67.7475214  14.7871268  23.3203316
  68.9683628  13.9061284  23.4764290  80.0869846   1.2619856  22.5703287
  80.0834560   0.3600980  22.8909802  81.0129929   1.5027624  22.5427699
  46.3568640 100.1150513  30.1444817  46.9554710  99.8433781  29.4487166
  46.7097235 100.9502029  30.4514694 106.3440609   0.3333160  30.2371573
 105.6951904   0.9748076  30.5264425 105.8976460  -0.5099770  30.3133464
  83.1375027  13.8508308  37.4904251  82.7972698  13.6021280  36.6309953
  82.5923157  13.3690548  38.1124330  66.0415173  12.2148490  66.8325472
  65.5933523  12.4489164  66.0197783  65.8039093  11.2997496  66.9821024
  70.0145054  11.2959635  17.8465307  69.2738581  11.4845455  17.2702408
  70.2242184  10.3780103  17.6744437  64.0700722  40.6301212  25.9789991
  63.8898182  40.8753586  26.8865228  63.5343790  39.8508716  25.8305478
  53.4028816  28.0800200  50.1166916  52.7488232  28.7132764  50.4123688
  53.9455080  27.9181075  50.8884287  60.8495569   4.5924777  43.5059118
  60.3555536   3.9812714  44.0523672  61.0246801   5.3386700  44.0792894
  50.8184433  20.8449292  26.4229107  51.4058733  21.2730408  25.8001137
  50.8676291  21.3871884  27.2101665  76.0374737  24.4259334  18.8877010
  76.1049509  24.3237472  17.9383659  75.4595947  25.1796293  19.0069926
  79.0953779  22.9477954  10.1318574  78.2882357  23.3958864  10.3847742
  79.0625906  22.9167700   9.1757220  82.7352619  23.8350677  27.9731297
  81.9562435  23.3810806  27.6517868  82.5132465  24.7641659  27.9121852
  88.4018326   8.8279992  19.9752939  89.2539501   8.4566885  19.7467005
  87.7675819   8.2557946  19.5433915  51.2329149  81.9255638  36.3001752
  50.9064245  81.8233204  35.4062033  52.1854019  81.8879414  36.2130690
  98.5449409   6.1051708  40.8153677  99.4012356   5.6962848  40.6896496
  98.6755371   6.7164975  41.5402508  57.1006584  10.8971584  26.2280202
  56.8891764  10.0919592  26.7004180  58.0513000  10.9777176  26.3056064
  56.4710522  15.5508506  34.5938277  55.5210161  15.4353809  34.6121931
  56.7314816  15.5401087  35.5148554  87.0545578  31.5511250  47.6853752
  86.7661190  31.7691374  46.7990875  86.4434338  32.0156407  48.2571983
  64.3430233   2.1016498  45.0029516  64.6942043   2.7771837  45.5830860
  64.6436453   2.3553871  44.1303253  50.3912354 111.7220402  27.8583980
  49.8677349 112.5126171  27.7273178  51.2085581 112.0372391  28.2442284
  39.8422813 110.7710743  28.4807920  39.8995900 110.0053596  29.0523124
  38.9162660 111.0128975  28.4964991  67.9288149  28.6318398  25.6270075
  68.8040209  28.8368773  25.2980494  67.4992466  28.1810141  24.9000597
  60.7994699  14.0071130  45.2235508  60.5023527  13.3621323  44.5817137
  61.7477465  14.0487158  45.0999689  93.3992863  24.2360544  29.1241884
  93.1417370  23.6472130  29.8335338  92.9780006  23.8718152  28.3456731
  61.7606258 110.6164932  28.4357834  61.5214443 111.0819054  29.2372918
  62.0598984 111.3034439  27.8401613  79.6134138  16.0421395  33.7695336
  78.8752460  16.6515100  33.7666821  79.3569183  15.3581023  34.3880272
  67.9472446  24.2064500  19.6022189  68.4045649  23.5221362  20.0908971
  67.3514223  24.5989633  20.2403116  72.6957560  29.6275330  20.7046866
  71.9412136  30.1880050  20.5236650  72.3840761  28.7406421  20.5243850
  35.4804087  88.0676174  17.1510231  36.3354468  88.4944630  17.0967662
  35.6781578  87.1313667  17.1272910  86.2027454   4.5807827  40.7443953
  86.5290451   3.6809173  40.7425070  85.2549839   4.4920981  40.6438828
  86.5824318  12.3863328  24.8306298  86.2995911  11.8832457  24.0669966
  85.9368706  13.0889201  24.9070930  86.7060280  17.1866274  27.4011350
  87.2481346  16.3998806  27.3429537  86.5057850  17.2711217  28.3333349
  53.2735491  26.4851117  23.5523677  53.0953789  26.7335105  24.4594431
  52.5590801  25.8912683  23.3219028  49.3273783  33.4260464  15.7177186
  49.0253878  34.2944789  15.4515254  49.1749477  32.8739619  14.9507785
  77.0046616   8.0477071  21.1393523  76.0826302   8.2702607  21.0106874
  77.4678802   8.5484380  20.4678369  90.3602695  36.2964106  37.8931880
  91.2249184  35.8918023  37.9632044  90.5413532  37.2184563  37.7107787
  78.7340355  25.0925875  40.5748701  78.7543011  25.2070856  41.5249825
  78.8925648  25.9691596  40.2245522  58.0275440  10.3770721  42.9961205
  57.8700256   9.6018082  43.5349941  57.6430321  11.0977590  43.4951115
  84.8974514  44.4144201  52.3957491  84.3616676  44.6541214  53.1518602
  84.7573090  45.1236486  51.7683887  91.8014336  27.4212813  35.6646681
  92.6163006  26.9891500  35.9205770  91.4346600  27.7469563  36.4866424
  95.9792805  22.1707106  31.8620253  96.2102509  21.6569376  32.6359272
  95.0275612  22.0915556  31.7972732 100.9939384  90.6183338  88.4881783
 101.2832165  91.0815620  87.7020741 101.1777306  89.6970654  88.3045769
  74.2356539  32.5891590  39.9176860  74.8490286  33.0898523  40.4555607
  74.7732973  32.2319007  39.2109060  88.4616756   2.0700584  53.8620710
  87.7629566   1.9552086  53.2179928  88.3831692   1.3100830  54.4387054
  56.3033199  33.5448551  34.9536300  55.5681849  32.9320121  34.9385977
  57.0326948  33.0353689  35.3067160  97.8465748  29.7706985  41.4030409
  98.6635303  30.2126646  41.1717844  97.2166061  30.4807973  41.5260077
  87.8949833  38.5333705  30.1803613  88.5626698  37.8951955  29.9290466
  87.8793621  39.1608620  29.4577003 100.1542282  29.2765021  35.0301647
 100.7395458  28.5207820  35.0804520 100.3531361  29.7861910  35.8155847
  70.9344673  36.1526990  11.5140712  70.6179523  36.4743328  12.3582292
  71.7934799  36.5616465  11.4087582  71.5840530  27.6515174   7.4026674
  72.2986746  27.2038031   6.9497865  71.5922070  28.5390735   7.0443261
  90.5233574  17.0588732  36.4631987  91.4434242  17.0494163  36.1993527
  90.5282307  17.4541974  37.3349357  78.4431505  31.8781829  29.6897650
  78.6849260  30.9520388  29.6838665  78.4344816  32.1175647  30.6165075
  81.5940571  15.6028128  31.9256663  80.8585262  15.7544303  32.5191617
  82.1202660  16.3999736  31.9878745  82.3137760   6.5352219  36.9664741
  82.0170116   5.6342983  37.0949101  83.1863117   6.4475751  36.5827680
 111.7754555  28.1615353  43.1175375 112.2610760  28.0273151  42.3036671
 112.1580696  27.5342226  43.7309837  12.1596599  64.0172720  81.6252708
  11.5654099  64.6507072  82.0275879  12.0878434  64.1847897  80.6855869
  77.8357744  46.7505836  47.3419952  76.9700575  47.0082712  47.0251942
  78.1491899  46.1185217  46.6950798  64.8569059  47.8769016  20.3895402
  65.3437996  48.5973263  19.9893439  64.1328335  48.3028889  20.8483291
  63.6320162  24.2565441  15.3172231  63.9082193  25.1573300  15.1483154
  62.7274513  24.3361640  15.6199658  64.1662598 104.8374176  11.2623656
  63.5010290 104.3935013  10.7364058  63.7508011 105.6563377  11.5325463
  82.8886700  38.3034730  31.3032055  82.5916100  37.6865482  30.6343293
  83.8431263  38.2931066  31.2316275  94.1228867  46.4386320  47.3464537
  94.5875645  46.4723682  48.1826115  93.1991005  46.3725853  47.5883102
  95.5419540  19.2170024  22.3360038  96.4085865  19.6213019  22.2945094
  95.1495647  19.5728719  23.1332612  67.9959011  26.2103772  59.6828794
  68.8118219  25.7660556  59.9132633  67.8455162  25.9754205  58.7672281
 114.7427368  34.3820691  61.5159273 115.6618690  34.3720222  61.2488699
 114.7147369  33.8319182  62.2987318 116.1066437  11.9165528  37.4237442
 115.4503727  11.8994582  36.7271471 116.5124130  12.7802956  37.3493791
  79.6426439  22.3325706  29.9949145  80.1000023  22.9694724  30.5439281
  79.9925900  22.4788880  29.1160703  94.9918556  41.5821552  53.6811018
  95.7698536  42.0388508  54.0010786  94.8876190  40.8402824  54.2769098
  82.8967571  26.6129112  22.6075554  82.8670502  27.0192766  21.7414045
  83.7919044  26.2833071  22.6869082  94.2670727  32.6200223   5.0221014
  94.0571785  33.3276296   4.4126219  93.6605740  32.7448297   5.7520372
  99.3138695  22.4932289  67.1915007  99.0591717  23.4052134  67.3316669
  99.4489002  22.4248171  66.2463474  91.2734890  36.5857172  41.9261932
  91.9128990  36.8623829  41.2698078  90.4893875  37.0974469  41.7273378
  72.9179430  16.0700977  45.5805016  72.8199625  15.2356172  46.0390615
  73.8375330  16.0913384  45.3156853  70.3663254   0.5078426  26.8201923
  71.2435150   0.4847957  27.2026014  70.4184675   1.1809547  26.1416388
 103.2387447   9.0804940  24.9697161 103.9556313   8.7146413  25.4878521
 103.5327148   8.9983058  24.0624905  71.1812067  18.7099612  27.9417419
  71.2117243  18.8627851  26.9973135  71.5777874  19.4928074  28.3239841
  85.5897617  37.1787572  27.4626231  86.1659431  37.1516109  26.6987443
  85.9410095  37.8868175  28.0025339  68.8869810  51.0468197  12.2214079
  67.9470682  50.9894943  12.3932052  69.0287876  51.9586325  11.9670033
 101.4644718  11.1018276  44.5447874 100.5556297  11.4017534  44.5279837
 101.4016724  10.1467192  44.5373392  77.2003460  29.9546075  34.4236779
  76.5957737  29.5881510  35.0689936  77.1065474  29.3873453  33.6583996
  89.0903091   0.6466560  45.5901814  89.3319893   0.6744804  44.6644115
  88.3980370  -0.0127136  45.6372786  85.4938889  43.8566780  35.6675243
  86.1813831  44.4463825  35.9770799  85.2778816  44.1790438  34.7925091
  80.8502483  42.8151608  29.3787932  80.7268429  42.2970963  28.5834265
  81.7540550  43.1256819  29.3245459 102.8744221  54.0513134  39.2801332
 102.4718761  54.9192858  39.2515659 103.0328274  53.8912630  40.2104664
 103.1805515  13.0853665  31.1070728 103.4293461  12.2174907  31.4250708
 103.5164452  13.6887026  31.7699385  80.4055882  33.6676478  36.2700391
  80.0002098  33.2531095  35.5084252  80.2127647  33.0747890  36.9963789
  85.9033012  18.3771932  34.1449356  86.6670990  18.4755182  34.7134185
  85.1675606  18.2726669  34.7482562  87.7419472  39.5087647  16.8125653
  87.1756172  39.5286465  17.5839984  88.5915470  39.2208505  17.1465087
  85.8587360  40.1814365  44.1400385  86.7331600  40.2291918  44.5264912
  85.9927177  39.7479486  43.2972050  93.0422878  23.2617140  21.7660928
  92.9388142  23.7846971  20.9711003  93.9394474  23.4346247  22.0514584
  57.4003649   7.6099020  22.2762156  57.5223303   8.5375142  22.4784374
  57.9580307   7.1522748  22.9053593  82.7467823  27.8715897  20.0713301
  82.3766994  27.2876835  19.4092739  83.0162144  28.6486721  19.5816517
  83.6609173  35.0059223  34.5336771  83.9729786  34.7479796  33.6663175
  83.0307674  35.7059622  34.3630981  77.4467993  11.8389452  16.3240814
  78.1765604  12.1999812  15.8207572  77.0643139  11.1758697  15.7493913
  82.8829670  18.2280290  31.5241933  83.6561394  18.7876153  31.5969801
  82.1490765  18.8398385  31.4665246  82.1368027  55.3303671  62.3807192
  82.1875954  56.1944818  62.7893209  82.9687119  55.2354813  61.9168806
  95.4629135  12.3699605  36.5628219  95.0791168  11.9651735  37.3406887
  94.7416592  12.4138391  35.9350538 108.3630180  26.6980410  16.6192472
 107.4430084  26.6951776  16.3550460 108.3374310  26.6967702  17.5761044
 110.7399940  36.4035726  34.6084404 110.8738422  36.8976808  35.4172492
 110.3635883  37.0387363  33.9992452  85.1120663   7.9717028  24.7476196
  85.5525684   7.9877537  25.5972815  85.0077152   7.0410681  24.5494723
  95.2561283  17.2804761  43.5368156  95.4581833  18.2040620  43.3871651
  94.4090176  17.2897708  43.9824057  79.2329645  32.9951739  41.1233234
  79.5004749  32.8632689  42.0328665  79.3300867  33.9364648  40.9792089
  21.2293506  95.4980659  12.8172994  20.5309987  95.5018711  12.1626842
  21.4902902  94.5795250  12.8838027  86.7659283  15.5071974  35.8778667
  86.4872265  16.1132312  35.1913691  86.7272949  16.0232782  36.6830993
 112.6421738  38.4524250  33.6894894 112.8369236  37.9307222  34.4680309
 111.6898537  38.5486794  33.6977434  53.3356953 111.4841938  17.9916549
  54.2030334 111.7128944  18.3258021  53.5087633 110.8790207  17.2705126
  74.7800589  34.0012002  36.7774701  74.1573620  34.0480089  36.0520172
  74.7480297  33.0878472  37.0620584  73.9245701  26.2086964  17.3674834
  74.1559744  26.6012478  16.5257084  73.0918503  25.7657504  17.2043598
 110.8872032  27.8337789  50.1593971 110.5953026  27.1932650  50.8080626
 111.4746189  28.4141994  50.6434345 112.9825783  25.3352714  43.6522007
 113.3268452  25.7182884  44.4590521 113.7443352  25.2637148  43.0770016
  99.7002316  32.4127150  53.3136749  99.2274666  31.8734384  52.6797199
 100.5375481  32.6017237  52.8901052  87.7918053  35.0617528  45.1345491
  88.7482738  35.0496745  45.0991774  87.5253963  35.4226041  44.2889500
  71.1256742  30.4550362  17.7437770  70.7342577  31.3273382  17.6977837
  70.8765459  30.0369668  16.9195294  94.4439888  42.9573822  37.7045059
  94.5508766  42.7398157  36.7785072  95.1526833  42.4876785  38.1442475
  67.9137325  19.7907066  10.0507736  67.1828270  20.3864646   9.8862100
  68.3708429  20.1735330  10.7995903 104.1323948  47.2869921  55.8480120
 104.4376850  48.1902170  55.9329414 103.6501503  47.2739029  55.0212717
  96.3852119  42.4400997  28.1482387  96.6542053  42.7888346  28.9980960
  95.6076336  41.9157553  28.3397508  99.9563980  33.5561609  28.0853724
 100.2294827  34.4051409  27.7376771  99.7828484  33.0239534  27.3089266
  88.7383080  11.0516560  21.4609694  88.5013103  10.2794981  20.9473228
  89.3524170  11.5303969  20.9042692  54.2683506  21.4889550  30.7892275
  53.6936855  22.0916247  30.3172278  53.9953375  20.6193161  30.4969525
  86.6836452  29.6906924  39.6969533  86.1287594  28.9215684  39.5673919
  86.6884327  30.1286864  38.8458562  87.1481705   8.2552969   2.0439902
  86.5674782   8.9391184   2.3777917  88.0108070   8.6688030   2.0107204
  82.2559929  19.2348194  11.3386202  82.1983433  18.2877779  11.2120473
  81.4209557  19.5712018  11.0133648   2.9625431  95.3076267  95.6540298
   2.2098869  94.7458744  95.4691601   3.2248327  95.0715065  96.5437889
  77.2549772   7.4796492  33.6144161  78.1744909   7.2313368  33.5191989
  76.8052292   6.6595191  33.8177538  68.9631939   3.5319307  43.7690735
  69.8305845   3.7580886  43.4333324  68.6374283   2.8670362  43.1624222
 103.8554478  33.4305191  19.5985484 103.1574535  34.0649748  19.4357765
 104.1376877  33.6097741  20.4954553  77.1294451  30.9212613  46.1791849
  78.0760908  31.0520530  46.1245251  76.9345474  30.9701371  47.1150589
 108.3079243  22.4310184  69.9300671 108.2276058  23.3374381  70.2270222
 107.7360344  21.9353914  70.5161762  82.0431614  37.1703410  33.8757801
  81.3395882  36.6848850  33.4450293  82.3524666  37.7848482  33.2102442
  84.6622658  42.8173733   9.6530104  84.2250824  43.6567450   9.5096296
  84.3298244  42.2519970   8.9558268  69.2114925  57.1880341  16.1161602
  69.7006178  58.0052710  16.2116122  68.5039997  57.2560644  16.7572975
  65.7857847  30.1586199  44.3753672  65.2411461  29.8379898  43.6564827
  66.3894510  29.4385934  44.5580721  75.8916473  36.7080998  40.8135033
  76.1847639  37.4490619  40.2831364  76.4625311  36.7227077  41.5816879
  90.6292725  57.9658175  13.6556041  90.8385372  58.8998413  13.6623549
  89.7099209  57.9282427  13.3917725  89.3786526  45.0162745  29.5531154
  89.3227577  44.3530846  28.8651562  89.2024708  45.8429050  29.1038108
  75.6644297  16.9795656  21.1591554  75.4961109  17.8194284  21.5863919
  75.8415794  17.2064781  20.2462697  69.1208935  58.7730646  30.7914305
  69.5648909  58.6628103  31.6322279  69.5859718  58.1852722  30.1960874
  84.3875885  39.0169907  21.9527698  84.3752670  39.7955871  21.3961101
  84.1497421  38.2991862  21.3659000  74.2627096  30.4127288  31.9093013
  74.3574381  30.3876758  32.8614736  75.1556015  30.5234027  31.5826106
  79.4681692  32.6576686  47.5894594  80.0679684  33.2336092  48.0635548
  80.0196075  32.2181416  46.9421864  78.3708477  24.2750597  20.6644988
  78.1712103  25.0285888  21.2199879  77.8060627  24.3850851  19.8995519
  66.3017654  14.0397930  40.0157118  67.2234058  14.0580082  40.2735567
  65.8210421  14.0654314  40.8430433  96.4920330  46.7093945  40.4654932
  96.4851761  47.5361681  40.9478045  95.6878567  46.7280865  39.9466729
  66.4942122  24.1389585  26.0199571  66.4912081  23.2859039  25.5857658
  65.6410313  24.1914678  26.4507151  75.8760881   9.6523511  50.0859356
  76.5244246   9.7375506  50.7849598  75.0655079   9.9878323  50.4688787
  91.7735863  15.2767384  49.4673920  91.6367626  16.0847533  48.9727974
  91.6572666  15.5332768  50.3822088 102.3949146  37.4207878  32.7946091
 102.9131985  36.6398931  32.6001477 103.0209446  38.1429744  32.7420020
 102.1683121  42.7773857  37.0221043 101.5736294  43.4380102  36.6669106
 101.6135406  42.0120668  37.1729517  90.0903130  36.3973451  17.0704925
  90.9675503  36.1269450  16.7992628  90.1941681  37.3091435  17.3426485
  90.0028324  63.8664484  32.4359179  89.3548965  63.9795494  33.1313515
  90.0775337  64.7324324  32.0350122  91.2355518  39.8392749  31.6307878
  90.3281879  40.0631571  31.8376637  91.7168427  40.0197220  32.4382687
  92.7667332  18.4047687  35.0451708  92.1751690  19.1349888  35.2269888
  92.4732685  18.0633998  34.2004347  83.6215973  14.3384600  22.3258424
  83.6774445  14.0752792  23.2444549  82.6832008  14.3537283  22.1376896
 103.0146599  12.5972140  45.8583927 103.9148712  12.2969139  45.7332134
 102.4786186  11.9366884  45.4195309  91.7523670  38.3968544  12.8957164
  91.1984158  39.1744471  12.9644632  92.5382423  38.6176753  13.3955777
 113.5995293  29.4887662  15.2500129 112.8433323  30.0368524  15.4597962
 113.4224987  28.6576080  15.6905460  93.3984756  36.3986373  59.0927362
  94.2758846  36.1199999  59.3549156  93.4734821  37.3454142  58.9734840
  77.6069784  33.3957696  50.4635954  77.8727341  32.5858021  50.0282145
  78.3777332  33.6623502  50.9646988  89.5714855  33.9690495  24.4189882
  90.0177765  33.7888765  25.2463865  88.7057400  33.5741782  24.5228934
  82.0576382  17.9944861  17.3460019  81.2221527  17.9457772  17.8105688
  81.8221378  17.9203165  16.4211953 104.5063305  38.3935332  22.6952267
 105.0338650  39.0095329  22.1868157 103.6855221  38.8584065  22.8577352
 104.0617561  21.1833549  45.3608608 103.4157181  21.2750697  44.6605349
 104.8517990  21.5974998  45.0136614  82.8992271  21.3056874  33.4588361
  82.9621696  20.7321024  32.6951146  83.7498856  21.7425299  33.5010505
 100.4591465  20.0079274  23.2067609 100.8363056  20.8864737  23.2530046
  99.5937252  20.0974917  23.6058259  95.9235668   7.7860481  20.8486509
  96.7361641   7.9477847  21.3279796  95.8358192   6.8329120  20.8407354
  59.8179150  25.3481197  44.3187571  60.6299257  25.1808238  43.8403416
  59.1353607  24.9495888  43.7788296  70.5931520  21.6206789   4.9743307
  70.5302382  21.2644672   5.8605516  71.1167192  20.9787059   4.4947669
  83.3836079  10.6018949  16.3980079  82.8966999  10.0221443  16.9837046
  83.1062794  10.3425741  15.5193317 103.6641979  15.6463039  50.3771114
 104.5651817  15.9608102  50.3026867 103.5948086  14.9592757  49.7142315
  70.4424477  18.8117456  13.6983311  70.0691605  17.9509294  13.5089004
  70.5759335  18.8116074  14.6461773  67.3767805  30.6485748  18.2615936
  67.9919434  31.3713241  18.1373394  66.8072319  30.6840181  17.4930942
  98.7516785  17.1676314  15.6477296  98.8169098  18.0276012  15.2324855
  98.6159897  16.5601909  14.9205184  86.2581253  16.9688129  16.7138660
  86.9270706  16.2876797  16.6445160  85.4603004  16.4974403  16.9536901
  68.4611082  21.8821430  60.7324934  68.4559584  20.9300566  60.6338072
  67.6718283  22.1744633  60.2766228  88.9447403   1.2129521  64.9421120
  88.0516148   1.4965241  65.1374149  89.1644573   0.6083262  65.6509018
  88.2298279  18.4866130  35.5031538  89.0246868  18.0827510  35.8514762
  88.0886936  19.2543352  36.0571527  72.2254753  40.0444317  35.7669210
  71.4056063  40.0887394  35.2749014  72.8196239  40.6282949  35.2954149
  79.0582895  34.9984455  19.5305145  79.9586773  35.3187108  19.4760728
  78.8255072  35.0940347  20.4540443 102.1573353  21.8619180  35.7286310
 102.4503517  21.1053348  36.2365222 101.8027306  21.4865589  34.9226570
  86.0791302  31.4757347  12.0038354  85.3641415  30.8447003  12.0864117
  86.6937160  31.2333298  12.6964784  92.1428585  26.2187910  24.8705459
  91.6502094  25.4423189  24.6047997  92.8074455  26.3253164  24.1899562
  82.3762321   3.1627339  38.5126352  82.8435993   3.7804803  39.0749407
  83.0446339   2.8322357  37.9124427  28.9998174 104.6751213  43.9530420
  29.7786999 104.8885155  43.4392023  29.3307519 104.5253372  44.8386383
  80.7789898  37.6925182  43.0501890  81.2073803  36.9024730  42.7207327
  79.9565506  37.3796391  43.4269381  98.2291126  36.4456010  35.3388619
  99.1387939  36.1786270  35.2067709  98.1357956  37.2437143  34.8187256
 114.4489956  22.0412588  29.5056200 114.4059372  21.8345046  28.5720086
 113.5547066  22.2923183  29.7368264  85.9731293  27.3871350   2.6351011
  86.8009758  27.4495578   2.1586493  85.3007793  27.4650407   1.9582659
  99.4840336  38.1222439  17.4666631  99.1861725  37.2329903  17.6583362
  99.5628548  38.5386515  18.3249319 112.0618725  32.6088691  46.7220020
 111.2831593  33.1403375  46.8874979 112.6337910  33.1763935  46.2052298
  96.4891529  39.8686862  24.6699500  96.1529064  40.6850576  24.3002129
  96.9747734  40.1405811  25.4487157  82.6272583  46.0590601  35.1705837
  82.9511547  45.7342672  34.3304443  81.7250252  45.7428694  35.2178741
 101.3581085  50.7757139  26.0816979 101.8350124  50.1885414  26.6682339
 100.8809376  50.1907349  25.4931951  67.7466106  46.1695623  28.4430623
  67.0438433  45.5306673  28.3240819  68.5012150  45.6475830  28.7157130
  81.2264156  31.4651871  20.4885578  80.9268188  31.0649920  19.6722734
  80.4778194  31.3911366  21.0804677  54.9025774  97.4178314  30.1307869
  53.9858246  97.1612549  30.0309634  54.9008179  98.3666992  30.0047636
  67.9919338  10.4557502  40.8788967  67.8657484   9.5165169  41.0136223
  67.1370602  10.7729173  40.5876398 113.8596153  36.5127587  25.5756330
 114.6742535  37.0107913  25.5081010 113.4433651  36.8413448  26.3725019
 106.5608311  26.5409040  33.2251930 107.0352459  27.3560333  33.0617166
 107.1774006  25.8513999  32.9788947  92.6457882  32.7881503  63.3139133
  93.1933212  33.4197164  62.8474712  92.6422405  32.0132351  62.7520180
  88.3719063  34.7370625  61.9094515  88.2004070  35.2305269  62.7115154
  88.3716393  33.8210273  62.1871376 116.7546844  46.4285421  25.1275897
 116.8949890  46.6314602  26.0524511 117.5116634  45.8968735  24.8815179
  84.4956398  16.8307400  48.1831503  84.6609497  16.2733543  48.9435577
  83.8435173  17.4624014  48.4864330  81.6384602  13.7704217  10.2185357
  80.8929062  13.5794127   9.6494210  82.2975063  14.1431606   9.6329069
  87.0228672  22.7714586  35.1859069  86.3615608  22.9932284  34.5303822
  86.7072773  21.9576049  35.5786872  39.0110636 111.7124748  20.5799603
  39.8204207 111.2981415  20.2807927  38.7694764 111.2251663  21.3676119
  85.1909924   1.6536643  40.5382252  84.5899963   1.7101963  41.2810802
  86.0625172   1.7032667  40.9309292 111.5554714  47.4909353  18.1019258
 111.0984325  47.2384501  17.2996783 111.6528416  46.6730690  18.5896218
  78.5398912  14.0376592  35.0055599  77.6048756  13.8486445  34.9265146
  78.7101078  14.0147376  35.9472251  90.9974861  16.9303322  43.2894516
  90.7336521  17.2840726  42.4400473  90.3808594  16.2168884  43.4537697
 109.6617317  52.5916290  17.1645105 109.7531033  53.1203699  17.9571712
 108.7166595  52.5284815  17.0263481  98.6973381  36.7062092  29.4087458
  98.1812382  35.9267974  29.6146250  99.1701603  36.9010019  30.2178979
  89.6619797  42.0364571  45.7171535  89.0697002  41.3336134  45.9844637
  89.3497372  42.8064871  46.1923218  64.9062347  38.8563848  19.6444678
  65.5440760  38.1426716  19.6428025  65.1225519  39.3691111  20.4232812
 114.8516655   5.0286734  29.9296093 115.4413128   5.0624591  30.6828761
 115.2318287   4.3619740  29.3575740  84.4665051  10.6823874  34.1497040
  85.2760792  10.7015097  33.6393452  84.6344090  10.0422513  34.8412728
  94.7291374  24.1972017  51.4764500  94.3976688  23.3219790  51.2755823
  94.9527836  24.5701504  50.6237364  94.9058533  33.7950444  20.4777694
  94.1169262  33.2549357  20.5236816  94.6737576  34.5981574  20.9440088
  96.9668102  32.2443247  36.2672043  97.1375656  32.7468324  35.4706120
  97.2269344  31.3499570  36.0465813  91.5711594  34.3989730   8.9587247
  91.5274620  35.1917481   9.4933534  90.6613159  34.1118884   8.8812482
  74.4484997  35.9765458  47.7369404  75.2475643  35.5702305  48.0725574
  74.5771503  36.0108352  46.7890453  58.0423498  36.6856670  61.7688227
  58.6154652  36.4227247  61.0486603  58.3009768  36.1227441  62.4985218
  85.4081535  60.2384567  19.3723643  85.2233219  59.3877029  18.9745057
  84.8086643  60.8428526  18.9346910  72.3275805  33.2147360  34.4265413
  72.4121380  32.8153539  35.2923226  71.3939047  33.4079838  34.3420720
  77.7818012  36.7605448  67.1995592  78.0510235  35.8453989  67.1204329
  77.6658106  37.0550489  66.2962103  69.1274309  13.0842102  13.6200726
  68.4845304  13.4594142  13.0182958  69.9568510  13.4901190  13.3680260
  93.8166523  28.5629249  13.8767254  94.0388489  28.4285474  12.9554200
  93.6559963  27.6821351  14.2152917  48.5232306 104.6901989  40.8973312
  49.0378666 105.4969311  40.9212065  47.6533365 104.9693966  40.6117439
  78.1934929  14.9347985  12.7289045  77.8748560  15.7257152  13.1638205
  78.8679552  14.5936811  13.3162475  85.0604343  27.2965622  37.6390028
  85.5779362  27.7324581  36.9619393  84.8735523  26.4303470  37.2770977
  90.6352425  45.3587389  35.3837180  91.3894558  45.0701189  35.8976173
  90.9475899  45.3582430  34.4789124  73.8621569  35.8222961  59.2804146
  74.2001677  36.3581967  58.5629272  73.3207703  36.4224720  59.7931767
  79.7435808  33.6207366  43.9509726  79.7306776  34.4839025  44.3645096
  80.3224182  33.0979514  44.5058393  84.9092007  35.1308703  10.7251406
  85.0940228  35.2277088   9.7909588  85.7681942  35.0011301  11.1270499
  93.6518955   9.0573305  20.1849771  93.0070972   8.6546332  20.7666135
  94.4706154   8.6030829  20.3839445 100.5427933   9.7296262  61.9610596
 101.0251236   9.9518293  62.7574444 100.3521633  10.5742323  61.5529823
  66.5664053  43.6186409  40.9546137  65.7620335  43.9333630  40.5421066
  66.2768173  43.2349968  41.7823744 107.0129871  29.2763543  21.4578986
 106.9727039  30.1462317  21.8552971 106.7829037  29.4214082  20.5401564
  91.7370796  27.2591162  22.3755622  92.1712208  27.2680140  21.5225244
  92.1492767  27.9733539  22.8615546  86.0060978  20.4706860  15.1975787
  85.2845573  20.4292822  15.8251917  85.5888939  20.7028413  14.3679571
 118.3594227  10.7039714  25.5827856 117.6416779  10.9778666  25.0117683
 119.1442966  10.7985783  25.0431085 110.3893471  37.4581838   9.2537385
 110.4479218  36.9201112  10.0432193 109.8871326  36.9251990   8.6373472
  86.2462711  39.6895027  23.9432693  85.6195068  39.4466114  23.2617974
  86.7566109  40.4010868  23.5566998  88.5308075  49.9107933  26.2405801
  87.7871799  50.5127954  26.2696433  88.4399223  49.4581747  25.4020667
  78.4352112  42.4951267  23.0623388  78.3032370  43.2363224  22.4712014
  79.3861294  42.4113274  23.1328058  87.4209118  40.6723404  46.6296339
  87.3388481  39.7314787  46.4738083  86.8405437  40.8438015  47.3712587
  86.4477253  35.2743030  42.2564697  85.9601021  35.3941631  41.4415550
  86.2787342  34.3655753  42.5052547  80.5767822  45.6025219  19.3827534
  80.8788013  46.4105892  18.9679670  80.9348869  44.9038696  18.8351381
  67.8551531  51.2974358  16.4545953  67.4793196  52.1413231  16.2039256
  67.1238184  50.6826591  16.3960230  81.0613537  34.4610739  48.6535120
  81.3098049  34.5197892  49.5760345  81.5540600  35.1625824  48.2276535
  72.3159933  33.1310987  69.8526001  72.5245953  32.5277209  70.5658007
  73.1509924  33.2723808  69.4064474 105.0082302  49.6963358  34.9143672
 104.9125576  50.6230450  34.6946359 104.1117096  49.3617201  34.9368620
 111.8557167  38.0695534  44.1743851 112.8073311  38.0058312  44.2556190
 111.6638565  38.9950442  44.3256760  86.0977077  61.1044407  31.6466403
  86.7812157  60.5768776  31.2334466  85.3086472  60.9140205  31.1393476
 114.7467327  39.8515463  55.6155491 115.2600002  40.6275558  55.3906202
 113.9665985  40.1977158  56.0489035 102.0739651  53.9509630  31.2174535
 102.6810741  54.6736574  31.0581470 101.3654232  54.3416834  31.7288566
  90.9729958  57.5848675  16.6292703  91.8045616  57.1108532  16.6227734
  90.7377625  57.6685286  15.7052040 100.3263474  44.7645283  29.5172095
 100.5451107  45.3984070  30.2002716 100.8703041  44.0021181  29.7148705
 103.2969666  41.3384724  48.6396837 102.5027084  41.3351774  48.1054783
 103.3951664  42.2492743  48.9172220 111.0112286  65.4756451  31.5759134
 111.0703564  65.0293875  32.4206591 111.2777805  66.3760519  31.7615271
  65.2480459  40.1622915  22.1699572  64.7951508  40.9393454  22.4975324
  65.0817728  39.4912529  22.8319931  98.0974388  45.5156898  33.8563466
  98.4872627  46.3894367  33.8852668  97.1955490  45.6650686  33.5725880
 107.0670033  38.8084078  37.0284367 106.1151600  38.8397217  36.9323468
 107.3517990  38.1619334  36.3825297  95.2607727  60.3483868   8.3435452
  95.0259972  61.2620640   8.1813473  95.7784081  60.0948191   7.5793564
  97.8711033  31.3844228  28.9881229  97.9503250  31.3817692  28.0342102
  98.5900784  30.8291364  29.2897201 107.2520351  36.8567348  35.1191783
 107.6727295  36.8575144  34.2593884 106.8192673  36.0046673  35.1732969
  95.1657963  45.3689861  64.6620274  95.7419205  46.0819769  64.3864202
  95.1488400  45.4303312  65.6171083  93.7881088  28.4071684   5.5443925
  93.4651947  29.1065788   4.9762496  93.5957050  28.7111020   6.4314306
  94.8287678  69.7801590  38.6650324  94.1044998  70.1557064  39.1656637
  94.8303032  70.2693939  37.8423047 107.2035599  46.7438269  39.6805310
 107.2986221  47.0180178  40.5926800 107.1461964  47.5631094  39.1888881
 107.0628643  43.9636087  45.2705383 106.9105053  43.7996626  44.3398714
 108.0155945  43.9548731  45.3624535 106.6894150  59.7127438  55.6593704
 107.5324535  59.4958925  55.2612638 106.1054134  59.0063620  55.3833294
  94.1676044  23.9495182  48.7567329  93.3712101  23.4885645  49.0203762
  94.5999241  23.3513498  48.1472015  81.0285378  42.2595835  37.1145153
  81.4731026  41.9677305  36.3186407  81.7359638  42.4186420  37.7394032
  91.2414455  53.0371666  40.7780266  91.0307217  53.8770580  41.1859608
  91.1845207  52.4028492  41.4926100  88.1183910  39.9389672  38.1069279
  87.9746246  40.4412270  37.3048711  87.5979424  39.1444016  37.9884887
   5.3883964  26.3480735  44.8289633   6.3295150  26.1733580  44.8277569
   4.9986705  25.5636525  44.4429207  96.2209225  51.6596270  40.9939051
  95.6078148  51.0033083  41.3249254  96.7797184  51.8649817  41.7434502
 107.6837635  31.0971689  40.8017254 107.9497242  31.9564033  40.4742956
 106.8684006  31.2630463  41.2749100  80.6998634  30.1489735  24.6567297
  80.5214024  29.8045206  23.7816668  81.6548061  30.1529241  24.7224092
 108.4255981  26.2470937  19.7695327 107.5595856  25.9496546  20.0484276
 109.0125751  25.5280256  20.0032735   9.2704839  24.1937137  34.3775249
   9.3191004  25.0969958  34.6904898   9.7986645  23.6953974  35.0011754
 103.2425308  32.0583439  64.1063356 102.5979614  31.3893723  64.3370628
 104.0851307  31.6708970  64.3432665 100.1102066  64.7599411  34.7649050
  99.1804028  64.5347214  34.7962689 100.5588913  63.9660072  35.0557423
 100.3565598  27.2052383  51.9504452 100.3237915  27.7133989  51.1399317
 100.2180958  26.3001347  51.6714382  94.7503662  37.8626132  34.2800951
  95.2366734  37.1950984  34.7639990  95.3689384  38.1796384  33.6219954
  88.8374710  54.4857502  51.5302610  89.6482563  54.9244308  51.7879820
  88.1427383  55.0774002  51.8192482 107.2244072  31.9616842  22.1898890
 107.2129345  32.5283432  21.4185286 108.0142117  32.2198963  22.6650453
 111.6314125  24.1026449  33.8802147 110.9889507  23.5188627  33.4768844
 111.6572189  23.8327312  34.7982097  87.6278496  41.0897064   5.9201390
  88.0467892  40.7872629   6.7259014  88.2417583  40.8492994   5.2261937
  94.5038700  53.8820457  40.4596853  94.5616436  54.2319965  41.3487482
  94.9728775  53.0485725  40.4994154 111.3575935  51.9890404  20.5641246
 111.3778019  52.7235174  19.9506378 111.6911316  51.2467575  20.0601387
  94.0818501  63.4842396  10.9713578  94.6357346  63.9822960  11.5725017
  94.4707012  62.6097107  10.9562576  83.4311199  29.3271852  38.7695575
  84.0359688  28.7524176  38.3004808  82.9957199  28.7533879  39.3999672
 111.1420536  48.9650536  40.0407124 111.5019512  49.0598392  40.9225988
 111.2133789  48.0293131  39.8522139 104.8417759  70.7870340  28.0761433
 105.4541111  70.6154251  28.7915659 104.9537659  71.7178535  27.8831100
 101.7305470  19.6062052  65.7288504 101.3207912  20.4424357  65.9503222
 101.3927364  19.3971634  64.8579788  93.3868694  44.3399477  25.5313635
  93.3697891  44.4323301  26.4839411  94.3026638  44.1526222  25.3252792
 103.2339382  33.7835550  57.9338455 102.7491951  33.0296969  58.2699299
 103.0466461  33.7896180  56.9951677  73.3886003  59.8460770  53.5880756
  73.9754963  60.5256462  53.9196968  73.5681677  59.0845537  54.1394997
  75.3579235  54.4777155  34.3273592  75.5273199  54.5158243  33.3860397
  76.2079000  54.6533871  34.7309852  87.4456501  52.2487640  35.4890680
  88.0781937  51.9437504  36.1395121  86.7635918  51.5771866  35.4849601
 103.2826138  70.8658838  16.3345528 102.9214382  70.5167150  17.1493316
 103.0493164  70.2162743  15.6713700 112.5888252  53.1133652  35.6911135
 112.7241325  52.9405260  34.7594213 113.3352089  53.6562824  35.9448576
   1.0434218  58.8870525  73.8702822   0.7741547  59.5425224  73.2267857
   0.5095415  58.1188822  73.6674976  91.2806606  41.1428213  51.2542343
  90.7219219  41.8665409  50.9709215  92.1688175  41.4980650  51.2193346
  98.8510704  51.1456633  52.9609156  99.0289974  50.6489038  53.7595415
  97.9190540  51.0051346  52.7940845 104.1596413  12.0461154  25.5063558
 104.0965939  12.2771263  26.4331198 103.8550472  11.1396503  25.4642057
  81.3376141  43.2761526  66.2636805  80.9798145  42.5936270  66.8314552
  81.5477180  43.9963961  66.8581057  78.5626936  30.9292102  52.4515343
  78.4945202  30.7769465  51.5089846  78.9528894  31.8001032  52.5258589
  89.9984074  22.4954700   1.5747324  89.2488098  23.0895758   1.5376928
  90.7249546  23.0446458   1.8692972 101.5794277  56.5318537  40.3169441
 100.7373142  56.8812752  40.6084442 102.1825790  56.7322493  41.0326910
 107.3846245  12.7361369  14.8002565 106.6989899  12.2825694  14.3099463
 106.9635201  12.9905999  15.6213200  87.7528763  27.5398254  28.5714507
  87.4018192  27.7861595  27.7156973  88.4394264  28.1843185  28.7432361
 115.2409554  33.4479856  15.5369794 115.7357407  34.2642570  15.4654455
 115.7798290  32.8006315  15.0822473  90.8085728  37.2088861  28.2022166
  91.5755653  36.8023276  27.7988887  90.0895405  36.6069961  28.0099988
 111.4111996  24.8206687  56.5125942 110.8334446  25.5357528  56.7792130
 112.1716976  25.2574944  56.1291122 110.3581524   7.7958155  35.6702089
 109.9835968   7.7094948  34.7935724 110.3600693   6.9043094  36.0186982
  67.0875072  11.6573286  29.8175550  66.5196896  12.4088705  29.6472502
  67.2306967  11.2652624  28.9561534  77.9665470  26.5200615  22.3408580
  78.5470295  26.6356754  23.0931258  78.2119274  27.2225785  21.7387843
  98.0962658  61.3022661  29.6649289  98.2934952  60.9309816  30.5248594
  97.3228455  61.8470097  29.8109126  96.0008144  38.9999437  37.0679927
  95.5672264  39.4307709  36.3313675  96.9351101  39.1295004  36.9050527
 110.9959888  39.0221977  19.5833564 110.7208729  39.0552473  18.6671388
 110.9878922  39.9357605  19.8689651  96.8268108  74.2295647  31.0273242
  97.2191048  73.9342976  31.8490005  96.7198277  73.4300089  30.5120611
 102.1673679  28.2426167  17.2616100 101.3630295  28.5040379  17.7098680
 102.4208641  29.0142107  16.7550349 102.7778339  33.1330299  22.6559758
 101.9708633  32.7510381  23.0011034 102.9633427  33.8686562  23.2396483
 109.2113495  51.1820650  22.1344829 109.6432400  51.4387083  22.9492474
 109.8988438  51.2386131  21.4708638  98.0654240  26.2324452  13.0723643
  98.2798767  26.5567446  12.1976817  98.6123657  25.4543185  13.1800723
  98.1378174  40.7421398  26.9059086  97.6594353  41.4629126  27.3156333
  98.4395027  40.2070093  27.6399755  95.0163841  60.3538609  49.4120932
  94.9876785  60.2904892  48.4574270  95.7029533  60.9969664  49.5889091
 103.3265591  45.3665447  14.2533433 103.4352207  45.0595951  15.1534605
 104.0434456  44.9541187  13.7714636  80.9352493  25.0982118  24.1059303
  80.3297424  25.8341002  24.1957164  81.4992619  25.3403664  23.3714342
  76.7408705  69.2950153  36.3861036  76.2376451  68.8978577  37.0969176
  77.6541853  69.1173697  36.6109014 101.4641380  28.9601469  27.8753090
 102.3993587  28.9228630  28.0758095 101.0555935  29.2492771  28.6912322
 109.1865253  37.2517872  27.5214124 109.6631622  37.7716565  26.8742704
 108.2738590  37.5222158  27.4207330  95.9814548  42.6300287  21.9800353
  96.6983223  42.5394297  22.6078343  96.0759640  41.8759298  21.3981104
 118.5620975  45.9144545  37.7074575 118.7383556  45.3173733  36.9803643
 117.8017044  45.5362415  38.1490278  89.2877483  43.2338190  36.4836240
  89.6718502  42.9271793  37.3050046  89.9466991  43.8229513  36.1162925
  97.7362061  55.5094910  52.6957893  97.9092598  56.3419342  53.1354761
  96.8921280  55.6381035  52.2631025  90.0631905  40.5815363  12.2172225
  89.1660404  40.5113554  11.8909776  90.5205441  41.0954905  11.5517068
  92.0222855  47.9108906  19.5319712  92.5101280  47.5423527  18.7954760
  91.7867565  48.7933779  19.2456567  83.2345200  40.4728031  19.3341649
  82.4736309  40.2103281  19.8522210  82.8726959  41.0211706  18.6380279
 116.5038109  24.4403696  12.0645797 116.4924335  25.3459263  11.7546272
 115.8326435  24.0002394  11.5429914  72.5725031  38.8963580  15.2804673
  73.1917953  38.1679749  15.3269923  72.5204754  39.1073322  14.3482566
 108.3239651  70.5451250  36.5261292 108.8015652  71.0682917  37.1698952
 108.0655670  69.7562838  37.0027733 118.2850170  37.9375648  47.6383829
 118.0882645  38.7778473  47.2243214 118.6387444  38.1705332  48.4967709
   8.3580971  48.3442736  45.3693581   8.2264906  48.9047909  46.1340380
   9.1808045  48.6497831  44.9871969  94.1086674  70.5739975  30.9738445
  94.1512299  71.4258289  30.5393362  93.6499119  70.0101233  30.3510904
 110.9347343  59.8578882  25.8940935 111.7709064  59.3997526  25.8095288
 111.1487865  60.6615353  26.3679671 117.8044987  34.4046950  32.2104096
 116.9218922  34.0345502  32.1952248 118.0973625  34.3630862  31.3000631
  94.9375057  66.7279768  31.7558265  94.8675823  67.2834682  32.5322104
  95.8368874  66.4009190  31.7755342  87.8180027  41.2264967  35.7537460
  87.4218178  41.3912296  34.8980999  88.3864784  41.9818258  35.9038901
  92.7897453  87.3901558   9.3382883  92.8483772  86.4889717   9.6555692
  91.9113255  87.4555206   8.9636821  97.7946091  38.7418771  51.0818434
  98.6069298  39.1947770  50.8554697  97.3583603  38.5983491  50.2420092
 104.4137096  72.3412895  30.7930326 103.7187958  72.1743059  31.4297795
 104.6113300  73.2725286  30.8928728  72.7235985  33.7089491  27.7338052
  73.0845308  32.9217243  28.1415248  71.8227339  33.4726691  27.5127864
 113.4902000  45.9778023  43.5497761 113.3357906  46.2023020  44.4673729
 112.9749107  46.6164303  43.0569649  79.1220856  49.1940355  34.4631815
  79.6491194  49.1692924  35.2618384  79.1785002  48.3056211  34.1113710
  71.2401104  42.4221659  19.3117487  71.0905695  43.3542204  19.4702983
  72.1778345  42.3574114  19.1308749 113.0912113  70.3476095  32.0543957
 113.6151123  70.5463552  32.8304505 112.6854515  71.1820412  31.8192029
  95.5816555  61.0862207  33.4323478  95.1229000  60.3096771  33.7529159
  96.2417603  61.2676620  34.1013551  91.0843182  25.5496407  47.2042274
  91.4624882  26.1936617  47.8029394  91.4901733  25.7412982  46.3587809
   4.2590040  48.2052088  36.4764047   4.8911765  47.5004578  36.6175246
   4.4701657  48.8543034  37.1474600  89.3440819  70.3038216  29.6397781
  88.7205124  69.6217585  29.3904209  89.5462227  70.7548285  28.8200450
  75.9416056  47.7986479  25.7293034  75.5426693  48.4876680  26.2606525
  75.9575796  48.1589317  24.8426390  92.2872829  40.5371523  18.5549521
  92.7326965  40.6651020  19.3924856  92.9934406  40.5142498  17.9091632
 100.8736134  22.7179360  11.3295102 100.2068233  23.1342649  10.7833552
 100.9567451  23.2956481  12.0881736 108.9169121  72.0554686  19.8514664
 109.1629219  72.8194189  19.3298459 108.3728218  72.4105453  20.5544043
  98.3988094  56.2101698  27.1382141  98.3084011  57.0419121  27.6032591
  98.3153534  55.5439949  27.8204727  93.1200504  58.1836033  52.5871992
  93.1492043  59.1070747  52.3370409  93.5615158  58.1513071  53.4358978
 104.8671818  18.0543506  21.7822218 104.0359592  18.3438873  21.4060974
 105.5201149  18.2735133  21.1174893 112.7623940  50.1042223  45.2122498
 112.4124050  50.9921408  45.1391554 112.3361683  49.7419643  45.9889984
  81.6499996  48.9270449  10.1309502  82.3004341  48.2257414  10.1674926
  81.0885620  48.6947012   9.3913293 100.4652977  51.5071297  50.6196642
  99.6873569  51.4349174  51.1726809 101.0234070  52.1391630  51.0727358
  92.8039265  71.1852741  48.2151890  93.5931873  71.6661072  47.9660034
  92.5836563  70.6684065  47.4402285  91.4799404  47.4229336  50.1780939
  90.6981373  47.9403830  50.3711176  91.9903564  47.9727936  49.5836496
  91.8847561  27.1627641  49.0727711  91.4739990  26.6625094  49.7779322
  92.2498894  27.9335999  49.5071888  98.9190006  56.9359541  41.2059546
  98.6012936  56.0354519  41.2721920  98.6116886  57.3579884  42.0082474
 101.8592548  43.6077166  52.0189476 102.4016094  43.8834286  52.7579069
 102.4195862  43.0142736  51.5188646  91.4666843  41.9366455  67.8797150
  91.6870403  42.8266144  68.1547308  92.3134136  41.5098906  67.7486658
   3.8100839  49.1245604  59.1047812   4.7573033  49.1640186  59.2368793
   3.6918768  49.2857885  58.1686926  85.9585381  41.6834354  33.8320684
  85.7147789  42.2994804  34.5229411  86.5421581  42.1827936  33.2608771
 108.4096336  39.6517825  11.4455926 109.0306664  38.9360619  11.5808451
 107.6977539  39.2589498  10.9404790 104.9423790  59.5043898  21.7139125
 104.7066784  58.7171555  21.2230563 104.2882824  59.5569420  22.4107838
 109.5451260  72.4725151  37.9222870 109.3365288  73.1348848  37.2635126
 110.4432964  72.6719189  38.1863928  92.0498276  58.7132025  47.0245790
  92.3449612  59.6212196  47.0926428  92.4380684  58.2776451  47.7833891
  77.5308609  21.9145465   5.4797244  77.3805475  22.5886774   4.8170149
  77.9961681  21.2199712   5.0135839  99.3689632  46.1110973  17.0640826
  98.9469433  46.9030285  17.3972023 100.2844429  46.3616228  16.9401002
 100.6821823  37.1318126  42.7488708 100.4842377  36.2877917  43.1546831
  99.9347878  37.3032427  42.1759367  94.7215462  54.1418123  37.4457359
  94.4790077  54.3686914  38.3434725  95.6371307  54.4104624  37.3698211
  69.4614506  22.6720357  30.7118630  69.5168209  23.6092257  30.8985233
  69.3123102  22.6242995  29.7675586  95.3246212  51.8312645  19.0878415
  94.4297218  52.0720720  18.8482487  95.3645134  51.9690800  20.0342298
  69.3236732  24.3527627  38.8818479  69.2879200  23.6701941  38.2117343
  69.8948002  23.9926195  39.5603371 100.8152580  25.8649397  16.6462827
 100.2224445  25.7560086  17.3898828 101.4619255  26.5033817  16.9470298
 112.3853779  66.4491749  29.1544342 111.7774963  65.9153175  29.6660089
 112.6900291  67.1186781  29.7669578  92.4918175  43.7797070  31.3681388
  92.2606468  43.2514811  30.6040931  91.7793083  44.4142485  31.4450860
  92.1072006  55.7511139  40.5281448  92.2065639  55.7731056  41.4799213
  92.5768757  54.9625540  40.2564573   4.0773284  56.5925884  21.4104176
   4.5790875  55.8704138  21.0323548   4.3225014  57.3549128  20.8860230
  76.7179108  44.6766281  42.3517418  77.5340176  44.1799116  42.4106979
  76.4131212  44.7448063  43.2565546  73.7180710  51.7551994  36.8101096
  74.1963243  51.5463400  36.0076857  73.6221123  50.9144306  37.2574687
  97.1537590  26.1401391  78.9455032  96.3965893  25.5661774  79.0616417
  97.9015350  25.6082034  79.2177486  99.5534706  31.2069702  15.2446783
  99.6218777  30.2970314  15.5337477 100.2358532  31.2989926  14.5797586
  97.5489330  70.2178478  43.1977510  97.2550011  69.7206116  42.4344778
  98.3456135  70.6594658  42.9036236 114.3999767  30.4426837  37.9693627
 115.3092861  30.4483700  37.6704502 113.9176655  30.8958030  37.2777700
 116.4746666  60.3067160  53.8682270 116.2121487  59.9456739  54.7149611
 117.2064018  60.8889675  54.0725994  83.4954643  56.6204786  49.6819496
  84.0315437  57.4050951  49.5669508  82.6100826  56.9543743  49.8263693
  84.4915676  47.6813793  24.2051888  83.6815739  47.7013731  23.6955428
  84.2028904  47.5534678  25.1088142 101.8780613  52.3159027  53.5868597
 101.2997246  52.0342731  54.2956877 102.2681713  51.5053511  53.2596731
  79.0664768  20.0428939  36.2383389  79.7988224  20.0669527  36.8542290
  79.4618130  20.2367973  35.3884315  90.1327610  34.2366242  34.7411609
  89.6016693  34.8648834  35.2305102  90.7104015  33.8482308  35.3982115
  81.2080860  51.5482855  50.0195694  81.4789295  52.2210360  50.6442976
  81.9955921  51.3667965  49.5066214   0.6249005  53.6744022  33.0937910
   0.6390783  54.0257311  32.2035122   1.5458012  53.5220957  33.3058667
 112.9383850  46.9989347  50.9982157 113.4351540  46.4161730  50.4238987
 113.1259251  46.6816092  51.8816042  79.2088795  53.6964464  19.1692603
  79.3600225  54.5946455  19.4635844  80.0825977  53.3587027  18.9723396
   7.3363382  30.2129412  39.3409896   6.4209521  30.4842377  39.4095421
   7.8338581  30.9660864  39.6595430  93.1084538  51.1520720  35.5523109
  93.8663387  51.7347908  35.5045748  93.1661797  50.6186199  34.7596407
  98.7599087  63.5062456  52.1154976  99.0787029  64.2134809  51.5547609
  99.5388317  63.1983709  52.5788784  99.4501495  39.6926236  29.0375090
  98.9197826  39.7118616  29.8341107 100.1684284  39.0940166  29.2423844
 107.6380348  39.7816896  49.8486948 107.0277691  39.9282598  49.1259766
 107.2788048  40.2939224  50.5731297 102.4254417  32.5420308  52.5607920
 102.5649166  33.0531216  53.3580160 103.1527233  31.9199133  52.5448084
  76.2809086  32.2081184  54.2305803  76.0479879  32.8760314  54.8754597
  77.2099543  32.0383811  54.3864298  44.0729237  97.6916313  93.6932945
  43.4003401  97.3390102  94.2759800  43.7422609  98.5533524  93.4396458
 115.3872299  31.9221044  34.8492384 116.0749149  32.1088147  35.4883432
 114.6658802  32.5001001  35.0978446 104.1132641  17.8876531  70.1147652
 104.0708256  17.9193807  69.1590309 103.2204151  18.0808079  70.4006958
  98.6327457  49.7528887  32.7103734  99.3194294  50.3990030  32.8754044
  98.4716511  49.3511963  33.5641456  98.7352848  35.6004524  38.0182147
  98.0279350  36.0287213  38.5003710  98.5541630  35.8000278  37.0997405
 103.2350826  61.8689966  14.8845792 104.1807461  61.7270279  14.9270189
 103.0116653  62.2495890  15.7339692  91.9089985  72.3093939  29.8363900
  92.2680664  72.8741980  30.5207157  90.9861088  72.5572538  29.7810531
 114.3256187  55.3604460  24.9588323 114.6561718  55.9529448  25.6340456
 113.4109306  55.6171417  24.8418403  90.8411121  35.5888438   1.3036193
  90.1559639  35.1628232   0.7885395  91.6352558  35.4831529   0.7797851
 114.7566891  37.8127766  43.4739971 115.1214027  38.3786869  44.1544104
 114.8318195  38.3262801  42.6696968  71.5460062  58.8698196   3.1764698
  71.6338634  59.0626192   4.1099268  71.6082430  57.9162025   3.1219709
 116.1372566  35.5986524  18.3250320 115.8185291  36.4788675  18.1253719
 115.9388924  35.0882769  17.5399208 112.0866299  52.3524904  56.3842106
 112.2164059  52.2714233  57.3291016 111.1393929  52.4418974  56.2793541
   2.8027126  25.2655077  47.9856586   2.2259255  25.8636332  48.4608412
   3.4824419  25.0346637  48.6188364  78.7964392   7.9000658  36.1728716
  79.1135597   8.3396649  35.3839350  79.2002344   7.0327359  36.1424923
  95.5163574  51.4431953  37.5916648  94.8859310  51.0543394  38.1979489
  95.3853416  52.3870134  37.6826262 100.1973534  61.3001060  33.9464951
 100.4319572  61.4433813  33.0296159 100.8880615  61.7401171  34.4420266
  92.0471001  52.9357290  60.9250546  91.3580704  52.8377438  60.2678871
  91.6741562  53.5298347  61.5763521  75.8490133  24.4950652  40.3080130
  76.7997313  24.5863676  40.2445602  75.7163048  23.8462186  40.9991074
 102.8572083  59.8300982  18.5906446 102.7242947  60.7061672  18.2286119
 102.2872639  59.7994804  19.3590593  96.3673306  35.4207754  64.9797964
  96.9497299  35.9650707  65.5096912  96.9550323  34.8336387  64.5042944
  73.4822083  41.1608744  25.2992249  73.1256199  40.4344654  24.7879481
  73.3800554  40.8854246  26.2102270 101.7572594  34.4266796  47.2032785
 102.6859093  34.2272115  47.0847130 101.7495632  35.2482343  47.6944208
  99.6430302  50.2152395  29.9172330  99.2326832  49.9181032  30.7293653
  98.9813042  50.7693291  29.5033121 100.1001549  48.7711096  67.6553965
  99.3903351  48.4612989  68.2178926  99.8046589  49.6276188  67.3466778
 106.9298553  68.6859179  37.8167510 107.7594948  68.4049559  38.2027459
 106.2690258  68.4397840  38.4640121  83.1781673  34.3633986   7.5151020
  82.7462673  35.1087332   7.0977676  83.7989235  34.7583580   8.1273997
  88.9676857  36.4120579  66.1926413  89.4506645  36.2867999  67.0095110
  89.6469688  36.5143824  65.5260515  86.8504047  60.2002144  28.7610674
  85.8945942  60.1485252  28.7606859  87.1076965  59.8842001  27.8949451
  22.3071980  50.5364418  47.4987221  21.9344044  49.8632479  46.9294548
  21.5787220  51.1320829  47.6741219  95.2082825  60.5821466  11.3657761
  94.9789143  60.3254271  10.4726255  96.0385418  60.1376438  11.5370119
  81.5897465  61.0521126  13.6495709  81.9477558  61.9396114  13.6696935
  81.4000797  60.8495283  14.5656610   5.3145790  25.6124663  49.7442150
   6.1593807  25.4425883  50.1609659   4.9641645  26.3698006  50.2131367
  97.4217510  45.8412695  50.6921959  97.9677773  45.2101851  50.2233505
  97.9240513  46.6557741  50.6698322  81.4194298  30.2595878  36.7312431
  82.1585178  30.0269365  37.2932529  80.9010124  30.8685780  37.2571754
  96.8704319  39.3773985  41.0627651  96.7883873  40.3024292  41.2947607
  96.7734432  38.9125180  41.8938541 115.4166412  57.7310324  26.4310503
 115.1482964  58.5679293  26.0518074 115.2160740  57.8151894  27.3632097
  99.4106102  47.0595026   7.2441751  99.4958782  46.1297560   7.0331341
 100.0459957  47.4935770   6.6748822   8.2567424  40.2840090  39.7203231
   8.6266953  40.9842014  40.2579975   7.3518670  40.2031660  40.0218153
  86.5824509  52.1569443  61.7484617  86.3490486  52.1891785  60.8207130
  87.0059395  51.3057280  61.8594646  89.7710133  60.2736807  34.7355318
  90.0207901  60.5805922  33.8639522  88.8583565  60.0009966  34.6410036
   8.2363582  36.4654088  30.5026031   8.7860161  35.6858993  30.4221582
   8.5696495  37.0635581  29.8337507  94.8933601  43.7355518  48.7325573
  94.3473530  43.1895590  48.1668615  94.7852230  43.3588028  49.6058273
 111.9072151  43.9471531  34.2104602 111.9311333  43.2665873  34.8831344
 111.0905075  44.4183397  34.3754029  58.7783527 110.2835369  61.6500998
  58.5663700 109.5223618  61.1098194  59.6552992 110.1009941  61.9875479
  76.5442991  26.2619901  48.9535713  75.9375668  27.0023251  48.9502811
  76.5499640  25.9609985  49.8621988 111.0213757  45.4125595  22.0283413
 111.9360733  45.4992819  21.7599344 110.7028294  46.3132334  22.0879483
 107.1648312  58.0293369  11.2032855 107.7052402  57.2905684  10.9232664
 106.5899467  58.2017660  10.4576290  95.0099277  96.2860107  43.7047100
  95.6826591  96.6286278  43.1162596  95.1443386  96.7612267  44.5246696
 105.8604813  87.9741192  39.8625517 105.9254360  88.7210751  39.2675185
 105.2871609  87.3559761  39.4092894  91.5406418  65.8281517  34.5987606
  91.2682056  64.9210024  34.7369313  90.9151363  66.1715508  33.9607549
 115.3479099  67.9583216  46.7650557 115.1118088  68.8823318  46.6832590
 114.5987606  67.4865627  46.4011145  88.2718945  43.5402060  17.8588974
  88.8350868  43.1132603  18.5044694  88.6487865  44.4136381  17.7526045
  95.5766296  58.8884497  62.3991871  95.6466389  59.8303175  62.5547981
  95.2277660  58.5357189  63.2177877   8.2345575  71.7384577  37.3600864
   8.4349668  70.8028650  37.3870945   8.9599252  72.1523809  37.8277874
 107.7158451  75.8755970  10.2315080 107.6128960  75.7137918  11.1692989
 107.0362377  75.3415012   9.8202807   6.8430364  65.3876591  29.1493154
   6.3565868  66.1082029  29.5498323   6.3990736  65.2332497  28.3154750
   6.3778216  96.3402462  36.1839843   6.1888885  95.8650303  36.9931245
   5.9686142  95.8147717  35.4964805  32.2797203  97.8419781  96.2162971
  32.5627422  98.7563705  96.2209988  32.1894526  97.6239586  95.2886391
  80.4231358   6.4945066  94.9893761  81.0981464   6.8682051  95.5558968
  80.7891941   5.6588262  94.6997738   3.0702221  91.2174606  38.3981848
   2.5611639  92.0174789  38.5287809   3.9601672  91.4546013  38.6589408
   0.9366319  60.2134514  26.6385388   0.1082930  60.2512884  27.1167183
   1.0731617  61.1074352  26.3248658 115.1012325  66.9137669   9.9945092
 115.9624100  67.1133518  10.3616202 114.4898605  67.0857906  10.7106543
 113.0329895  53.9320898  31.3475800 113.2817364  53.1999207  31.9117522
 112.6254368  53.5198355  30.5858898  90.6087875  59.0501881  42.0588779
  91.4762878  59.0693283  41.6547632  90.7812977  58.9096022  42.9898500
 115.7330704  53.8057709  33.7241292 116.0238838  54.7107363  33.6114717
 115.2206802  53.8177347  34.5325518 108.8033199  79.0086889  18.2441938
 108.5780144  79.6161795  17.5396192 109.7542477  78.9162111  18.1857538
 105.3124237  67.0328093  51.0523796 105.7983971  67.8339291  50.8567572
 105.5908966  66.7935705  51.9363785  52.9113579   8.8331348  95.4193783
  52.6277161   9.6125305  95.8972073  52.7690077   9.0517950  94.4984245
  17.6802027  40.0375175  48.5646486  17.5043809  39.7327900  47.6744461
  18.0172467  40.9262276  48.4513998  93.1087685  57.3401880  49.2810059
  93.0198574  56.9670248  50.1579762  93.9479160  57.0071697  48.9629555
 114.2837429  52.2871494  25.7369447 114.2481518  53.2403851  25.6574845
 113.8627911  51.9645023  24.9401188 105.3692532  35.3783345  49.9518347
 106.2354374  34.9856758  50.0603390 104.7926617  34.6380401  49.7627592
   8.6084050  38.4525776  54.3151426   8.2791406  38.0466390  53.5132504
   9.5609874  38.4087515  54.2320871  92.3601341  63.4012461  40.9032249
  92.0021534  64.2801046  41.0284853  93.2290173  63.4373045  41.3031816
 111.4012051  72.6223660  29.8672199 110.8828640  73.3700848  29.5697713
 111.3349152  72.6495123  30.8217359  17.0959771  94.1133022  28.8874006
  17.9848576  93.8562679  28.6423397  17.2051227  94.9476242  29.3437195
 114.4911289  75.5707788  52.6739454 114.5050335  75.3672266  53.6091471
 113.5762024  75.4555082  52.4173117  96.3247013  64.3886375  24.9340677
  97.0461273  63.8892746  25.3167176  96.7343426  65.1902676  24.6087718
 117.5701523  86.3837624  29.7431159 117.0407200  85.5905533  29.6609855
 117.9548359  86.3254833  30.6176758 108.9082336  91.3951302  15.1182103
 108.2800865  92.0844555  15.3338575 108.3672237  90.6275654  14.9327886
  92.7351665  84.2033577  44.9291801  91.9390297  84.7299004  44.8574018
  92.5092888  83.5111237  45.5504894   3.5590330  67.5851202  25.1552010
   4.3092701  67.3661852  24.6025300   2.8378594  67.7154064  24.5394349
   0.4848313  61.6202259  37.8530145   0.5200222  60.6649828  37.9029942
   0.2156245  61.8032122  36.9528604  79.2717981  35.6376028  40.6568909
  79.2162943  36.2995696  39.9677253  78.9862537  36.0923147  41.4493132
   6.9588250  65.6596470  32.0361376   7.2413069  65.1018190  31.3113880
   6.2213099  66.1567879  31.6823673 111.4486599  41.9798279  70.7530260
 110.6548595  41.9964123  71.2876654 111.9381809  42.7554321  71.0269642
 105.2872753  57.2688055  54.9802971 105.8576488  56.6157246  55.3857374
 104.8626614  56.8021345  54.2604637 105.6979465  82.8935528  53.3796263
 106.4619923  83.3167839  52.9880381 105.4296207  82.2393322  52.7344608
  88.3642578  54.6936226  16.7071915  87.4982929  54.4464064  17.0315695
  88.2301140  54.8687029  15.7757497  12.3806071  53.6505032  41.5775585
  11.6902184  53.4347725  42.2044992  12.4811065  54.5997190  41.6491747
   2.9051343  53.6834812  38.5870242   2.3821458  54.4567680  38.7985444
   3.6266002  54.0202761  38.0557179 115.2475548  69.9888563  13.9345384
 116.1423111  70.2045631  13.6716628 114.6954441  70.5388546  13.3787417
  96.0576153  35.2343988  45.1863384  96.8903351  35.4816341  45.5884409
  95.6656647  36.0651326  44.9171066 100.3207874  62.3414230  38.7833452
 101.2225628  62.6158762  38.6168814 100.0485516  62.8598356  39.5405531
  95.0313282  68.1370831   5.5731171  94.4445133  68.5341072   6.2167495
  94.4766808  67.5259686   5.0882071 102.2113514  70.1487732  18.9442492
 101.5923977  69.6173716  18.4435105 101.6985512  70.9024858  19.2360961
  86.7489910  90.4202652  39.9143004  87.4742603  89.7971630  39.8699498
  86.9141865  90.9237385  40.7114601   3.0266488  52.1331930  53.8325739
   3.7528133  52.6862192  53.5443354   2.2458228  52.6666212  53.6842632
  11.3228071  68.9468002  36.0171580  11.7734849  68.1754017  36.3607717
  11.7879736  69.6883011  36.4044857  13.2546067  64.0558863  31.1590052
  12.3577225  63.9234543  31.4660764  13.7828755  63.4723854  31.7036986
  13.5543311  65.1984978   9.0992069  14.0797031  65.9951782   9.1734964
  13.0639338  65.3100634   8.2847786 117.6555157  49.5507479  39.3384480
 117.3729706  50.2531242  39.9241662 118.5412312  49.8003769  39.0749431
  75.6100750  25.1475501  45.1170635  75.3282928  26.0617352  45.1501226
  76.0161304  24.9910951  45.9696293 118.4883308  54.2619371  58.7250662
 119.0475368  55.0370169  58.7777376 118.6405277  53.9161110  57.8455925
 114.3481922  66.1013269  25.8221483 113.4412861  65.8036423  25.8938861
 114.7832108  65.7312822  26.5902996   8.8536429  61.6797829  16.4160144
   8.9961040  62.4656677  15.8884490   9.6397579  61.6090918  16.9575477
  86.0843468  91.0824013  37.4458957  85.3440094  91.6890430  37.4568009
  86.1958313  90.8240891  38.3608150  24.4630146  54.5987797  13.3958936
  25.4152703  54.6345854  13.3055472  24.3046403  53.8463736  13.9660096
 112.4541378  73.7322187  48.3251762 111.6740894  74.2187548  48.0586624
 112.7894497  73.3534622  47.5125599 107.2782516  31.3518000  14.3329763
 107.6486206  30.5523133  14.7069824 108.0121708  31.7663574  13.8793838
  88.3583260  72.1890879  39.1857743  87.4954700  72.5959063  39.1069078
  88.8232231  72.4579716  38.3934331 102.2527790  69.7050238  27.3987341
 102.9997349  70.2835560  27.5523257 102.3035145  69.0567541  28.1011605
  83.8994217  61.8137074  21.7576742  84.6517372  62.1354389  22.2544003
  84.2316818  61.0482645  21.2886977 116.1526489  81.9770622  18.2180047
 115.6239128  82.5477791  17.6603639 116.0499859  82.3398972  19.0978038
 101.7257023  38.6959863  13.4327471 101.1315632  39.4220066  13.2426691
 101.9291115  38.7903023  14.3633175 107.4128151  53.1985092  42.6856327
 107.9391861  52.4135971  42.8375435 106.5101242  52.8808975  42.6631880
  95.7618904  57.2043037  39.0012193  95.9183407  56.4756727  38.4005070
  95.1527214  57.7746820  38.5323739 112.5004768  79.6886921  35.7529426
 112.9934978  79.0399361  35.2506638 113.1302738  80.0285149  36.3886404
 106.3561153  55.8020735  43.9135456 105.9513092  54.9579191  44.1129541
 105.8972931  56.4264441  44.4755745 101.1496925  75.5701017  29.9132490
 100.7990837  75.0842524  29.1667557 100.3775215  75.8179522  30.4217267
   0.4086504  25.9880161  16.7808402   0.6526949  26.8293571  16.3950694
   0.8318998  25.3364229  16.2218058 107.6765728  68.3549786  32.1150851
 107.2614765  69.0259409  31.5731168 108.1742764  68.8480473  32.7673221
  97.3966885  62.7043295  45.1608324  97.3152447  63.6491442  45.2908993
  97.4758911  62.3467588  46.0451984  92.2861958  64.1110849  26.0398149
  92.7066708  64.6642733  26.6981578  92.9364586  64.0331650  25.3417349
 100.4663658  64.0048027  29.6718478 100.6144238  64.7430897  29.0808797
  99.5239162  63.8445234  29.6234345   0.6286370  89.4371986  27.2355103
   1.1056249  88.8215256  27.7919769   0.0660113  89.9205399  27.8405476
  -0.0978872  67.8218794  34.9194384   0.7657031  68.1319237  34.6468377
  -0.0663778  67.8357315  35.8760190 102.1677399  84.7334576  51.1644745
 101.6998100  84.8174286  50.3336811 101.5569019  84.2702293  51.7376471
  89.8603916  56.5236044   8.7861967  90.5581188  57.1620274   8.6384535
  90.3200054  55.7001352   8.9501607 111.3231182  42.1222734  10.2220273
 112.0872784  41.5685511  10.0617921 111.5472126  42.6175976  11.0098493
  97.7020168  53.6776352  48.1351757  97.8509998  54.6127224  48.2753658
  98.4953022  53.3720255  47.6952505   1.7073195  73.9874172  51.0329533
   2.3725714  74.0227318  50.3456211   0.9139050  74.3231773  50.6158257
  90.0218868  59.1476870  28.6239028  90.8731842  59.5851755  28.6349344
  89.6355724  59.3965340  27.7842188 119.0162373  73.3762884  12.7759445
 118.9999199  73.4484434  11.8216074 118.2821465  72.7986956  12.9850566
 107.4601173  83.9270687  33.9300132 107.4304581  83.7388611  32.9919672
 108.3511543  84.2414570  34.0831637   4.0249521  63.3651495  39.9093246
   4.3513334  63.4001923  40.8084774   3.0727187  63.3330107  40.0012541
 102.1888161  66.8206930  38.3980846 101.8393326  67.6428127  38.7419009
 103.0828571  67.0337391  38.1306148 117.7686882  73.8489962  64.1863823
 118.7108803  73.9551306  64.3176794 117.6959705  73.1989670  63.4875250
  18.4237051  34.2688847  48.9736605  18.3964980  35.2254415  48.9515400
  19.1485012  34.0634823  49.5641804 111.5158176  32.4166083  55.7469082
 112.0378208  32.7631617  55.0232697 111.9079876  32.8012156  56.5308142
  62.1552372  24.2420626  74.8710871  62.9000664  23.7979388  75.2763224
  62.4190044  25.1611876  74.8278618 112.7197647  78.2878780   2.9389918
 111.8025970  78.5439682   3.0362314 113.2123089  79.0891790   3.1166440
  93.9533424  79.6638250  27.6860785  93.0658340  79.7666550  28.0295634
  94.5205879  79.9776745  28.3903265 110.1634407  63.5541534  25.0352645
 109.7028542  62.9818583  24.4216108 109.5704174  63.6305141  25.7827473
  13.2543027  62.8129339  42.1595287  13.9547145  62.3273087  42.5952148
  12.8770053  62.1866274  41.5417767   3.5182065  87.8674793  55.2677870
   3.7866238  88.6087513  55.8106565   2.8182891  87.4462605  55.7667112
 103.7287617  51.9817734  28.2085371 104.0275478  51.7224360  27.3369288
 102.7739811  51.9917917  28.1412911 100.9487247  79.8563910  60.7563925
 100.8356380  78.9083910  60.8252287 100.0580597  80.2062130  60.7803249
  95.4419136  43.0355883  18.5069633  95.7998180  42.2718620  18.9595687
  96.0725021  43.7343931  18.6809421 107.6872444  95.9883595  25.6390548
 107.9936218  95.5634499  24.8379230 108.1083870  96.8478966  25.6304049
  94.0466690  70.1177454  43.3320332  93.5851192  70.9328175  43.1349182
  94.6907806  70.0312614  42.6292706  91.8816757  47.0317507  27.1069026
  92.2941113  46.3601542  27.6501274  92.2870827  46.9259548  26.2462735
 115.5437756  59.0449142  16.1993599 114.6064568  58.8508558  16.1977899
 115.6720257  59.6129894  15.4397035  59.6710873  78.9465761  29.8984218
  60.1322412  79.1168308  30.7197499  59.5547009  79.8115444  29.5053339
   6.7459065  61.8891287  27.4871254   7.2610712  61.6249943  28.2494044
   7.1570206  61.4354563  26.7513275  84.9481678  89.8941612  29.6398139
  84.9953556  89.5275974  30.5227852  85.3000069  90.7798672  29.7290587
  93.4260559  55.0705624  35.3254414  94.0073109  54.9519920  36.0766554
  93.3382702  56.0197067  35.2379966 104.6666527  27.4262381  30.7762766
 104.6274471  26.5370655  30.4240441 105.1592350  27.3390794  31.5923619
 101.0824203  56.4952326  26.3655877 100.9265327  56.7964983  25.4705071
 100.2076340  56.4030647  26.7430568 115.7900620  67.2486639  23.8404322
 115.1703072  66.8240547  24.4335985 116.0372543  68.0564976  24.2904687
   4.2670122  69.0142155  47.3021555   3.3357823  68.8006878  47.2434235
   4.3432474  69.8709583  46.8821478 111.3405800  29.9270248  40.1127100
 111.1654854  30.7976413  40.4699230 111.3753700  30.0593925  39.1653442
   5.4919225  36.7126417  31.0331249   5.1601201  35.8262634  30.8900499
   6.4339972  36.6436267  30.8783221 117.6745319  62.8900528  45.5157137
 117.2214508  63.2095957  46.2960005 118.0446243  63.6764908  45.1147318
  98.4380054  72.6919413  50.6517887  98.4096718  72.0950603  51.3995552
  99.3251419  72.5989103  50.3045464  98.2273960  80.6408501  39.0900111
  98.0758762  79.7228527  38.8651729  98.7342930  80.6082153  39.9013209
 113.9735985  57.6240206  52.1074629 113.9027214  58.5778141  52.1460247
 113.0753994  57.3124123  52.2186661  96.7070389  64.9442577  20.0322604
  97.0232487  64.7558117  19.1486704  97.4724770  64.8171425  20.5927658
 107.1495342  79.4767570  20.5245233 106.2758827  79.4446087  20.1347375
 107.7373123  79.2115450  19.8171329  72.1464586  43.1294250  15.1721883
  71.6072083  43.7269306  14.6540821  72.8872252  42.9207373  14.6030259
 112.5756741  44.5249891  16.5602958 112.1752453  44.0683842  17.3001623
 113.4560013  44.7467613  16.8637395 105.8251095  56.8790913  38.2046032
 106.0060406  56.0493040  38.6461353 106.6842842  57.2886419  38.1029820
 105.7688904  53.4248686  10.1390266 106.0979843  53.0519581  10.9568667
 105.2691841  54.1947126  10.4108095 112.3557758  57.8044844  32.9295278
 113.0550671  58.3853531  33.2292271 111.9969177  57.4273729  33.7327933
  87.1048737  35.4148221  47.7461290  87.3513699  35.1039839  46.8750095
  87.3812866  34.7146273  48.3373642   5.2141601  88.1246948  38.6787844
   4.8005807  87.3532867  38.2913423   5.2811986  88.7488747  37.9561925
  98.7921047  52.8138828  60.0906134  99.5887756  52.4195290  60.4456091
  99.1039276  53.5446930  59.5568419 111.9464397  46.8982410  24.7654510
 112.7421188  46.6957760  24.2733908 111.7492580  46.0929728  25.2438784
   1.6937307  47.3095226  38.7748647   2.1466109  47.8616905  38.1374907
   1.1167268  46.7578793  38.2466745  87.8828144  79.8107481  20.7465076
  87.7454090  78.8836432  20.5520129  88.1195831  79.8284101  21.6737962
 108.4350681  76.4168406  24.9005437 107.9161549  75.6367064  25.0963831
 107.8709412  76.9438839  24.3346620 100.5623150  50.1007175  13.3061337
 101.0592461  50.7487822  13.8054359 101.0169983  49.2740011  13.4674704
  13.3341384  88.9196014  39.3037820  13.3678555  89.8682499  39.1806674
  12.5733292  88.6389732  38.7952065 110.6771183  43.5171652  45.7685661
 110.4269886  43.4409332  44.8477745 111.6005421  43.2658625  45.7875013
  93.5814285  72.5805569  42.6768351  92.9413605  73.0709171  42.1610022
  94.3539047  73.1453609  42.6996660 101.6711998  65.5511570  32.4386024
 101.2503242  65.1461220  31.6802883 101.1420631  65.2697039  33.1849456
 108.8951969  46.7524338  51.0317564 108.4479046  46.1001205  50.4926348
 108.9831829  46.3352728  51.8887663  95.7335091  68.4913969  44.9800634
  95.6103325  69.3362284  44.5472527  95.2262497  67.8752995  44.4515276
  92.6764870  21.7548299  28.1153226  91.7869377  21.8920517  28.4410691
  92.5744343  21.1330605  27.3947525   6.3072830  34.0587401  25.2877235
   6.4877546  34.1682887  26.2213516   7.1413380  33.7737918  24.9143744
 107.7379990  74.6856642  37.4577832 106.8351269  74.8046637  37.1629977
 107.7225018  74.9322844  38.3825374 112.0170212  72.8352451  32.6083207
 112.7535725  73.4182501  32.7922511 111.4367771  72.9370546  33.3627629
  99.6801949  80.9003735  41.2530470  99.4555950  80.5835533  42.1279287
 100.3988838  81.5156841  41.3983154 108.1193161  49.0095997  26.0965705
 107.6243401  49.6773911  26.5712094 108.7926102  48.7258244  26.7149425
 105.6613922  87.9445744  16.7227685 106.3281918  87.3499680  17.0663667
 105.9398746  88.8120556  17.0162833 102.7896309  48.8338470  27.4249268
 103.2618904  48.8535500  28.2572865 103.3003521  48.2408714  26.8737674
  90.9958553  60.3493214  17.1382809  91.0629845  59.3961430  17.1946728
  90.3440285  60.5830431  17.7991331 115.9195518  74.8430967  32.3302650
 115.6800842  74.2511463  33.0433393 115.1212120  74.9248934  31.8085456
  90.5496120  94.9012089  38.8934588  90.2989197  95.1940346  38.0173063
  91.3474655  95.3918362  39.0908074 103.0797195  68.2506514  29.6665549
 103.1974602  67.9507017  30.5678868 103.9604282  68.2350397  29.2919517
 104.4876003  72.8972054  39.0734076 104.1121674  72.2474527  38.4791851
 105.4308605  72.7386332  39.0366650  91.1946678  54.9776363  13.8422716
  91.5671730  55.8537388  13.7427008  90.2479458  55.1188564  13.8455439
 100.3643608  69.5717812  35.4385781 100.7409382  69.1962290  34.6427274
 100.2713013  68.8278484  36.0336685 100.3279018  56.0484695  55.1855469
  99.8307133  56.5029907  54.5055103 100.5233192  56.7261171  55.8327246
   3.9103392  57.1054649  39.0726018   3.6361304  57.9817200  39.3431926
   3.1458300  56.5536261  39.2376256 115.8348846 105.2441216  29.0088868
 116.4254761 105.7035446  29.6058440 115.8237076 104.3424129  29.3298697
 102.1992970  67.8854513  10.2851510 102.6179504  68.0503607  11.1299980
 102.3771954  66.9621754  10.1058519  10.6935406  68.7394142  52.8031206
  10.9205270  69.6692705  52.7947712  11.5301609  68.2896948  52.9216671
 104.7626877  45.3196859  38.3433437 105.4656982  45.9139538  38.6057401
 104.1397858  45.3501606  39.0694952 100.2576637  68.5311699  85.6914330
  99.3595409  68.6816692  85.9863186 100.1767349  68.3652401  84.7522068
 107.8464127  67.1950626  48.2040882 108.0722141  66.2663698  48.1513739
 108.4829044  67.5618553  48.8177395  15.5638158  57.8380203  17.2711313
  14.8843694  58.4824467  17.4693799  15.3537548  57.0891428  17.8290653
 111.9766903  48.2479715  63.1308365 111.9380665  49.1851568  62.9399967
 112.1088123  47.8350163  62.2774649 110.7997990  72.1769810  34.9881530
 110.6547642  71.3708591  35.4834986 111.1478138  72.7942133  35.6316972
  87.6567268  57.4127245  34.9332047  86.9947243  56.7306948  34.8199654
  88.4236813  57.0820761  34.4655633 108.9066505  29.0791249  43.9225245
 108.6828136  30.0020742  44.0420818 109.5359707  29.0767741  43.2012892
  95.3685093  86.0305691  38.9852953  94.4304371  86.1271477  38.8212252
  95.6874847  86.9273376  39.0867519 112.3909473  30.7493687  35.7060552
 112.0359039  31.1163545  36.5156817 112.5135994  31.5065503  35.1334572
  98.0004501  67.3912430  25.8136487  98.6809444  68.0344057  25.6149220
  97.2353172  67.9166412  26.0476589 112.5053883  84.2172813  38.6574483
 113.3563900  84.5638943  38.9255714 112.2963238  83.5575867  39.3187523
  94.2269325  65.0307798   2.3809107  94.6906376  64.5768690   1.6772225
  93.3087349  64.7905731   2.2566000 105.8884048  54.5143509  35.5774522
 105.9680653  55.4513502  35.7561302 106.7650604  54.2479753  35.3004193
 104.7930908  53.7733746  23.6027336 103.8434410  53.7886906  23.7217498
 105.1183319  54.4616747  24.1829872 117.9994583  74.0188026  53.2422972
 117.9384613  73.1052637  52.9630852 118.7310982  74.0323210  53.8593388
  78.8483953  49.7485924  59.9287510  78.2967186  50.1418924  59.2525864
  79.1163301  48.9070225  59.5596933 114.4848728  69.9833441  21.2018371
 114.7749424  70.2282953  22.0805216 113.6304379  70.4039717  21.1057281
 103.7476254  69.2876053   8.0490267 103.0705452  69.1327333   8.7076712
 103.3312988  69.0565825   7.2186458  87.4992275  43.4370041  31.3563132
  88.3116055  43.9196014  31.2034178  87.0854855  43.3854437  30.4946923
 118.0708122  71.0774946  30.0411963 118.4906197  70.9251404  30.8878279
 118.7639332  71.4451599  29.4928837  91.2675095  54.5768452  19.4570470
  91.3613796  55.5281067  19.4068694  91.2920952  54.2853355  18.5456467
   1.9123004  60.3578329  32.1492505   2.4046373  61.0918236  32.5168014
   2.5580692  59.6569157  32.0602036  96.5423489  48.5338497  55.0006342
  96.8859386  49.2030668  54.4087553  95.7520676  48.9257193  55.3722811
  93.0778313  44.5702219  18.1210172  93.6031246  45.3699636  18.0944586
  93.6835003  43.8959551  18.4288561  87.4043846  69.4947672  34.1987467
  87.0635223  68.9358568  33.5004139  88.3540726  69.3848944  34.1514373
 108.7318516  49.2948723  59.7955561 109.6356297  49.5247984  59.5798063
 108.7633991  48.3587217  59.9926805 110.3597927  43.2558918  43.1898594
 109.5183468  43.1607962  42.7435875 110.9759045  43.4832096  42.4934673
 103.5729218  57.5002146  17.2682261 104.2619991  57.2726440  17.8924167
 103.1099892  58.2307816  17.6783442 101.6393471  83.9196873  33.6982012
 101.6432858  83.3676434  34.4801617 102.5375652  84.2431355  33.6288381
  11.8511450  61.5686417  52.4424362  11.9792819  62.4331617  52.8328466
  11.1658561  61.7008543  51.7873573 102.1026134  30.2367258  46.0764456
 102.1734142  29.4297528  45.5665302 102.1270847  29.9467587  46.9883442
  98.3232212  71.2299061  12.2203457  98.9486504  71.0814381  12.9295933
  98.0392075  70.3525257  11.9638848 110.1900768  41.4384365  27.9220653
 110.5972862  42.2379303  28.2555604 109.7764969  41.0423756  28.6890864
   1.1928407  32.7493453  51.5526295   0.8239245  31.8903637  51.7582560
   0.5227711  33.1762290  51.0187674 115.3666306  45.7678509  46.4862728
 114.9649334  45.0838423  45.9505463 115.4230404  46.5257120  45.9042931
 105.7455826  90.9265327  35.3765869 106.1590290  90.1125431  35.6641865
 106.4143944  91.3608456  34.8471594 107.2451019  51.1970711  46.0580349
 107.1159077  51.6231441  46.9053841 106.3700104  51.1618519  45.6717634
 103.7384892  45.8163404  43.0726719 103.2039261  45.4671621  42.3595476
 103.1228256  45.9400988  43.7950754  97.4220848  71.9531345  38.4057379
  97.1036530  71.6650820  37.5502515  96.6310024  72.0480967  38.9362121
 103.5511494  79.6601200  22.6810837 103.6736870  80.1857567  21.8905640
 103.5421371  80.2985573  23.3942127 101.1686230  64.9028873  22.3035550
 100.3677750  64.4846201  21.9874430 101.1373806  65.7870245  21.9381046
  97.2913265  82.3130608  30.3135085  97.0018291  82.9453182  29.6557260
  97.4587536  82.8400230  31.0948658  98.4092045  50.7098579  48.3555508
  99.0300846  50.4326153  49.0292549  98.3336353  51.6566277  48.4745073
 111.1338520  49.4279623  24.5983934 111.9972801  49.8002911  24.4192600
 111.3109684  48.5202694  24.8452830  14.3408346  87.4816513  28.1861687
  13.8414562  87.7109337  27.4024081  15.2271128  87.7949429  28.0056357
 107.5666142  82.0410442  50.5561447 107.7147579  82.8557587  51.0362768
 106.6831875  81.7719269  50.8078718 112.0375538  52.3325968  48.3553982
 111.1095810  52.1517086  48.2058048 112.2927380  51.7202663  49.0454483
 113.2502842  62.2932720  32.5909114 113.1604481  62.1446085  33.5322189
 113.6431599  63.1634331  32.5222802 113.2273960  79.5929909  22.5720000
 113.5731697  79.8995590  21.7337370 113.2973766  80.3514385  23.1517386
  54.5738029  13.4228599  95.5738163  54.3476772  12.6360488  96.0698318
  54.6666241  14.1061056  96.2377453 114.4489861  97.0458603  54.3442345
 113.7460518  97.2464943  53.7262821 113.9972210  96.7275906  55.1257944
  86.0384464  64.6925449  15.5531931  85.7944679  65.4660273  15.0448310
  86.8605995  64.9353552  15.9790325   3.6408979  90.8165550  14.7635663
   3.8643578  91.7107582  14.5053065   4.3554017  90.5484962  15.3413725
   5.8581901  67.4538898  45.7655382   6.7209679  67.7820206  46.0188723
   5.2446663  67.9499483  46.3075209 111.8532658  97.0560837  41.5883875
 111.2329006  96.3385296  41.4599085 111.3034534  97.8336811  41.6847277
 108.9334583  85.1142120  15.8133423 109.1195869  84.4103050  16.4347124
 109.2132092  84.7664070  14.9665797  99.6892071  89.3723488  32.7011657
 100.3486443  89.4549656  33.3900404  99.0920830  90.1050854  32.8520918
 101.9654560  71.1620712  36.8140149 101.5240383  70.5662775  36.2086964
 101.2541199  71.5871811  37.2930765 105.7630253  70.8159542  14.4022846
 105.5443192  71.3989067  15.1293135 105.6906319  71.3672447  13.6231351
 105.9397030 100.9770775  39.1876292 105.7199860 100.0721931  38.9659524
 106.7368603 100.9081650  39.7130132  96.5818024  94.0382385   5.7513130
  96.7224884  93.2474422   6.2719750  97.3653316  94.5669365   5.9022838
   7.1363503  72.5541496  12.8038299   6.6213572  71.9832754  12.2336376
   8.0463558  72.3511744  12.5872111   2.3037852  68.7484360  33.8582754
   2.9698631  68.7291431  34.5454431   2.4327889  67.9313421  33.3766651
 118.8594913  61.4528751  35.0621676 118.0450249  61.1492825  34.6612763
 119.1331768  62.1916580  34.5185399 112.8282070  56.4686346  62.2274542
 113.2474709  56.9420242  61.5088749 112.9381847  57.0403004  62.9872799
 113.6435413  65.4231405  33.5457993 113.7936020  65.9969854  34.2970777
 114.5036411  65.0491619  33.3544898   3.2160196  65.9218788  41.7881584
   3.4981605  66.6131544  42.3871279   3.9346755  65.8401680  41.1611891
  73.0915737  85.3589249  35.1448441  73.1205130  86.0787773  34.5145988
  72.5267363  85.6789875  35.8482313   4.7499734  87.9035568  25.6084132
   4.1927481  87.9547119  24.8318076   4.9493039  86.9717503  25.6992221
  10.8869898  83.3094025  44.2958689  10.2304602  83.1675816  44.9778414
  11.1005902  82.4305153  43.9825630 114.8902512  69.0924358  37.5384903
 115.3491974  69.7044039  38.1139016 114.2895699  69.6418095  37.0348907
   0.8954237  99.3850136  36.7887592   1.7094411  99.6907520  37.1889281
   1.1409923  99.1538334  35.8929467 115.6377316  83.7684441  64.4268894
 116.3345814  83.9826107  63.8065958 114.8284912  83.9687634  63.9565372
 105.2603912  63.5557556  41.2804842 104.9174023  62.7588797  40.8760309
 104.5372105  64.1807461  41.2292099 114.7520161  72.3019838  41.8748188
 115.4189205  72.5810480  42.5021839 113.9312744  72.6431561  42.2300911
  16.9040930  67.8773260  20.5807400  16.9249451  68.1638765  19.6676755
  17.7966511  68.0183506  20.8964705  80.4547405  88.1666470  17.2126448
  79.9936724  87.3980999  16.8765152  80.2061462  88.2102680  18.1359708
 116.2405491  97.9005623  24.8870516 116.8694878  97.3961163  25.4029965
 115.4705906  97.3349380  24.8282599 101.3323879  65.8816338  53.4864187
 100.8123016  66.3568926  52.8384399 100.7592583  65.8131313  54.2499971
  11.0355353  70.0028515  44.6758080  11.5891862  70.0708389  45.4536772
  11.3863599  69.2519140  44.1970158  13.2554650  85.6890678  20.3320479
  13.4384859  86.1467743  19.5115352  12.3312283  85.8680916  20.5051661
 108.6798763  69.1235447  71.4150667 108.9500809  70.0399971  71.3573027
 107.7634239  69.1261721  71.1387825 110.9876633  93.7846184  12.5673151
 111.1417198  94.0411568  11.6580904 110.5856609  94.5550060  12.9687142
   6.5437597  95.4333496  22.8499460   5.7031232  95.8193684  23.0960202
   7.1800548  95.8586311  23.4248304  96.5843105  64.1035843  38.9749551
  96.1260033  64.9242401  38.7940764  96.2447166  63.4908152  38.3227110
 110.4238129  91.8383694   8.5363322 111.0565948  91.3039494   8.0565327
 109.6120644  91.7554760   8.0359113 106.4756680  68.7919092   8.3787590
 105.5235863  68.7318325   8.3002317 106.6223335  69.1279411   9.2629564
  94.9669170  54.2958069  22.9446030  95.0831032  54.5106936  23.8701057
  94.9481869  53.3390713  22.9213786  18.6432052  60.0144672  14.5255208
  18.7671828  59.7894478  13.6034441  19.4171047  60.5300713  14.7523856
 107.0678806 101.9925690  43.3896112 107.7041435 102.2039986  42.7064610
 106.2216949 102.0100784  42.9425097 103.1525040  91.6187859  35.8471346
 103.0618858  91.9099998  36.7544460 104.0840912  91.4209652  35.7509828
 102.6014900  82.9050827  38.5490131 102.0178699  83.6635303  38.5296178
 103.3593845  83.1727123  38.0292034   1.9749454  91.1951733  23.6899853
   2.5386685  90.9817505  22.9464149   1.7010300  90.3452206  24.0346146
  99.9793720  96.7272472  40.6318951 100.5943203  96.2695217  41.2050915
  99.3461323  96.0566807  40.3758097  13.2300627  80.6683540  37.1129584
  12.4796355  80.0789261  37.0376348  13.9247727  80.1252460  37.4853134
  19.1216385  51.5130711  36.7213321  19.8981059  51.7128038  37.2442460
  19.4692385  51.2082481  35.8831859 101.9647312  61.6270542  47.0521641
 101.8632793  62.5675106  47.1987200 101.4534569  61.2192059  47.7510881
 110.3935814  86.1575985  21.1297035 110.6239700  85.3064346  21.5020704
 109.9438858  86.6158199  21.8396640   7.2502935  66.4318848  59.4468403
   7.1645689  67.2223806  58.9139223   6.9446307  65.7252741  58.8780642
 104.4433975  62.6321793   4.4206747 104.1418076  62.2660160   5.2520585
 105.3846836  62.7572012   4.5414379 112.5447083  97.0173073  36.5714741
 112.5733852  96.4834881  37.3654819 113.4578514  97.2538185  36.4087653
 113.9043999  71.9028187  49.7396946 113.3904171  72.6053381  49.3415451
 114.4763851  72.3489237  50.3642416  10.4188240  75.0346375  28.8000846
  10.0282848  74.4646788  28.1376195  10.0633800  74.7160673  29.6297860
  32.7058268   0.7781186   3.1667399  31.7910671   0.5054201   3.2380447
  32.6867294   1.7228481   3.3195576 114.8013306  81.0168171  40.8296967
 115.5189419  81.2557220  40.2430105 115.0901699  81.3110161  41.6935587
 115.9110355  88.4103107  26.5927768 116.0010052  88.8091755  27.4582529
 115.1565075  87.8270912  26.6750956 110.7147980  75.4806471  41.8581057
 110.2836704  75.5595636  41.0071421 111.0195160  76.3663673  42.0552778
   2.5159606  88.0443192  46.0752678   1.9369443  87.3744297  46.4388847
   3.1232390  87.5586605  45.5170679 110.0623417  94.6850300  30.4360366
 110.6150246  95.1055527  29.7772932 110.2730274  93.7539005  30.3664207
 102.8805828  63.0023384  17.2336972 102.6606750  63.3261347  18.1072140
 103.7774754  63.3022642  17.0858514  88.2961082  66.8056726  21.7053032
  88.2341671  66.4575768  22.5948119  89.2303944  66.9693089  21.5766573
 112.6184750  50.5071640  52.9943419 112.4731159  49.7155809  53.5125113
 113.3385468  50.9551382  53.4382439  99.8453426  86.8071747  47.2717524
  99.7482204  87.7592278  47.2916985  99.7089767  86.5334606  48.1787872
  14.7295976  94.7439098  31.0456419  15.1743686  93.9026642  31.1491537
  15.0158095  95.2604485  31.7989683   9.0106779  80.3952503  37.3684645
   9.2809927  81.3073063  37.4748182   8.8191617  80.3095436  36.4345455
  13.5296893  77.6145697  26.4468527  12.9614615  77.9125166  27.1571898
  14.3098843  77.2795248  26.8887448 107.2126484  61.8263531  64.3017960
 106.6349888  62.2463846  64.9390745 106.6622829  61.6950417  63.5297251
  27.6278734  75.1087523  39.9865985  27.7632904  74.3145657  40.5034733
  28.5093927  75.4506969  39.8374987   2.1125066  85.6738663  29.4961214
   2.3879687  85.1613140  28.7360954   1.2855673  85.2750874  29.7669935
  95.9533405  90.0038624  34.2909026  95.8301353  89.0572166  34.3610620
  95.0949097  90.3385353  34.0314341  22.1744561  77.5205898  49.5709372
  22.1082711  76.5955210  49.3340921  22.4150085  77.9600382  48.7553072
 118.7870884  59.3834972  24.2216802 119.4136524  59.4455051  24.9426484
 118.6986828  58.4439754  24.0613222   0.5013489  96.5514374  55.7773066
  -0.1360153  95.8373165  55.7828283  -0.0069778  97.3279762  56.0114431
 114.2741680  73.5689259  29.1526437 113.9045525  72.8082657  29.6009994
 114.0779972  74.3063021  29.7305942 104.9869728 107.2896767  23.2273507
 105.3249645 107.3113728  24.1226268 105.6962013 106.9042873  22.7128553
  12.7522290  55.1091528  28.3670235  12.9172075  55.7490349  27.6745200
  12.5624311  55.6382656  29.1417789  98.6510563  86.7091751  33.4603357
  98.3866215  87.3661613  32.8163886  97.8855038  86.6061306  34.0256071
  17.6148975  73.0250120  22.5159550  18.3450389  73.5847044  22.7802873
  17.9859006  72.4457741  21.8503213   1.8623698 105.6113529  37.4565864
   1.8345845 105.6711864  38.4115100   1.0363033 105.1902485  37.2188568
   7.0956087  56.6138887  32.2595811   6.8426925  57.4960995  32.5315571
   7.6617509  56.2990713  32.9642820  77.7318096  23.3335876  94.0316391
  78.5060596  23.4518170  94.5818996  78.0167770  22.7327919  93.3431149
 104.5116234  84.5282841  40.8674908 104.2001629  85.1753712  40.2346420
 105.4622936  84.6395874  40.8756924 105.1563263  77.3712969  40.3425503
 104.9231052  77.3214293  41.2695646 104.3176651  77.3372746  39.8824167
   8.3231622  71.0107136  44.9744654   9.0890127  70.4382610  45.0191927
   8.6810315  71.8736887  44.7660494 100.8422184  79.1141939  23.1599617
 101.7693424  78.9495325  22.9880595 100.6905460  79.9990797  22.8279877
   9.5452213  66.4175320  30.4211068   9.4060642  66.6956615  31.3263750
   8.9667028  65.6629658  30.3107548 101.3409901  68.6317301  32.9688978
 100.6521606  68.2689428  32.4120045 102.1141148  68.1043959  32.7678251
 102.9088974  66.7206717  61.7444992 103.2119751  66.1643553  62.4620533
 102.1176338  67.1391487  62.0836496   3.9618915  88.7671757  42.6457644
   4.4546109  88.1960106  43.2350349   3.0443564  88.5601044  42.8232002
 100.5614281  56.6675520  15.4331529 100.7062149  57.5923634  15.6331348
 101.3521767  56.3967276  14.9666595  94.8325825  79.3301582  20.2945638
  95.1077080  79.9366140  20.9821320  93.9974499  79.6813107  19.9855649
 106.5864372  91.4957237  44.2621613 105.7964516  91.0400105  43.9715242
 106.9061089  90.9748268  44.9988508  99.8136330  77.6050329  51.3738871
  99.4833851  76.9681215  52.0075369  99.8693466  78.4247303  51.8650293
   1.9214553  75.8253765  52.9654503   1.8626150  75.1426411  52.2971392
   1.5981475  75.4076481  53.7637043  60.8428717  46.1411190  95.6020927
  60.6298351  45.3277731  96.0596085  60.0180292  46.6262388  95.5793285
 100.1361465  42.1545744  53.5596085 100.6953144  42.7802992  53.0991507
 100.4091072  42.2177744  54.4748783 118.0184364 109.2960548  29.3032122
 118.1730080 109.8531628  28.5403395 118.4721279 109.7398567  30.0197554
 113.7570953  48.9951468  15.8616364 114.3841171  49.6489382  16.1708701
 112.9135704  49.4474077  15.8744550 110.9091091  89.0080357  43.8725853
 110.2104855  88.4437943  43.5412407 111.7153168  88.5295200  43.6795139
  11.6771102 103.9076614  21.8204045  11.9686806 104.3767357  22.6021862
  12.4813414 103.5572052  21.4374804  97.3368740  75.2307749  49.9151468
  96.4086819  75.2438164  50.1486683  97.7513885  74.7187138  50.6095505
 102.3458672  64.1540670  13.3483160 101.8185139  64.1594601  14.1471303
 103.0057240  63.4777880  13.5014975  88.7756252  86.0865879  28.8119340
  88.5354805  86.7998600  28.2204866  88.7003136  86.4658833  29.6875477
   0.8519567  72.5556755  28.6022067   1.8035379  72.4531841  28.6170840
   0.7110632  73.4979057  28.6948419 118.8192272  59.2678261   7.5728863
 119.6428013  58.9033747   7.8971249 118.4816551  59.7847843   8.3043420
   7.3096609  57.5074625  26.8246078   6.5324718  57.2536755  26.3268113
   7.1659356  57.1402073  27.6967859 107.9124355  73.8329411  16.8703568
 107.5621128  74.6792793  16.5924716 108.7837982  74.0346909  17.2113311
 101.1991978  91.9030476  28.2404208 101.6307163  92.6578712  27.8400826
 100.8444309  91.4098358  27.5007486 114.9220657  87.0285320  45.0543928
 115.7789612  86.8590164  45.4458380 114.8474026  87.9827690  45.0453758
 112.4537945 103.8124657  26.7687321 113.2451153 104.2466640  26.4501166
 112.4984264 103.9016914  27.7207184 109.6651459  87.9589462  56.3703585
 109.8179340  88.6514091  57.0133066 108.7477303  87.7154732  56.4940214
  98.1289387  87.1028042  37.3452878  97.8779507  87.9806042  37.0577025
  98.9953136  87.2173023  37.7358294  92.7396107  99.4664764  28.4094715
  92.6060963  98.7159348  28.9883447  91.9062710  99.9368954  28.4311366
 115.0810528 102.7978992  29.8368621 115.8970642 102.4848175  30.2271581
 114.5000267 102.0374107  29.8542237  30.2336740  85.6905651  32.6158285
  29.9759984  85.9788609  33.4914589  29.4091892  85.6194687  32.1347904
  94.5595741  77.4211454  15.9741056  94.1685104  76.5880251  16.2371838
  95.3593826  77.4856901  16.4959955   2.7529690  74.7106266  43.9893103
   3.5159633  74.4137478  43.4933949   2.6484165  75.6291008  43.7409067
  21.9195867  69.0272331  60.0686550  21.0319972  68.8003683  59.7912550
  22.4885106  68.5209322  59.4888115 111.9237900  55.2657509  57.1902895
 111.6908932  54.8187590  56.3765430 111.1827469  55.8457279  57.3655319
  11.5687037  78.1585836  43.0957079  10.9707892  77.4468040  42.8674603
  11.4711940  78.2589436  44.0426254 108.7890434  77.1168470  33.4794927
 108.8638210  76.9528818  34.4195747 108.9119053  78.0619621  33.3906889
 101.8238449  66.8680143  18.8430274 101.4847755  67.0705843  19.7149396
 101.9314384  67.7216721  18.4235954   8.6410648  88.1807327   6.5423214
   8.3231199  87.3686028   6.1478740   8.7909704  88.7652302   5.7992756
 102.6927185 103.1305408   2.6263767 102.2586155 103.3600235   3.4480390
 103.5946560 103.4301758   2.7401823 114.2728710 102.8016758  47.7992582
 114.5201397 103.1658936  46.9492960 114.6786213 103.3876991  48.4381437
 106.6366291  66.0475636  53.2540178 106.8760872  66.3365364  54.1345787
 107.2082615  65.2988720  53.0839157  45.6587124  21.0991192  15.8889914
  46.4842033  21.3574314  15.4790246  45.4175806  20.2839327  15.4490411
  75.3911018  19.2811859  33.4505105  75.3235674  19.3326867  32.4970865
  74.6406603  18.7492990  33.7153983  58.8821411  14.0268886   7.9019457
  59.7710562  13.7279332   7.7104014  58.4895611  13.3085811   8.3980763
  61.2995052  16.0347819  20.0934386  61.8665981  16.3317382  19.3817830
  60.4341078  16.3764751  19.8685658  11.6784012 111.0593796  13.1000435
  11.3018739 111.9310284  12.9788816  11.1523581 110.4909325  12.5375605
  26.0689950  99.9766731  22.7693558  26.6439819  99.4275856  23.3023930
  25.2111053  99.5567703  22.8321171  82.4815750  23.0860567  24.8449850
  81.9442749  23.8382411  24.5964599  82.1011543  22.3507690  24.3645000
  89.0748119  20.6511879  21.3995099  88.1498623  20.4497933  21.2576008
  89.3949318  19.9338734  21.9465113  75.8248091   0.4476330  37.9551506
  75.5239344   0.5938476  37.0583057  75.1556063   0.8587535  38.5023093
  69.5611095   7.3613983   8.3221662  70.3566885   7.8928566   8.3511549
  69.2264128   7.3821449   9.2187047 104.2279911  67.7626944  93.5117054
 104.1933155  67.1140337  94.2147446 104.3449211  68.5987997  93.9628029
  71.2113523   1.0668022   7.0352644  72.0392513   0.8213200   7.4482459
  70.7312489   1.5329698   7.7196789 117.9552460  54.3819094  85.2808857
 118.3167839  53.4956408  85.2741528 118.6112022  54.9046755  85.7420540
   6.0940057  43.6201382  89.4009590   5.3204066  44.0747118  89.0675831
   5.7640105  42.7722263  89.6982384  59.4193029   0.3140161  18.3304191
  59.3449688   0.5653149  17.4097908  58.5240030   0.1008980  18.5935616
  69.6731901  22.0094514  20.8562732  70.6070948  21.7995596  20.8578229
  69.2370033  21.1604047  20.7848954  56.3801098  14.6822929  22.5358152
  56.4469671  14.9735332  21.6264510  56.7320442  15.4109228  23.0471587
  73.0410147  13.8453448  36.4915991  72.4378538  13.9249814  37.2305727
  72.5644016  13.3199036  35.8489609  82.1423721  13.9416313  13.0132055
  82.7387619  13.2017636  13.1278658  81.9877815  13.9806223  12.0693755
  88.0557442  13.6175323  32.0691705  88.4760952  14.3491817  31.6172504
  88.5565376  13.5164559  32.8786325  44.1553783  98.7216282  48.0497026
  44.1474295  98.3297920  47.1764135  44.9341106  99.2782021  48.0554152
  89.7615814   3.1612989  30.0113010  88.9851665   3.7156215  29.9329090
  90.3761292   3.6816645  30.5287719  35.8949947 107.4780560  21.9259501
  36.1730576 107.4648857  21.0101223  35.0773072 106.9805336  21.9351697
  21.1255360  67.5244284  83.6842251  20.9258676  68.3999586  84.0155983
  21.9011021  67.2535086  84.1754723  84.1081905   4.5250860  31.1922693
  84.5269012   4.6183336  30.3365755  83.5718346   3.7363631  31.1117911
  92.2421265  11.6433764  23.5094762  92.1965313  10.9992003  24.2160082
  91.3591862  12.0099998  23.4622645 111.2507820  15.0586903   3.8985667
 110.5368423  15.0992560   3.2622695 111.3397217  15.9572029   4.2163685
  84.6783352  19.8492682  32.2577167  85.0587463  19.2190289  32.8695345
  85.3956795  20.4499960  32.0557928  31.1382604 105.7820702  17.7958262
  30.5840302 105.1436520  18.2446909  31.6225934 106.2149906  18.4988403
  77.3103857  32.0756149   5.3933370  77.4111557  33.0221510   5.2926219
  78.0646944  31.8090153   5.9188592  66.4389849   2.3043703  27.8240824
  65.9322643   1.5605402  28.1499410  65.8201456   3.0346227  27.8251410
  55.0269175  14.1847491  28.7441063  54.0747929  14.2176473  28.6513424
  55.3554773  14.1899133  27.8450751 101.3954449  33.2861233  33.7446666
 100.5284500  33.3363056  33.3421278 101.6552734  32.3707771  33.6404634
  73.3284950   0.5729510  14.2406452  73.8481808  -0.2166710  14.0901399
  73.9558649   1.2116410  14.5793378  84.9288464  23.5744452  33.6368370
  85.3559303  23.9622092  32.8729820  84.0684700  23.9927626  33.6682773
  97.7932072  11.8144107  40.2236271  97.1236801  11.3851857  40.7562971
  98.1386089  11.1174679  39.6657777 100.0254154  23.1720281   6.2740821
  99.7520351  24.0891242   6.2947297  99.8772335  22.8982496   5.3689194
  81.8486023   4.6388713  22.9670382  82.5453281   4.0089303  22.7827120
  81.4812660   4.3519047  23.8030696  67.0654631  12.5888371  19.8768973
  67.8520060  12.8811181  19.4163001  67.2971058  12.6422536  20.8041096
  73.1021547   0.6109947  24.9126077  73.6733437   0.9150139  24.2072415
  72.3631525   1.2192599  24.9013734  95.8340931  32.2822905  38.7003994
  96.5965843  32.0449257  39.2281246  96.1723900  32.3497391  37.8075171
  96.0598850  10.5553567   1.2151799  96.1528969  11.4435649   1.5596601
  96.9576073  10.2675533   1.0493453  55.9384489 100.1949501  23.6437130
  56.2608528 101.0227585  24.0001202  56.2012434  99.5380688  24.2884398
  81.3631344   7.9493576  22.9253006  82.1352577   8.4888369  22.7549314
  81.7096806   7.1594459  23.3402443  88.8131809  12.2733021  15.7854247
  89.4197559  11.5499938  15.9439433  88.6159325  12.2199059  14.8502922
   8.1070971  23.4858298  31.7127204   8.5410684  22.9977465  31.0129523
   8.8220894  23.7891150  32.2722173  52.0106983 111.6979980   9.2582601
  52.3789597 112.2844410   9.9190879  51.6628408 112.2834587   8.5856122
  89.7398376  11.1075246   4.4764853  89.0980530  11.3904989   3.8251317
  89.2315292  10.5991209   5.1084447  72.7402973  19.5351601   4.0888843
  72.7040815  19.1143680   3.2298991  73.6602736  19.4752574   4.3463415
 113.3681488  62.6624632  94.3288994 113.6101723  62.9179239  95.2190590
 113.4463882  61.7084789  94.3238544  37.1703887   6.0904258  13.6525095
  36.5235758   6.3382870  14.3131375  37.8954506   6.7008352  13.7863564
  61.1517477  23.2154155  27.3704839  62.0978212  23.3291531  27.4612570
  61.0465765  22.3115420  27.0735288  48.6958551  95.2207279  16.0031390
  48.6454630  96.0873699  15.5998719  47.8512621  95.1102734  16.4398181
  66.6246319  21.8512607  16.4373648  67.0424700  22.7095914  16.3673067
  67.1163559  21.4008331  17.1240616  53.1626034 109.2236137   8.7031281
  52.8667974 110.1145077   8.8903058  53.4578562 108.8865852   9.5489866
  54.1239738 100.1127815  17.8744400  54.2538691  99.2134476  18.1753731
  54.2101860 100.6448460  18.6654568 102.4277687  11.8716156  38.7373352
 101.8311977  11.1643076  38.4922838 102.7380943  11.6315174  39.6104240
  97.5923538   2.6612383   2.8465894  97.4093819   1.7524207   3.0849236
  98.0924797   3.0067241   3.5860163  69.8633289   8.5011679  16.8753088
  69.0208673   8.8021767  16.5348947  69.8208380   7.5471210  16.8103397
  92.8800297   5.7480383  24.2874575  93.5556126   6.1069566  24.8627877
  92.1074581   6.2860018  24.4605494  37.6295018 104.8533726  31.5316606
  37.2112799 105.6780910  31.7789769  38.2091093 104.6492195  32.2655606
  52.6956463  18.6177611  17.0712388  52.8730154  17.7710485  16.6615415
  53.2151461  18.6083663  17.8751433  20.7897377  60.8688498  96.6176891
  20.2279472  61.3769627  97.2028732  20.5627465  59.9569559  96.7997932
  60.9529543   2.7902931  18.4990203  60.1075125   3.1856853  18.2865977
  60.9077120   1.9114283  18.1224823  70.6637001  21.2533832  62.4195719
  69.9333715  21.7917991  62.1146822  70.6968021  21.4071417  63.3637619
  67.8601313  12.7633297   6.6811204  68.2094193  13.5813797   7.0347071
  67.9634190  12.8486359   5.7333404 105.3152657   6.0632718  30.7752752
 105.4434109   6.9898319  30.9784961 104.8223972   5.7204878  31.5208077
  81.6599083  16.5526545  11.0654318  80.9017372  16.8673408  11.5577495
  81.4230156  15.6629550  10.8036208 106.2917900  14.2774165  45.3541327
 105.8595943  14.8060000  44.6832848 106.0682392  13.3744657  45.1284313
  92.1072578  20.6350541   3.8560712  92.4784851  21.0078287   3.0564070
  92.0610428  21.3721919   4.4649398  80.7504272  20.1926231  31.6610789
  80.7016468  20.9508371  31.0788727  80.5393124  20.5416036  32.5270319
  62.9887104  78.8702202   4.3892419  62.8142548  77.9544830   4.6065533
  63.9356995  78.9645338   4.4919220  86.3531494  13.4284139  13.4678090
  86.7621613  14.2929196  13.5074806  87.0666122  12.8366315  13.2290566
   5.0481898  95.7148075  94.1102982   5.6184047  96.1527061  94.7422314
   4.2275447  95.5771446  94.5833969 100.7954121   6.9787908  27.6612449
 101.0995579   7.8509414  27.4100780 101.2191677   6.3886684  27.0380139
  89.6270180  -0.1182888  37.8527498  89.6012688   0.1598214  36.9372058
  90.3009796   0.4322236  38.2514286  63.9668131  29.5781302  13.7170720
  63.4029055  30.1735067  14.2108035  64.7267246  30.1095939  13.4797728
  75.6211138  27.0661139   0.6093323  75.7607985  27.4190784   1.4880441
  75.6712389  27.8293705   0.0338686  88.3699703   3.4492174  14.4873476
  88.7580109   2.6692232  14.8839176  87.5961208   3.1242019  14.0271819
  64.6278954  46.5395308  33.9416814  65.2316618  45.8803415  34.2839718
  65.1482964  47.3417711  33.8989305  65.3351450  13.5867703  29.5850348
  64.5016193  13.2796383  29.2284727  65.7032681  14.1368914  28.8935995
  51.0083008   7.8721684   5.8845580  50.7928038   7.3664719   5.1009363
  51.8824291   8.2215905   5.7112420  80.5014133  10.8863723  17.9419196
  80.0703526  10.3285384  18.5894084  80.0285625  10.7169604  17.1270931
  72.1003103  19.3472469  24.7600651  71.3067913  19.8670125  24.6319890
  71.8061638  18.4392464  24.6876264  63.4856606   5.7934439  10.1796341
  63.8370180   5.9986728  11.0460413  63.1309557   6.6238815   9.8621589
  79.9364662  10.6340897  37.2228837  80.1559639  10.6500113  36.2913275
  78.9898586  10.4935837  37.2435403 109.1663837  10.5608618  49.2611837
 109.3917370  10.4802489  48.3343887 109.9676609  10.8810318  49.6755362
  95.8727169  17.1045864  10.9022045  96.0950565  17.1994615   9.9760318
  95.6871986  16.1717033  11.0096407  57.9726076  27.5377393  20.6552052
  57.1350765  27.1556926  20.9175420  57.7448654  28.4022951  20.3132844
  68.2000351  90.5311489  44.0837193  67.8001738  91.3965893  43.9979649
  68.6944103  90.4142761  43.2724428  54.4783211 105.1353168   4.4925618
  54.2426300 104.7507477   3.6482930  53.6797953 105.0708008   5.0164211
  74.8271465   1.5180627  26.9965696  74.3189621   1.0072832  26.3664222
  75.0735617   2.3104179  26.5194058 109.7200108  62.6668692  85.4986191
 109.8914909  61.7256069  85.4694462 109.1272736  62.8252172  84.7638893
  95.3445148   0.6108886   9.9015248  95.2742958   0.9002160   8.9918047
  94.5892525   1.0056501  10.3373837  77.9106331  25.4180908  30.1867390
  77.6463890  24.8155189  29.4915318  77.4711752  25.0874090  30.9701657
  80.2328205  12.1915519  27.5425029  79.9276829  12.9009616  28.1080651
  81.1741257  12.1408200  27.7086353  97.9322624  23.2830405  30.2741146
  97.2488308  23.8258839  29.8810816  97.4674225  22.7303481  30.9023571
  85.4413605  26.8296528  40.2924347  85.3857231  27.1017671  39.3764186
  86.2232304  26.2788486  40.3316021 101.8389225  27.5023317  44.1608524
 100.9801960  27.8478456  43.9170551 102.0180798  26.8243504  43.5093403
  85.2377796  25.9148693  11.3555551  85.9817696  26.3685012  10.9594154
  85.6120300  25.1115561  11.7172849  44.9413729  15.2294135  28.3042741
  44.0318632  15.0143349  28.0974746  44.9850798  16.1826670  28.2292485
 119.0297132  73.4142780  78.6248350 118.6143201  74.2580509  78.8029480
 119.6300244  73.5909986  77.9005241  80.6386185  19.3852961  22.9339457
  79.9470186  18.7583005  23.1456161  80.1822853  20.1098657  22.5061631
 104.4695854  50.4470634  94.7187424 104.4778442  51.4038658  94.6923542
 103.9985657  50.1896667  93.9261913  65.5968237  16.0014236   9.2419195
  65.4569006  15.2599025   8.6530221  64.9072838  15.9176695   9.9005181
  82.7909470  60.8208752  81.7185688  82.6339817  60.3736353  80.8869648
  83.7184238  60.6695938  81.9005489  70.7666540   3.8169113  14.1301370
  70.4930162   4.7011763  14.3739212  70.1787329   3.5727829  13.4153080
  82.2048950   0.4059756  25.8040309  82.2109222  -0.0825437  26.6271615
  82.5509167  -0.2094703  25.1577139 113.4563828  72.4393463  85.9818172
 113.8436031  71.8085575  86.5887737 112.6859856  71.9924259  85.6311226
  27.8676414  95.0305176  18.2862985  28.3416152  95.4415703  17.5633800
  26.9502258  95.0517845  18.0140340  73.5643864  12.2522986  27.2250462
  74.0950441  12.8823698  27.7125335  73.8783312  12.3215902  26.3234520
   9.8734033  87.6623535  92.2523594   9.2516929  88.2070827  92.7350426
  10.4588902  87.3139477  92.9247093  68.3985853  10.3331912   7.6586092
  69.3260622  10.2809834   7.4277496  68.1077242  11.1691177   7.2941136
  35.6046486 111.9914722  29.5019484  35.7451010 112.5688934  30.2523422
  34.9228382 111.3848972  29.7907948  74.0363884  40.1086617  21.6261816
  73.8172483  39.5328045  22.3587108  73.6653090  40.9569263  21.8690419
  34.1767907 110.7663918  17.8941607  34.2698479 111.6748810  18.1809092
  33.6681104 110.8214855  17.0851851 112.9491043  44.1512537   8.3603793
 112.9261971  43.6043835   9.1456437 112.4330521  44.9236584   8.5912871
  85.7611561  27.0170259  21.1932397  85.5003548  26.1970806  20.7738304
  86.3181686  27.4502707  20.5465078  27.4454951  60.4956722  70.8344984
  28.1782985  60.6705809  71.4249516  27.6507187  60.9945107  70.0437546
  90.6326580   7.1480471  19.7277772  91.1655331   6.5439552  20.2448297
  90.9867954   7.0809716  18.8410318  80.6398106  29.6158385  18.0491364
  80.3834057  28.7160587  17.8469288  81.5837288  29.5676303  18.2005405
 116.5093231   6.5837580  27.4978137 116.0852814   7.4212652  27.6848888
 115.7845974   5.9746212  27.3565626  93.0967999  13.4804487   0.7582782
  93.2335472  13.1161630  -0.1162671  93.8289642  13.1440651   1.2750235
  86.0219765  32.1286726  33.3914995  86.5145493  32.6299071  34.0414000
  85.3377914  31.6890669  33.8963413  94.8259640  21.0930157   8.2022446
  95.7197189  21.3996577   8.3551908  94.3377113  21.3844013   8.9722681
 104.2304993   2.0526111  30.8585405 103.3917809   1.6150694  31.0045981
 104.0235615   2.9863515  30.8977556   2.1590312  35.4759908  20.2797294
   2.3417379  35.7748866  21.1705208   3.0229545  35.3339672  19.8928201
  98.4432030   1.0265650  41.6593266  99.1079807   0.9299396  40.9774351
  97.9724503   1.8258941  41.4233351 109.7526264  21.4675069  27.5035691
 108.8650513  21.7917180  27.3508215 109.6788406  20.5171728  27.4161124
  95.2494335  16.3696003  50.5243301  94.7835064  15.8439815  51.1746120
  95.8754921  15.7625377  50.1296568   0.7619146  40.1194048   0.3046557
   0.9116148  40.1156473  -0.6407582   0.2752721  40.9275484   0.4668839
 103.8489246  36.7572427  37.1075296 104.5974827  36.2534189  36.7880774
 103.2865047  36.1084342  37.5305748  99.6872997  28.5173440  15.1017833
  99.9377155  28.4973192  14.1781366 100.0960827  27.7377319  15.4777265
 118.8177872  49.7781658  31.1439157 118.5459709  50.6699896  31.3607168
 119.7664547  49.8376560  31.0311246 104.7826004  15.7583356  39.2485237
 105.2053452  14.9732292  38.9004850 104.2344189  16.0737002  38.5300040
 110.1225567  61.9729900  35.6306553 110.5238342  61.4375496  36.3151312
 110.4253864  61.5810347  34.8115683  29.9145412 111.2713051  42.9928923
  29.6030974 110.8564568  42.1884489  30.1447153 110.5399513  43.5659313
  89.2489529  42.9026270  52.8281164  88.4517956  42.6347733  52.3709106
  89.7318935  43.4205437  52.1841002 103.7480450  16.9623137  36.8576050
 103.1915951  17.7242637  36.6963029 104.5888138  17.3323989  37.1266556
  73.2475042  34.9873972  65.1871252  73.4727764  34.0763187  64.9989223
  73.8328123  35.2359629  65.9025717 106.2550163  21.5603042  24.0719748
 107.0783710  21.9523096  24.3629050 105.6242180  22.2797203  24.0998006
  87.9330826   9.1979814  36.9328523  88.5211277   9.6162385  36.3039637
  87.4652004   9.9250942  37.3434925  94.4005775  14.1932595  48.6006355
  93.6554527  14.7905433  48.6659241  95.0033092  14.6273386  47.9968691
  85.5617619  16.9495964  42.3553801  86.3949966  16.9976330  42.8240442
  84.8997307  16.9211018  43.0461359 107.6939201  14.3654478  21.6921782
 107.5267887  15.2855527  21.8963957 107.0576286  13.8834548  22.2204280
  94.2286491  38.6388898  25.2230883  93.7362194  39.3112969  24.7523236
  95.1126003  38.6907601  24.8595452  96.8783855  16.1161590  19.8036575
  96.0043335  15.7823634  20.0057602  97.3676109  15.3462803  19.5135212
  94.0353489  14.3627763  25.9140277  94.4968891  14.5535541  25.0974393
  93.3156300  13.7879145  25.6536913  80.3063583  20.0623965  26.4363074
  80.5950165  19.2467642  26.0268569  79.3959188  19.8979807  26.6818857
   2.0740810  23.9444089  15.7160413   2.6994175  24.0513206  14.9992728
   2.6149452  23.7274814  16.4754093  84.0550804   5.2955914   9.0538138
  84.2368221   6.2279546   9.1717142  83.8746166   5.2031708   8.1183338
 109.5767117  28.7188697  20.7372260 108.6393356  28.9078736  20.7799959
 109.9988079  29.5621085  20.9015894  36.6567159 112.4858189  19.2279172
  36.6728139 112.1031666  18.3506775  37.2890878 111.9684315  19.7265542
  18.3857441  90.5369473  95.4807281  19.2007899  90.9999561  95.2869225
  17.7431011  90.9243011  94.8864174  82.8251362  26.1299181  41.2212038
  82.1917534  26.6047883  40.6831074  83.6643887  26.5478015  41.0281706
  98.7732410  35.6033897  17.7903616  97.9512787  35.2868938  18.1651127
  98.7552929  35.2997541  16.8827748 104.4949722  29.9561739  36.8630695
 104.4844818  30.1717472  37.7956200 105.4164314  29.7871375  36.6666722
  39.2502809 105.9295654  24.2591095  40.0476694 106.3502884  24.5806456
  39.4211984 105.7700920  23.3308911  89.8726940   6.6604608  40.5390453
  90.3712749   7.2635865  41.0903072  89.0768528   6.4807194  41.0395956
 100.7819748  32.8824949  50.1843262 100.7186317  32.1928811  49.5235300
 101.0520458  32.4264002  50.9813643  91.8504238  18.7901068  22.1213746
  92.2338772  18.5362113  21.2818909  91.6459656  17.9601085  22.5521064
  14.4566774  49.1113520  17.8279042  13.7207842  49.2463064  17.2308457
  14.8932314  49.9623442  17.8661752  87.0535946   5.9565997  48.2744646
  87.9634666   5.7240868  48.4596968  87.1037197   6.8308866  47.8880167
 103.8873577  10.5405974   4.2040259 103.6982632  11.4072883   3.8444108
 104.8330688  10.4381585   4.0973866  89.7722721  20.0599384   7.9454201
  90.4006481  20.6367755   8.3797491  89.5095634  19.4378614   8.6238283
 111.6678143  15.1536679  17.2502434 110.9274387  15.1165986  16.6446853
 111.9139099  14.2383635  17.3839843  91.8850136  25.8779120  44.5440197
  92.1707058  25.2661490  43.8655233  92.4726391  26.6280079  44.4530249
 107.2233200  39.6736479  26.1356354 108.1123257  39.9682188  25.9378242
 106.9518661  39.1905046  25.3551745 105.7965279  23.4069967  17.8299689
 106.2231159  22.9602838  18.5612047 105.1672649  22.7688789  17.4937129
  99.5936108  23.9213061  13.3742988  98.9694595  23.2394743  13.6228228
 100.1938438  23.9790440  14.1176832 105.1448441  26.6067052  20.4464626
 104.7189903  25.8480930  20.0472331 105.0481510  27.3043346  19.7982383
   1.8042703  56.6479206   8.6296791   2.4800573  57.2535419   8.9342499
   1.5990636  56.9442844   7.7429497 104.0711021  16.7835653  26.4223099
 104.3157005  17.4280536  27.0864177 104.0023327  17.2887290  25.6121802
 112.0835114   8.2544708  32.7876997 111.3835430   8.5224497  32.1923304
 111.6473484   7.7033180  33.4374881 101.4473152  32.6915836  30.0814509
 100.9490967  32.7290797  29.2649913 100.7945442  32.4877763  30.7512164
  98.9224911  15.5194986  33.5555148  99.2710400  16.3299644  33.9268541
  99.5400715  15.2890408  32.8614497  60.6300116  25.8018208  51.9992685
  61.5673590  25.9561396  51.8817759  60.2164030  26.2826681  51.2823677
  15.5219460  71.8444920  85.7446480  15.3435397  72.7176809  86.0938454
  15.5073297  71.2721729  86.5117645  89.1081047  21.6263127  31.1817575
  88.2199478  21.3939691  30.9107900  89.6238708  20.8377099  31.0134792
  75.6983089  21.1623502  17.0333338  76.0530090  22.0179152  16.7916155
  74.8706055  21.1027551  16.5562689  59.8550510  16.4591670   5.1301306
  59.4854116  16.9626701   5.8554476  59.9813747  17.1019590   4.4322106
   3.6783260  16.2879407  40.2546310   4.1978055  15.7389820  40.8420134
   3.3756498  15.6889033  39.5721555 100.6364059  15.1123798  24.2697716
 100.8153057  16.0387814  24.4310331 100.1242161  15.1045728  23.4611750
  81.6573238  52.9625368  16.1193144  80.8360577  53.4540462  16.1326480
  81.9152260  52.9520369  15.1975739  82.7065468  26.4197135   4.8322386
  83.3520222  25.7239246   4.7078690  82.1661377  26.3889909   4.0427795
  90.1259613   3.4415916  34.1298866  90.8886528   3.1004307  34.5969415
  89.5968533   3.8602450  34.8088574  52.5070190 108.2701302  21.0460138
  52.7456427 107.3614407  21.2292814  51.6107035 108.3527279  21.3716340
  73.4475136  24.8979092  10.0239384  73.8715029  24.5699811   9.2308891
  72.5157976  24.9202394   9.8056644  81.5220928  31.0543036  34.1748261
  81.7594147  30.2554488  33.7039351  81.5489197  30.8047700  35.0985384
  86.2255859  41.6057777  39.0877104  86.7348480  40.9278536  38.6435390
  86.8828201  42.1917295  39.4631124 100.3943253  17.9901040  34.5051813
 100.8469868  18.8229799  34.3723154  99.6624947  18.2048464  35.0835776
  97.5528431  45.7080173   9.7577178  97.4497604  46.6587496   9.7990704
  98.1723213  45.5035782  10.4582059  86.0929966   9.1143674  29.4249487
  86.9808483   9.4170153  29.6156406  85.7674503   8.7842405  30.2623630
 110.9719944  26.3513947  21.8060279 110.3719807  26.3719726  22.5515413
 110.5481625  26.8956113  21.1423779  77.8728580  30.6786394  40.4534674
  77.5767517  30.5408955  41.3532352  78.1960630  31.5795636  40.4429483
 116.5106773  63.6443281  84.0941525 117.2672939  64.2305326  84.0825176
 116.8785858  62.7752018  83.9344883  91.1825752  13.8060105  26.0574555
  90.7044125  14.4100952  26.6254973  90.5471611  13.5533822  25.3876352
  80.8682346   6.9001627  34.2547631  81.2116241   6.7939806  35.1419163
  81.6430664   7.0577013  33.7152791 103.8522625  56.1747265  32.1681046
 104.7587395  56.0286188  32.4386263 103.6212349  57.0207262  32.5517011
 102.8988075  26.3094234   7.2689211 102.8302193  25.5855274   6.6464239
 103.7569618  26.6955423   7.0936561 117.4785423  12.2397161  16.7636156
 117.9153824  11.5217829  17.2218454 117.8843117  13.0314183  17.1168733
 111.7613411   3.6072811  51.6175795 111.7007065   2.9711366  50.9049273
 112.6872253   3.6073706  51.8604183  72.0872688  39.4237947  41.3070583
  72.1597958  40.3271532  41.6151381  72.4347782  39.4461823  40.4154444
 112.9904366  39.0240812   9.5602852 112.6312828  39.0014386  10.4472625
 113.6280537  39.7377777   9.5782089  81.4794254  16.0125279  27.0100474
  81.6519547  15.0737345  27.0816922  80.7991600  16.1814642  27.6619148
 100.6656551  46.8432999  38.8179970 101.2149239  46.4534235  38.1379056
 100.1369953  46.1155558  39.1453195  80.4258442   5.0348139  31.0206795
  80.8736038   4.9072984  31.8570304  80.0913143   4.1672549  30.7933831
  83.6387157   2.5567544  27.4091291  83.2906246   1.8220592  26.9038653
  84.5140362   2.2728634  27.6726413  96.8725586  28.3535981  30.2521133
  96.2398815  28.7429094  29.6484709  96.4311409  28.3641791  31.1013889
  99.5998001  25.4473543  31.1932540  99.0109730  24.7367501  30.9391713
  99.8205280  25.8816862  30.3693199 103.5606861  17.1128750  13.3697128
 103.5049438  16.1795592  13.1646585 104.4106865  17.2136164  13.7981808
  98.2784843   4.3049940  34.3594193  99.0649033   3.8395637  34.0745425
  98.5756016   5.2003509  34.5215631  84.2329025  27.2339773  25.6221366
  83.6274433  27.7539563  25.0936747  84.5237827  26.5356874  25.0356126
   2.6835018  34.5561457  12.5616372   2.5530380  35.4887295  12.7333820
   1.9730581  34.3208241  11.9648743  74.6800041  35.9191465  18.6665666
  74.5297384  36.1877847  19.5729256  74.3631744  35.0167012  18.6285710
  88.4277153   8.3860296  23.9965081  87.9062843   9.1419798  23.7265396
  88.4634018   8.4482503  24.9510169  97.0222282  22.2651863  11.9221485
  97.1478367  21.3288474  11.7681205  97.6436996  22.6905894  11.3313556
  80.3516102  31.9987559  38.7249684  79.7296143  32.0648813  39.4495201
  81.2022781  32.1864104  39.1216874 104.3279552  39.1572309  33.3290505
 105.2284145  38.8809586  33.1585288 104.3585682  39.5477772  34.2024183
  89.4402599  30.2667379   0.2382908  89.6804333  29.3631744   0.4435255
  90.0204468  30.7984495   0.7831736  53.7810755 110.7723522  21.2261629
  54.5404291 110.4899216  20.7164145  53.2875395 109.9679947  21.3863730
  80.9142399  29.3969011  31.1821413  80.5697250  30.2071977  31.5575886
  81.8358421  29.3860841  31.4405298  89.4056606  19.1592729  40.6439543
  89.0682983  20.0539613  40.6881046  88.8902092  18.7427425  39.9532747
  85.3724384   3.6533919  20.1485586  86.2504768   3.8833249  20.4525542
  84.7950840   4.2750236  20.5918026  96.2901497  24.5855713  16.0741258
  96.8385601  25.3681278  16.0186446  96.6600227  24.0849590  16.8013227
  89.8878956  15.9486187  18.9249682  89.9834538  16.7065895  18.3482695
  90.7115173  15.4701924  18.8301694  77.2275209  26.1101890   5.2572525
  78.0701733  25.8459902   5.6265330  76.6036510  25.9884906   5.9729403
  99.8919296  43.9332390  35.9458995  99.4020176  43.6934471  35.1593113
  99.8112011  44.8856401  35.9973025  86.0830307  13.2055509  34.7121429
  86.0944462  14.1071677  35.0333738  85.1638031  12.9439676  34.7653055
 105.6479263  14.6902251  26.0073471 105.0084686  15.3614855  26.2455201
 105.5611801  14.0241027  26.6892481  34.1587639  74.8077250  93.8678741
  34.1151309  73.8725376  94.0672684  33.2808566  75.1354551  94.0630722
  48.8813066 102.3832512  46.7585182  47.9356098 102.5089169  46.6804123
  49.2059422 103.2155704  47.1021652  96.0849953  34.8229074  18.0599606
  95.7787418  34.7874570  18.9661503  96.3244152  33.9196444  17.8525448
  88.6782265  59.5355368   6.8247557  87.8319836  59.1011333   6.9315279
  89.0935802  59.0749550   6.0956633  87.2470093   6.6758376  22.2973871
  87.7953434   7.2601467  22.8209805  86.4252853   6.6177726  22.7848649
  87.3818779  28.0143785  35.4602408  87.5658607  27.0886183  35.6194639
  86.8376160  28.0184364  34.6728444  72.9045088  -0.1581884  28.3961153
  73.8028461   0.1421618  28.2582355  72.5964958   0.3455901  29.1494846
  78.7193346  46.5714741  40.5498171  79.4175243  47.1171379  40.9117651
  79.0081978  45.6735802  40.7128382  76.4907932  23.8933611  16.1897814
  76.0417986  24.3812180  15.4993963  77.4142313  24.1213155  16.0823810
  75.6853294  56.9572878   9.4747972  75.8426905  57.7376461  10.0063145
  76.2088060  56.2734032   9.8925436  98.2466984  55.5323553  34.7655773
  97.7926826  54.7086811  34.5876479  99.1662884  55.3443527  34.5778918
  80.1355171  34.3140244  13.7561417  79.2282057  34.0093493  13.7421286
  80.4215145  34.2567444  12.8444636  96.4193630  30.4443669  25.5672979
  96.2119770  31.3766503  25.5034876  96.4955235  30.1532030  24.6586418
  99.4056416  26.2960076  24.4979572 100.3359509  26.3889623  24.2927241
  99.2828178  26.8145156  25.2931285 101.8331146  42.2254086  14.1640389
 101.3062763  41.6019964  13.6640120 102.0689774  42.9024839  13.5298717
  92.1008301  29.6314478  26.8993378  91.9060421  28.7028575  27.0258546
  92.7040195  29.8486495  27.6101255 113.7465668  14.3982708  23.3778477
 113.3738232  15.0795221  22.8182101 114.0108681  13.7073433  22.7704000
  86.2664413  23.2639623  14.8035371  86.4668274  22.8100801  13.9849603
  86.8085670  24.0524626  14.7791207  86.6454124  -0.1619580  33.1563258
  87.2963428   0.4663957  33.4688854  85.8800030   0.3719658  32.9434943
   3.9307913  21.1372304  28.2250309   4.7690669  21.2602758  27.7796268
   3.5548988  20.3572822  27.8168440 102.9379463  26.2553501   0.8092835
 102.5456429  26.8675327   0.1867393 102.2007942  25.9404778   1.3324420
   0.0115565   6.2981421  17.8329062   0.8765200   6.0084796  17.5427926
  -0.3312227   6.8039763  17.0961130  85.6823349  33.9737177  18.7425518
  84.7995186  33.7258983  19.0172470  85.5957031  34.8800945  18.4472418
  75.8356524  56.3800430   4.2253959  76.2335873  56.8905067   4.9305925
  76.1099768  55.4792881   4.3975180  72.9767609  19.8900485  18.7177658
  73.8315868  19.5103574  18.5144544  73.1490612  20.8257890  18.8223207
  71.9170284 108.6190701   2.8497347  71.2196922 109.1371346   3.2516834
  72.6630926 109.2169380   2.8031275   9.9868983  15.1404452   7.1950835
  10.1861000  16.0698521   7.3080176  10.8381116  14.7297585   7.0434147
  87.6880741   5.5699342  18.4927118  87.3973370   6.4783925  18.4126651
  88.5768890   5.6328344  18.8424146 101.2778282  17.0044827  40.6827450
 100.9958076  16.1612380  40.3282976 100.8466148  17.6540112  40.1274109
  28.9715760 112.0368940   6.2101787  29.8053735 112.5034310   6.1522692
  28.7247127 111.8736884   5.2998739  84.4598198  30.5599856  26.5688705
  83.8303375  29.8588395  26.4004350  85.3131866  30.1623607  26.3959479
 102.5094223  19.9472332  26.7009497 102.8785992  19.5264614  27.4774098
 102.9789734  19.5503044  25.9673285  66.1179256  23.0723000  13.4247816
  66.3588047  22.2184873  13.7842417  65.5642748  23.4680128  14.0979207
  94.3099880  11.2272382  38.9226866  93.6329174  10.5965257  38.6777329
  94.0612411  11.5168631  39.8004532  84.7777557  40.0859785  26.1926007
  83.9106655  40.0930500  25.7872152  85.3773022  39.8909831  25.4723525
  89.9202824  19.0921628  33.6508584  90.2180004  19.6240807  34.3888688
  89.0483665  18.7923777  33.9080119  96.4163971  13.0693138  31.3391685
  96.9501305  13.6355865  30.7817698  95.5441761  13.0995870  30.9460425
  91.6276360  50.7438993  17.8445423  91.8945599  50.5150461  16.9542563
  90.8630943  50.1935577  18.0143011  83.2280445  47.8948736  16.2037480
  83.7012863  47.8553867  15.3726542  83.1126308  46.9791365  16.4573932
  90.3129768  35.7365322  44.6065044  90.5513000  35.1268888  43.9081001
  90.9659672  36.4340281  44.5487404  80.7569027  13.7251961  21.8754101
  80.9844494  13.5235536  20.9677768  80.5176163  12.8800368  22.2557735
 108.8362312  18.1625831  12.3339248 109.1200352  17.5413072  11.6633248
 109.0749073  17.7465212  13.1622696 100.2993870  36.4130831  24.7793341
  99.3930817  36.6778803  24.6220589 100.3516388  36.2890196  25.7270193
  64.3235731  30.6792426  39.8120260  64.4641638  29.7480297  39.9832320
  65.0086594  30.9137774  39.1860199  13.8608408  38.7223172  14.2434156
  13.7311554  38.6494398  15.1889849  14.7560692  38.4153128  14.1000772
  94.6586418  23.9324236  12.2759306  94.7888565  23.9305830  13.2242298
  95.5224419  23.7325764  11.9151711 114.7913265  53.9506483  19.7380197
 115.2516651  54.7073174  20.1010227 114.0200520  54.3222618  19.3099236
   9.4272447  36.4159846  48.1893635   9.3498844  35.9412789  49.0169525
   9.7405404  37.2850132  48.4401035  83.5753155  71.6913319  18.0268490
  83.4978485  71.6221762  17.0752978  83.6429501  72.6314020  18.1939566
 102.1438503  24.2544818  34.5869040 102.8848267  24.1565847  33.9889121
 102.1978092  23.4912777  35.1620913  85.0174046  64.8412609   5.2261931
  84.5168018  65.0744390   4.4443661  84.3550777  64.5768690   5.8646673
 112.9757977  22.3792601  46.1872053 113.8249874  22.1716642  46.5770912
 113.1598568  22.4831605  45.2536297 101.3392544  53.9391756  27.1402860
 100.7630730  54.0527964  27.8961539 101.5147305  54.8298883  26.8368459
  10.2851284  57.9121780  33.6832023   9.8737895  58.3880520  32.9616928
  10.9397602  58.5193539  34.0282059 108.4075260  41.0447979   3.6966842
 108.4686375  40.3843307   4.3868136 108.2299042  41.8620253   4.1623205
  25.5541229  76.1680651  97.4021530  25.4922557  75.2138138  97.4447346
  25.5277538  76.3682747  96.4664936  14.7607207  56.9848728  10.3897512
  14.8986733  57.9245186  10.5092144  14.4233751  56.9038343   9.4976401
  12.1174741  30.8514094  23.9540291  12.7088702  30.2157187  24.3569922
  11.3849258  30.9187722  24.5664573 107.9240990  35.5356622  15.5258512
 108.6163425  35.2843022  16.1372781 107.7304363  36.4471245  15.7448602
  20.2967858  32.0050025  27.2511601  19.4369292  32.2329521  26.8977237
  20.9061074  32.5801444  26.7883730 109.1892624  34.8667955  23.7421870
 109.7139835  35.6673527  23.7390852 109.1024017  34.6337652  22.8178573
  13.5965669  34.1979170  45.2453661  13.9285183  34.8020673  45.9094763
  14.3496716  33.6514068  45.0208807 110.1896572  57.4104595  31.3774896
 111.1055756  57.5918484  31.5882730 110.2296829  56.7760277  30.6618571
 119.2131579  55.1039171   7.0344561 118.4608170  54.6044683   7.3518950
 119.7710841  55.2120590   7.8046870 105.2528095  11.9103932  56.2413120
 105.7372856  11.2089980  55.8059359 105.7690334  12.6985955  56.0725403
   0.8347756  48.6609936  24.7010016   0.4512062  48.7168789  25.5762053
   0.1140129  48.8770962  24.1093683 106.8464947  49.2602825  50.6804466
 107.0395660  48.3227682  50.6757402 106.2386417  49.3759775  51.4107561
  94.4976330  40.3240299  27.9079676  95.0147915  39.5954919  27.5644398
  93.6086082  40.1546288  27.5962353  10.7341027  58.3068275  28.9786196
  10.9855533  59.1212082  28.5429764  10.3814411  57.7590513  28.2773280
  94.5842648  50.4881096  15.0799954  94.4460583  51.2774611  14.5564914
  95.0630188  50.7927418  15.8508587 101.7009449  31.1450887  20.2731681
 102.3520470  31.7097330  20.6896710 101.6775799  31.4379859  19.3621814
 102.9185009  56.8196201  42.6125908 102.8327847  57.7170086  42.9344273
 102.8099918  56.2743378  43.3917713  95.9260654  22.6760173   0.3834373
  95.2131939  23.0324507  -0.1466533  95.9140873  23.2000113   1.1843847
  96.5455627  56.0782385  24.9793935  95.8736610  56.6591978  25.3361368
  97.1537685  55.9410334  25.7056856  91.8232059  19.8199332  11.7582428
  91.6119385  20.4189825  12.4742973  92.3480606  19.1323674  12.1681440
   2.9080316  21.8268180  39.3731880   3.2123214  21.3649607  38.5919523
   2.2507361  22.4415708  39.0471935   2.4065088  31.0746598  16.5591586
   2.7475500  31.6377974  17.2539949   2.0161676  31.6808200  15.9295273
 118.8585869  58.2113838  21.7035413 119.2672072  58.8017321  22.3365879
 119.1112227  58.5634136  20.8500290   9.5483977  90.7066536  96.3405132
   8.7978661  90.7512188  95.7481098  10.0580084  89.9600410  96.0257149
 115.7074451  24.0410852  34.6061158 116.1681366  23.5905123  35.3139114
 115.0115490  24.5294094  35.0460124 100.5747986   2.9810548  27.5021839
 100.8950996   3.8159874  27.1608162  99.7456551   2.8379530  27.0458150
   0.2706498  36.5305471  27.5705099   0.6297261  36.9732618  26.8015480
   0.9278004  36.6655827  28.2532620  93.7694740  45.4288435  34.7826314
  93.2597446  45.2542162  35.5737758  94.3105602  46.1854553  35.0084686
  99.6458149  47.0481539  12.6889086  98.7942600  46.6504049  12.8702629
  99.5395660  47.4613094  11.8320262 103.9860630  41.2625074  15.6834757
 103.6592579  40.9646797  16.5324330 103.2084465  41.5831137  15.2265644
 104.3194675  35.4554772  21.6024637 103.4905529  35.4729605  22.0808101
 104.7537327  36.2730479  21.8458271  96.6498089  47.5258064  21.2261915
  95.7149124  47.4521303  21.4179611  96.6984081  47.5326157  20.2702498
 112.9893875  69.4364262  40.0356913 112.7053833  68.6080933  39.6491218
 112.4136639  69.5582819  40.7906246 105.4323769  53.2133150  21.1249518
 105.1627636  53.3562565  22.0322061 105.6882286  52.2914791  21.0935259
  85.7793713  56.5484095  41.7115831  86.5645885  56.7339182  42.2266150
  85.9184170  57.0138693  40.8868122   8.0611616  21.8889213  38.4493017
   7.8323168  21.9744325  39.3748021   8.7754691  22.5129557  38.3205533
  93.3884716  26.0267210  15.0083220  93.8642693  25.4607224  15.6161785
  92.5771046  26.2431288  15.4677606 114.7894764  30.5568242  20.1416993
 114.9496460  30.6392813  19.2016041 114.6422195  31.4546132  20.4392266
  13.3248556  36.8603086  30.1468110  12.4250722  37.0291018  29.8672915
  13.8084197  36.7291808  29.3312120  93.0077553  10.2199364  31.6656804
  93.4650707   9.7932011  30.9411192  92.3679447  10.7917273  31.2415075
  22.0213199  51.5637302  33.2463980  22.3088074  51.1712646  32.4220467
  21.2330222  51.0747290  33.4824038 118.9901257  27.5065374  29.6010542
 118.7992764  26.6174126  29.8998308 118.2429314  27.7396059  29.0500355
 109.9589634  52.0834732  35.8097625 109.8960209  51.4198256  36.4966702
 110.8664322  52.3852301  35.8506918  14.4971585  23.0517721  16.2582874
  14.5178354  23.9359617  15.8922052  15.4112613  22.7678943  16.2505245
 109.9660015  33.8870239  10.7862318 109.9188137  34.8017097  11.0643649
 109.0525627  33.6067986  10.7285380  26.8333125  92.9762268  95.8384228
  27.2913313  93.2587337  95.0468254  26.9006991  93.7229252  96.4335155
  18.3557904  42.4084187   9.0515935  18.7054861  41.6261292   8.6250150
  18.3178926  42.1783113   9.9799508 113.0623436  33.4305143  35.2769279
 112.7066135  33.6718678  36.1321688 112.9460526  34.2139506  34.7394013
   5.5471992  36.6828752  40.4681301   6.4856702  36.4951992  40.4849291
   5.1896465  36.0598874  39.8354602  94.2229843  38.9176154  40.1951790
  95.0548744  39.3403864  40.4084015  93.5782433  39.3694091  40.7396173
 109.0162373  30.7947969  29.4795203 108.2486439  31.1258984  29.9457788
 108.6656666  30.4402709  28.6624289 113.4848213  35.3763342  33.4183884
 113.8457012  36.1155486  32.9289460 112.5671577  35.6084371  33.5607195
   7.5018048  48.6237955  36.4260197   6.7954016  49.1628551  36.0701489
   7.1156871  47.7526855  36.5171623  91.0562992  27.8864574  17.3107731
  90.1928329  27.6614022  16.9643390  91.3701057  27.0778799  17.7156901
   7.0347834  35.6212878  44.2477369   7.6620185  36.2380719  43.8703966
   6.9022089  34.9655700  43.5631275 112.2984028  55.9060144  35.4304266
 112.5057983  55.6688023  36.3342786 112.0766640  55.0753450  35.0096488
  89.3062687  50.8729649  37.2420907  89.9586773  51.4031887  36.7844343
  89.8184013  50.3186512  37.8308964  90.0010395  38.7798929  18.3636343
  89.7393990  38.9505124  19.2684352  90.6071472  39.4897747  18.1516576
 111.8573093  61.7182159  20.4612255 112.5901699  61.2649059  20.0445008
 111.6304207  61.1679935  21.2108946  97.6666164  37.4346399  25.8435202
  97.3552418  38.0720711  25.2009010  97.0143700  37.4620843  26.5435529
   3.5601690  53.0713224  18.4026289   3.7288392  52.1420717  18.2468307
   3.0654487  53.3570099  17.6346004 111.4000607  20.6856823   5.3405768
 110.5556107  21.1142945   5.2011549 111.6620636  20.9535122   6.2214017
   2.1510452  48.4948730  28.0533504   1.3742563  47.9860067  28.2854795
   2.7511513  47.8547955  27.6707196  37.6066899  11.3053823  89.4636631
  37.2753096  11.4743555  90.3456306  38.3344126  11.9184411  89.3596935
  94.9471664  77.9051638  41.2909651  95.4980755  78.6443186  41.0333252
  95.4122448  77.5043154  42.0252991 100.3867626  47.2462511   0.9459621
 100.4290962  48.0635309   0.4494791 100.2850437  46.5663767   0.2798894
   0.4201895  44.0763187  27.1528912   0.3927382  43.1531334  26.9014692
   1.3119015  44.2107296  27.4738526 111.9183064  33.9676666  43.8567686
 112.8065014  34.2568541  44.0658188 111.9731617  33.0120730  43.8489294
  10.3678000  34.0135765  17.6610696  10.9434748  34.5238066  17.0914233
   9.5122349  34.4342303  17.5756872  14.3133307  63.7141180  47.7143240
  14.3866396  64.6003485  47.3601246  14.2883396  63.1489086  46.9422197
 112.0643139  25.6405187   9.2733091 111.3646984  26.0255742   8.7455660
 112.6140976  26.3838243   9.5212328   9.3627191  33.4425473  30.8286548
   9.5424712  33.4666800  31.7685175  10.2270138  33.3888459  30.4208040
  13.6981058  30.8062434  36.1988592  13.7823200  31.5454364  35.5965853
  13.3221495  31.1859846  36.9930172 115.4654217  40.8503771  15.9105551
 114.8412037  40.4065514  16.4846599 114.9501038  41.5303135  15.4765511
  52.2192717  90.6500149  96.0608292  51.2703800  90.5271339  96.0335922
  52.5784111  89.7750568  95.9135246 117.5677395  51.8140316  18.5129714
 117.1303368  52.1312141  19.3031049 117.8846359  52.6067257  18.0800307
 111.8926239  59.0281677  29.2143631 111.7942333  59.9029207  28.8383818
 111.3928127  59.0604687  30.0300717   3.6217430  64.4705915  60.1455355
   4.4383425  64.3961620  59.6517181   2.9422137  64.5425940  59.4752502
  14.9853611  41.7780733  24.5521140  14.8648393  42.6017618  24.0796256
  14.9629486  42.0265579  25.4762292  96.0546112  39.3330479  17.2600472
  95.2756977  39.7194934  16.8598127  96.2785912  38.5989165  16.6881120
 101.1484909  31.0163140  13.1685603 101.3663769  30.0903773  13.0617881
 101.0180283  31.3361549  12.2758603   1.4486273  44.7453642  31.6605282
   1.0338029  45.5407190  31.9945359   0.7304063  44.2453909  31.2726903
 106.7992020  62.8528595  19.2134643 107.1362591  61.9718456  19.0508449
 107.1999264  63.3922243  18.5317433   5.5229694  63.9545012  19.9270511
   4.9878705  64.0289307  19.1368854   4.9500075  63.5293293  20.5651522
 102.3930168  62.0531511  25.4716301 103.1169796  62.5063467  25.0395155
 101.7796707  62.7498817  25.7053208  92.2470188  35.2399945  24.4056606
  91.2910175  35.1951361  24.3885899  92.5036335  35.2327490  23.4835291
  94.2877102  58.4883451  42.6007175  94.2163754  57.5689363  42.3441410
  94.6039677  58.9326859  41.8140984  84.8694038  25.0652289  24.0535808
  85.6567478  24.7078133  24.4641614  84.2629147  24.3257236  24.0144753
  98.0689526  65.9909678  16.6307569  97.5255775  66.6485977  17.0649183
  98.9592934  66.1841583  16.9243705 102.6529980  35.4623151  24.7488499
 101.8527031  35.9729600  24.6263838 102.3482418  34.6111107  25.0631833
  91.0501385  38.5740304  50.4800224  90.2030277  38.4552360  50.0504541
  91.0698605  39.5008278  50.7185316  -0.0703641  36.9775987  32.7123642
   0.8685282  36.8917227  32.8777313  -0.3499433  36.0985303  32.4568129
  24.8335171 104.5488071  95.8116722  25.6010246 104.6984196  95.2595997
  25.1927304 104.4032669  96.6868973   4.2770076  34.9616766  38.8393259
   4.3975022  34.7760057  37.9080701   4.7931159  34.2906499  39.2860770
 101.0189629  12.2071099  24.2835259 100.6975460  13.1000721  24.4081783
 100.2387142  11.6583955  24.3631887  13.9092422  60.7406616  29.6201801
  13.1658494  60.1682377  29.8097372  13.8404870  61.4441872  30.2655888
 101.2621689  42.1933413  20.6537080 101.0870743  42.8274536  19.9583888
 102.1673489  42.3658562  20.9128094   2.3471977  16.6855705  24.7869420
   1.8347308  15.8821261  24.6970081   1.6993974  17.3889375  24.7438073
   6.2707347  54.0678453  26.9449139   5.7939023  53.5300064  26.3127804
   6.1853200  54.9611902  26.6119385   6.5246854  57.8285795   0.1055643
   5.9536348  58.5604069  -0.1280383   5.9372602  57.1816652   0.4962942
 117.5435734  47.9342508   3.0716082 118.3066559  48.1119251   3.6214867
 117.6328945  47.0127630   2.8284734  87.5581169   6.5042186  42.0057249
  86.8825626   5.9630364  41.5970898  87.0750141   7.2228169  42.4137259
   1.5278991  36.1698198  39.0575051   1.7237641  36.7739844  39.7736430
   2.2929904  35.5964231  39.0118575  89.5683384  35.6051946  32.3286057
  89.7069931  35.3053641  33.2269979  90.3554249  36.1083341  32.1198583
  10.5075288  55.6155443  53.0504608  10.7723665  56.5191078  53.2226753
  11.2930858  55.1991510  52.6958466 115.2996349  20.7947206  34.6520066
 115.6893158  19.9479675  34.8696899 114.8459625  21.0621715  35.4513049
   5.9549510  52.1290255  16.3987446   6.2517244  53.0118465  16.6196060
   5.7702017  52.1662235  15.4602802  95.4280853  58.2818270  26.4171076
  96.0251045  58.8836622  26.8616247  94.7271919  58.8422060  26.0840082
  91.6995907  31.5010095  36.2127566  92.4113178  31.7621613  35.6283998
  91.1599731  30.9124899  35.6848407   0.8496284  45.5824661  13.7281883
   0.3061294  44.8014593  13.8324594   0.2827331  46.2107944  13.2809043
 105.9716320  35.8632565  40.1530933 106.4205551  36.6890717  40.3339958
 105.2341652  35.8528852  40.7632351  89.1624641  55.0069094  23.5880375
  89.9360847  54.6664238  24.0372753  89.4909286  55.7402277  23.0678582
   6.3475764  19.0602863  24.5570517   5.6527197  18.4730458  24.2594695
   6.2762564  19.0513885  25.5115509 109.2268276  40.8855438  30.5017495
 108.6499119  40.1383924  30.3431106 108.6533737  41.5565443  30.8720922
  80.5893898  56.7181158  40.4168129  81.2750340  57.1993208  40.8800316
  79.7766590  56.9881725  40.8443260  99.4126987  27.1332598  10.6606364
  98.8816643  27.6708174  10.0730467 100.0402927  26.6969490  10.0844550
  94.4208431  51.2106514  44.5277357  94.5778084  50.6784487  45.3077078
  93.4768486  51.3690186  44.5318270 104.6142960  62.1576071  20.8334851
 105.3099632  62.3721933  20.2120137 104.7276020  61.2230253  21.0065293
  18.9848506  48.4577608   0.1319135  18.5079825  47.7168751  -0.2421460
  19.5771945  48.0628824   0.7717833   7.9109740  29.2315483  32.2130132
   7.8901756  28.3146930  31.9388342   8.7522089  29.5580125  31.8936753
 119.0633106  54.1834879  24.0814090 118.5264015  54.8106337  24.5658112
 118.9297485  54.4137478  23.1619668  98.5373878  53.5110617  10.7662904
  97.7464199  53.9579964  11.0677123  98.6968613  53.8692379   9.8930746
 114.2784691  48.7051725  26.5642357 114.2058563  47.8021193  26.8731976
 114.1169071  49.2383385  27.3426056 110.6117058  32.0550704  32.4447012
 111.5495586  32.2370195  32.3849845 110.2317047  32.8652716  32.7844048
   2.4158195  22.2577262  48.2644844   3.1295410  22.3813272  48.8902283
   1.6198838  22.3376942  48.7901449 102.9619122  20.5511403  20.6032896
 102.6077461  21.1411190  21.2686682 102.3525143  19.8131359  20.5887413
  18.6916721  65.6866360  13.8886273  19.4839466  65.1531410  13.8260567
  18.8556409  66.2732744  14.6270025   2.5634047  42.7147055  44.3079424
   2.3329724  42.6173162  45.2318764   2.1624534  41.9581461  43.8800621
 100.8460712  40.2954054  37.1404648 100.7981110  39.9419284  36.2522149
 101.7099667  40.0313663  37.4570012 113.5580921  12.3534417  28.8367748
 113.8827229  12.3542666  27.9363060 113.7639999  11.4780974  29.1648078
  93.8659954  13.6553669  19.6195412  93.9435863  13.0086064  20.3209066
  94.1106033  13.1788850  18.8262177  98.1913090  22.3920679  26.5445805
  97.2820759  22.4728131  26.8327022  98.2528114  21.5044022  26.1917377
 111.0758877  60.8289909  37.8854418 111.6215801  60.3156900  38.4812331
 110.6143761  61.4451933  38.4542394  66.0300493   2.0138109  96.3791943
  66.1744356   2.6941639  97.0368481  66.3021755   2.4162987  95.5544567
 106.6703606  32.0174503  30.4778242 106.6412640  32.0866656  31.4320755
 105.7585144  31.8831897  30.2195024 103.0701733  38.3929992   4.0328449
 102.1715069  38.2001138   4.3000871 103.5111904  37.5435305   4.0448749
  97.4332428  43.4510756   3.1812307  97.6635838  43.3383226   2.2590257
  97.8770733  44.2580700   3.4420183 108.4163952  44.2646933  22.6447439
 108.1425476  44.9964619  23.1976962 109.1811943  44.5942211  22.1728039
 109.0673161  48.1111813  19.1151452 109.9321842  48.5213137  19.1103113
 109.1669083  47.3356724  18.5629666  86.1649609  47.4376726  27.8862429
  85.6576538  48.1676817  28.2411456  85.5233383  46.9076347  27.4133682
  14.1703141  42.6722336   7.4323875  13.2314777  42.4963427   7.4946940
  14.4387305  42.8614521   8.3314872  94.8646259  25.1014328  33.4781170
  93.9408588  24.9349666  33.2905793  95.0040150  24.7258091  34.3474317
  99.9876690  61.8902874  27.6792121 100.8818626  61.5562105  27.7502370
  99.6003532  61.7224836  28.5383129   4.3078482  34.7735858  61.9214678
   3.5571191  35.1557803  62.3759604   4.9012056  34.5050716  62.6229334
   2.4411486  64.7311592  29.4483209   2.1409568  63.8954592  29.8057055
   2.5382796  64.5692968  28.5099173  89.5610619  22.5965381  38.0848765
  90.4969597  22.3998857  38.1257391  89.5170593  23.5527253  38.0838084
  92.6827335  13.0556166   7.9846305  92.6987267  12.2268271   8.4632558
  93.2562160  12.9089069   7.2324187   3.1823203  39.0841722  53.5868359
   4.0673780  38.9386392  53.2525873   3.2744452  39.8145151  54.1986752
  13.6914778  53.4423780   4.0499184  13.0416250  52.9896212   4.5874426
  13.1756401  53.9055729   3.3899227 115.7287121  33.2165146  19.9570405
 115.6533241  34.0654731  19.5213568 116.4593601  32.7843618  19.5147526
 110.8924484  78.7842846  38.2826185 111.3389397  78.9904881  37.4614286
 111.6003990  78.6391687  38.9102912  14.8960447  55.6027651  18.8943148
  14.0580451  55.3931618  19.3066931  15.4141510  54.8029995  18.9847195
 118.7341213  67.8123903  37.7960205 118.0218220  67.8219414  38.4353685
 119.1894245  68.6432743  37.9322767 105.8841419  63.1533051  27.6496148
 105.8272934  62.3875046  28.2210565 105.0535774  63.6110926  27.7792811
 112.1435070  36.7385530  20.3335476 111.7836094  37.5755882  20.0401688
 111.6558552  36.0810804  19.8374033  91.3990784  69.0575409  15.8175135
  91.7721844  69.6768188  15.1902008  90.9308720  69.6065521  16.4464843
 106.3785362  49.5251656  18.2995927 106.7033482  48.6874580  18.6297023
 105.4857826  49.3382740  18.0092490   5.1500368  64.8258257   9.6374148
   4.5464984  65.5451632   9.4516039   4.5912355  64.1250658   9.9734348
  61.3471937  14.9378097  92.5944424  61.2853289  15.0651324  93.5411167
  60.6815100  14.2788219  92.3973942 100.2378750  50.4966450  20.1913071
  99.3160820  50.7016373  20.0347590 100.5317497  51.1690760  20.8058834
 103.8173866  61.3713360  40.2751970 103.0654716  61.4590311  40.8610010
 103.4602261  60.9631205  39.4865084 117.6596165  44.9265289  16.2221181
 118.3403492  45.5873966  16.0953283 117.4440479  44.9802876  17.1531785
 117.1245289  54.2310476  10.8667266 116.9550514  53.9214230   9.9769843
 118.0392838  54.0013218  11.0300887   8.0607587  35.0873232  36.2013745
   7.4012339  35.1486540  35.5103612   7.7670246  35.7076621  36.8685555
 110.4344463  51.2910318  28.0936122 109.6035385  51.4943933  27.6641107
 110.5027103  50.3375673  28.0438828  12.5091028  73.8664007  37.3887348
  11.7147171  73.8524771  37.9225779  12.1963608  73.7546873  36.4909911
 101.1526966  76.6396570  35.3169894 101.7135143  76.9841671  34.6219873
 100.7821178  77.4177361  35.7335210 115.0764179  42.9089165  19.4605696
 115.4836750  42.9058409  20.3268051 114.5902348  43.7327814  19.4274104
  97.7176666  73.8827133  11.8953943  97.9794216  72.9697227  12.0143986
  98.4331799  74.3890810  12.2799230 108.4559536  43.9078760   5.0103039
 109.0098190  43.4849405   5.6664997 107.8050423  44.3895149   5.5207598
  81.0181713  58.6242247   3.9144170  80.2963448  59.0566254   3.4581044
  80.8026695  58.7138939   4.8427200 113.6751652  26.1943126  23.1520557
 113.1318474  26.2623334  22.3669410 114.3383789  25.5413055  22.9285288
  98.5164356  48.5058165  18.5553145  98.9496899  48.1692028  19.3396735
  99.0617466  49.2418957  18.2777119  94.7262001  63.9190626  42.8004169
  95.6674290  63.8174629  42.6589537  94.4141960  63.0325127  42.9818201
   4.7508052  54.0600491  29.2801118   3.9679462  53.8451004  28.7730026
   5.4642665  54.0321922  28.6425948 107.6526737  63.0086327  36.7901492
 108.3594608  62.6944113  36.2262797 107.6570988  62.4091387  37.5363517
  93.0028629  42.0565414  21.5589547  93.8165092  42.4263763  21.9016457
  92.5242615  42.8099537  21.2132025   6.0242909  50.2693796  53.0646610
   5.7335246  49.9575806  53.9216709   5.9243369  49.5121479  52.4877357
  27.8844500  81.4335918  69.4849777  28.2325387  81.6310787  68.6154604
  27.6830506  80.4982853  69.4555902   7.9170150  50.4139614  23.9294076
   7.3263747  50.4143143  24.6826506   8.2427770  51.3126707  23.8800645
  10.2079725  48.7783670  35.1337981   9.4901842  48.1494188  35.2075338
   9.9797243  49.4754696  35.7487679  21.3619900  64.9878979  18.1672394
  20.7726717  64.4871902  18.7313533  22.1527958  64.4515371  18.1108904
  61.4252138   7.0966464  96.8339443  62.3616886   6.9388944  96.9537735
  61.1100817   6.3235271  96.3657379  96.7069912  29.8404002  22.8829956
  97.4784184  29.7624445  22.3216963  95.9659863  29.7115302  22.2909331
 117.0508766  64.9561548  27.0171905 117.7340412  65.2329111  27.6278687
 116.2386227  65.0259733  27.5187922   5.5862314  54.0162849   8.9453256
   5.0308579  54.3742180   8.2527381   6.4081579  54.5006657   8.8675880
   7.9189813  27.1729827  24.8431110   7.3553586  27.9376268  24.9609232
   7.3675972  26.5369391  24.3874168 107.9765511  43.4207535  42.0075512
 107.0320988  43.4821224  42.1506310 108.1264210  43.8963985  41.1905241
 102.2656631  42.9702711  17.6087689 102.9863739  42.5427294  18.0713856
 101.6426945  42.2653103  17.4321997 117.3079300  46.4171028   7.5298864
 117.6340675  46.8617296   8.3122993 116.3605595  46.5515518   7.5553703
 109.7632504  57.1806431  37.2674084 109.6595669  56.5839148  38.0086184
 110.2943516  56.6917467  36.6387987   0.6133918  54.9750662  41.8687725
   0.3432981  55.4124880  42.6762056  -0.1792668  54.5391989  41.5558100
   7.5483674  61.0364580  25.0079536   8.1747711  61.7447567  25.1568198
   8.0732107  60.3262281  24.6387053 115.9254169  85.4305935  19.6448779
 116.1526108  85.9634209  18.8828301 115.2448750  85.9323120  20.0936270
 118.4832096  61.2207317   9.6246648 118.0915833  60.8516455  10.4162669
 119.0772724  61.8993235   9.9453437 111.9010448  41.4027214  21.5308046
 112.4137402  42.0296955  22.0409751 112.4390030  40.6111860  21.5135431
  19.6716130  43.3810759  52.9107714  20.1607561  43.2725477  53.7263632
  20.3327394  43.3038330  52.2228909  99.0768814  48.3707809  42.2281885
  98.9385414  47.4237585  42.2437048  98.2012653  48.7425232  42.3346138
 101.0656071  64.8314333  15.7175279 101.0797596  65.7868862  15.6614578
 101.7705536  64.6168947  16.3284695  96.9871712  55.8556366  11.8609023
  96.0953426  56.1827230  11.9787192  97.4805069  56.2385273  12.5863326
   0.0985689  79.2583847  51.7838335  -0.1995932  78.7724686  51.0149240
   1.0530154  79.1924524  51.7535543 107.7511311  47.7378654   7.6036876
 108.3698654  47.1616888   8.0524820 107.8867435  47.5569201   6.6735804
 114.3133354  83.6192894  16.8093848 113.8763523  83.1219578  16.1180520
 114.7131348  84.3607807  16.3548779  40.7502937  96.6012001  94.9190331
  41.2066889  95.8028412  94.6534157  40.0374365  96.6912651  94.2866135
 110.9248161  46.1723566  39.2288661 110.3452015  46.4430141  38.5168171
 111.3857460  45.4072380  38.8848042  17.5915563  39.6251440  41.9448853
  17.9068351  38.9873767  42.5852633  17.6262772  40.4637814  42.4050045
 104.8453140  62.3438597  34.3466020 105.4607010  62.4613190  35.0702953
 104.7173023  61.3968086  34.2923760  98.0802822  64.0402460  22.3234892
  97.9413795  64.8022127  22.8859377  97.2545147  63.5579729  22.3652983
 105.3925896  22.4066472  13.0589461 106.0710812  21.7317152  13.0777717
 105.8477879  23.2108831  13.3084083  91.3145065  11.4400136  94.2126942
  91.7695045  11.9469523  94.8851681  92.0081043  10.9477758  93.7735462
 100.8769035  47.5373888   4.4738877 101.3400841  47.9098749   5.2241838
 101.0364532  48.1572056   3.7621248  91.7108631  50.0147533  41.2470436
  92.2867584  49.5319605  41.8399096  90.9941673  50.3186703  41.8040133
   0.8269949  34.0037513  10.6509495   0.1382322  34.6422458  10.4661179
   0.9378118  33.5262322   9.8288023 104.1792202  48.9047861  20.4909563
 103.7155151  49.5267344  19.9302518 104.7758579  49.4465876  21.0073900
 106.3154984  34.9464846  62.5991488 106.0517883  34.1353130  62.1647644
 107.1458435  34.7316027  63.0241156 116.2155342  53.1262112  15.8151793
 116.4541912  53.7850380  15.1630867 116.4817142  53.5091639  16.6510785
 119.3853760  65.5529451  15.0370502 118.4711742  65.7943058  14.8880422
 119.5247650  65.7078123  15.9712970 106.8776608  65.6259060  36.4246988
 106.8203545  64.6758413  36.5262890 107.8043652  65.8255100  36.5574288
 106.8885899  46.0510397  28.5968614 107.2354221  45.8828831  29.4730258
 107.6482296  46.3366365  28.0893040  15.7443583  60.7939053  20.0257301
  16.6649616  60.6703615  20.2569413  15.7379389  61.5801716  19.4798565
  98.7369061  45.3103924  45.0744534  98.7489223  44.6701956  45.7859564
  97.8571224  45.6862593  45.1052904 102.2756004  32.5523043  25.3920889
 101.4079857  32.2662616  25.6778479 102.7663517  31.7400885  25.2667928
   1.2100630  72.9118919   5.5303621   0.2816334  73.0043697   5.7441330
   1.2470078  73.0043602   4.5783556  21.1304188  33.5033679  21.1888027
  20.3741908  32.9921913  21.4769816  21.3542795  33.1381226  20.3328156
   6.2811124  62.6214409  35.0514269   5.9313440  61.7695475  34.7903299
   5.8269560  62.8265476  35.8686805 106.7243195  56.2875509  21.3964009
 106.2646008  55.9427977  22.1619272 107.6136112  56.4570761  21.7073083
 110.3844833  91.3953495  18.7128103 110.6327248  92.3166084  18.7894821
 110.8697319  91.0791683  17.9507077  21.6909575  57.5785637  17.4001920
  22.6351929  57.5988197  17.2444952  21.4781404  56.6473007  17.4608898
  16.9292510  66.3750887  16.9921839  17.8748488  66.3815355  17.1406245
  16.5617561  66.0254383  17.8039241 109.4888210  39.3314242  17.3554695
 109.3188667  40.1792765  16.9449914 108.6786652  38.8375187  17.2292638
  13.3672738  53.0338717  16.7052352  12.7784538  53.3775759  17.3770893
  13.9156222  53.7800550  16.4628422  93.8292027  79.9841833  16.8867636
  93.9813900  79.0450668  16.7812598  94.6828175  80.3850651  16.7228198
 110.5711460  33.3059502  28.9770174 110.2167892  32.4261880  29.1061592
 109.8998928  33.8889694  29.3316102 106.0945320  77.5526094  33.5299850
 107.0128441  77.2945929  33.6097217 106.0661316  78.0969095  32.7431154
  26.8304801  82.9172134  96.9572639  26.1405373  82.6868439  96.3350582
  26.4712596  83.6542606  97.4511719  49.9586773  83.7728405  91.3243008
  50.5716991  83.6994267  90.5928421  50.1507187  84.6262169  91.7130280
  13.9797056  82.4083424  27.9861712  14.0594316  81.9228840  27.1650743
  14.4491231  81.8740940  28.6268353 104.6555614  68.8523340   0.4838876
 105.4014301  69.4462824   0.3994596 104.6282196  68.3822203  -0.3494640
 102.7447128  28.3608913  35.4720759 103.4051800  27.7253842  35.1961184
 103.2240009  28.9812350  36.0213423   5.9381509  59.7974443  37.0582581
   6.6411328  60.2508879  36.5930295   6.2503374  58.8967419  37.1448922
 101.9194221  45.3791857  26.9181299 101.4206028  45.2663231  27.7272511
 102.7072716  45.8519936  27.1864367  97.0609283  59.4732380  40.3573370
  96.7476082  58.5919476  40.1539040  97.9588604  59.4905758  40.0262165
 116.7298508  77.8679323  39.6960616 115.9198761  77.7081490  39.2116570
 117.4203205  77.5278425  39.1269994 110.6529617  37.5579190  37.0782852
 110.2224064  37.1190977  37.8119659 110.3643799  38.4684205  37.1410298
   3.7956852  46.9250059  53.8790846   3.4127003  47.5950003  53.3128166
   4.6225312  46.6965342  53.4543991 106.2677956  60.6105518   8.9491391
 106.4214134  60.8673382   9.8583645 105.9001446  59.7287416   9.0081537
 117.9876900  47.0912695  47.0746851 117.3467541  46.4021492  46.8999004
 117.9559803  47.6503468  46.2983751   6.0215622  46.2608814  37.1400070
   6.4630592  45.8956814  37.9067802   5.9940267  45.5383730  36.5127492
 113.4031677  99.0537453  26.3644147 113.8994503  98.3804035  25.8990669
 113.4997749  99.8383904  25.8247590  89.1316128  39.7797561   3.7526402
  89.8951817  39.2676806   4.0190428  89.0256405  39.5850182   2.8214693
 112.6999474  41.7828941  39.8413539 112.7620506  42.6201916  39.3816710
 112.5262260  42.0218277  40.7518291 112.3780346  74.8835850  23.0336356
 111.5702057  74.4342232  22.7852058 112.8729820  74.2304993  23.5283446
  25.6394362  71.1177826   4.9194154  25.8208632  71.0902977   5.8588624
  26.4532661  70.8245373   4.5096308  91.1807156  43.8410759  16.2486625
  90.9324360  42.9228163  16.1419618  91.8347645  43.8327026  16.9475019
  94.8057842  60.8737516  40.8273649  94.7470570  61.0704851  41.7622852
  95.6476402  60.4290533  40.7285976   1.8087797  65.6928349   8.7873811
   1.9038367  65.3714085   7.8907871   1.2673301  65.0338650   9.2219174
 110.9146214  88.4501076  23.0010152 110.6912518  88.8250542  22.1491027
 111.7493057  88.8583374  23.2309532 111.7115593  85.2320957  11.0504138
 111.9632149  85.5726051  11.9088781 111.1725521  85.9239388  10.6669450
   7.8840435  73.4524727  72.0553970   7.7922416  73.7175703  71.1402321
   8.5881484  72.8040886  72.0474625   4.2492780  44.6549320  92.2293186
   4.7323006  45.1106691  92.9186821   4.6797422  43.8029337  92.1583843
  47.5118113  92.6978588   2.1793559  47.7975655  91.8302250   1.8933548
  46.5658188  92.6116753   2.2972366  58.8361406  98.8853931   6.4133567
  58.9012146  98.2580280   5.6933475  58.4356403  98.3896351   7.1275395
  29.1134763  81.4725018  10.0558019  29.0550661  80.7023907   9.4903350
  29.9285460  81.9006634   9.7939384  13.3561957  43.7838936  89.1975975
  13.4403133  44.5581055  88.6410427  13.4403396  43.0452156  88.5946846
 110.2039623  11.5177214  15.4594672 110.1866531  12.4302471  15.1709712
 109.4187164  11.1295700  15.0735116  14.8371637  71.2742376  91.1456299
  14.6860182  72.2034073  91.3189411  15.6721914  71.0836220  91.5729809
   2.6364285  60.6639004  91.7901611   2.9511127  60.3042650  92.6195431
   3.4325117  60.9011650  91.3145733 106.6462326  11.6433001   8.9089066
 106.0622501  12.0667982   9.5380700 106.4402008  12.0605445   8.0724311
 112.7333069   7.3647970   4.9918476 112.3322392   6.6014671   5.4074264
 112.5082970   8.0963320   5.5667019  22.1951842 105.1571846  12.1930552
  21.7973566 104.9884892  11.3389444  23.1241202 104.9637318  12.0670044
  58.9894915 109.2597771   5.0090158  58.9849138 108.6748219   5.7666707
  58.1558895 109.7272205   5.0622839  72.7282238  30.3347445   1.2411283
  72.5887585  31.2489486   1.4881399  72.7745199  29.8658991   2.0743576
 103.9905930  17.4295139  10.3171003 103.1882000  17.6007068   9.8240620
 103.6882496  17.2143006  11.1994267  93.8326740  10.2410567  10.3378713
  93.9493942   9.5326167  10.9708977  94.4248486  10.9305477  10.6381524
  14.9665928  55.7560539  92.8155804  14.1263568  55.6984901  93.2704735
  14.7872806  56.3009739  92.0493317  15.2761972  94.4034958  94.4411469
  14.5072401  94.5268059  93.8846111  15.3800023  93.4537125  94.4992256
  98.7261105   9.6760279   1.4108291  98.8812542   9.0387452   2.1079908
  98.7949944  10.5266929   1.8442529  14.9744105  59.1508055  87.3202324
  14.6685123  58.9415264  86.4377022  15.9270263  59.1969967  87.2388649
  37.2349095 108.3449364  36.8868518  37.8661108 108.9798546  36.5481734
  36.3840604 108.6768818  36.6003156   8.8566649  69.6178341  86.1966133
   9.7993946  69.5019007  86.3151455   8.5128474  68.7273169  86.1259460
  74.6380138   3.4581813   7.2598404  73.9863253   3.8997161   6.7152494
  74.8839569   4.1107056   7.9155505 108.2417297  67.7917767  83.0982304
 108.7329960  68.5897684  82.9030514 107.5663090  68.0714273  83.7161636
  48.0019760 101.6761112  25.3410149  47.1453953 102.0759392  25.1905560
  48.0236387 100.9256649  24.7472215  91.1326694  10.3916359  25.8482671
  90.3847408  10.9576714  25.6573796  90.7579899   9.6537077  26.3292074
 100.4878426  78.3684206  94.7948647 101.2155819  77.9126883  95.2178764
 100.4889488  79.2401791  95.1901722  63.4412289   2.8832427  10.8893251
  64.1510582   2.3568656  10.5214953  63.4586716   3.6957332  10.3835726
  70.7957363  15.8545804   5.4814601  71.0323095  15.9272134   4.5568043
  70.3645468  16.6847420   5.6842911  29.3605018  28.2284808  78.3752775
  29.9042463  29.0091300  78.2696390  28.5300636  28.4566903  77.9575157
   3.6297199  93.8915539  72.7232027   2.8196162  93.3999252  72.8583384
   3.3527142  94.6915531  72.2765446  13.8659275  51.1056852  90.0028324
  13.5325849  50.4983854  90.6633663  13.3988428  50.8682919  89.2017651
 106.3288403  53.1436634  63.3408356 106.0875702  52.8169489  62.4740744
 105.7799053  53.9177084  63.4663725  43.7599945 106.7806625  14.0189791
  43.3899546 107.5040817  14.5249128  44.3336916 107.2039032  13.3802533
  26.0315990 106.3509178   5.8661264  26.8049788 105.7963848   5.9691370
  25.7714581 106.2318611   4.9526802  93.4145451  15.4955661   8.9987266
  93.1459141  14.6419680   8.6589664  93.7783051  15.9517157   8.2398844
 104.4390488  87.3613167  64.7423601 104.2322445  87.8829384  63.9668751
 105.3113461  87.0080090  64.5677233  13.5552084  87.6707745  87.9768085
  13.7794602  88.4059143  87.4062729  13.0790102  87.0641518  87.4098301
  29.0882969  73.2965136  96.8448448  29.4072032  72.4681711  97.2031403
  29.4853115  73.9667368  97.4010944  87.6994514   8.1794256  11.2994421
  87.1935463   7.9053980  10.5344534  88.0565548   7.3654240  11.6545594
  67.6855898  26.2792158  15.1223302  67.3244858  27.0676470  14.7170961
  68.2599449  25.9074259  14.4529104  51.5577078 111.5798473   2.3511952
  51.0354233 110.8155155   2.5946128  51.3236141 112.2456837   2.9977953
  23.8839340  57.2715092  82.0799160  24.1764140  56.6509056  81.4124203
  24.2946696  56.9649839  82.8883457 102.9746723  31.2283587  92.0502567
 102.3592472  31.9116664  91.7845821 102.4873924  30.6996322  92.6821041
  80.7717896  38.2610679   7.2876811  80.8875465  38.8851666   8.0041540
  79.8672962  37.9604459   7.3756969   9.2069703  60.1390791  80.9570312
  10.1438212  60.2108479  80.7742977   8.8633841  61.0177088  80.7952023
   4.8979107  71.7411852  93.2022476   5.4239279  72.5219631  93.0292511
   4.0565658  72.0817280  93.5062218  61.2776804  85.1556873   2.9820803
  61.1854887  85.0496674   2.0352468  62.1243286  85.5881596   3.0933553
  12.9917610  54.4937086  79.8554993  12.1104181  54.8444080  79.7271395
  13.5639644  55.2593613  79.8045969   3.2028365  41.9590998  83.8387203
   3.9360034  41.5908480  83.3456802   3.5946009  42.6548529  84.3666267
 115.8322144  50.6298494  90.7646751 116.5433979  50.8599520  90.1667595
 116.0015202  51.1504936  91.5498543  76.6462326  34.6802473   0.9172771
  75.8632517  34.8615503   1.4371860  76.9667912  33.8424253   1.2512392
  81.8439007 109.4833851  19.0803921  80.9678650 109.4245625  19.4616091
  81.7806530 110.1951122  18.4434712 109.0823555   3.9502981  22.1513748
 109.7649097   4.5435137  21.8376231 108.2746315   4.2889503  21.7651963
  50.8538675  25.3773141  12.6026952  50.6394196  26.1466789  13.1302559
  50.0955629  24.8013258  12.6998734  53.1405067  97.7952099  15.2158475
  53.0216885  96.9569588  15.6624460  53.8263559  97.6272011  14.5696187
  61.8736124  13.2949424   9.5582455  62.5421810  13.6949754   9.0021664
  61.8534327  12.3774302   9.2862236 118.6206341  88.4661961  95.8295441
 119.1100502  88.2098770  96.6112041 117.7021599  88.4118557  96.0935020
  79.1750956   2.2240278   4.0507850  79.6025896   2.9604051   4.4880849
  79.6960402   2.0793411   3.2609016   6.0833448  66.2943125  54.2106104
   5.5972379  66.7775965  53.5424995   6.9940192  66.5603447  54.0836000
  71.3341856  14.5408273  12.6830316  71.3893318  15.2406347  12.0322919
  71.9292116  13.8647938  12.3587537   3.8350940   1.0842281  20.3086710
   4.2208311   1.4791894  19.5267224   3.6459839   1.8260542  20.8832693
  16.2863886  53.7289906  96.1319256  16.1336184  52.8770828  95.7230759
  15.6502914  53.7694550  96.8460464 111.0296249  37.0989919  24.6175194
 110.8687973  37.6756620  25.3643894 111.6666222  36.4614344  24.9399948
  51.2695074   6.2536442  14.9205399  51.5101814   5.4642940  15.4055500
  50.5509377   6.6349602  15.4250073  80.5253315 108.5168743   3.6348012
  81.2638569 108.0296230   4.0000460  79.9542713 107.8440094   3.2641569
 115.5190086  74.3976164  85.6835938 114.7850990  73.8090420  85.8601761
 115.8967113  74.5746374  86.5451336  76.2380934   8.0384070  24.9463868
  76.3253593   8.2838660  25.8674550  77.1020508   7.7047604  24.7045374
 113.6618328  85.7549763  71.8507767 112.9051113  85.1882458  72.0004749
 113.3487129  86.6339779  72.0641994  84.3458366  21.0713911  12.9008460
  83.8579082  20.5031800  12.3047805  84.8372555  21.6570735  12.3248959
 112.1383381  79.5023632  93.3299255 112.3852825  79.2194176  92.4494743
 111.5720844  78.8030052  93.6562443  60.0167036  27.9165602  22.3733330
  60.7290459  27.6298904  21.8018270  59.2440891  27.9228854  21.8083000
  79.0388393   5.7378262   2.5528625  78.7562037   6.5506816   2.9719269
  79.9752426   5.8614171   2.3976094  72.7040339   6.1055773   8.2493788
  72.8199291   6.0909384   7.2993332  72.4849176   7.0155185   8.4499437
  95.8555412  31.5799451  12.6094353  96.7914009  31.7280245  12.4734795
  95.6811714  30.7413864  12.1820641 110.8548832  64.7408199  65.4532099
 110.8711338  64.9588490  66.3851070 110.7004547  63.7964249  65.4308414
  53.4034681  10.8359063   4.6919569  54.0782452  10.4766297   4.1159105
  53.8919210  11.2765515   5.3872848  73.9185286  33.3475232  18.7446558
  72.9619837  33.3828783  18.7447369  74.1246653  32.4405789  18.5183954
  82.2708035  24.5380020   0.7123647  82.8743649  23.8197660   0.9023318
  82.1923256  25.0104523   1.5411368 113.5834408  74.2236567  88.9690113
 114.4589043  74.5981550  89.0667534 112.9933071  74.9094725  89.2814636
 100.1146221  26.6380501  19.4804597 100.5064297  27.3385930  20.0019550
 100.8350563  26.0292864  19.3173313 115.8188248  86.8680000  81.1465168
 115.8738136  85.9180450  81.2504005 115.2920818  87.1602058  81.8904114
 117.3874950  87.0930958  85.1972198 117.4950218  88.0109310  84.9477291
 118.2780552  86.7424011  85.2097797   5.8204424  49.9532557  90.8973885
   6.6070092  49.4144583  90.8122635   5.6983978  50.3377295  90.0293350
  20.9255767  56.0167789  91.0041904  21.6307783  56.6639996  90.9990311
  20.3344989  56.3121080  91.6967583 112.9503822  29.9815583  11.9169950
 113.1985188  29.9210596  12.8394914 112.9169655  30.9214878  11.7391026
   2.3644634  49.0755844  92.1959782   1.7095216  48.8847256  92.8674412
   3.0754963  49.5062685  92.6705074  74.7368288  16.2981200  12.6882839
  74.9254656  15.9923077  11.8010831  73.8319492  16.6075969  12.6476192
   9.2615235  83.9167213  95.1285648   9.5368201  83.6980438  96.0188580
   9.4504416  83.1287098  94.6190739 111.7731285  57.3333883  88.4691048
 112.3572731  58.0906105  88.5093212 112.1855640  56.7461014  87.8356838
 115.0323582  67.5691843  93.8149261 115.4630184  68.3434105  93.4525108
 114.8605537  67.0129633  93.0550957  71.8511963  13.4994149   5.8810008
  71.4077711  14.3347061   5.7330269  72.2989988  13.3163488   5.0550526
  99.6543121   9.3282026  10.7144046  99.8597431   8.5861862  10.1456833
  98.7803745   9.6057391  10.4397476  58.3259106  20.4306316  18.8238800
  57.3880816  20.3976655  19.0126300  58.5858297  21.3220429  19.0563941
  20.0268865  56.2313938  77.1325541  19.3875372  56.7941618  77.5693130
  19.6142912  55.3678322  77.1163702  22.2082877  82.7447987  77.5089025
  21.8333292  82.0856190  76.9248486  23.0298781  82.3575687  77.8110218
 118.0094910  58.3646774  83.9202785 118.2396221  58.3814573  82.9913044
 118.8484955  58.4318972  84.3761253  29.5918202  63.2091665  90.4352093
  30.1407933  62.6776981  89.8586655  28.7862754  63.3485794  89.9373150
  83.2771397  16.9422340   6.8203557  83.1671047  17.8175497   7.1917677
  83.8258266  17.0771348   6.0477149  10.7888949  55.2673388  84.6854115
  10.6176937  55.6690025  83.8335991  11.5829051  55.7002163  84.9990940
  98.7800598  20.4611850  18.4054530  99.0318394  20.2812195  19.3112421
  98.0725765  19.8419309  18.2259655  45.1851988  69.6588612  65.9646940
  44.9709988  70.5836010  66.0880089  44.7746515  69.4269228  65.1316929
  11.5742230  64.4277096  93.6752605  12.1391153  63.8159704  93.2031250
  11.5058160  65.1865196  93.0958176 111.2577534  69.3799925  79.9372196
 110.4530334  69.8427248  79.7036791 111.4431000  69.6593714  80.8337879
 110.8889389  57.3505402  84.8411274 110.0842476  57.0276499  84.4355965
 111.2018013  56.6166258  85.3700066  92.6520348   5.7303250   4.3925959
  93.2654285   6.2742853   3.8985485  91.8816090   6.2857574   4.5116502
  84.6112919  17.8437054  14.0812850  85.4541588  17.9688549  14.5173347
  84.7844028  17.1832097  13.4104586  89.9140263  18.9019632   2.2529019
  89.6471786  19.8165619   2.3452833  89.1755772  18.4008765   2.5990903
   7.5908446  60.6617117  93.5732651   7.8081244  60.9243393  94.4677162
   7.5116938  61.4865017  93.0940056  50.3549671  97.4565983   5.3651476
  50.2653646  97.0591354   4.4989923  49.4563198  97.5424004   5.6834280
 102.7414799  65.5970860  78.7682867 102.8526115  66.1224365  77.9758930
 103.5622597  65.7101154  79.2476559   4.3831390  39.7429919  94.1732311
   3.8352707  39.5989943  94.9448109   3.8003761  39.5792389  93.4317398
  87.4406147  24.1305876   1.3348682  86.6254139  24.3515778   1.7852548
  87.1604538  23.6617184   0.5488018 106.1388397  21.3420057   2.0850004
 106.7174625  21.8900371   1.5548289 105.6157494  20.8578682   1.4460805
 113.1450176  43.1267881  95.0738335 113.7056065  43.5618114  95.7162666
 112.2540855  43.2933712  95.3816032 106.7018604  14.8926532   2.7166170
 105.8802700  15.3110600   2.4594247 107.2800541  15.6204879   2.9450482
  66.3419676  21.6927791  21.1514282  65.4301739  21.5110707  21.3791275
  66.7446661  20.8284855  21.0673976  63.2233381  15.3991485  27.2331929
  63.0831480  14.6890092  27.8595161  63.7838125  16.0208535  27.6975036
  13.2666278  75.1381302  86.8312550  12.6261663  74.5556068  86.4229584
  13.9800262  74.5591545  87.0997334  21.2259126  79.2679358  67.6800776
  21.1604285  79.5640612  66.7721939  20.4785848  78.6809826  67.7950525
  23.7535739  61.4073515  96.7723656  22.8012347  61.3692904  96.6838551
  24.0302873  60.4910469  96.7792797  90.4405308  45.9157705  32.0656562
  89.8183155  45.5361271  31.4452124  89.9442768  46.6007614  32.5137019
 102.7716827   8.8010609   2.1953890 103.3821106   9.2757243   2.7595747
 103.3309650   8.3534604   1.5604928 117.7499485 101.8859386  77.0529890
 117.8083324 101.7665100  78.0009127 117.9508972 102.8116322  76.9153833
  17.0602357 102.2808266  91.1119556  16.8910015 101.3387966  91.0985661
  16.4046085 102.6503849  90.5205154 104.1695499  51.6853619   1.0765211
 104.1007328  50.9885406   0.4238832 103.7061024  52.4261379   0.6857461
 115.1583290  91.2666798  94.7519112 114.9292850  92.1952915  94.7138596
 114.5486736  90.8955574  95.3897285  43.1308842  81.3337231  88.6586285
  43.3317947  80.6849003  89.3330956  43.8934135  81.9122314  88.6480904
  31.0463500  81.4645863  66.2417936  31.1916733  81.6988468  67.1584368
  31.9215417  81.2828827  65.8993721 101.6682148  18.1688154  20.2149248
 101.4180183  17.2723103  20.4383302 100.8979225  18.6937356  20.4324913
  68.0512238  12.1316826  16.3109934  68.3927250  12.5652826  15.5289447
  67.3034906  11.6238093  15.9960473 116.5930271  29.5696235   6.6408861
 116.8624496  30.1657200   7.3396802 115.6499004  29.4644690   6.7661321
  26.8413806  20.1403928  70.8594942  26.2258434  20.8733201  70.8467865
  27.7017593  20.5484796  70.7623100  22.1665788  86.1985493  94.7926140
  23.0032325  85.8318043  94.5067024  21.7434955  86.4885330  93.9844418
 100.5727577  15.1392567  16.5648127  99.9658871  14.4347274  16.3376939
 100.0403690  15.9340382  16.5313542 113.0904961  40.4889488   1.9938591
 113.9396858  40.0985384   1.7872468 112.6138687  39.7968864   2.4522345
  69.1714382  28.9057732   4.0391546  69.0485430  28.4643078   3.1987754
  70.0495243  28.6474395   4.3192619 104.9698734  29.1202927   7.9890049
 105.9068298  29.0357280   7.8123915 104.6483326  29.7039008   7.3018074
  52.5015783 104.6798611   6.3525271  52.5504732 105.4790020   6.8771303
  51.5814686 104.4198322   6.3973767  98.9900875  25.6223345   6.1757731
  98.3011723  25.6490541   5.5117601  99.0782356  26.5301681   6.4661157
  83.2581520  46.8381023  10.4198539  84.1884518  47.0491791  10.4987836
  83.2142925  46.2171507   9.6927184  76.2289572  21.4503264  10.6625700
  75.3079796  21.2500238  10.8296406  76.3090086  22.3851085  10.8523226
  97.8440475  36.7983389   3.6410812  97.8345203  37.6001406   3.1183419
  98.2376289  36.1421466   3.0659860   8.9457226  67.3486614  94.0245628
   9.3504614  67.7621746  93.2620430   8.8301206  68.0629301  94.6512127
  57.1822023  37.5493741  12.7390516  56.5150642  38.2320833  12.8102088
  57.3296547  37.4557424  11.7979228 107.3874187  38.1619263  39.8895526
 107.1799755  38.8830471  40.4838419 107.0857906  38.4634519  39.0326190
 117.7684116  75.2292395  82.0562744 117.0582581  75.8709145  82.0690155
 117.6063061  74.6773672  82.8213882   4.7134590  81.6446400  77.3274517
   4.1116220  82.0296574  77.9644680   4.2293602  81.6585064  76.5018082
  91.6826916  16.4176047  23.7507010  92.1367073  16.7548871  24.5229340
  90.7580948  16.4154339  23.9983654 107.0512772  20.2914453  30.9349918
 107.9867935  20.4924297  30.9606719 107.0055580  19.3456614  31.0751224
  22.1335340  97.4195194  94.6155453  21.2543631  97.1570873  94.3427467
  22.4473119  97.9797935  93.9057064  98.8386250  73.5707474  81.9371986
  99.5477295  74.0928221  82.3124790  99.1249180  72.6639652  82.0468044
  57.3595810  49.4455528  20.7433724  57.2865772  48.6371851  20.2359796
  57.3232937  49.1595316  21.6561198  82.8820038  29.3524694  15.0972545
  82.8255367  29.8401475  14.2755413  82.8965759  30.0274158  15.7758307
  85.4033470   5.9295273  35.2386451  85.9622192   5.3860182  34.6832252
  85.6279564   5.6693649  36.1320066 104.6360302  77.8764772  71.6007280
 104.1687107  78.3774376  72.2692251 103.9740753  77.6896763  70.9350252
  96.8233204  35.8623219   5.8832473  97.3174381  35.0534081   6.0164398
  97.2291756  36.2674618   5.1168454  76.5493870  31.7040205   2.3916848
  77.3043776  32.2847891   2.2971940  76.3536835  31.7161083   3.3285877
  32.3369598  64.5645714  88.4717655  31.5631318  64.3513489  87.9502678
  32.3819518  65.5205441  88.4537601  82.7244663  22.8478122  20.8477330
  82.9424763  22.0564723  21.3401580  82.8961468  22.6167631  19.9348414
  81.0539055  26.8098164  18.1129706  81.1186790  26.4930844  17.2120178
  81.0525417  26.0152197  18.6466789 100.9238720  38.2137060   8.6893594
 100.1526737  38.1461525   8.1264120 100.6586647  38.8116527   9.3881828
  73.5665369  43.9984465   0.5339850  73.4984970  43.0459213   0.5995119
  74.1708517  44.2441559   1.2344581  99.8077774  29.3126655  18.0917692
  98.9581394  29.1662788  18.5076118  99.9125004  30.2641177  18.0893612
   0.5303347  98.0775928  76.1442471   0.4222681  97.5815392  75.3327703
   0.2037080  97.4926090  76.8278646  22.6355243  78.5184717  87.4447441
  22.5420475  78.6381865  86.4996719  23.4088278  79.0330076  87.6760197
 115.2417850  57.7016401  84.0946770 114.6766853  57.0821095  83.6330891
 116.1086941  57.5659084  83.7122154 118.8366127  92.3910141  88.9640903
 118.5295963  92.1298599  89.8322964 119.3020058  91.6226864  88.6334896
  98.4473610  25.0828958   2.8910759  98.4556770  24.2376924   3.3402908
  97.5513554  25.1728439   2.5665408   3.8867041  87.5320435  75.1615047
   3.8635868  86.6103172  74.9043751   3.0988014  87.6526928  75.6914902
  69.6122742  32.4886060   5.3500414  69.2177773  31.7265081   5.7740831
  69.1897821  32.5308013   4.4921643  79.3712711  15.9666550   4.8170033
  79.2737436  15.9665263   5.7692218  80.3015900  15.7946956   4.6714976
  99.1538525  85.5237389  77.2333765  98.9448357  85.6105804  78.1634331
  98.7829113  84.6777534  76.9824982  30.2183318  67.2067976  96.0848331
  30.2522230  66.2502337  96.0934734  29.4684911  67.4148655  95.5274487
 108.3856392  20.5205131   7.6564562 108.8430405  20.6250215   8.4907758
 108.3190346  21.4091015   7.3068774  29.8878169  80.8810902  94.4549847
  29.0853381  80.3645611  94.5288277  30.1080990  80.8496284  93.5240078
  20.5647039  53.3942080  89.7208214  20.7162094  54.2060041  90.2048302
  19.6254838  53.2331896  89.8112106  72.6384258  33.2098770   1.5098563
  73.0027914  34.0114903   1.1345083  71.7528915  33.4528971   1.7800345
  72.0420218  25.0379825   3.9356583  71.2530088  24.5703459   3.6617789
  72.7173328  24.3612504   3.9827490  93.5330772  24.1196179  19.2948925
  93.4364319  23.9329576  18.3610570  94.2055798  24.7995996  19.3348765
  20.0314546  67.9292059  94.7298622  19.9657202  68.8667774  94.9111748
  20.6710124  67.6067257  95.3648472  99.6061802  45.3078175   3.9905176
 100.1641178  44.6284962   3.6117500 100.0587273  46.1276102   3.7920853
  79.3515968   3.1004208   9.6736431  79.0510464   3.9493984   9.9978942
  78.5976839   2.7425241   9.2048609  99.5617199   5.1022118  21.6058421
  99.4199371   5.9450829  21.1749148 100.3735542   5.2190620  22.0993090
  89.6030807  40.2815580   8.5604399  89.3829918  39.3500066   8.5625446
  90.5432987  40.3059340   8.7382478  98.1676006  38.8469696   1.8234564
  98.0760288  39.6867609   2.2735655  98.9990807  38.9160967   1.3543038
  54.5484924   3.5961583  77.6413345  55.0789452   4.1461173  78.2178736
  54.0205193   3.0642837  78.2368040  77.6637793  46.6684484  23.7173128
  78.3708572  47.3112535  23.7726974  77.2748280  46.6642761  24.5919156
   1.0031514  90.8609104  86.1913872   1.5675466  91.5856838  86.4604473
   1.5562408  90.0838757  86.2722492 116.3617516  94.7401714  62.7636719
 116.2660885  94.0290833  62.1300840 115.6971836  94.5596313  63.4284925
  25.0050211  71.8014193  90.2860832  24.7615170  72.7004719  90.0655365
  25.6051874  71.8905783  91.0264015  81.1803818  32.0875955  14.9422002
  80.7163525  31.8192101  15.7352209  81.0587025  33.0362201  14.9029529
   7.7161819  94.8499107  88.5479641   8.4317642  94.6755219  87.9366016
   7.6327163  95.8034515  88.5532665  27.8999686 103.7114429   6.4096969
  27.6665354 102.8302383   6.1177623  27.9340148 103.6464119   7.3640788
  26.2882853  91.6345501  90.6536388  27.0567107  91.6759682  91.2228775
  26.0955739  92.5485325  90.4445267 118.4634018  99.4291401  95.0949097
 118.9218140  99.0312481  94.3548012 119.1527271  99.6118259  95.7334137
  90.6180477  36.2039328   5.7380432  91.3135910  35.6577420   6.1042863
  91.0487461  37.0333147   5.5310160  14.1740155  80.2246094  96.9069767
  13.6638021  80.2476788  96.0974121  13.9433348  81.0363770  97.3586845
  77.2756767  11.1340046  10.3879726  77.4867535  10.2030683  10.3170097
  77.4665403  11.3540459  11.2997758  89.3014526  21.6599226  15.9599364
  89.1231060  21.6902637  16.8998849  88.4356499  21.6338706  15.5525887
  48.2412236   7.7072533  96.9559179  47.5001424   8.2574185  97.2095656
  48.0492585   6.8533047  97.3434167 107.4909973  84.0594196  84.0871906
 108.0038834  84.3453503  83.3312607 106.6783524  84.5618916  84.0291786
   3.7345159  69.9557734  91.4122391   4.1798654  70.2361155  90.6126785
   4.2526430  70.3368235  92.1211720  78.9373541  58.1950092  18.2703471
  78.7537813  58.8945293  18.8974071  79.6844769  57.7279949  18.6444330
 103.9599323   2.8693619  16.4075446 103.7665939   2.8122821  17.3432755
 103.4190369   3.5946125  16.0950184 112.1150208  60.9395742  91.3162422
 112.2236633  61.3733101  92.1625900 112.0551205  60.0085163  91.5301991
 119.1863585  99.2664051  90.2861023 119.1427060  99.1036224  89.3438530
 118.9892709 100.1986217  90.3774929   3.0740035  12.0376146  42.5705433
   2.6168668  11.6235006  43.3025026   3.4714139  12.8217888  42.9491806
  47.4011135 110.8597660  21.3796520  47.1854305 109.9743652  21.0867667
  47.9207134 111.2284374  20.6652784  22.2385359  95.1589680  62.0123386
  21.8079114  96.0009003  62.1604729  23.1672573  95.3759861  61.9310331
 107.2961235  39.8887396   8.5969782 108.2004738  40.1648426   8.7457871
 107.3248959  38.9336491   8.6535686 102.8601933   8.6528295   5.8290154
 103.0631638   9.3712139   5.2298826 103.6953926   8.2023299   5.9544408
 119.1304588 110.1992512   5.4155338 118.2019520 110.3820229   5.2716422
 119.3966007 110.8263397   6.0879683 113.0902004  10.4365027  12.8555834
 112.6614475  10.4590201  12.0000780 113.5034943   9.5739675  12.8937316
  84.7008610  45.2667761   3.2308528  85.3373432  45.8791637   2.8619379
  85.1158524  44.4086218   3.1437743  12.9576993  82.1410084  94.3047333
  12.6790714  82.9588223  93.8926983  12.5789559  81.4548016  93.7552738
  84.8134613  28.8104105  12.2815287  85.0147629  28.1241202  11.6453564
  83.8908195  28.6741757  12.4969208  89.0267277  34.3604517  10.4208469
  88.4166431  35.0577521  10.6612825  89.5156670  34.1824269  11.2242615
 109.7852802  38.4306383   3.4418774 110.1173782  39.0254402   4.1142994
 109.6458244  38.9883065   2.6765075  80.3317547  43.0739498   0.5399351
  80.5898666  42.2192097   0.8849479  79.4254589  43.1845236   0.8274010
  20.4028916  98.6287212  90.6937027  20.6958008  98.1649494  91.4781475
  20.1851225  99.5081234  91.0026646  73.3658695  27.7220368  26.9702721
  72.8343058  27.0764017  26.5046263  73.8146400  27.2180486  27.6491165
  69.3849516  40.4997683  10.1193392  70.0971699  40.9672403  10.5557406
  68.6098003  40.7008266  10.6436956  83.9706039  32.9763913  12.0981145
  84.1809464  33.6470413  11.4483333  84.8094177  32.5568366  12.2894442
  87.4248505  22.1301079  12.6322889  88.2033443  21.6041589  12.8154635
  87.3909378  22.1831679  11.6771626 109.9942493  19.0894020   1.3746823
 109.5978069  19.4772780   2.1548200 110.9246254  19.3021941   1.4478068
  89.8432159  52.9861450   2.9641894  90.3336334  52.8048182   3.7659618
  90.4606342  52.7965927   2.2577216  66.2723207  30.9093356  15.8059561
  65.6868505  31.4510870  15.2768421  66.2713194  30.0579023  15.3685868
  35.3167033  68.5169935  82.1619320  35.1625347  69.4611359  82.1294880
  35.1687479  68.2814741  83.0778313   8.9519268  56.4491129  94.5277596
   9.0640467  55.4985046  94.5284462   9.2085433  56.7211962  95.4088688
 110.7989120  27.6231003   7.4484360 111.3570213  27.8821206   6.7151898
 109.9434853  27.4583292   7.0517856  43.5517740  77.2253466  75.9563828
  44.3219280  76.6738510  76.0940409  43.1408310  76.8704224  75.1681042
  67.4280691  58.2168818  22.1507001  68.0807734  58.6383677  21.5916395
  67.8807020  57.4567509  22.5161600   8.0348188 102.5711727  96.5861893
   7.3842984 103.2575512  96.4380455   8.8656187 103.0406761  96.6608429
  17.0761955  70.6482935  92.7660942  17.3142636  71.5503407  92.9802608
  16.6560328  70.3166199  93.5596180 109.4966507  63.4107494  91.8318653
 109.2913246  63.8475800  91.0052776 109.2219543  62.5036240  91.6980648
  83.7241936  46.9733334   0.9237397  83.8302898  46.0221434   0.9092300
  84.0444851  47.2369242   1.7863902 107.5380230  18.2055438  25.5369592
 108.3563805  18.6953056  25.4554081 107.8111172  17.2895169  25.5874181
   0.3149217  14.7362792   9.2483300  -0.1805078  14.8145950   8.4330708
   0.4984932  15.6400239   9.5048034 107.1645260  39.4659281   5.7058740
 107.4008942  40.1213264   6.3622355 107.0280933  38.6624908   6.2079763
  37.1553922 111.2738895   9.6959180  36.9526029 111.6247463   8.8287377
  36.3118815 111.2496185  10.1477277  98.0915928  44.2601871  15.4865241
  98.5200310  44.8767805  16.0802352  97.1625042  44.4847202  15.5376327
  10.3468871  74.8241138  86.6653633  10.5744004  74.0154552  87.1242142
   9.5593029  75.1381063  87.1096039  18.7993193  64.9665451  96.1551189
  18.8242292  65.2161598  97.0788670  18.5870957  65.7777548  95.6934547
 100.7055759  99.5364571  85.7383442 101.6113853  99.8442364  85.7064629
 100.1945972 100.3174210  85.9510040 100.8288670   4.3792632  16.9292319
 101.2657928   4.6729025  16.1297953  99.9776173   4.8166397  16.9114149
   8.0433214  69.4552517  95.2559853   7.5075436  69.2867374  96.0310841
   8.3527523  70.3539228  95.3694725  87.4674702  13.8424504  28.3320236
  87.6339912  14.6152794  28.8716888  87.5092316  13.1086218  28.9452004
  96.9882488  10.8650696  22.3174334  97.5297832  10.9804690  21.5366340
  96.0890102  10.9441125  21.9990587  21.7477894  86.7760563  92.1601868
  21.3992429  86.0513210  91.6410446  22.4191117  87.1690655  91.6024303
  15.6804681  96.0350513  84.5866871  16.5879381  96.2994576  84.4356251
  15.4541242  95.5072975  83.8208675 108.6114502  20.0320625  17.0756900
 108.5614395  20.9869957  17.0328557 108.9804649  19.8500741  17.9399490
  23.6343026  86.6604328  82.1788216  24.4803739  86.4559460  82.5770473
  22.9932046  86.2288189  82.7435684 115.1905727  33.6402321  31.3236070
 114.2936802  33.3117890  31.2608123 115.1002312  34.5923662  31.2846947
  96.6535759  17.9722893  33.7563229  95.9764290  17.5439501  33.2326651
  97.4780178  17.6681173  33.3768344  41.6359711  74.9306870  84.9064732
  42.2665310  75.4564905  85.3985596  42.0865822  74.7195196  84.0887928
  25.8735657  87.6273060  77.3626518  25.9948063  88.5479259  77.1302843
  25.4016542  87.2526932  76.6188812  69.4361258   6.4340556  13.3631957
  69.0957880   6.2067610  14.2284930  68.9630556   7.2302532  13.1213212
  83.5668278  19.8856306   2.4435705  84.4806576  19.6189773   2.3433733
  83.3931255  19.7979736   3.3807889  16.2170506  77.0075560  80.3620338
  16.0037231  76.1025763  80.5895042  15.7774997  77.1539640  79.5244265
   5.0897735  91.0503578  87.7209854   4.8500809  91.1714363  88.6397457
   5.0915492  91.9349575  87.3553276  36.0074091  57.2867680  78.4134102
  35.9493542  57.0112038  79.3282461  36.9059372  57.0788383  78.1571960
  84.8562336  33.2003832  23.7263250  84.2922688  32.5451446  23.3154368
  84.2512321  33.8669538  24.0517259   8.7682897  76.6323996  96.9458294
   8.3592612  75.7686710  96.9996452   8.0327958  77.2432375  96.8993378
  92.5635147   8.3688873   3.2636231  91.7681122   8.4254885   2.7341267
  93.2778358   8.4666651   2.6340094  42.4927998  79.6982193  90.9815884
  42.1149445  80.5536366  91.1858368  41.7479038  79.1694403  90.6956577
  17.7342856  79.5051050  71.0913992  18.0654287  78.8090801  71.6589642
  16.9463849  79.8205757  71.5340328  90.1617622   9.9520463  15.8063281
  90.4627419   9.8339236  16.7072654  89.4502068   9.3196011  15.7066512
  89.8188877   3.8113123   4.8594832  89.8710537   4.7504187   4.6817479
  89.5646667   3.7556434   5.7806259   3.3326569  76.7610121  94.1500282
   2.5535306  76.2516403  94.3730450   3.1032214  77.6618910  94.3780804
 101.6347694  33.4341359  10.8512878 102.4255371  33.0544281  10.4682195
 101.6530323  34.3513870  10.5782509 109.5992374  29.8396945  11.5198386
 108.6536789  29.6990657  11.4711583 109.6929455  30.6941009  11.9410729
 111.2268257  54.5598555  84.0918732 110.3626633  54.2307901  83.8445473
 111.6275406  53.8390303  84.5777416  63.3441210  69.3435335   7.0765704
  64.2143393  69.3251705   6.6783142  62.7564859  69.5756149   6.3575035
  42.4021912  87.1699238  96.0501289  42.3141146  87.2121048  97.0023251
  41.5551662  87.4671936  95.7178402  44.6172810 107.8926849  96.3533974
  44.1507196 107.8139400  95.5213165  44.7586489 106.9888878  96.6351795
  37.4784279 104.8866749  89.5919609  36.9646025 105.2593708  88.8755035
  36.8633842 104.3209362  90.0587559  80.5507278   2.3077901  69.3080187
  80.4293537   1.9595063  70.1913071  79.7473812   2.0708361  68.8446426
  40.9445477 104.4218159  84.3407917  41.2216949 103.5456085  84.6085167
  41.7529249 104.9341488  84.3243790 116.0245800  46.0928583  21.4222240
 115.8551025  46.3109159  20.5057335 116.9571877  46.2717915  21.5424848
   1.7316204  91.3999367  92.6359272   0.9497768  91.1641693  93.1352901
   1.7393088  90.7879829  91.8999386 112.8745556  30.4318905   2.6952183
 113.0932236  29.5037389   2.6118556 111.9419098  30.4398417   2.9104993
   3.0884171  42.6440096  28.4650302   3.4368855  42.9068756  29.3169117
   3.6409664  41.9100189  28.1963706 116.7046547  39.3557572  14.0447545
 117.4748516  39.9240351  14.0349770 116.1861134  39.6678758  14.7863209
   7.1553141  60.0453424   8.0898595   6.8774825  60.7960987   8.6146480
   7.2913337  60.4034710   7.2126645 114.0117168  41.9399500   9.7625178
 114.5528412  41.7152405  10.5194294 114.6309853  42.2849607   9.1193229
  99.6539116  29.0516400  29.9677896 100.0840473  28.6078024  30.6986904
  98.7183952  28.9404392  30.1371503  34.1520309  88.9265919  96.1539936
  33.2320714  88.6736202  96.2308979  34.5770335  88.5162354  96.9071293
  54.1971779  78.4740114  88.3642101  53.7262678  79.3071795  88.3466911
  53.6048841  77.8735876  88.8168716  37.6871443 110.3523254  94.5868683
  38.0192351 110.9114456  95.2892399  37.7200913 110.9042645  93.8055134
  28.7453556  54.6299267  79.3677855  28.5678005  55.4352760  79.8537064
  29.2335415  54.0820551  79.9823952   1.5958053  37.1200871   7.3212463
   0.9253671  36.5393853   7.6811492   2.3200272  36.5372968   7.0930135
 116.2459755  51.7307329   1.4876179 117.1828461  51.9259739   1.5073155
 116.1302471  51.0454321   2.1457952  95.4718685  33.7207246   8.1912690
  95.9312630  34.2719960   7.5577956  95.3166485  32.8990054   7.7255249
  39.7246909  92.7915287  71.1631012  39.2819929  92.0993996  71.6542244
  39.2861223  93.5972404  71.4364433 107.7372456  42.4207067  24.4326973
 107.9120541  43.2445812  23.9778233 108.0250835  42.5778675  25.3319645
   1.3852689  63.6786699   6.5167844   1.2957352  64.2162085   5.7298505
   2.2823443  63.3468723   6.4794081  97.5145054  66.3230133  23.3974648
  96.8229008  66.8486261  22.9954100  97.7722740  66.8199253  24.1739082
  85.3186131  64.8711157  10.6619501  86.1081409  65.0215912  10.1421022
  85.6383419  64.4817829  11.4758480   1.8225600  19.0843236   4.2246255
   2.4179222  19.5752609   3.6582726   1.8764192  19.5283127   5.0709140
   9.2131394  33.3182311  33.5019088   8.6396098  33.8167739  34.0839314
   9.1941386  32.4276137  33.8521552 112.4235821  70.4184341   9.3420660
 113.2733059  70.3084946   8.9153212 112.0819378  71.2392998   8.9875370
   5.2622372 100.0545406  92.5203323   5.3654081 100.8643150  93.0201912
   6.1576134  99.7759724  92.3281479  10.6413662 102.5198364  92.4245358
  10.6779122 101.9646740  91.6456318   9.8885626 102.1925068  92.9168606
  27.8977251 107.3688698  91.2954140  28.5658550 108.0048180  91.0396862
  27.8474689 107.4443436  92.2483063  95.3265667  43.9550352   4.7577414
  95.8113289  44.4263029   5.4353446  95.9952831  43.6867046   4.1276208
  28.8087082 111.4239120  92.7885723  28.4725809 110.6559372  92.3265553
  29.6734071 111.1565590  93.1000996  65.6066036  41.0839987   9.1921622
  65.7763672  40.2571011   8.7408829  64.7068071  41.3067818   8.9534825
  49.8377085  99.4395447  74.6123457  50.7434130  99.5814228  74.3370199
  49.6059465  98.5872364  74.2434406  55.8247471   9.3598044  95.9335613
  55.6310225   8.4579659  95.6778431  55.0872755   9.6153033  96.4877129
  90.0650215  66.1106491   0.6296785  89.6435165  66.8686533   0.2247147
  89.7320843  65.3601599   0.1375931 113.2351398  89.7593880  96.1419487
 112.2803783  89.6911335  96.1437893 113.5218906  89.1248608  96.7987537
  97.4794674  27.9756689   8.9422482  97.4646378  28.0010653   7.9855001
  97.0990372  28.8122272   9.2099756   4.1614476  27.2090626  28.3438778
   4.4368851  26.2975335  28.4412503   4.0260586  27.3191285  27.4027157
  27.6945877  92.0370388  77.8165340  27.6619816  92.9833698  77.9566336
  27.8741741  91.6726494  78.6832523  43.4244108 101.3652515  90.7723808
  43.7006521 101.7313194  89.9321938  43.8257551 101.9373608  91.4264774
 114.0542889  42.9373789   1.5582632 113.7183666  42.0738983   1.7986482
 113.5733509  43.5460901   2.1189770  10.6930244  41.1609221   3.6675331
  11.6091573  40.8855009   3.6347771  10.3422022  40.7334709   4.4488382
  49.6647739  95.0082397  71.5460491  50.4317951  94.8013973  72.0800209
  49.9548960  94.8663330  70.6449795   3.6414665  43.5673475  30.8848834
   2.8135335  44.0297413  31.0150671   3.7794486  43.0885077  31.7021370
  22.4374938  74.8297453  94.2848587  23.2078552  74.9791050  94.8330116
  22.5390768  73.9320850  93.9684486 100.7895947  43.3756781   2.6152021
 101.5786743  43.8642311   2.3808765 101.1167431  42.5615406   2.9978088
 108.6695671  64.9181318  -0.3511928 108.0337334  65.5809736  -0.0817789
 108.8570499  64.4269753   0.4487124   9.3288785 100.0848866  88.2677364
   9.0135121  99.1811466  88.2626915   8.5369056 100.6144142  88.3605480
  39.6747112  83.4473038  90.4740334  39.4344449  82.5828457  90.8075142
  38.8386440  83.8953114  90.3455162  21.8673182  97.2375870  79.2310524
  22.7632737  96.9117069  79.1456318  21.7660046  97.4175644  80.1657009
  12.0681596  89.5799446  94.6893692  11.3739383  89.9818611  94.1671085
  12.7757597  89.4202423  94.0648460 101.2284470  40.8021927   3.7073752
 101.9695568  40.2037191   3.6134693 101.0526466  40.8199501   4.6481246
  90.3058052  75.2515459   4.7823358  90.2754116  75.3507519   5.7338953
  89.9369144  74.3833017   4.6201423  83.5415840  70.6020069   3.5014924
  83.5018158  69.6769142   3.2588968  84.3022633  70.6656790   4.0790275
 116.6824532  43.1174707   8.0925995 117.3968315  43.7538576   8.1227523
 115.9743214  43.5736656   7.6379925  22.4299812  88.1438541  87.3066044
  22.7448463  87.2648621  87.5174904  22.1401787  88.0824852  86.3963985
  52.4314165   2.5580576  79.1710472  52.7928400   2.0329247  79.8850775
  51.4903975   2.5828627  79.3445253 110.8688927  35.4244590  16.8683970
 110.6932926  35.4150009  17.8093052 111.7132282  34.9827290  16.7778730
  16.3711476 107.8465080  90.7525158  16.3751817 106.8909645  90.6962872
  15.9962797 108.1338501  89.9199677 103.8199234  48.0045700   1.6031180
 103.5190773  48.7275505   2.1535891 103.1048775  47.8621387   0.9829120
   3.6283717  31.2079620  24.6048880   3.0935511  31.1352491  25.3954005
   3.1069109  30.7842994  23.9231110  91.0919666   7.7690399  62.4643850
  90.2650642   7.3461413  62.6959658  90.8324242   8.5587823  61.9898558
  46.8197918 105.5215359  85.9030819  47.2041941 106.3953972  85.9725761
  47.0582247 105.0890923  86.7230701  38.6942101  66.8984365  68.5402679
  37.8827143  66.3972521  68.4595060  38.4060121  67.7944326  68.7145329
  80.0609016  51.8464279   3.7933987  80.2268028  52.3928118   3.0251700
  79.9547815  50.9629774   3.4405768 104.9120426  49.1997337   4.2035389
 104.0693378  49.4949818   3.8587180 104.7515202  49.0538979   5.1358449
 112.6368332  77.6892519  12.9880822 112.8418350  76.8210793  12.6409829
 111.8803310  77.5472069  13.5570836  22.1600080  89.0893555  95.3084278
  21.6029668  88.3417130  95.0917149  21.6953874  89.8458767  94.9506187
  28.4031987  78.7414646  89.9091148  27.6526308  79.0349436  89.3926430
  29.1508389  78.8328218  89.3184280  18.1504798  86.7581367  90.0378227
  18.7838960  87.2487164  89.5140362  17.3286915  87.2370148  89.9302483
  39.4865942  84.8579121  83.5739899  39.8395252  84.5119667  82.7542400
  39.1810727  84.0847397  84.0484142  92.1584606  34.7441435  21.6330767
  91.9746780  33.8964200  22.0378232  91.3984966  34.9135113  21.0762954
  11.2854886 101.1506748  89.8357105  10.7172728 100.5520439  89.3509293
  12.0732307 101.2224388  89.2966843 118.8194847  81.7046261   2.2519618
 118.5874939  81.5745449   3.1714669 118.2257175  81.1279392   1.7712362
 100.0125790  25.8270907  35.7458019 100.7978058  25.4187727  35.3812218
  99.4264030  25.9306240  34.9961901  43.9306974  10.8327961  87.8660965
  44.1095591   9.9347460  88.1449318  43.3738804  11.1917067  88.5570240
  95.9421730  62.1193123   3.7313890  96.2940979  62.2826719   2.8563529
  95.5962181  62.9664135   4.0124008  37.7926612 100.1377869  76.3102770
  38.1022263 100.7239723  77.0007706  38.4043932 100.2755260  75.5870581
  15.6920195  76.2356043  90.8359051  14.9718428  76.7180920  90.4299736
  16.1355269  76.8832874  91.3836670   4.0822092  70.3313637   4.2840731
   4.8121417  69.8734140   3.8672841   3.3735761  69.6880770   4.2999077
  96.5422058  36.8541574  15.9569502  97.3359585  36.5678382  15.5050611
  96.5751743  36.4094830  16.8039513  26.0229373  97.0819759  77.4204445
  25.7133865  97.5220871  76.6287899  26.8455148  97.5227070  77.6334143
   9.7142953 111.1936665  83.3416462   9.9617183 111.8689632  83.9733028
   9.2875677 111.6741180  82.6322079  90.8849049  61.0703802   8.0241609
  91.0649300  62.0038795   8.1355095  90.4888821  61.0048103   7.1551949
  69.8054171  37.0139050  14.0345752  68.9839649  36.8298483  13.5789764
  69.6529150  37.8499794  14.4749796  44.1123962  70.2228403  90.0721931
  43.4239769  70.4610920  90.6931210  44.7551584  69.7470045  90.5981922
 100.7042408  66.4776278   5.0750703  99.8941422  66.8322802   5.4413992
 100.5352497  65.5399370   4.9833515  22.6322842 100.8514786  85.1511574
  23.1821823 101.5659809  84.8297024  22.7604270 100.8587360  86.0997105
 114.1731739  46.6186953   3.1904081 113.5004902  45.9377384   3.1954712
 114.9044323  46.2294292   2.7108607  96.5786839  74.7542000   0.5643084
  95.7909489  74.2330456   0.7195853  96.3257408  75.6467199   0.8002377
 111.2972832  23.1624389  25.8056617 111.4956093  22.6752782  25.0059295
 110.7202148  22.5824714  26.3025141 119.0838814  83.5119438  77.4674749
 118.7068939  83.9035225  78.2553625 118.5050106  82.7770710  77.2647476
  41.1001348  19.2716908  92.0435238  41.5511751  18.4276605  92.0233917
  40.1761103  19.0469265  92.1525478   1.2139496  77.3046160  10.9316599
   0.5055287  77.1963072  11.5661979   1.8961996  76.7028141  11.2293196
  77.9551697  37.8208661   6.6998410  77.9646969  38.7203407   7.0270818
  77.0474720  37.6719451   6.4350092  97.1941853  26.7118216  23.0112743
  97.4100304  27.4573803  22.4511051  97.9787922  26.5763593  23.5425687
 109.3159294  68.3244562   8.8537771 108.4456253  68.4735060   8.4842014
 109.9187469  68.6559534   8.1882370  17.1541357  94.6628857  60.9378672
  16.8674505  93.7504864  60.8982944  18.1034172  94.6208954  60.8223963
 101.9786930  39.7674489  22.3071074 101.5370846  40.6076670  22.4306083
 101.2669659  39.1336465  22.2177863   5.2540451 103.1345081  90.0034618
   5.4318315 103.4801006  90.8782101   4.3529561 102.8150749  90.0507069
  95.6687832  28.0100584  32.9840422  95.3949070  27.0993352  33.0927110
  94.9489403  28.4211612  32.5054479  16.7982900  79.2845011  89.4814110
  17.4462831  79.4531298  90.1654530  16.6394973  80.1413727  89.0854454
  17.4927378  76.8788528  94.4901180  17.0205379  77.3422289  93.7983513
  18.0343306  77.5517511  94.9025726   8.9556426  83.8468742  83.2786179
   8.5973912  84.4037247  82.5873852   9.8416984  83.6380005  82.9827976
  75.0594330  46.7045593   6.6016567  74.3762016  47.1955490   7.0581144
  74.5831680  46.1461067   5.9872210 116.4133072  20.9480643  17.2734582
 117.2638798  20.8181310  17.6928341 116.6033840  20.9294558  16.3355052
  19.4666386  87.6198483  84.8743916  19.1374111  87.1688747  85.6518650
  18.8080502  87.4484921  84.2012405 103.2717609  44.6969414   2.4597055
 103.2456684  45.5346632   1.9973493 103.9562511  44.8087025   3.1194124
  23.8378811  93.4559250  96.6050148  24.4389462  93.6167622  97.3324013
  23.2128835  92.8169727  96.9475651  92.5700855  35.2727985  15.9309351
  93.0588627  34.4892621  16.1827278  92.1568871  35.0404119  15.0993764
 114.6140957  46.9571877   7.8839391 114.1298771  46.9943905   8.7087905
 114.2303753  47.6523352   7.3493797 106.2274647  60.5840969  15.3268611
 106.2588024  59.6806765  15.0120950 106.9032764  61.0370302  14.8225176
  88.9470196  53.1201696   7.3968273  88.5296631  53.9304113   7.1043295
  89.5642757  52.9029703   6.6982275  70.1300526 108.1348419  23.8989043
  70.6697893 108.4876156  23.1914687  70.7562065 107.7283096  24.4979811
 110.3685951  69.0065384  11.3010633 110.0312233  68.7230682  10.4513240
 111.1582470  69.5051098  11.0910285  22.8334332 106.8671036  82.7143192
  22.9508924 107.1778107  83.6120319  21.9035840 107.0041847  82.5331593
  40.3842306 108.1028748  83.5996532  41.0677385 107.9619122  84.2547703
  40.8498764 108.4490204  82.8383541  23.6926985 101.5022659  93.0714607
  23.9733410 101.5373325  93.9859200  22.8056431 101.8618584  93.0791950
  12.0370424  88.0863667  79.5129299  12.2335529  87.8724670  78.6008692
  11.3749123  88.7755775  79.4599962  21.9760108 110.5243301  69.5615625
  22.2680950 110.3704929  70.4600334  21.5298271 109.7148228  69.3128443
  79.9363184  45.1786089   6.3630712  80.5480003  45.2798223   5.6338030
  79.9655867  44.2450476   6.5724295  19.9803579  41.8449020  42.6000977
  19.0387475  41.9131899  42.7580214  20.2122951  40.9694147  42.9098701
 118.2517529  35.5799627   7.6996034 117.3516369  35.2726102   7.8071207
 118.4445381  35.4371428   6.7729592  37.3167944  91.6257477  93.6814594
  36.5072441  91.3842583  94.1315079  37.2750401  92.5792503  93.6085796
   2.3181605  49.0734291   3.1035376   2.7773488  48.2396650   3.0024731
   1.7268580  48.9331055   3.8430658   2.9494438  46.2437344  11.2681425
   2.2898984  45.9468651  11.8951201   2.5857267  46.0166502  10.4123533
  94.0454674  21.3567758  10.9443295  93.9039326  21.9422746  11.6882312
  93.5402203  20.5722284  11.1575019  21.2047625  80.4169178  96.0191250
  21.7754126  79.8510599  95.4991245  21.0270929  79.9130583  96.8133450
 105.3106022  26.8585706   5.7258588 105.2054119  26.5699530   4.8192900
 106.2310410  27.1130943   5.7909143  91.2468338  76.7790604  21.8139124
  91.2522030  77.1783972  22.6838183  92.1719360  76.6557980  21.6012406
  94.1096687  33.8656354  10.5648434  94.6707916  33.4940052   9.8842072
  93.6262226  34.5632076  10.1222384 109.5930099  20.9367013  30.8058310
 109.8615456  21.7890453  30.4628587 110.2655220  20.3307009  30.4948258
  91.7771244  54.7603226  25.0453448  92.6302528  55.0922251  25.3250647
  91.9086647  54.4997358  24.1337395  11.8146777  94.0447044  88.1235981
  11.4673471  93.1608582  88.0035782  12.7358401  93.9761829  87.8726101
 102.4233341  58.3226967   6.2333417 102.2252083  58.5072613   7.1514446
 101.6177940  58.5428858   5.7655293  75.3269196  41.4968395   3.3046028
  75.6160879  41.3849211   2.3990168  76.1194277  41.7461205   3.7800196
   5.9781319 104.3057632  87.6742458   6.9063044 104.3893909  87.8927326
   5.5898416 103.8787937  88.4379005 112.5713539  27.8897285   5.5265081
 113.1060696  27.1608138   5.2118641 112.6328564  28.5481143   4.8344252
  16.3587749 104.6420002  92.8247643  16.4187348 103.7137032  92.5991535
  17.2531354 104.9697304  92.7301788   4.9300486  52.5062656   5.8140481
   5.6967729  52.9809856   5.4930973   4.4799307  52.2143650   5.0213194
  74.7035933  10.7191491  97.1616840  74.4070959  10.8051169  96.2556362
  75.0460243   9.8270732  97.2180176  38.3526778  71.7542410  70.2937078
  39.2763901  71.9343758  70.4684496  38.1461382  72.2861481  69.5251703
 105.4561806  32.0147443  27.2162485 104.8200321  31.6618609  26.5941429
 105.0127792  31.9703102  28.0633903  90.7004833  27.0352459   4.7463796
  89.8464012  27.3531628   5.0391316  91.2263012  27.8275561   4.6368596
  96.8519878  46.3887453  12.7430010  96.3956070  46.5593958  11.9190919
  96.5105152  47.0481539  13.3469915 101.1826706  11.2994695  12.0006299
 102.0741272  11.2807357  11.6525030 100.7368183  10.5783701  11.5562689
  94.0734768  45.5394506   1.0228100  93.9548969  46.0750961   1.8071917
  94.0748501  44.6384668   1.3460070  77.5153351  43.6394262   5.1403862
  77.4526978  42.9076529   5.7542390  78.4469223  43.6942959   4.9273819
  25.2407193  80.7348537  67.7371216  24.8385525  81.3843632  68.3138609
  25.4888153  81.2291813  66.9559002  49.6772528 106.0438538  76.9288826
  50.4175663 106.5837669  76.6520071  50.0360727 105.4776192  77.6121521
 108.7391949  20.1339459   3.6380020 108.9579391  20.8147192   4.2743444
 107.8701878  20.3757763   3.3177361   9.6871012  53.0398607  26.5787339
   9.2532998  53.3948231  25.8028150   9.4711471  53.6574268  27.2774553
 103.4571362  27.5720739   9.7707194 103.1619263  27.0965147   8.9942348
 104.1580868  28.1403637   9.4514334   3.0342129 107.8495789  64.2936420
   2.4069169 107.5313282  64.9428320   2.6527345 107.6030922  63.4510517
  21.1231470  78.3744526  77.9787827  20.3446698  77.8463173  78.1556416
  21.0534430  79.1136122  78.5829544  10.5562699  97.0774269  92.0731926
  10.1368761  96.4635277  91.4703178  10.6860757  96.5733433  92.8764820
  80.0621223   8.6066157  26.6532683  79.9104214   9.1432339  27.4312520
  80.9926319   8.7217873  26.4605856  64.5762920   3.0408949  92.5220490
  64.1086435   2.3206142  92.9448223  65.4208088   2.6650313  92.2735691
  38.4691238  97.8406525  61.2296534  38.0768943  98.4276104  61.8760729
  39.3213773  97.6114178  61.6002607  75.6012964  21.6626120  81.5433884
  75.2962351  21.9393253  82.4074459  75.0699902  20.8936977  81.3367176
  89.9979210  62.2253609  25.2464652  90.6791115  61.7647457  24.7565174
  90.3405094  63.1123114  25.3568411  65.5715418  12.7087379  95.0189972
  64.6171570  12.6563680  95.0702953  65.7435703  13.1231177  94.1734600
  39.8074603 111.5055943  91.6952705  40.6528616 111.3131142  91.2897110
  39.3831491 110.6518936  91.7812443  22.8081417  72.6164341   9.3124741
  23.2893300  73.0632973  10.0088942  22.3883796  71.8751431   9.7489625
  95.9752560  49.9249363  11.3829243  95.8482742  49.4861221  12.2240841
  96.5393829  50.6713820  11.5849376   3.6864990 109.0854263  87.3992729
   3.8718623 110.0092316  87.2305584   3.8743949 108.9696693  88.3306789
   3.3254889  67.1869659  10.5834532   2.7606094  67.8822279  10.9207284
   2.7939135  66.7472124   9.9199206  73.8883638   7.6125705  82.4932384
  74.2460155   7.8399724  81.6349888  73.0028868   7.9760766  82.4876785
  30.2236319  94.7211361  91.4267540  30.2889085  95.4632950  92.0277309
  29.3879080  94.8491478  90.9779644 117.0122051  66.6069460  17.7813447
 116.5497494  67.2806168  18.2798755 117.9349995  66.7394114  17.9984879
   1.9672632  68.8582945   5.0930744   1.3988818  68.8109255   5.8617944
   1.4001350  68.6171484   4.3606508 117.5535774  33.1842852  29.4523787
 117.7933407  32.3039937  29.7419119 116.6334629  33.2755446  29.6999574
  96.9548988  40.8793736  19.4768083  96.7176056  40.1356125  18.9229655
  97.8219604  40.6579924  19.8165524 101.6719723  61.7537498   3.6612621
 101.9629765  62.5149155   3.1590959 101.4050961  62.1128511   4.5074657
 101.0797501  68.0591345  14.7894573 100.9057045  67.5753403  13.9820647
 102.0316029  68.1583023  14.8088002  14.2223632 109.5628548  96.7775345
  14.8090291 109.6286964  96.0240650  14.7065675 109.0352917  97.4127197
  19.4052780 109.0181065  93.7893009  19.1625559 108.8638306  92.8763294
  18.8885319 108.3829880  94.2851162  19.5427310  67.1232796  16.6124558
  20.2274394  66.5435219  16.9460571  19.8364305  68.0026245  16.8506122
   5.4936737  66.0252047  23.8676143   5.6305218  65.0778532  23.8622403
   6.3686663  66.3942862  23.7476087  36.1980343 105.6039906  83.1079102
  35.7318091 106.2433338  82.5692940  35.6433296 105.4911709  83.8797951
   8.7627435  89.8967266   4.5657155   8.7577546  89.5147800   3.6880362
   9.5751262  90.4016113   4.6025947  27.5803256  95.1291752  96.8726826
  27.9495001  95.6855392  96.1868191  27.3763728  95.7329178  97.5869179
  29.4567299  97.3133373  92.2153568  29.9519181  98.0831337  91.9353008
  28.7586474  97.2283268  91.5659809   9.4697720  69.4127274   8.2201511
   9.4841552  70.3439236   7.9990280   9.7351569  69.3806839   9.1392678
  74.4700670  31.6555476  77.8881884  73.9819860  31.9901991  78.6405277
  75.2454424  31.2438107  78.2696295  36.9448363 100.7025083  96.8396091
  36.4004027 100.0219425  97.2354045  37.7532088 100.6907400  97.3520794
  71.3916349  28.3857179  77.4655485  70.9444284  28.8283968  78.1868505
  70.6904125  27.9527211  76.9786930  47.7901602  98.5758591  85.2544975
  48.0316257  99.1630077  84.5381260  48.6035061  98.4459019  85.7421589
  82.0404625   7.7061599  90.4518032  82.4740887   7.0259392  90.9670734
  81.2414742   7.9039693  90.9403992  33.0378699  87.9718399  90.7685661
  33.1507587  87.0890713  90.4161358  33.9134765  88.3570576  90.7346439
  23.0640316  98.6175919  92.3220730  23.0408430  99.5681763  92.2120762
  23.9799261  98.4215927  92.5194359  64.1007328   4.3762732  94.9737358
  64.9133348   4.1424200  95.4223156  64.3241024   4.3482307  94.0433884
  51.9531965 104.7254467  92.2766209  52.4939919 105.3793049  91.8336391
  51.2409782 105.2300453  92.6694965 114.7108746  92.4901199  21.4900470
 114.9514008  93.3701897  21.7796326 113.7628174  92.4476147  21.6149855
  43.1917953 107.2985744  94.1764259  42.3798466 107.6801014  94.5102119
  42.9316044 106.4433670  93.8341618  85.8483219   8.3147722  96.8034458
  85.5873489   8.4496754  97.7144432  85.9904861   7.3708659  96.7322922
  37.1181417  86.1740398  82.8192806  37.9550743  85.7982731  83.0923557
  36.5107679  85.4342365  82.8232098  79.7199965   2.4233620  92.1478367
  79.6689224   2.3756719  91.1931896  80.6363678   2.2330055  92.3484707
  57.3460722   2.0181809  82.2425556  57.2024107   2.8960198  82.5961018
  57.2947407   1.4415941  83.0048847 114.5163345  84.8952484  10.4353893
 113.6834812  85.2948761  10.6861782 114.4861221  84.0184212  10.8181202
  34.9046564 107.4456406  96.7068863  34.8724747 108.2019138  96.1210060
  35.5695987 107.6740074  97.3564529  11.7531538  65.4377317   6.8604481
  11.3594413  65.0098848   6.1000735  11.7712295  66.3665867   6.6299516
  99.4952011  69.6007967   2.2776639  99.8106861  69.9616861   3.1061918
  98.5425568  69.6778393   2.3301437  94.4693756  58.4993505  12.9031777
  94.8121643  59.3836641  12.7739084  93.6742210  58.4705400  12.3710740
  77.0978022   0.4951297  86.8278885  76.8230820  -0.3836478  86.5661430
  76.2806797   0.9521217  87.0271206  93.6209869  52.2373867  25.3926039
  94.4204998  51.7723083  25.1462269  92.9181862  51.6081429  25.2302599
  20.6218696 101.6398716  96.1582851  19.7362745 101.3479805  95.9420586
  21.1101580 100.8308315  96.3108349  54.5830965   8.4899634  86.6490650
  54.8032904   9.4211167  86.6226196  53.6296606   8.4715676  86.7318344
 118.2000065  45.2665091   2.2377943 118.9696884  44.6976757   2.2538497
 117.7576351  45.0944424   3.0690169  40.4060841 104.4266987  87.7227592
  41.3339949 104.4775295  87.4933338  40.3471041 103.6793518  88.3179283
  31.2499881  92.2931576  92.4367619  32.1379948  92.2345448  92.0842838
  30.8177638  92.9486465  91.8892765 112.7534580  57.1040344  11.6016376
 113.6352634  57.0691681  11.2309086 112.2617912  56.4442062  11.1126375
 116.6186714  80.2722359   0.7767801 116.2915134  80.3814983  -0.1161136
 116.4711857  79.3473434   0.9744048  91.0497189  18.6419547  71.4507580
  91.5195084  19.4601548  71.6122580  90.1376534  18.8443100  71.6591167
  24.2778635  57.9900360  10.5548096  25.0624204  58.2740545  10.0857306
  24.3196225  57.0339632  10.5345166 115.9498596  38.9669418   1.4643867
 115.1785660  38.4617019   1.2073229 116.5737915  38.3105278   1.7743161
  10.2088237  58.5391331  17.9477453  10.1176131  59.3505144  18.4473133
  10.0930166  58.8051748  17.0355821   0.7451421  51.4027929  15.2611887
   0.0271470  51.1047935  15.8196795   0.4988768  51.1168528  14.3815172
  98.6563969  38.9823627  14.7744489  98.2594395  39.7676206  15.1513135
  98.8260078  38.4151649  15.5266130  89.4945145  57.2042656  21.9146824
  90.1710033  57.7158165  21.4709282  88.7903500  57.1286821  21.2707281
  78.0985832  49.8744726   6.9379580  78.4475851  49.0430832   7.2592455
  77.7731085  50.3166151   7.7220559  33.2139611 102.8262615  90.1143169
  32.3808241 102.5481319  90.4947948  33.1321430 103.7759304  90.0267982
  91.0177326  53.9208269   9.2119378  90.8905983  53.7966919  10.1525009
  90.1801586  53.6705923   8.8219506   0.9008007  61.8669128   0.7763080
   1.2238817  60.9777069   0.6308264   1.1058749  62.0492172   1.6933365
  42.7924204  85.9763050  79.9201679  43.7256861  85.7641983  79.9363136
  42.5912714  86.1015511  78.9927626  43.2214403  97.0990562  85.5268192
  42.7101564  97.7501869  85.0463390  44.0694427  97.0853710  85.0830460
 107.2220325  84.7257423  41.0883904 107.6712608  83.8980865  41.2598896
 107.6148319  85.3436947  41.7048883  25.2516770  88.9928341  95.0374317
  25.3852844  88.5767365  94.1858101  24.3166161  88.8860989  95.2120876
  99.4209671  61.3930082  13.8682973  98.9055634  61.7580843  13.1490624
  99.5376110  62.1243715  14.4747055  18.9370322  52.6216125  15.5498838
  18.2846677  53.0377245  14.9864078  19.1558659  53.2912493  16.1979043
  82.4001026   5.0332749  86.9365788  82.5543594   4.1000214  87.0831203
  81.4547443   5.1393443  87.0427608   6.2574297  63.6258698   7.3367178
   5.8099902  63.9796782   8.1053853   7.1409583  63.9909792   7.3847049
 114.9166012  85.9383488  15.3183150 115.5628586  86.6442013  15.2993321
 114.1495037  86.3271904  15.7385457 118.0966473  32.4304509   8.7297285
 117.4188519  33.0844784   8.9002436 118.5525227  32.7548432   7.9530823
  33.4740663 110.2729511  84.9305439  33.6799312 110.8440971  85.6705761
  33.9956784 109.4851017  85.0836849  84.5381069   5.2903622  85.3361130
  83.7295723   5.5921519  85.7501602  84.2762089   4.5193139  84.8330021
  97.8095627  52.6699495  21.2064099  98.6535549  52.8595448  21.6162586
  97.5755978  51.8004227  21.5310836   7.1792889  87.1529865  93.5629654
   7.8481472  87.3055935  94.2304802   6.4212549  86.8331814  94.0521812
  73.0358791   5.1679140  74.8851442  72.4034977   5.0746745  75.5976248
  72.8380775   4.4424400  74.2928648 116.0538483  71.6630936  28.0889630
 116.5566254  71.5161896  28.8901258 115.1845455  71.3131714  28.2841825
 113.8287067  67.5022030  21.4243388 114.4663429  67.3794794  22.1276093
 113.9358902  68.4160995  21.1606455   3.0578998  50.4113436   9.0902376
   3.9317238  50.5211020   8.7152481   2.6795217  51.2904882   9.0772170
  95.8833599  62.1666956  22.3851418  95.3101158  62.6534271  21.7929220
  95.8886433  61.2758541  22.0349884   7.2031969  98.0089664  68.6055803
   8.0592513  98.3732128  68.8307953   6.5912551  98.7317562  68.7446308
  39.5834184 110.6822968  85.7614899  39.3305445 109.8262691  86.1071873
  38.8323951 110.9602070  85.2371216   6.8965119  58.4854984  14.2601657
   6.7802590  59.2304993  14.8498154   7.6799732  58.0423212  14.5857620
  14.9402988  39.4450116   9.0048951  15.6717861  39.8663568   9.4561446
  14.8618937  38.5880637   9.4240904   5.6207418  50.2013922  25.4796362
   4.7055748  49.9740648  25.6440258   6.1075610  49.7475529  26.1675811
  37.8216767 108.0652714  85.5140400  38.4274602 107.6467991  86.1257076
  37.9998016 107.6427937  84.6737862  26.8044686  94.9929428  84.2033482
  26.4786386  94.1145802  84.3996620  26.1785769  95.5807018  84.6264648
 109.7762203  65.2123880  12.4193084 110.0134659  64.4214296  12.9033923
 109.1839314  65.6833458  13.0054951  81.3729668  10.9870100  95.9794712
  82.0888901  10.7265306  95.3999519  80.8478928  10.1934218  96.0831165
  71.4754200  31.2553167  92.7591419  70.9160328  31.8094420  93.3034325
  71.1800098  30.3634548  92.9422951  19.9107051  81.8846416  92.6650620
  20.7164431  82.3982811  92.6086521  19.6459782  81.7535782  91.7545795
  53.9919329 109.7134399  92.9601288  54.7424412 110.2966213  92.8466702
  54.3147469 108.8528824  92.6927948   8.7554866  64.4229507   7.3834574
   9.3453163  63.8396263   6.9059002   9.3359423  64.9678612   7.9148489
 118.8289465  73.0823421  21.1971569 119.7799157  72.9766083  21.1705208
 118.6457974  73.3788013  22.0886707  58.9375544  91.5751743  84.1790009
  58.4141970  90.9143257  83.7255478  59.7629166  91.6006279  83.6948967
   2.0538710  67.7209091  22.8110170   1.8746054  66.8006611  22.6180601
   2.8515083  67.9176569  22.3197961  55.8583975 108.9717102  83.7853336
  56.0607290 108.5964298  84.6423340  55.2037954 108.3805561  83.4134960
  12.6917505  65.6190968  14.3342543  11.9839168  66.2616348  14.3827295
  13.4607339  66.1286879  14.0788865  40.2109528  86.2214375  74.8587847
  39.6125197  85.5221939  75.1218033  40.9046078  85.7735157  74.3745899
  74.2989159   7.0382124  79.8367977  73.6032391   6.9699687  79.1828823
  74.4812202   6.1327177  80.0879478 118.0660343  66.9473410  10.4262972
 118.1092739  66.5341902  11.2886596 118.2120514  66.2300777   9.8094916
  62.3585558  90.7806396  93.4500980  62.7955580  91.5373993  93.8407135
  62.0091820  91.1073875  92.6210022  64.6445942  23.8144946  72.9590654
  65.2810383  23.1755090  72.6383352  64.6222687  23.6757922  73.9059019
  40.7256317 109.4116402  88.7370396  40.5525827 109.2497730  87.8096294
  40.6193972 108.5562801  89.1533470 115.9853268  56.0504866  21.0344625
 116.8914986  55.7772493  21.1773849 115.8480549  56.7616320  21.6602850
  16.2827229  61.9619513  29.7075129  15.5012500  61.4357710  29.5382094
  16.6373646  62.1505117  28.8386583  98.4808540  13.1608605  90.7591915
  99.0633965  13.8918662  90.5529976  98.7585735  12.8710341  91.6281605
  11.0262597  55.7974052  88.0591011  11.3237047  54.9103451  88.2613087
  11.5773416  56.0737276  87.3268509 112.2649574  48.2081652  71.6244602
 112.8823853  48.4640026  72.3097086 111.8203926  49.0218306  71.3866758
 113.3967113  14.7751582  62.7397156 113.9865971  15.2918267  63.2886362
 113.7896824  13.9025450  62.7210951  17.8474474  26.6807485  87.9054642
  18.6592090  27.0908237  87.6069450  17.9655898  25.7499385  87.7160740
  97.9488945  41.0612202  84.7716618  98.3053493  41.6282415  85.4555130
  98.2572746  41.4501286  83.9531994  16.4798093  18.9742792  73.5107279
  16.1846292  19.8804832  73.4218693  15.8900130  18.5929430  74.1610765
  13.5614121  31.5683770  72.6844120  13.2688403  32.2959614  72.1355438
  13.9618134  31.9885039  73.4455967  23.0704689  50.7708979  79.9970579
  23.9584613  50.6058359  80.3140068  23.1653547  51.5050220  79.3901920
  14.7022235  99.7192669  28.0443144  14.9990451  98.8124943  28.1210470
  15.4555714 100.2419472  28.3190894  51.7269087 106.8576336   0.3869453
  50.8708525 107.2749805   0.2909238  52.3487139 107.5091362   0.0627006
   8.9036143  64.7482538  94.4823456   8.9783853  65.6932068  94.3492794
   9.6761066  64.3836832  94.0503979 104.7373581  69.9453306  67.5069475
 103.9137650  69.4795275  67.6517010 104.5993614  70.8050585  67.9045105
 117.8128815  70.0232840  72.4675179 118.4946060  69.8105621  73.1048775
 117.0015717  70.0228500  72.9754639  25.8297491  48.0054665  82.2677231
  25.5316997  47.1502447  82.5775528  25.5542326  48.6169672  82.9506493
 115.6675816  38.1855655  73.0781364 115.1740742  38.9779425  73.2898521
 115.9873009  38.3331800  72.1880722 110.1665783  25.8045912  86.6527462
 111.1046314  25.9320402  86.5111542 109.7635651  26.0452151  85.8185291
 114.9613380  71.8827629  72.2062159 114.4310856  71.7635536  72.9941559
 115.7185936  72.3884106  72.5013542   6.2641567  65.0350714  96.7292213
   5.8424056  64.1789818  96.6552639   7.0677841  64.9513054  96.2160015
  28.7240553  55.9002876  59.7835398  29.2048669  55.4858923  59.0670729
  28.2808208  56.6442633  59.3757725  23.7635612  39.1440964  68.5662651
  24.5659328  39.6606421  68.4913731  23.2167840  39.4443250  67.8402281
 114.9434376  38.8573050  68.0463123 114.3247890  39.5856643  68.1011486
 115.7815075  39.2341924  68.3143044  32.7789640  21.2601185  97.2254467
  32.5496197  21.0485697  96.3205242  32.0180655  20.9837890  97.7362347
  19.0864205  48.1243277  85.1734257  19.5774412  47.7553892  85.9076023
  18.6768794  48.9121580  85.5309582 114.4219875  43.3894920  85.8335876
 114.7760201  44.1329432  86.3216209 114.2572212  43.7353945  84.9564171
  22.0314479  50.5785990  92.2435951  21.2259984  50.5758858  91.7264080
  22.2868299  49.6574736  92.2939777   1.4944942  43.1505537  47.0395899
   1.7810477  44.0171814  47.3278141   1.5102878  42.6166201  47.8338814
  10.6974220  38.9269447  79.9144220  11.3618314  38.8094735  79.2354584
   9.9044311  38.5403919  79.5429707   2.4265677  42.3083305  67.5898457
   1.5847252  42.1368361  67.1677971   2.2973573  43.1349134  68.0549145
   6.4155185  40.5794287  51.1842871   7.3520678  40.3940487  51.1154366
   6.3009000  41.4091492  50.7209778  92.4701977  55.8552027  90.0721931
  92.4650860  55.1344681  90.7020664  92.8037834  55.4649162  89.2643356
  26.6413474  34.9741793  55.8509254  26.6361260  34.1905594  55.3012466
  27.1322227  34.7161937  56.6311312  60.9628916 110.9083271   4.0659371
  60.8746433 111.5666771   4.7551537  60.3418446 110.2218723   4.3094912
  22.8019071  63.3610487  94.4758224  22.4501586  63.9423466  93.8015842
  23.0313659  62.5597000  94.0052605 113.9120960  50.7276440  77.2811556
 114.1813660  50.5486822  78.1820965 114.3997192  50.0938606  76.7550564
 113.7342358  54.6420097  74.2456198 114.5600605  54.5368242  74.7180462
 113.0610561  54.4106007  74.8855495 116.1448765  54.2017651  75.7128143
 116.7156219  53.4361315  75.6473684 116.5212440  54.7210312  76.4234066
  49.9404669  78.8199329   6.2870491  50.0860977  78.0023432   6.7630422
  49.2801857  79.2829370   6.8026966   1.8806705  26.6034532  80.1497841
   1.4965476  27.1880507  79.4963932   1.4501290  25.7616615  80.0006199
 117.4143410  73.1413984  83.8565445 116.8942547  73.5985565  84.5174122
 117.3399639  72.2163439  84.0910244 102.9677963  47.4051237  76.6298437
 103.6542511  47.4711275  77.2936630 102.8786469  48.2948208  76.2881994
  20.2764177  60.5987310  79.5346975  20.4071712  59.6938705  79.8181868
  21.1571646  60.9176493  79.3377113 112.7043152  64.2645407  69.2180538
 112.5059795  64.4505692  70.1358175 112.0454025  63.6215115  68.9561939
 113.4347725  67.1347809  88.9359379 113.1213856  66.2374973  88.8223457
 113.8333130  67.1409225  89.8062038   9.1284144  54.4644356  59.4110870
   9.7367942  55.1915407  59.5430803   9.6531802  53.6805582  59.5735455
   1.3748130  48.8433266  70.9779167   2.1290550  49.0657425  70.4321289
   1.3635984  47.8863001  70.9924698  13.6857355  40.6768131  79.4309139
  13.5979128  41.5571022  79.0653849  14.3921161  40.2763796  78.9240503
 117.4939442  44.8468637  75.0741053 118.4041119  44.6770573  75.3169632
 117.1559143  43.9940977  74.8006821  -0.1344854  58.1248331  81.0172558
   0.2202894  58.9701605  80.7419682   0.6371469  57.5949001  81.2172318
   7.9427522  54.0592241  87.3612595   8.1801337  54.3703651  86.4877129
   7.9798496  54.8410463  87.9122639 110.3569603  64.8075628  77.9410172
 110.1957607  64.8557425  76.9987202 111.2662697  64.5176077  78.0139303
 112.5842476  76.5039253  80.1212692 111.6816807  76.4883041  80.4396152
 112.5263309  76.1834288  79.2211819  22.3523378  52.0394135  88.2921314
  22.2321796  52.6482773  87.5633812  21.6919875  52.3007154  88.9339161
 102.1111298  72.1546412  83.0871105 101.8409729  71.8603945  83.9569759
 101.5796661  72.9334211  82.9219246 107.9590702  38.8388348  87.7131844
 107.6125050  38.1788874  88.3136749 108.8914490  38.6336350  87.6439953
   2.6446909  77.7420616  63.4987402   3.1040615  78.2357693  64.1780519
   3.2544547  77.0456076  63.2550764   4.1954738  69.2619610  86.7870522
   4.5649585  69.7791910  86.0713863   3.4987128  68.7493467  86.3772011
 116.1819553   2.0458783   9.5366019 115.3356743   1.6413896   9.7274637
 116.8267059   1.4115612   9.8499304  18.8556445  40.4520798  67.8714323
  19.7957420  40.6315136  67.8555918  18.7798285  39.6114683  68.3229351
 103.3488083  70.2608299  79.4942904 104.1031933  69.9071455  79.0230799
 102.6884842  70.4039431  78.8162565  81.8571186   4.3515804   2.4381039
  82.3816776   4.0439060   3.1772941  81.4157677   3.5663411   2.1143143
   4.5251092  64.7079420  74.8171329   4.8831636  64.0431643  74.2288303
   4.0209034  65.2870369  74.2455959 109.0568542  33.1059313  82.4897003
 108.2585239  33.1342649  81.9623470 109.7213459  32.7506495  81.8994045
  11.1689591  81.0750961  92.1642971  10.8226717  80.2889729  91.7420006
  10.5484343  81.7654991  91.9308090 106.2503815  35.5702996  87.4858189
 106.4493752  35.0873876  88.2879639 105.4009151  35.9774065  87.6558208
  28.4441233  68.9296627  89.9953842  29.0434909  68.3877230  90.5085087
  29.0060902  69.3715239  89.3588448   2.1500784  32.2521996  97.2319698
   1.9438134  31.4267445  97.6704979   1.7357621  32.1768045  96.3723850
  26.5007639  84.1354370  86.8734741  26.8617010  84.8150158  86.3041496
  25.5550742  84.2817497  86.8512726  44.4038582  97.0598507  16.4622521
  44.0734673  97.4607563  15.6582940  44.8769379  97.7647305  16.9044995
   2.2694246  76.6683531  83.3386612   2.6504505  75.9466028  82.8385353
   2.8116155  77.4255323  83.1174278 103.5289860  38.5797262  62.6355600
 104.0496254  39.1475463  63.2036591 103.7940598  38.8209343  61.7479849
  44.4254303  88.3090401  28.1854939  44.6600866  88.0143166  29.0654397
  43.5069227  88.0586624  28.0860305 112.0407391  60.8153915  54.3595457
 112.4901485  60.4586601  55.1257086 112.6261997  60.6227303  53.6271906
 118.4754944  55.4576683  54.1038704 117.5524139  55.6400347  53.9280653
 118.7498856  56.1589766  54.6947193  28.8643336  48.3427238  80.9292507
  29.1711974  47.9962492  81.7671204  28.6688685  49.2626238  81.1076069
  94.3184185  53.5553646  74.3149900  94.2158222  53.6861563  73.3723354
  94.1825676  54.4239855  74.6935034  10.2312279  24.0385008  87.2618103
   9.6722567  23.9747119  88.0362225   9.6354306  23.9046454  86.5246868
   2.3187773  38.7274265  75.9805918   1.6542169  39.2021775  76.4797926
   2.9884776  39.3838382  75.7886124 117.1646500  38.1870413  82.2393513
 116.6464424  37.7744555  82.9303455 118.0133057  37.7462530  82.2808266
  13.0327821  58.9493704  64.7455502  12.1089733  58.8312531  64.5245123
  13.0372810  59.6644688  65.3818226  18.9221466  35.0784922  94.0743542
  18.3816719  34.2902112  94.0220928  19.7694063  34.7672868  94.3930054
  28.8174677 111.6543102   3.5318810  28.4508181 110.9274292   3.0284464
  29.4335055 112.0745850   2.9318005  51.0460424  75.8011484   4.3610716
  51.9228792  75.9367704   4.7202358  51.1520672  75.0857067   3.7340668
 100.5775070  25.7128286   8.7923712 101.4759064  25.8694100   8.5015249
 100.0916958  25.5386662   7.9862177  67.4517202 100.7787132   1.8604657
  67.3157835 101.5663052   2.3872133  67.4610138 100.0636768   2.4967495
   7.3009187  77.9571581  67.4251366   6.7181873  77.9528713  66.6657734
   6.7267287  77.7737665  68.1687117  18.9525008  55.7045603  80.1772976
  18.0733359  55.4067850  79.9435663  19.4662416  54.9002314  80.2504921
   5.3802949  50.2009535  72.3840570   4.7292823  50.6604481  71.8536997
   4.8765290  49.8159790  73.1011677  91.4989948  10.3003585  12.4585950
  91.2307072   9.7454524  11.7262471  91.9761276   9.7113770  13.0431294
   2.2126308  35.5945849  71.8650866   2.3229480  35.9979343  72.7261162
   2.5307852  36.2544274  71.2489605  12.9499972  39.7882581  85.3780079
  13.1405056  40.6659985  85.0470829  13.0643034  39.8595500  86.3256836
  53.1946230  78.8513088  21.6180611  53.8070822  78.9934349  20.8963060
  52.3815632  78.5795546  21.1922526  10.5837548  42.7361393  68.0316019
  10.2249360  43.4726000  67.5365210  11.3465035  42.4562550  67.5255251
   2.4872583  44.1653252  64.7315693   2.3720601  43.2450008  64.4950056
   3.1451866  44.1533995  65.4267120  33.4686375  48.6011124  83.9501762
  32.7228355  48.0052328  83.8799000  33.6179662  48.9045572  83.0547142
  10.1947367  58.9898634  57.6119089  10.3451371  58.8115740  58.5402536
   9.2614770  59.1950035  57.5555468  25.9486508  36.3123417  80.5341816
  26.7092347  36.8930149  80.5579090  26.0013866  35.8833456  79.6801281
  21.0113788  47.7243376  96.8131161  20.0867844  47.5361776  96.6520214
  21.0232258  48.1510592  97.6698589  16.4183819  14.3037486  90.4256535
  17.0296788  13.5750699  90.5332375  16.5115166  14.8151720  91.2294006
   0.9306519  10.7643318  87.8301144  -0.0108237  10.9222615  87.9002094
   1.3101320  11.6332138  87.6986980  25.8690882  44.7882271  96.9776249
  26.5382266  44.6506071  97.6481056  25.9160542  45.7238054  96.7808533
   8.7583941  41.3613415  76.8783808   8.1837255  41.8321609  76.2747955
   8.5931933  41.7650557  77.7304077  24.4134402   8.6610454  89.5404816
  24.3424392   9.4720459  90.0439358  24.7944236   8.9305252  88.7047386
  54.4589186  97.1870422  13.0497551  55.1825237  97.6882076  12.6736426
  54.3443346  96.4473057  12.4531841 113.8991547  67.8933048  72.8385162
 114.2663097  67.5411510  73.6493254 114.0424156  68.8376570  72.9010391
   4.9902785  38.9312816  72.1153831   4.4393337  39.7139835  72.1236324
   5.5755740  39.0582347  71.3686943  32.3053503  89.2129803   4.2424572
  32.9398227  89.5214462   3.5955241  32.8300238  89.0202236   5.0194991
 106.1383152  47.1103764  82.3687935 105.6357956  46.7835951  83.1150627
 105.8808422  48.0289650  82.2904491 111.8484688  35.4574966  74.2140484
 111.7780113  35.3975773  73.2613277 110.9691143  35.6995845  74.5044899
  54.4995499  93.6176109  16.0006094  53.9032078  93.4164333  16.7218137
  53.9685202  93.5050011  15.2122200  22.3733783  38.3579612  51.9141102
  21.9522381  38.9331770  52.5528574  22.4611735  38.8967752  51.1278534
  24.1428185  57.2261763  62.6945114  23.1977057  57.3448181  62.6000881
  24.3102503  57.3689938  63.6260700  74.8495293 104.4111538  97.0530796
  75.7310152 104.0978050  96.8505192  74.9873590 105.2636909  97.4658871
 112.3842907  57.1782207  73.6152458 113.0716991  57.7244043  73.2339430
 112.3693275  56.3941431  73.0664015  12.3595762  20.7114553  82.2677898
  11.8956971  20.5302215  83.0852222  12.0815742  20.0133824  81.6747952
   5.8747393  38.0324006  87.6895237   6.3059968  37.5397539  86.9912720
   5.4688877  38.7754297  87.2429562  13.5522342  40.5125427  75.1404619
  13.3467579  40.8279800  74.2603970  13.0000448  41.0389519  75.7185698
  20.0353742  47.8916931  82.5452423  19.7436213  47.6843548  83.4330082
  19.7484148  47.1457672  82.0184803  11.5629661  40.7619476  77.4932861
  11.3305366  39.8353744  77.5538397  10.7414818  41.2010384  77.2728395
   7.8674895  50.8550453  64.1737890   8.2290065  51.4030552  64.8703718
   7.2398406  50.2854109  64.6185446 118.9520359  24.7841716  83.0256271
 119.2792130  23.9130688  83.2500553 119.0292168  25.2854824  83.8373947
  14.1275072  50.2883577  84.3983746  13.1950021  50.4909658  84.4733334
  14.3962729  50.6980133  83.5760784  44.9407482  95.1433277   1.7240977
  44.7279596  95.9138298   1.1975235  44.2897987  94.4903278   1.4670265
  20.8909130  57.9229689  80.3778553  20.1021528  57.3879099  80.2895355
  21.1880946  57.7654219  81.2740135  22.7532434  28.5422039  78.8830137
  23.1684852  29.1777205  78.2999802  22.5356102  29.0441990  79.6684217
   9.5226741  38.1512809  60.7105684  10.1745677  38.1503153  61.4114714
   8.7765563  38.6250758  61.0780764  15.0655329   9.2070109  92.7162838
  14.2489350   8.7420332  92.5340843  14.7938764   9.9886054  93.1974697
  19.6029079  40.3460360  59.1376925  18.9571404  40.4377508  58.4371185
  19.5057523  39.4417500  59.4361162 118.4581470  33.4281039  96.7055321
 119.2754078  33.1705379  96.2789249 117.9844570  33.9227605  96.0368252
  41.9270802 100.1962471   2.6625457  41.4012146  99.8403931   1.9462614
  42.8222990 100.1996136   2.3237091  18.0395365   3.0479339  83.7201691
  17.4501050   3.6573654  84.1644573  18.9164793   3.3314845  83.9786243
 117.5428009  55.0154161  92.4590874 117.5247860  54.1882277  92.9404068
 117.5154114  55.6887293  93.1388950  20.6300330  53.3795071  86.4868641
  20.5193567  54.3269110  86.4067745  21.2449336  53.1504440  85.7899666
  98.7862301  63.9393234  86.0546112  98.3816433  63.5614681  86.8354893
  99.7233868  63.9451361  86.2493801 110.3431511  48.8943720  90.3434086
 111.0522175  48.9254761  90.9856606 110.4482746  48.0466747  89.9114418
 114.8890495  56.6120195  78.2731247 115.8331966  56.4575052  78.3038759
 114.7984505  57.4529505  77.8249454  11.5103984  39.6875215  72.5215006
  12.2536802  40.0466204  72.0369244  10.9111536  39.3748403  71.8437338
   7.9766643  85.8292007  91.3168907   8.4006083  86.6092587  90.9590912
   7.5389498  86.1371899  92.1104717  45.2697659 100.3982830   4.3410870
  45.5926180 100.3193855   5.2387381  44.5659494  99.7522259   4.2820415
  54.1742468  82.3648643  17.0565045  55.0183058  82.8162956  17.0583224
  54.3835640  81.4666748  16.8002367 117.9681110  35.0119591  56.4033604
 117.3073196  35.6495810  56.1331367 118.6784935  35.1206350  55.7710743
   9.2788607  85.6595516  87.4008274   9.5431858  85.7584953  86.4861774
   9.7006452  84.8488808  87.6856804  24.1826916  81.3953495  71.7570543
  24.0428233  81.4063263  72.7039146  24.7880483  80.6680489  71.6127777
 115.1086807   6.8705374   3.5483855 115.1717091   5.9557348   3.2738048
 114.1878414   6.9875622   3.7820646   2.6186943  79.3180609  94.9575329
   2.8407475  79.7761106  94.1469097   2.6476935  79.9968147  95.6318378
  44.3450022  59.0123320  63.3241367  44.6173191  59.7061491  63.9247179
  45.1628160  58.6854219  62.9492521  59.7823858 103.1547070  10.4112375
  59.9726248 102.4752998  11.0581136  58.8808537 102.9815865  10.1401341
  12.4647367  51.6317368  75.2857685  12.0200419  50.9028053  75.7183552
  12.0102978  51.7267227  74.4486904 104.4807625  16.4450169  29.8378372
 104.6101189  15.4977417  29.8844147 104.9332333  16.7094374  29.0368462
  92.5321388  31.3421059   7.4579310  92.3934269  32.2569489   7.2128719
  91.8741608  31.1723280   8.1320834  22.7907419  45.0179768  93.4419727
  23.7455297  44.9709654  93.4909534  22.4956465  44.8295164  94.3328381
   7.8250438  60.3809357  96.5675259   7.0776057  60.9748840  96.6367435
   7.4510330  59.5092821  96.6962337   6.8967396  51.7129850  85.0045872
   6.0189730  51.3484049  85.1178932   7.3722166  51.4410257  85.7895660
  23.0850124  70.0158930  85.7295990  23.2595921  70.0081396  84.7884846
  22.5975490  70.8265400  85.8761024  16.0071015  66.9356012  90.3245068
  16.3738823  67.7146101  90.7426548  16.6773498  66.2624693  90.4423714
   4.2917475  26.8757176  84.9508095   4.9365568  26.1683106  84.9456215
   4.3925294  27.2853661  85.8100319 118.9605904  46.3910151  96.4309311
 118.9540195  46.9434595  97.2125912 118.0727291  46.4615917  96.0802841
  99.6597767  28.3673954   6.3109344  98.9253616  28.6823153   5.7839662
 100.4281998  28.7905931   5.9279788  92.4049377   1.8337327  16.7644477
  93.1525707   2.1874319  16.2826073  92.7790546   1.1474700  17.3169935
 115.9657383  55.5537462  88.3948803 116.0818195  56.2844229  87.7875423
 116.3607121  54.8053646  87.9475021 118.0406761  64.3990517  76.1571074
 117.5243568  64.6550989  76.9213676 117.4030209  64.0160275  75.5546713
  37.9428244  38.8389349  88.0219173  37.7434921  39.7727489  87.9549313
  38.8972020  38.8016844  88.0852032  22.4610806  71.0799503  80.0340080
  21.7122579  71.2036705  79.4507551  22.2794390  71.6499949  80.7812023
  95.6924248  18.0250049   4.6119720  95.5263901  18.2934654   3.7083164
  96.1304283  18.7778997   5.0088704 118.7457180  71.3947058  93.7489605
 118.7996769  71.3650990  92.7937412 119.3183613  70.6863976  94.0432644
  92.3787689  22.9206753   7.3048389  92.7966881  23.4904099   7.9505754
  91.7692852  22.3872232   7.8149265 117.8079891  92.2610664  96.4571190
 118.1524181  91.7829800  95.7027721 117.1062469  91.7038727  96.7937565
  34.1434550  48.5692167  81.2325191  33.7331343  48.9933586  80.4788780
  33.8507271  47.6591682  81.1839294  92.9085541   1.0617742  21.5777135
  93.1486797   0.1375994  21.5108490  92.0858097   1.1311063  21.0934472
 109.9934292  64.9511814  75.3684044 110.2893543  65.7687902  74.9681902
 109.2457390  64.6805525  74.8355246  28.4224153  41.6098166  84.5757866
  28.9821911  41.3418150  83.8470554  28.2390380  40.7977486  85.0481796
 111.1400700  69.8763132  93.8134289 111.4392471  70.3054905  94.6150112
 110.6476402  70.5530357  93.3488846 115.3398800  73.0914545  91.2182331
 114.5671272  73.2719278  90.6829643 116.0510635  72.9900599  90.5856419
 116.0147381  79.0704823  68.8906002 115.5841351  79.6836472  69.4862795
 116.8321896  78.8411903  69.3326712  14.9169993  50.3435802  87.0004654
  14.4621801  50.8622932  87.6640224  14.2741406  50.2343369  86.2997246
 108.5158539  50.6989717  77.8279638 108.6629200  50.4988527  76.9035435
 108.6791515  51.6395092  77.8983355 117.7711487  65.1735830  96.2990284
 116.8782234  65.3271770  96.6077805 117.9211617  64.2410374  96.4542198
  17.1478093  76.6712427  88.3186436  17.1478248  77.6227617  88.4227848
  16.4397895  76.3681078  88.8870239   8.4254795  48.8529921  70.8765697
   7.8725946  48.0807209  70.9955215   8.3053297  49.0944147  69.9581432
  38.0398107  95.4278183  21.4858174  37.2704148  95.3845119  20.9180260
  38.0574203  96.3329601  21.7966938 110.6614113  78.0530310  89.6992111
 111.1887169  77.2564173  89.7591114 109.7586823  77.7507782  89.7989655
  47.7155876  32.5330520  95.6733322  48.4353256  32.8833461  96.1982155
  47.0824528  32.2150493  96.3169575  85.8284664  28.6125255  30.5913854
  85.8167553  29.4926691  30.2152920  86.2828350  28.0793548  29.9390769
  94.7230148   5.0174385   1.9888040  94.8353195   4.8922071   1.0465006
  94.8074818   5.9623009   2.1165985  15.9358168  76.5010405  84.1641998
  15.4306734  76.0336113  83.4989452  15.3153133  77.1242714  84.5420837
   3.0788487  71.5808582  76.8230915   3.4576890  72.1683741  76.1692286
   2.5659874  72.1547174  77.3922014 108.8974476  44.5912457  66.5106297
 108.3613014  43.8784599  66.1631727 109.7980022  44.3276882  66.3215303
  27.1835661  46.7374039  70.2440071  26.2423968  46.6075230  70.3604507
  27.2697973  47.6589632  70.0000286  28.7945652  43.8569593  89.9069691
  28.5246420  44.5639515  90.4930878  28.4103155  44.0872574  89.0610695
  20.8222485  59.9401569  69.8310709  20.9229779  58.9886475  69.8578405
  20.1488924  60.0911570  69.1677284  16.1490405  34.6072125  92.5712967
  16.3660157  33.6848569  92.4355888  16.2737799  35.0114441  91.7126465
   7.7944165  70.0709438  76.2675619   8.3245254  69.5525217  76.8729162
   7.2978842  69.4225121  75.7683420  11.4851069  81.6258240  63.5626507
  10.6903398  81.3520813  63.1047869  11.6144669  82.5356579  63.2948685
  25.8979630  81.0434914  60.6423521  25.5337048  81.9140434  60.8026218
  26.2452841  81.0894585  59.7515726   2.8661150  54.6543169  80.8177090
   2.1466169  54.9925995  80.2846909   3.4089771  54.1615486  80.2023220
 101.2326622  41.0183907  76.6380882 100.8758545  41.7124891  77.1922922
 102.0412540  41.3874292  76.2828112 104.2516994  19.8900497  12.5593626
 104.8000717  19.1302085  12.7546966 104.6363354  20.6011176  13.0718732
 117.7754021  76.6828156  89.3847179 118.6379147  76.3700533  89.6576405
 117.2690010  76.7270565  90.1957893  25.8891201  68.7053108  67.1810341
  25.6577253  67.8647327  66.7859173  26.2878489  69.2036247  66.4676380
  20.7415915  27.5204492  77.4641037  21.4129186  28.0833006  77.8497839
  21.1318612  27.2066021  76.6483688 118.8529479  77.0978832  85.5509949
 119.3881012  76.6433477  86.2015629 118.8801486  76.5310287  84.7801685
  70.1086044  90.8558750   5.0779766  70.0052834  91.1796856   4.1831559
  71.0447931  90.9427452   5.2575213  25.3862309  65.0122929  81.5746975
  25.3094673  65.8050489  82.1056175  24.8974586  65.2106857  80.7759666
  47.1458292  80.0019264  72.6159573  47.4556732  79.4039869  71.9357395
  47.6224995  79.7373247  73.4027243  18.0292332  64.9789047  90.7967854
  17.7633083  64.5021105  91.5830326  18.0220985  64.3195438  90.1029396
 116.2479591  46.6043997  71.1125660 116.7938423  47.1136093  70.5134487
 115.5312252  46.2806034  70.5669641 117.8788662  70.6261826  84.6073914
 118.5719109  70.5026436  85.2559757 118.0935764  70.0099564  83.9071083
  16.9502950  33.7387347  67.0614958  17.8616798  33.6495638  67.3401690
  16.5309167  32.9284978  67.3510981  85.5160332  14.5463204   0.1539318
  85.1292706  14.4336855   1.0222401  86.4017391  14.8659956   0.3258801
  14.6176648  57.1128988  89.5104408  15.4167855  56.7695713  89.1107464
  14.4035673  57.8875732  88.9905643  13.3173215  47.7149391  62.3196507
  13.5523486  47.1041727  63.0181932  13.5897946  47.2744846  61.5146732
   6.1996007  38.0504751  48.1174040   6.2032789  37.1064234  47.9593420
   6.5614843  38.1472468  48.9982605  10.1930058  44.1362190  48.3390093
   9.4528371  43.6907864  48.7512875   9.8620570  45.0105333  48.1333876
  15.5120814  50.9108686  92.6884556  16.0486794  51.4854860  93.2344532
  15.2106440  51.4721584  91.9740868  30.0673699  57.2417355  61.9076109
  29.7075057  56.4876413  61.4406252  29.9828482  57.0129061  62.8332043
  33.1386018 112.1431637  -0.1186804  32.4214482 111.5598869  -0.3670889
  33.4710073 111.7782497   0.7014271 116.4697552  59.3770599  74.4423056
 115.7329178  59.5953035  73.8716316 117.0835114  58.9120102  73.8737392
  19.9396467  45.4107618  89.9575138  19.1614783  45.8123016  90.3441048
  19.6512496  44.5379734  89.6905041  39.3988347  61.2330532  95.9626770
  40.3294230  61.3276148  96.1658955  38.9869142  61.9976950  96.3650227
  13.9049804  65.5249071  72.6982832  13.6558437  66.3941669  72.3843575
  14.2024398  65.0632858  71.9142866  87.3319149   5.4253596   2.3262075
  87.3871899   6.3691944   2.1767004  87.0053291   5.3435171   3.2222438
  22.8247309 105.0303841   0.9252702  22.0797706 104.7827625   0.3775941
  23.1418085 104.2027378   1.2867895  85.2462196  91.7863178   3.5079005
  85.9031391  91.9058990   2.8220570  84.4393921  91.5842724   3.0341434
  21.9187927  25.2748537  88.0368519  21.0798049  24.8502183  88.2157898
  21.8914890  26.0839343  88.5476112   8.1435305  59.2613745  83.1685162
   8.3106709  58.3229542  83.0809402   8.1903237  59.5975399  82.2735119
  21.1646724  44.2055559  62.2717428  22.1140122  44.2467451  62.3870230
  21.0445547  43.7704134  61.4276695  10.6511724  52.4211931  86.6500092
  10.8713055  53.2793999  86.2877178  11.4658809  52.1124220  87.0464230
   0.3061762 100.3443813  81.5740299   1.1034540 100.7462025  81.9191742
  -0.0608090 101.0058117  80.9874630  86.3407803  11.6123974   0.2413432
  85.4480171  11.9291520   0.3787323  86.2306213  10.7173729  -0.0796406
   4.3845293  51.9154358  95.2498913   4.4368774  51.4968967  96.1091423
   4.3942285  51.1877966  94.6280479  16.0544693  71.2746239  60.7773542
  15.8141828  72.0576620  60.2820301  16.8107569  70.9188032  60.3108215
   2.2315511  69.1941738  76.0409117   2.1947016  68.6598349  76.8342352
   2.3661302  70.0867558  76.3593721   9.0929890  59.5320988  91.0915375
   9.2072588  59.8245716  91.9957638   8.1618178  59.3209457  91.0239697
  15.2426755  46.3351583  88.2366753  15.1162040  46.8704796  89.0200424
  15.5445623  45.4902315  88.5701370 103.2876205  78.6277199  96.6018295
 103.2476616  78.8541603  97.5310040 103.5253525  77.7005720  96.5912628
  22.0234036  56.0157585  85.7650471  22.8406858  55.6079721  85.4786968
  22.2099066  56.9546080  85.7609749   4.7304365  73.2677794  75.3689575
   5.0408161  74.1107178  75.6996441   4.6136236  73.4074640  74.4292355
 103.5908413  53.4598160  66.6700745 103.1834793  52.6347589  66.9338512
 102.9166126  54.1208315  66.8272781 100.2443123  61.4727783  80.2767754
  99.8114681  60.6828117  80.6005383 101.1730766  61.3282537  80.4577065
  11.3388729  67.5090647  75.6389475  11.2877488  68.1298923  74.9121761
  10.4905975  67.5820017  76.0763741 117.9270458  44.9306059  69.5013332
 117.6629925  45.2034426  70.3800058 118.0032444  43.9781904  69.5590448
  95.8607292  24.8278022   5.5797946  96.1742973  25.7117438   5.7709777
  96.0219574  24.3369627   6.3855940  11.4138806  86.0568523  72.4924850
  12.1281612  86.6881466  72.5790834  10.6665814  86.5792084  72.2010660
  15.7681966  42.7466774  76.7145300  16.4752650  42.5497341  77.3289394
  15.0805175  43.1332064  77.2566748  64.6108913  95.0493526  28.2835412
  64.7167921  95.8587933  28.7833619  63.6740828  95.0072098  28.0915904
   1.2807205  62.0085096  82.3247623   2.0471653  62.0687628  81.7545223
   1.3225591  61.1245728  82.6896381  32.0840597  49.7395706  90.6223488
  32.0116615  49.4093513  89.7268391  33.0168390  49.9221039  90.7356453
  33.4728503  51.0863686  86.9041061  33.6148167  50.5998135  86.0921097
  32.8100967  50.5801344  87.3739147  21.0435843  50.7314157  76.8029881
  20.4938030  50.8892584  77.5704908  21.9005847  51.0816383  77.0461464
  11.1955380  52.9161501  83.4726238  12.1384060  52.8038073  83.3517456
  11.0926008  53.8377666  83.7097931  19.6621120  50.2594423  90.6233025
  19.8521829  49.8892260  89.7613049  18.9981401  50.9282160  90.4556370
   3.9919436  45.3501797  88.5331249   3.5474461  45.7438040  89.2839336
   3.2867274  44.9687386  88.0102444  20.9880280  57.8900146  83.0824184
  21.8553114  58.0794907  83.4403992  20.5752897  58.7484360  82.9875851
 113.7529850  75.6429482  83.6657429 113.1703091  76.1282063  84.2499161
 114.3189240  75.1424694  84.2535114  19.8344648  49.6662903  87.9750824
  19.5264816  50.1440096  87.2049141  20.2115011  48.8603878  87.6220989
  14.1658068  83.9799404  84.2638397  14.0002775  83.5954952  83.4030056
  14.7946167  84.6817875  84.0958118 112.4066830  63.0606318  82.5000954
 112.5414276  62.2848797  83.0444241 112.7317810  63.7864208  83.0328083
  16.8849754  49.8349810  88.9578724  16.0061002  49.9729300  88.6046314
  17.4667072  49.9587917  88.2078838 114.2820644  62.3552036  90.2974701
 113.9847279  63.2649803  90.2861500 113.4882545  61.8457985  90.4605484
 113.9609718  50.7805538  82.6933384 114.5833778  51.0580397  83.3655357
 113.6328125  49.9368763  83.0043983 105.7969379  32.0854545   1.2145957
 105.6546402  32.9670215   0.8698912 106.7208576  32.0722365   1.4644758
 111.1076164  71.2499046  85.2527809 111.3612461  71.3761568  84.3384647
 110.2513599  71.6717291  85.3242493  10.0062251  49.5961237  93.1530952
   9.4349784  50.0076914  93.8015747   9.7844428  48.6658955  93.1945801
  17.4109042  73.8489962  72.6275778  17.3316407  74.7927570  72.4887753
  16.8443084  73.6688185  73.3777332  38.6180592  96.8227482   2.0314117
  38.0027533  96.0920429   1.9705428  38.4704161  97.1881676   2.9037100
  88.0849171   8.3671838  15.2285063  87.4475574   8.8869655  15.7182395
  88.0042362   8.6770803  14.3264604  17.9790485  55.4209948  62.1609020
  17.4131632  54.6493959  62.1862125  18.8161957  55.1156282  62.5104237
  30.4488468  70.1760769  79.0170956  29.9431539  69.3691587  78.9201880
  31.2415338  70.0252628  78.5021877   7.9210949  50.7431650  81.3986683
   8.1843674  50.7887173  82.3178196   8.5248125  51.3329411  80.9470844
   6.2519330  43.9156199  76.0742140   5.8192575  43.6897469  76.8976212
   5.8575571  44.7490692  75.8171797 109.3329144  52.0402718  82.1534443
 109.7190762  51.9353962  81.2839031 109.8140049  51.4234877  82.7051353
   2.8465667  32.4997902  74.6605635   3.5330039  32.1610403  74.0858603
   3.0963409  32.1999002  75.5345821  10.7383919  61.2930775  83.6848640
  10.6205392  60.3530741  83.5479832  10.3021955  61.7006159  82.9366112
 106.7219067  68.6745453  69.1871500 106.2631130  69.0750933  68.4487057
 107.6071548  68.5138512  68.8604355  95.5625057  36.3459206   9.2540020
  95.7119560  35.4030395   9.3237847  95.1120472  36.5777755  10.0661397
  42.9565144  91.4119720  91.0792828  43.0576134  92.2278309  91.5695763
  42.9562759  91.6827297  90.1611710  15.0239992  53.4370804  53.1641102
  15.7359827  54.0138245  53.4410143  14.2330670  53.9661121  53.2679462
  13.6625624  50.8050537  51.9285059  13.2720637  50.1041508  52.4505043
  13.6937249  51.5561199  52.5211000 113.6354923  34.1081548  87.7342606
 113.3789635  33.1923532  87.8425884 114.3465424  34.0835714  87.0939159
  31.4918733  73.5245419  72.7839279  30.5713153  73.5668945  73.0427885
  31.8843126  72.9017401  73.3957672   6.8486363  55.0320148  64.7414875
   5.9321290  54.8426151  64.5405531   7.3440826  54.5380592  64.0882063
   7.7652609  83.9218140  73.0515623   8.3730721  83.9319706  73.7909508
   7.9882061  84.7043896  72.5474739  11.5068877  69.6456575  66.2742424
  12.4513507  69.5789814  66.1336184  11.4208090  70.1167202  67.1030521
  98.7076092  44.2379665  27.3412776  98.2293224  43.4220648  27.4888039
  99.0019226  44.5039368  28.2124114   3.2236904  73.3690357  62.3146915
   3.5847414  73.0141449  61.5023327   2.6464701  72.6790667  62.6417875
  19.2560005  56.2929773  59.2737389  18.9063442  55.8186102  60.0280237
  18.9215434  55.8155489  58.5145044   5.2532458  65.2867651  79.0907097
   4.8647186  65.0866795  79.9423218   4.5320812  65.1875353  78.4691715
  18.0884945  45.2232218  45.4047060  17.8709722  46.0489273  45.8372879
  18.5415339  45.4848623  44.6031237  11.5436661  34.2406344  80.5587578
  11.7486906  34.0305972  81.4698505  10.7280517  34.7394371  80.6056595
  10.7069039  74.2047501  94.5276546  11.2798572  74.9554920  94.6836662
  11.2845862  73.5342741  94.1629887  22.9553080  71.2875271  96.7585087
  22.8158998  71.1740828  97.6986790  22.9752827  70.3962231  96.4100742
   2.2551970  80.5121136  80.0661850   2.6699206  81.3309765  79.7947025
   1.5323171  80.7854939  80.6309414  63.1633472 106.9318199   1.8791342
  62.6311874 107.7193737   1.9922210  63.6021471 106.8161964   2.7219388
 100.4036140  20.3524256   9.1452181  99.7394943  19.6802092   9.2979020
 100.9742355  20.3039432   9.9122041  50.9417200  95.0338459   3.4560385
  51.8260336  95.3356838   3.2483855  50.5334902  94.8837090   2.6033729
   3.7551987  54.7233057  94.8799324   4.3213388  55.0506449  94.1809559
   3.9315987  53.7829924  94.9104500 100.4446411   1.9749512  11.3875675
 100.7448292   2.4848075  12.1400058  99.6556282   1.5310457  11.6984510
  97.6511478  73.3200407  79.0705252  98.2358837  73.4556866  78.3249331
  98.2182312  73.4007215  79.8374319  59.7131664 107.3617689   0.6102869
  59.3506307 107.1034328  -0.2371005  60.6084377 107.6376001   0.4137155
 105.2040195  75.5655861  84.1937065 104.8562527  75.6212568  85.0837612
 104.4377422  75.6720495  83.6300564   9.1799235  33.9353991  69.0316439
   8.9146090  34.8241758  69.2681074   9.3394041  33.5019875  69.8700666
 118.2636070  75.9308481  61.3650799 117.7655888  75.2558422  60.9040260
 119.1768837  75.6592512  61.2734699  48.0410480 105.3050137   1.2265173
  48.3571959 106.0505867   0.7162140  47.6819611 105.6952190   2.0234078
  48.5589886 101.8137264  21.6762352  47.8953075 102.3094082  22.1558881
  49.3903351 102.0936775  22.0592785  34.5948076  77.3390675  96.1194229
  35.2360892  76.8743801  96.6570568  34.9329543  77.2664309  95.2268887
   0.6525668  52.7108526  71.4297485   1.0892204  52.8287363  72.2733545
  -0.2813315  52.7514791  71.6356993  17.1212697  56.5935469  88.1703472
  17.1945095  57.4791861  87.8146648  18.0158532  56.2535000  88.1524086
  22.5929213  76.0018206  69.7163820  21.6416311  76.0978889  69.6711159
  22.9331708  76.7634439  69.2469215   3.9562044  65.3797436  94.3820953
   4.4831088  65.6605959  95.1302433   3.3656263  64.7170925  94.7403431
  51.7940998  96.9293118   7.6801795  51.0497046  97.1199703   7.1094275
  52.5563526  96.9752026   7.1030337  28.3885169  57.9490137  88.5964870
  29.0567493  58.3030844  88.0096817  28.5184360  57.0012569  88.5632706
  28.3613014  65.5479002  86.7314339  27.6650953  64.8933601  86.6757107
  28.5730767  65.5935383  87.6637936  22.4322343  49.7787666  86.4210606
  22.3356128  50.3576422  87.1772289  22.8151798  48.9781618  86.7796898
 113.8207722  69.7669077  48.1454229 113.8687611  70.5314970  48.7192965
 113.9745426  69.0216112  48.7260485 117.9876328  71.1900854  80.0038910
 118.4602356  71.8057919  79.4437218 117.3919392  71.7389727  80.5138874
  99.2829037  70.9621620  89.2767715  99.5128822  70.1893091  89.7925663
 100.1245403  71.3248873  89.0005398  18.2454669 111.7064190   3.9710870
  18.0446720 110.8705235   3.5501409  18.9288437 111.4960575   4.6074650
  12.7265406  28.2167888  87.7853012  12.6601279  27.5279117  88.4465599
  13.1719506  28.9362192  88.2328033  65.1647711   9.3636715   6.5525657
  65.7114601   8.6134475   6.7860651  64.2727852   9.0165085   6.5436953
  22.1408916  27.6151490  47.6496887  21.4546037  28.1354952  47.2319794
  22.9586124  28.0094552  47.3462296  18.7809491  79.6098089  78.8940954
  19.3238974  80.3881931  79.0188551  18.6356890  79.2747784  79.7789049
  17.6720107  53.3216286  67.4083519  17.6057017  53.9021778  68.1665039
  18.5535872  52.9530954  67.4652624   8.1797183  48.7307549  73.5538435
   8.0688280  47.7802658  73.5314465   8.0841196  49.0046024  72.6416492
  10.7044816  80.0693512  88.5292149  10.2911389  79.2680645  88.8506413
  11.5497720  80.0991917  88.9773464   8.2161736  56.2276220  83.3401680
   8.8172573  55.9494972  82.6490974   7.5175613  55.5733919  83.3275700
   4.2599100  63.4485579  89.2641449   4.9320960  63.9900732  89.6778488
   3.4338388  63.8715267  89.4985294 109.1251278  29.3748808  82.4106026
 108.8175201  28.9326096  81.6193867 108.3514977  29.8255110  82.7492332
  16.7817605  63.3307934  74.1848278  16.2351882  63.4517908  73.4083939
  17.3985863  64.0623236  74.1598892  48.8492393  90.6049156  20.5289149
  48.6990547  89.6789360  20.7193017  48.1444073  90.8429813  19.9266124
  71.0966635  88.5465336   0.4803842  71.6525269  89.0125275  -0.1441945
  70.6101847  87.9187489  -0.0538951   2.6904720  39.3753076  96.3796997
   2.4594449  38.4613872  96.5458584   2.1141793  39.8767090  96.9565105
  34.5656180  65.4872179  48.3768654  34.6653605  64.8294067  49.0650272
  35.0281692  65.1185656  47.6242876  26.8703079  45.4119635  88.4995556
  26.4328837  44.6305943  88.8377190  26.1852074  45.8840942  88.0263138
  31.1154389  53.8736486  61.9863939  31.4759851  54.4067383  61.2778330
  31.2473798  52.9706144  61.6976881  26.0914254  54.1735172  78.2381248
  26.0603356  54.6524525  77.4099398  26.8921351  54.4812489  78.6628532
  12.9600918  83.1878281  88.6167812  12.9286456  83.9709759  88.0673027
  13.7452471  83.3022690  89.1521931  31.8525100  75.5213785  64.4861984
  32.0075750  74.6646547  64.0884399  31.7667365  76.1185026  63.7430191
   9.8434711  45.0604200  60.5539656   9.2656732  44.3251324  60.3496647
  10.0751376  45.4272413  59.7007322  97.9247952   0.2406676  10.6237936
  97.0311260   0.5473715  10.4704368  98.1124020   0.4920077  11.5281522
 114.7907162  66.5969753  86.2914181 114.2397308  67.1368551  85.7246971
 114.4890118  66.7950344  87.1779728   0.8159191  46.2045860  64.4922781
   1.4081931  45.5188036  64.1838312   1.2516241  47.0226765  64.2532825
   1.3939427  63.1312990  75.4607821   0.7966581  63.8789892  75.4398298
   1.2990129  62.7247047  74.5994473 114.9587440  67.7257729  70.1187515
 114.2683029  67.6582909  70.7782650 115.7579422  67.4752474  70.5821705
  18.7650394  53.0784369  83.8885975  19.1250253  52.1930504  83.9408588
  19.4544220  53.5928869  83.4686852 101.9469929  13.9355505  14.5137227
 101.4795971  14.4797444  15.1474559 102.4031448  13.2847619  15.0472307
 110.3274822  30.7834911   4.0039930 109.5576859  30.5263281   4.5114553
 110.9331608  31.1420560   4.6526986  99.8752403  40.4894924  10.0976467
 100.7545853  40.8612108  10.1669800  99.6021366  40.3496695  11.0043430
  23.0221844  66.4360762  85.0558567  23.1047392  65.5099487  85.2832508
  23.8291574  66.8353462  85.3808403  14.0370870  63.7080383  83.5117149
  13.5464144  63.9959717  82.7419281  13.3662748  63.4064484  84.1243172
  99.9391651  40.6382179  12.8567278  99.4701862  40.1267290  13.5160220
  99.3941307  41.4136171  12.7228546  15.7223988  80.9126282  79.1027927
  14.9463654  80.3556061  79.0417337  16.4591086  80.3055763  79.0323019
   7.2249448  81.1563110  64.3029213   6.6192216  81.0626125  65.0381422
   6.9537079  80.4806423  63.6815214  80.5290699  32.9368520  11.3811314
  80.1985359  32.7117467  10.5114722  80.8620739  32.1108723  11.7319870
  41.8442345  71.7885208  87.6498222  41.5180635  71.6298294  88.5356331
  42.4036503  72.5605202  87.7353001  26.6387939 101.0192871  83.1691170
  27.1449304 101.6074657  83.7295628  26.4113283 100.2835560  83.7376118
  12.6724207  47.8457165  89.1326427  11.7930424  47.5295925  89.3399811
  13.2407033  47.4039936  89.7636414   0.9699505  73.8241291  81.3760471
   0.9269376  73.9306211  80.4257584   0.1108503  74.1084385  81.6880417
  39.7490048  51.8231058  80.4267883  39.7788024  50.9234953  80.1011467
  38.8201857  51.9887066  80.5883503  12.1927774  69.9960184  90.5055809
  12.8418815  70.5017662  90.9945869  12.7057958  69.5043898  89.8642254
  91.8542385  17.7161264   3.5944486  91.0691547  18.0844474   3.1891975
  92.2990417  18.4693611   3.9830545  42.1336842  97.4844074  90.7405472
  41.4250755  97.6680470  90.1238060  42.9029560  97.3474598  90.1876450
  16.6576231  62.9457808  79.0684223  16.2134731  62.7124691  79.8836088
  17.1470773  62.1588993  78.8286495  84.2880630  29.0335035   7.8149199
  83.6360741  29.7218227   7.6831758  84.3566704  28.6023784   6.9630665
  30.5393267  80.4556847  74.6546984  30.7836819  81.1940956  74.0967703
  30.6304026  80.7894230  75.5471992  13.0724287  83.9070320  73.2047462
  13.2039666  83.8309860  74.1498089  12.3743021  84.5552254  73.1114817
  12.9662561  82.1742058  77.5590563  13.0037236  81.3712978  78.0788374
  12.6540792  82.8411007  78.1706381  34.5484328  50.5200911  77.0369053
  34.6523714  51.4418745  77.2729969  35.4244065  50.2408075  76.7706251
  22.1908402  84.9145699  85.0263500  22.1987128  84.0845013  84.5497322
  21.6424608  85.4910946  84.4942474  18.9858568  82.1668434  87.1722794
  19.3981791  81.8502140  86.3685608  19.5172215  82.9188061  87.4338913
  91.0153294   3.4300464  18.7815154  91.7336655   3.0533376  18.2732594
  90.2235031   3.0827558  18.3708787  31.1519027  59.8430109  60.2525425
  30.3954864  60.2035379  60.7152414  31.5139651  59.1933823  60.8551407
   8.2132602  86.9883537  79.1893339   8.9800161  87.5391006  79.0312433
   7.8150058  86.8786812  78.3258533  92.8199482  33.7559152  13.3791292
  92.9101181  32.9040313  13.8062084  93.3823872  33.6973810  12.6068163
  86.8628216   6.3351172  31.4256501  86.9745350   5.8107650  32.2186232
  86.1516380   6.9400191  31.6367126  16.5045404  58.6923027  74.9794626
  16.6554832  58.6596298  74.0348005  16.1515808  59.5682669  75.1354599
  32.2042108  63.0990839  73.5852242  31.6115665  63.8480377  73.5214329
  31.7578650  62.4898767  74.1733360  30.9644151  68.5913420  81.4480686
  30.4204178  68.8696146  80.7112789  31.2673903  69.4083977  81.8441200
  43.9246750 103.3537674  73.5758018  44.8620939 103.2151699  73.7109470
  43.5456181 103.2995701  74.4530773 107.8476429   4.3051761  19.2714238
 108.1534863   4.5475873  18.3973908 107.2392368   5.0030565  19.5143890
  31.9138217  52.1079779  74.6755314  31.4644527  52.9505253  74.7419786
  32.0756483  51.9960594  73.7387705  17.6454771  73.2520533  93.0724335
  18.4323227  73.2916403  93.6160660  17.8603435  73.7771273  92.3014832
  10.8946669  58.5389662  89.2220211  10.2274597  58.7743664  89.8667336
  10.5546784  57.7481985  88.8033009  33.6469460  57.0704508  77.3515320
  33.7736511  56.3555574  76.7277479  34.4765854  57.1242666  77.8259087
  96.8112469  20.1796675   5.8893615  96.0989857  20.5206180   6.4303577
  97.6064014  20.5265903   6.2938279  22.5131845  76.8292427  84.1273689
  22.3402309  76.9962406  83.2008553  23.4403753  76.5935993  84.1592598
  21.6453195  80.3152180  76.0973263  22.1275854  79.8524857  75.4120970
  21.5802622  79.6829748  76.8130589  28.3263397  48.5132504  89.2724133
  29.0890694  48.3241749  89.8189735  27.6385474  48.7498999  89.8946476
  82.6422501  19.2306983   7.9548979  81.8799400  19.1800463   8.5315692
  83.3901310  19.2797565   8.5502899 107.4156952  33.1406116  10.3452468
 106.6893864  33.6784101  10.6606400 106.9997311  32.4708748   9.8024261
  30.9109521  58.6618996  72.1433496  31.6336226  58.5286713  72.7567244
  30.5544472  57.7853394  71.9992161  12.9715919  53.6175156  88.6429977
  13.3174515  52.9261208  89.2074299  13.6862874  53.8115215  88.0365276
   1.6446172  65.1571417  85.8226776   1.1319005  65.0762510  86.6269207
   2.5049859  64.8049974  86.0506916  16.0299122  66.8155098  74.1446304
  15.2630281  66.3655519  73.7901402  16.5273261  67.0854425  73.3726549
   8.5373789  90.1641464  93.5084629   8.0613029  90.0385189  92.6876068
   7.8560066  90.1796341  94.1805649  84.9144268  24.9874282   3.9636248
  85.4065323  25.7913637   3.7970191  85.3060532  24.6274543   4.7594136
  58.1420469  12.7766788  95.9379292  57.5869083  12.7630579  95.1582718
  58.9095974  13.2853937  95.6765747  14.9985754  82.4984741  90.3462601
  15.8674562  82.3851013  89.9609947  15.1667666  82.8764725  91.2094212
  46.0250473  97.4492741  11.7776465  45.1182985  97.3063564  11.5063226
  46.5163231  97.4938297  10.9573436  88.5823822   0.4386198  10.2641356
  87.6258087   0.4613634  10.2902508  88.7927914  -0.4449202   9.9619508
 101.9147396   3.1025031   9.1969347 102.0113373   4.0248513   9.4339484
 101.1648560   2.8007320   9.7096092  31.6598916  73.0813169  84.4745159
  32.3101878  72.3794746  84.4468498  32.1661806  73.8823938  84.3397045
  27.8159213  62.7530003  84.5941734  28.3619380  62.0898294  85.0164318
  27.1754432  62.9968596  85.2624226  19.0941858  50.9736490  58.0623913
  19.1572821  50.0805092  58.4008503  18.8524175  50.8647203  57.1426582
  11.5182805  59.1284847  95.8859825  10.5650949  59.1181755  95.9729576
  11.8274701  58.5320997  96.5678596  17.0449030  41.4445972  94.9880695
  17.4565291  42.3032665  95.0854301  16.3851082  41.4153242  95.6809235
  27.6697278  59.9514437  83.3300877  27.0224309  60.1992178  82.6698971
  28.4128737  60.5321884  83.1666756  35.6716323  99.5175457  61.3045549
  34.8391604  99.8980045  61.5846825  36.1569691  99.3781757  62.1177292
  20.3405356  77.7948570  70.6747627  19.6618962  77.8673363  70.0036287
  20.1643872  76.9576597  71.1040688  33.5724640 101.3557911  79.2332363
  33.1083632 102.0891380  79.6370220  33.1774330 100.5771542  79.6255493
  24.5052099  85.0368595  93.9894104  24.9464369  84.2178535  94.2147255
  24.8305821  85.2515793  93.1151867   6.4372694  94.5187378  72.4212217
   5.7548398  93.9296150  72.7428532   6.1082947  94.8282337  71.5772915
  14.0745270  79.0933275  60.8819866  14.7220707  78.7741899  61.5105295
  14.2430437  80.0336075  60.8210468 113.5167980  42.8908634  60.8194399
 114.3606853  42.8153801  60.3740311 113.5994816  43.6782837  61.3573694
  48.6529589  62.4076700  81.1475277  48.2011461  61.6051579  80.8866310
  49.2740679  62.5741768  80.4384899  38.8596535  69.7055197  73.3136749
  38.9386320  69.4175434  72.4042416  39.4394445  70.4646158  73.3757448
  20.2504230  67.9566526  72.5306988  20.9774995  67.3409796  72.4382973
  20.3365660  68.2971144  73.4211445  82.5027752  45.1554537   4.7623003
  82.8826618  45.7539654   5.4055005  83.1521416  45.1147366   4.0602311
  26.1105847  81.1395264  85.0832844  25.8353567  81.8792534  84.5417213
  25.6302309  80.3913212  84.7287560  22.0887733  73.5789347  60.5336046
  21.4725661  72.8488970  60.5933428  21.6860604  74.1817522  59.9085712
  14.4077539  83.0447769  81.7110252  14.6380806  82.1158695  81.6929913
  14.3055820  83.2841301  80.7898808  41.2837124  66.9321489  81.8177986
  41.7504644  67.3624992  81.1014462  40.3970718  67.2903299  81.7753124
  25.8200836  51.4663982  78.2217884  26.0822248  50.9357166  78.9740419
  26.1185122  52.3501778  78.4364986  87.0240974  77.7948189  90.8653069
  86.1552238  77.4697351  90.6294823  87.4011040  77.1004391  91.4056206
  18.8108063  66.5356731  84.8588753  19.4680595  66.9183159  84.2776394
  18.1524491  66.1699390  84.2680836  91.6347885  51.9431543   1.0554503
  92.3123169  52.5798893   0.8279615  91.2194443  51.7267990   0.2206382
   0.0267246  51.9626236  84.2422199  -0.1882151  51.0302591  84.2692089
   0.8348399  52.0074272  83.7311649  48.4002304 110.6634617   0.6662846
  48.4654045 111.6056347   0.8220979  48.5636997 110.5639172  -0.2715863
  21.9965625  62.5548744  76.1614132  22.5398636  62.6478434  76.9439793
  21.2167239  63.0777121  76.3477468  25.9886694  72.1954155  68.6124516
  26.4549065  72.5888014  69.3500853  25.1525593  72.6604271  68.5821342
 114.5791149  69.8156548  82.4588203 114.6808243  69.0132952  82.9707909
 115.3913593  70.2995920  82.6080894  30.9458518  68.7164116  92.6940346
  31.3414812  69.2289495  93.3990192  31.5059543  68.8803530  91.9353199
  38.6624217  55.6781054  78.1827641  39.2354965  54.9409485  78.3935261
  38.4416032  56.0602856  79.0321255  33.8771844  88.9917755  77.7063131
  33.1864119  89.1864967  78.3396769  34.6315360  88.7470341  78.2423067
  29.7182679  75.8713722  66.6383696  30.4844666  75.8546925  66.0648775
  29.9420691  75.2768946  67.3544264 116.9392681  64.9917936  90.8232021
 117.6752758  64.4005013  90.6653786 116.6659164  64.7998381  91.7202282
  69.8569012  31.2880540  10.6535935  69.9506617  31.3764238   9.7051042
  70.6518841  31.6838598  11.0107660  43.3304405  99.5216274  80.3698730
  43.0749512 100.4439926  80.3558636  43.4606552  99.3232250  81.2971878
  26.5756011  70.2722120  82.6902771  25.7856321  70.8091021  82.7529526
  27.0951700  70.5204058  83.4549141  97.7727795   2.8896287  20.7022262
  97.7353477   2.8986540  19.7458005  98.4843445   3.4917754  20.9197664
  15.7865477  77.4209738  77.7917480  16.2813067  76.6545773  77.5017834
  16.4194942  78.1385612  77.7657413  21.0262680  68.9731455  89.4283390
  21.0963798  69.8584700  89.0712452  21.3639617  68.4073830  88.7339973
  28.8630867  95.0862408  82.4394131  29.6407342  95.1796436  82.9896641
  28.1382561  95.0105476  83.0599976  45.9780359  79.4053888  78.2024002
  45.9961700  79.2165232  79.1406059  45.0614548  79.2889261  77.9523134
  12.1319771  82.7867699  53.8403511  12.5040722  83.6684608  53.8207150
  12.0698035  82.5737190  54.7714663  30.9615564  76.4660835  59.5042992
  30.1677346  76.9733191  59.3346262  30.9820676  76.3645172  60.4558754
 115.7170486   8.5501498  24.1976953 115.4174423   9.4305676  23.9711285
 115.3748512   8.4000814  25.0789523  34.8182797  88.9743710  87.7815056
  35.7680893  89.0924454  87.7938461  34.5915937  88.9534187  86.8517685
  86.3127136  10.3462374   3.7239930  87.0382786  10.5583143   3.1367970
  85.9279919  11.1943090   3.9453423  80.7690811  43.0389690   4.4855443
  81.3227940  43.8181067   4.4347236  81.3097382  42.3898506   4.9356219
  21.0457778  80.6523609  54.1542292  21.1427140  80.4726219  55.0893927
  20.0996709  80.6641197  54.0094042  41.0627747 107.4743557  72.5156164
  40.5800629 107.4486065  71.6894484  41.0874271 108.4021473  72.7497959
 109.5207500  70.1329327  87.4553013 110.0513840  69.3985319  87.7640247
 110.1148510  70.6428862  86.9046497  90.6966114  32.4045444   2.1455897
  90.6361198  32.0684052   3.0397835  91.5022945  32.9213214   2.1379676
  32.3160720  69.6041107  87.8491020  33.1115246  69.2234755  87.4768066
  32.6051569  70.4290485  88.2391548  67.6088858   0.3844346  61.0861683
  67.4005175   0.4068599  62.0201492  67.7160358   1.3038857  60.8425331
  25.5224156  90.1004505  80.3637791  26.0157537  90.2347469  79.5545721
  25.1882863  90.9690762  80.5875492  34.9173117  91.1142254  75.8856344
  34.0412378  90.7352448  75.8142662  35.0985241  91.1232662  76.8254852
  90.5869102  24.4177341   5.7826257  90.9528828  25.2816486   5.5930191
  91.2659454  23.9767647   6.2931979  13.7252855  71.0708427  72.6961899
  14.1125226  70.7049036  73.4914064  14.1160309  71.9411612  72.6181173
  30.1869297  77.5909519  68.9580774  30.8552980  77.3920155  68.3023787
  29.7384858  78.3643150  68.6159801  21.5120363 103.2829189  59.4752026
  20.9612727 103.4797764  60.2329206  22.4048543 103.4464645  59.7791100
  14.0331173  88.8992214  92.4331856  13.4517539  88.3955956  91.8634415
  14.7009683  88.2714367  92.7090359  18.8849664  56.8679428  74.6689510
  19.3493855  56.7479706  75.4972982  18.0985153  57.3601723  74.9044037
  31.2633705  82.5659657  73.1949854  30.7941628  83.1517601  72.6009083
  32.1705961  82.5929165  72.8909302   7.0954221  78.1706142  94.1062832
   6.4688617  77.6294470  93.6258793   7.9528195  77.8533649  93.8226414
  99.8369408  32.3533034   1.0925936 100.7923031  32.3874712   1.0442387
  99.5614243  32.1001410   0.2115522  16.9213176 100.9666443  73.7181473
  16.7628646 101.9085026  73.7816048  17.3300314 100.8497715  72.8605175
  99.4267654  15.8665717  28.3748436  99.6015644  16.6925609  28.8258624
 100.1394081  15.7842290  27.7411318   6.5131944  83.6794949  76.2749767
   6.8824583  83.1810856  75.5459547   6.4159447  83.0380249  76.9787455
 106.3902855  25.1992440  13.6132562 106.3403988  26.1147976  13.3384752
 107.2994614  24.9490356  13.4488451   6.7323512  68.2474947  78.6810970
   6.5028685  67.5072765  78.1192732   5.8966225  68.6759996  78.8659573
  94.9174309  33.3775043  30.3893113  94.2937279  33.4604454  31.1106610
  94.6083736  32.6207447  29.8912835   3.6687344  69.2168856  96.5088558
   4.0017661  70.0876808  96.2919807   4.0537670  69.0189743  97.3625660
  42.4314022  64.3147564  78.7880564  43.1124735  63.7512255  78.4208965
  42.5122643  64.2022419  79.7351742  15.5436230  83.8307476  92.7354908
  14.8948514  84.4973946  92.9611206  16.1342716  83.8068485  93.4883499
  24.4561911  70.1785660  63.2298946  24.7981071  70.7978582  62.5850677
  25.1451898  69.5200062  63.3182907  37.1482325  76.9114304  79.6352243
  37.6593494  76.7680502  80.4317379  37.7800989  76.8091726  78.9235210
  57.0462132 110.2794743   2.6632628  57.0277691 111.2104321   2.8850988
  56.9419241 109.8311615   3.5025287  85.2022839  31.1137915   0.6316760
  85.3019905  31.1222315   1.5836322  85.8444786  30.4716229   0.3292809
  89.6664524  43.5985041  13.3922184  90.1913166  44.0138006  14.0765226
  89.0632820  43.0265903  13.8669157  24.5958209  72.1679878  83.4514046
  23.6493564  72.2525167  83.3361053  24.8389506  72.9181290  83.9939880
  27.4264765  81.8271065  87.4634457  27.2828341  82.7734470  87.4695110
  26.8878651  81.5077305  86.7394733  15.9156752  78.2978106  67.7122259
  15.0333250  77.9503536  67.8424692  15.9437203  79.0884113  68.2511091
  53.6292839 111.0832405   4.8394400  52.8014135 110.6968021   5.1249659
  53.4527731 111.4001560   3.9536399  97.5973374   0.6113982  16.5671611
  96.7527062   0.2702212  16.8611407  98.2446963   0.0840449  17.0352054
  25.1492786  51.4710236  87.7716541  25.4787397  50.5762339  87.6877594
  24.2631221  51.4347124  87.4115944  18.3227789  65.9634972  75.2809763
  17.4101257  66.2517881  75.2673531  18.5364127  65.8011580  74.3621492
  24.8361444  83.6884308  61.1865807  25.2744436  84.5365047  61.2564468
  23.9067340  83.8893890  61.2963057 111.0571384  66.0121870  97.0429230
 110.7166004  65.4354858  96.3590527 111.8649197  66.3697910  96.6743660
  20.1348376  91.1379242  72.6064205  20.4668117  90.2495384  72.4768782
  20.1688242  91.5355587  71.7363834 115.2465248  19.6116412   3.6358267
 114.5484066  19.0165865   3.9092809 115.8716106  19.5966303   4.3605855
  10.2145267  90.0152302  82.8873539  10.8545041  90.5723286  82.4442863
   9.3654281  90.3469181  82.5953770  97.7560043  21.0013795  21.5441632
  97.1953297  21.7435837  21.3183260  98.5982418  21.3970089  21.7685509
   4.0310630  58.6547279  93.4664440   3.7818801  58.1192970  92.7131462
   4.9503785  58.4375191  93.6210728  99.7634697  14.7115088   2.7683663
  99.5932484  13.8392103   3.1238285  98.9627457  15.2040315   2.9486021
  32.8575563  74.8274946  90.6096077  32.6092386  75.7299852  90.8098125
  32.3592234  74.2982149  91.2323093  34.2972183  85.7227993  63.6350775
  34.2917371  86.1090946  62.7593088  35.1913261  85.8557701  63.9499140
 106.2209129  43.0074024  16.4445770 105.4504108  42.4415064  16.3963771
 106.1416245  43.4484482  17.2904062  28.6325717  93.0784321  66.8773603
  29.2874146  92.3803997  66.8904114  28.0172133  92.8167725  66.1924505
  99.4105625  38.4208393  22.4143481  98.5953426  38.6437154  21.9649363
  99.3528652  38.8755608  23.2546663   4.6883434  64.1759157  81.4761448
   4.1577828  63.5909939  80.9352112   4.8242638  63.6915112  82.2904587
   5.0507396  98.8483238  78.7952423   4.6517512  98.9511108  77.9312515
   4.7575393  97.9873562  79.0935659  17.6379263  60.4079342  96.5083218
  18.2290292  60.0391960  97.1647263  16.7740667  60.0731087  96.7488861
   9.7358006  73.5599995  58.0973005   9.5857990  73.7045050  57.1630383
   9.9852973  74.4199419  58.4356451   0.7594272  62.6773596  91.6724205
   0.2125819  62.0235300  91.2368679   1.5541363  62.2019672  91.9146442
   9.0473670  34.0529156   1.0088721   8.6925179  34.4866657   1.7848709
   9.9540854  33.8517904   1.2404781  22.2829580  84.7092056  80.0197887
  22.5573158  85.3409672  80.6844902  21.8889141  85.2431965  79.3299913
  17.8546321  59.2046595  64.9917412  18.4388411  58.9408398  64.2808723
  17.3204935  59.9042845  64.6156311  57.8432417  94.9802399  86.0321045
  57.5622702  95.8912373  85.9462452  58.6284828  95.0222015  86.5778732
  24.8517442  74.2786646  85.7955265  25.0904489  75.1189327  85.4041195
  25.6698918  73.9448071  86.1635017  10.1885390  58.4826565  86.3461781
  10.9950173  57.9713345  86.2800407  10.4650068  59.3184757  86.7219448
  47.1281767 111.3233948  74.0936565  46.4034176 110.8704853  73.6625719
  47.6709890 111.6457748  73.3741713  25.3483987  76.8776941  91.2737370
  25.8142757  76.1405230  91.6684151  25.6384850  77.6401329  91.7745113
  16.1736131  60.3622961  52.4555016  15.4463482  60.6331730  53.0158091
  16.3532209  59.4589567  52.7161694 116.4983273  32.0362353  13.7580872
 117.2475433  31.4464474  13.6740160 116.1680126  32.1326685  12.8648782
   4.2032638  69.2562151  78.8900375   3.4436864  68.6743355  78.9163685
   4.1664398  69.6590328  78.0225039  31.0463214  61.2608480  69.2488241
  31.0393143  60.3212070  69.0664482  31.9746494  61.4924765  69.2768192
  27.1175122  89.2220020  68.2631779  26.7858267  88.3740330  67.9679346
  26.3490844  89.7927475  68.2637310  98.6438560  15.9281337  13.0300450
  99.0818214  15.0960171  12.8511620  98.8563538  16.4776659  12.2756648
 115.7862091  33.8718009   8.6017817 115.2185535  34.5099425   8.1696016
 115.2142429  33.1257010   8.7818444  35.6051278  92.1161842  51.8547583
  35.7083225  91.7912579  52.7491856  36.3271523  91.7164040  51.3699007
  31.8814898  58.1976986  79.3695831  32.3250818  57.8636837  78.5899067
  31.3752580  58.9466047  79.0547752 114.1856194   7.9636693  12.6112854
 114.9400330   7.3804849  12.5276673 113.5808277   7.4922740  13.1842077
  11.8341160  80.0383568  81.1824608  11.4136648  80.4600334  81.9318867
  11.2663627  79.2959642  80.9757328 115.4648113  21.7077470  11.4674485
 114.5604801  21.4407969  11.6322088 115.9932995  20.9845185  11.8049061
  13.2124805  70.4309654  84.5400143  12.9130101  70.2951384  83.6410713
  13.9104438  71.0816097  84.4642162  31.9903159  78.1331587  93.5067749
  32.5083113  78.1539345  92.7021122  31.0976386  78.3289051  93.2220840
  20.6716895  75.6711102  85.8463383  20.2958727  76.4997482  86.1435795
  21.5129495  75.9145546  85.4600143   3.0591872  97.3872948  83.6357689
   3.2446688  97.7955341  84.4814491   3.3221248  98.0433750  82.9902840
  11.4991593  68.9646435  86.2533379  11.9989848  68.6778975  87.0176601
  12.1483719  69.3771029  85.6835747  12.5234807  72.6270485  93.0949306
  11.8124199  72.5291491  92.4616528  13.1249511  73.2489777  92.6854610
   6.2076181  87.1423244  85.0701523   6.9349039  87.1857548  84.4493484
   6.2189853  87.9912853  85.5121613  17.5437617  84.2105198  90.9599209
  16.8564773  84.0552425  91.6078091  17.2186339  84.9432182  90.4367828
  18.5196269  63.7447119  83.2135391  17.6322711  63.9947128  83.4710884
  18.4160697  62.8890753  82.7971363 109.0784168   7.9699087  33.2253695
 109.3619823   8.6688066  32.6359963 108.6625767   7.3265797  32.6514030
   4.2694208 100.1385593  42.1365929   5.1891148  99.9424839  41.9578457
   3.7862417  99.4320011  41.7081642   5.2676076  78.2334375  75.3174639
   6.2231874  78.2841587  75.2945232   5.0425732  78.3693266  76.2378597
  62.1196890 109.4386482   1.8425578  61.4521170 109.8152733   2.4159072
  62.0827103 109.9725246   1.0489355  25.7145929  66.3350439  88.7350178
  25.2163601  66.1432219  87.9405308  25.8722806  67.2783947  88.6969280
  20.6945491  45.4266739  75.7745934  19.7813976  45.1728916  75.9086847
  20.8808708  45.1808643  74.8684502   8.3634382  96.4587975  72.9586935
   8.5259455  96.3312435  73.8933325   7.7002198  95.8043671  72.7393961
 100.8921909  28.4845042  12.6064682 101.3842392  27.7994514  13.0590427
 100.3736687  28.0150437  11.9530416  59.4101143  75.1216173  90.7411003
  59.0222549  74.3384361  91.1315155  59.9285364  74.7917414  90.0071716
   9.9697042  49.8483801  75.5624533   9.2798591  49.3039370  75.1830673
   9.5776820  50.7189894  75.6301928  26.5763283  81.7736435  90.6947136
  26.3996935  82.2527981  89.8851204  27.3987985  82.1425056  91.0167599
  21.4933276  59.7629595  76.3335085  21.6771626  59.8855495  77.2648573
  21.6696763  60.6175518  75.9400558 104.7297859   2.6685312  10.1803851
 103.9213276   2.7359295   9.6723598 104.8606396   1.7277166  10.2986073
  48.9062071  63.3680868  64.2894697  48.0971384  63.5653925  63.8175488
  49.4782543  64.1133213  64.1061163  15.4379153  80.6788635  71.9890881
  14.7563040  80.0497341  71.7527771  15.1779819  81.4893723  71.5511990
  46.2519407  66.9399834  64.3040562  45.7310534  67.6936436  64.0267420
  46.0998631  66.8776560  65.2470398  26.1391377  63.2659721  93.7434196
  25.4375434  62.6762819  94.0195751  25.7447100  63.8017464  93.0552292
  12.0817280 101.9211292  74.8071194  12.7413774 101.2305641  74.7422552
  12.2266912 102.3106003  75.6694031  16.0247505  86.6426945  60.4434299
  16.5253592  86.5816212  59.6298599  16.5422261  86.1503029  61.0806084
  85.7988262  42.8026772   2.3316973  86.4625263  43.1412792   1.7307994
  85.5260086  41.9713688   1.9434613  12.5290072  96.6100311  95.6729221
  13.0113697  95.9738827  96.2010002  13.1551778  97.3174667  95.5190277
  25.8422256  82.5202465  93.9954185  25.9919214  82.1501732  93.1254387
  25.3149557  81.8620682  94.4482040  35.5296874  71.1711836  82.5766182
  36.1736131  71.8444204  82.3567390  35.3848195  71.2763119  83.5169315
 104.3447876  84.1689205  80.7954788 104.7586918  83.4577560  81.2845135
 104.4929028  83.9455986  79.8765564  82.3473072  30.2787781   0.5941235
  82.8421021  30.3600621  -0.2212332  83.0168343  30.2094603   1.2746853
  25.5826712  82.7367878  69.8909330  26.4418364  82.3535252  69.7143650
  25.3049541  82.3334980  70.7134056 109.9008369  40.1731300   0.9766749
 109.8640442  39.5462632   0.2542364 110.4528809  40.8834076   0.6495889
  21.1935544  30.5701351  23.1380177  21.0174966  30.8841443  22.2510934
  20.3755546  30.7200789  23.6119676 103.1700134  36.1129570  29.1726828
 102.7823830  35.2991033  28.8507843 104.1143417  35.9702682  29.1084886
  16.7153728  80.6817627  69.0014791  17.2193813  80.1414490  69.6099806
  16.6177690  81.5212250  69.4509459 107.1594334  45.1762342  14.8336065
 107.3775959  45.2086544  13.9021623 106.6801739  44.3543720  14.9388862
  57.6772404 105.4527473  87.3242950  58.3190012 104.7739983  87.1153259
  57.6565886 105.4764462  88.2809830  56.8133402  95.6055641  79.1374969
  57.2325325  95.8886147  79.9501467  56.1372185  96.2633610  78.9750338
  39.0087080  89.6078682  82.9872513  39.2141628  89.1643143  83.8102245
  39.6794510  90.2859974  82.9067135  30.2315116 107.7931023  84.5059586
  29.9476480 108.6356068  84.1512299  29.7455955 107.1434021  83.9980221
   3.5385668  93.9059162  84.9278545   4.1748801  94.0820694  85.6208992
   2.7057076  93.8022137  85.3880978  35.0738907  83.5103130  95.2933979
  34.5662642  83.9024353  94.5829105  35.9660792  83.4592247  94.9504375
  20.5969310  84.7358227  90.8103848  19.6626627  84.8075485  91.0059071
  20.7849526  83.7998295  90.8796310  36.7943668  86.2900162  64.5036793
  36.5646958  87.2060204  64.3474150  37.6607680  86.3261127  64.9089909
  37.2959399  72.0999908  79.1484118  37.2765708  71.9558191  78.2023287
  37.2020078  71.2254143  79.5259380 103.7026215  31.9976735   3.2660568
 103.4171104  31.1602044   2.9008752 104.2036724  32.4079657   2.5611880
  24.1488791  67.9396629  76.6086769  23.2136869  67.7415514  76.5596676
  24.2673874  68.3224106  77.4779797   0.2037825  16.8533111   1.3559647
   0.2610883  17.7729261   1.6153018   0.2664755  16.8694210   0.4009559
  43.3105183  62.9921818  69.2831326  43.8069582  62.4063873  69.8546457
  43.6828661  63.8586855  69.4467115  41.3396883  97.6893234  62.3292780
  41.4783525  97.2512054  61.4896059  41.6196108  98.5920143  62.1775389
  44.4188929  67.7036476  87.8339386  44.6834993  67.8583002  86.9271374
  44.3134975  66.7541695  87.8940773  22.6768064  76.0887146  91.0143185
  22.6777315  76.1144209  90.0574589  23.5895658  76.2413025  91.2588978
  47.2781658  80.4870796  58.8923502  47.3622322  80.6919956  57.9611301
  48.0407238  80.8994865  59.2981339  40.0447083  96.9645214  54.2996693
  39.4615579  96.3199997  53.8987303  39.4629049  97.6688194  54.5854950
  30.0163960  89.9992752  83.6294270  30.1428509  89.9186420  84.5748043
  29.0960884  90.2432919  83.5308361  86.6805553  26.7127681   8.8777643
  87.1354580  27.2264409   8.2103562  85.8107471  26.5580630   8.5093451
 104.2778015  12.2282279  20.1590371 105.2142429  12.0376158  20.1043725
 104.1791153  13.0724216  19.7187757  47.4789476  84.7960663  54.2272854
  48.2598639  85.3393173  54.1210747  47.6024389  84.0756989  53.6091852
  80.0203991  10.5805826  83.2379913  79.5607376  11.3274956  83.6214828
  80.0381088  10.7665515  82.2991943  57.9371262  80.3545666  85.4701424
  58.7244034  80.6700802  85.0264263  57.6127195  81.1152649  85.9521484
  18.9739823  53.6994791  77.4311256  19.6077240  53.2115412  77.9569817
  18.6671102  53.0687761  76.7797565  63.4082365  97.5337315  96.1424160
  62.8387785  97.9040623  96.8168068  63.3882999  96.5904236  96.3036346
  37.1755075  90.7319641  78.0527020  36.5257406  91.3735485  78.3397579
  36.8975639  89.9112129  78.4593296  22.5953889  79.4061375  84.8749352
  22.7761459  79.7754622  84.0105438  22.2448969  78.5339403  84.6942043
  58.1275845 111.0359001  86.6813278  57.3053932 111.4385605  86.4018726
  57.8635979 110.2126789  87.0922375  44.0046072  84.7870350  83.5788536
  43.3099699  85.2659035  83.1267548  44.7719002  85.3549767  83.5086155
  65.5052662   7.4345928  74.2814159  66.0335970   7.7548963  75.0125170
  64.6513700   7.2425950  74.6690178  62.1215820   0.3171789  87.6276970
  62.4987602   0.6812449  88.4285831  61.3188648   0.8202931  87.4907684
 108.6693573  27.3609209  10.2989924 109.0696144  26.5001583  10.4219103
 109.0343666  27.8974795  11.0026288  45.7994843  98.8457870  90.0700474
  44.9771118  98.8858318  89.5818615  45.6708479  99.4447803  90.8055019
  25.6849527  95.7744408  93.0339909  25.6897926  96.6785622  93.3482647
  24.7913051  95.4704475  93.1927872  53.2565689 107.3409462  72.5383806
  54.0551233 107.8426361  72.7022123  52.7151346 107.9207134  72.0027018
 107.2548199  45.1652479   2.8564525 107.9220867  44.7917604   3.4322047
 106.5077114  45.3307772   3.4314927  25.8751917  53.9798832  82.5343418
  25.2445865  54.3951273  81.9460011  26.3221836  54.7109604  82.9609013
  27.4085951  75.6978703  68.4043503  27.0664215  74.9200678  67.9637051
  28.1989789  75.9229565  67.9135704  36.5570140  83.1939507  85.5742168
  37.1731067  82.6828289  85.0494099  35.6944156  82.9382420  85.2474594
  46.5266705 102.4398136  72.7783918  46.4592505 101.5652084  73.1614685
  46.2056971 102.3344135  71.8827915  34.8565197  72.5026035  85.1788807
  34.2463064  72.5643063  85.9137726  35.6474352  72.9454088  85.4864597
  15.6243753  89.9383068  96.2670612  15.9219801  89.1787910  96.7678642
  16.3523543  90.5578613  96.3162899  25.4009414  87.6466656  51.1902905
  25.6127262  87.4392223  50.2801561  25.3812981  86.7972851  51.6312122
  59.0144014  81.0325336  79.8487711  58.3896589  80.5021477  79.3541718
  59.7740746  81.1083984  79.2713881  80.9681129  42.7195978  26.5206790
  80.3344059  43.4042978  26.3065672  80.9733963  42.1492720  25.7519603
  37.8879523 104.0126705  79.3693256  38.1331038 104.6439171  78.6928177
  38.4646821 103.2637787  79.2184210  16.1366713  60.9557152  84.8523140
  16.0343432  60.6712818  83.9440918  16.9399345  60.5275011  85.1483440
  29.1680121  88.1309509  79.4685602  29.5842481  88.4167385  78.6553478
  29.0269804  88.9388275  79.9621964  50.5020905  81.1286545  77.6268339
  51.0294724  81.9274426  77.6203823  49.6291590  81.4158154  77.3589420
  40.5349588  79.8692274  94.3529320  40.6813622  80.0982761  93.4351444
  41.1565018  79.1619968  94.5253754  23.5159540  92.9755211  92.3289394
  23.4143639  93.6358261  93.0144405  24.1380525  92.3458290  92.6932335
  34.6157765  88.4339905  71.8939972  33.9181662  89.0813446  71.9965029
  34.8005795  88.4277058  70.9548283  30.9761381  86.7431927  92.1274281
  30.7004404  87.4281406  92.7365875  31.7820621  87.0806026  91.7364407
  29.4437313  70.9537697  74.6056700  28.6701322  71.1152983  74.0655851
  29.2487431  71.3840961  75.4381561  34.4829130  89.0303898  68.9958715
  34.5242047  88.8390350  68.0589056  35.3458095  89.3876648  69.2056227
  45.1874542  78.7159348  90.9768867  45.9235620  79.3233728  90.9034348
  44.4823408  79.2390823  91.3581467  44.4951296  78.5913181  71.9660759
  44.8750401  79.3484306  72.4118090  43.5595322  78.6428690  72.1616077
  43.8944721 100.4314804  64.2607117  43.0656338 100.8816338  64.0975666
  43.6810446  99.7664165  64.9152136  34.0137744  99.9448967  85.5427742
  34.8319960 100.4265785  85.6641674  33.8746214  99.4952583  86.3762569
  17.3229885  72.4095106  79.9734688  17.4729693  71.7476273  80.6484795
  18.1069064  72.3744869  79.4253063  51.5688848  78.1169224  75.0403595
  51.5762424  78.1959343  75.9942627  51.2735701  78.9733934  74.7313547
  39.6825147 102.9692650  57.0073032  38.9943647 102.6057339  56.4500523
  39.4239092 103.8807583  57.1434402  25.5748296  55.7423306  76.1675406
  24.7673225  56.2452173  76.2736845  25.9019828  55.9940481  75.3039217
  29.4019938  73.8232279  83.3052635  30.1769447  73.6060619  83.8234520
  28.8313437  73.0601597  83.3964539  41.1582232  84.2839718  65.6208944
  41.5504742  83.4993362  65.2378464  41.8686008  84.6879959  66.1192513
  70.7394600  84.3181038  91.2714005  70.5127382  84.7733212  90.4604721
  71.4618254  83.7394428  91.0273170  40.6981516  78.1418180  88.7548256
  41.2400103  77.3919487  88.5092354  40.9501982  78.8309765  88.1401920
  99.0456676  34.7801542   1.7835987  99.3361950  33.9161849   1.4913970
  99.5995235  34.9761796   2.5392759  73.3950949   3.0139557  61.2638426
  72.7273655   3.2519287  61.9070673  74.1130209   3.6258465  61.4263153
  27.5158930  73.5526133  86.9521046  27.3039818  73.0245495  87.7218246
  27.6224422  72.9150152  86.2461662  40.4006100  65.1771259  94.9829292
  39.8051882  65.7236147  94.4700432  41.1674118  65.0656462  94.4209576
  31.8475366  66.7271709  75.7564020  31.6864920  67.4680519  75.1721096
  31.5595007  65.9622478  75.2582455   3.2341737  84.7044468  67.8683567
   2.9764605  85.4194355  67.2864532   3.3070818  83.9424038  67.2937250
 100.8113670  12.0461309  -0.1379324 101.1682701  12.3829067   0.6839188
 101.3875580  11.3173676  -0.3684718  10.8448029  91.4086628  67.1775293
   9.9741459  91.2253475  66.8245649  10.6782746  91.7931366  68.0381584
 103.8578606  32.3174286   9.2542952 104.0280437  31.6568112   9.9257535
 103.5247231  31.8197155   8.5076147  35.6143808  83.9587784  80.2568817
  35.3869963  83.0290794  80.2431679  35.3131151  84.2664433  81.1117554
  63.7504721  83.3793926  94.6193314  62.8684807  83.0512905  94.4441891
  63.8131666  84.1841984  94.1049480  27.4483585  91.2917423  64.3296432
  27.9400659  90.5203438  64.0478706  28.0403924  92.0259571  64.1663742
 115.9132576  28.7436390   0.4986878 116.5357876  28.7681460  -0.2280065
 115.1998234  28.1883121   0.1842717  29.9654937  75.2046156  57.0598030
  30.0982618  75.2632809  58.0059338  29.0216374  75.0825405  56.9575071
  60.0139952   1.7664653  87.9520226  59.1739893   2.2195289  87.8788376
  60.0283051   1.4318275  88.8487053  52.8066540  91.7974949  78.1519890
  52.0248032  91.2510014  78.2312250  53.1662703  91.5779114  77.2925186
  56.3838720 102.7363300  63.8079929  56.3930178 101.8714619  64.2180490
  55.4553509 102.9574776  63.7360334  15.4027915  60.1570034  79.7914886
  15.0263345  59.4785213  79.2309761  16.1760163  60.4594040  79.3151426
  12.9488480 101.5855789  87.5919056  12.3539960 101.6784668  86.8477631
  13.4808922 102.3810959  87.5739956  49.4895220 101.6669369  72.8758192
  49.5764542 100.9525967  73.5070086  48.5836506 101.9613171  72.9705191
  18.6486983  70.1235437  86.7867756  19.2208302  70.7543707  87.2237587
  18.2184541  69.6549034  87.5019646  27.1380925  75.4389191  82.5258160
  27.9313993  74.9232244  82.6705742  26.9676423  75.8580542  83.3693218
 114.2047119  31.6023493   9.1368049 114.1250038  30.8165002   8.5961390
 113.3786583  31.6465473   9.6183783  44.4385719  72.9179668  80.1563454
  44.4777346  72.8770304  79.2008257  43.6472178  72.4302912  80.3847408
  39.1124773  87.6831341  85.3458118  38.7392712  86.9422150  84.8683262
  40.0590420  87.5533199  85.2875519  65.3760767  92.2798824  92.3195744
  66.1794758  92.7527618  92.1024036  64.8120165  92.4027252  91.5560436
  97.1425343  27.5668406  15.6263804  97.2317314  27.2786546  14.7179615
  97.9449558  28.0584264  15.8015883  37.9166079  69.4571114  69.0299273
  38.0420971  70.2861214  69.4916964  38.1089926  69.6612072  68.1147432
  26.6948676  77.8480673  78.8101721  25.7826066  77.9425907  78.5361671
  26.8705034  76.9098568  78.7384605  30.6356096  99.5234108  86.3366604
  31.4662218  99.4181824  86.8006039  30.4258919 100.4527950  86.4287663
  19.2419648  85.8495140  68.3115816  19.0935540  86.3589668  69.1082382
  19.4679034  84.9740314  68.6257553  21.0879040 109.5095825  73.2638788
  20.5532050 109.2084312  72.5292826  20.5444288 109.3524075  74.0359926
  10.3765202  62.6957417  68.1977272  10.4793596  62.0554972  68.9018154
  10.3684723  63.5427666  68.6435127  35.6239104  88.7691212  90.9308338
  35.9795022  88.5806942  90.0623322  36.1996269  89.4477558  91.2832928
  98.2366753  33.5733199   6.4696372  98.7921715  33.2604098   7.1835983
  98.1866837  32.8341937   5.8634824  90.2311611  14.9439061   5.1792675
  90.9545708  15.5164135   4.9240130  90.1109600  14.3610728   4.4295424
 111.4424801  56.3077164   9.1533369 110.6039524  56.0674810   8.7591308
 111.5772915  57.2188759   8.8928741  30.8114266 111.6992950  79.4586897
  30.4910779 112.5915432  79.3263912  31.5947080 111.6424370  78.9114523
  19.9163902  68.3246708  75.2489185  19.2348504  67.6544714  75.1982117
  19.5962715  68.9425611  75.9061623  27.1093488  49.7064161  70.3963184
  26.8063450  49.4620991  71.2708092  26.4958525  50.3833866  70.1107168
  98.2119274  32.2023916   3.7143394  97.7399635  32.5800443   2.9721394
  99.0834713  32.0075321   3.3698666  97.2871017  35.0484896  11.8952727
  96.9660854  34.7078776  12.7302372  96.5607166  35.5703640  11.5543222
  31.3767886  54.9056101  77.6986361  30.5569673  55.0763464  78.1622934
  32.0067811  55.5061817  78.0969572  23.3253384  41.1604071  83.9536476
  22.8001904  41.0990572  84.7515774  24.1588259  41.5313196  84.2433929
  36.1380005  88.3063698  79.1127920  35.9481430  88.3084106  80.0509739
  36.2412763  87.3808861  78.8913345  51.7840147  89.1327190  67.1683455
  52.4582243  89.5789623  66.6559601  52.2628593  88.7222862  67.8884029
  12.3619056  13.8955605   6.6070217  12.9959702  13.7498987   5.9048986
  12.8243017  13.6379731   7.4045610  91.5506649 109.7223091   7.8872478
  91.2535095 109.8384190   8.7897170  90.9433556 110.2471066   7.3657238
 107.7523327  28.7784243   8.0228013 107.7128029  27.9715204   7.5094068
 108.2127285  28.5299826   8.8243890  13.6476147 108.1523514  58.0233240
  13.1286228 107.3581791  58.1505108  13.2252097 108.5996342  57.2900105
  41.4616728  91.4852810  93.8911533  42.0448112  90.9635735  93.3397865
  40.6535721  90.9741974  93.9358902  19.8040044  72.6163578  59.2275286
  19.1171837  73.2248735  59.4999552  20.0736403  72.9303360  58.3644295
  21.5572476  91.9124794  84.8030186  22.1230936  91.3737488  85.3560352
  21.1213088  92.5069237  85.4136086   9.3920362  94.6402645  86.4381027
  10.1555490  94.1045952  86.6533566   9.7339088  95.3240967  85.8621407
  51.3579273 101.4251137  78.7906075  52.1052170 101.6007805  79.3623829
  51.6926622 101.5742874  77.9063368  15.2463627  87.6911068  65.0626898
  14.9703991  86.7903996  64.8929644  15.3337586  88.0826378  64.1936111
  25.1713109  26.1492872  22.0760417  25.1528358  26.2440610  21.1237240
  24.5392680  26.7943740  22.3932409 118.4004974   5.7703805   6.9868779
 117.9971886   5.2225316   6.3135028 118.3611107   5.2398086   7.7825999
  95.7955647  22.7345061  20.2228332  95.8500004  23.2059002  21.0541320
  94.9762344  23.0355382  19.8300016  53.6150980  76.2021780  81.9745159
  53.2503176  75.3547382  82.2294807  53.7431765  76.6664600  82.8017235
  24.7675014  74.1749382  78.0162191  24.7252774  73.2236576  77.9186726
  24.8046899  74.5062971  77.1189737  50.8439875  80.2903461  73.4726524
  50.9997606  80.1999760  72.5325441  51.2273312  81.1378384  73.6985683
  42.1673203  83.1724739  62.9979992  42.6117420  83.5845184  62.2570992
  41.3798189  82.7827263  62.6183033  25.6356215  78.8791275  64.3931532
  26.5515900  78.6341572  64.5243835  25.5904937  79.7943974  64.6697092
  40.8460712  93.3826637  75.5198431  40.2682495  92.7805519  75.9886789
  41.1188507  94.0174770  76.1822939  28.3661675  60.0827360  74.9327517
  27.7132416  59.5346642  75.3681135  27.8596473  60.7962894  74.5447922
  27.8783131 101.8280602  80.6103325  27.3645139 101.7064095  81.4087296
  27.7625680 101.0116005  80.1243019  22.5812840  94.0556812  79.7608614
  22.5528097  94.4352055  80.6391430  21.8028855  93.5005379  79.7144842
  48.0330420  55.2966833  76.7878103  48.5374880  55.9256458  76.2718868
  48.3086395  55.4521608  77.6911926  51.0912895  89.7255325  78.6756516
  50.2794218  89.3567467  78.3276558  51.0493183  89.5521832  79.6160841
   4.2906460  84.6227837  75.1417112   3.4880173  84.1599846  75.3822088
   4.9857602  84.1510677  75.6005478  38.8021111  93.4860706  64.4621754
  38.8399839  92.9375553  63.6786413  39.7177172  93.6785507  64.6642876
  11.4533138  45.9071493  10.4004300  10.9638548  46.2899876  11.1285090
  12.3467171  46.2307310  10.5160010  11.7329860  56.3371801  82.0740128
  12.5242996  55.8192778  82.2217846  12.0222580  57.2457600  82.1578503
  45.0883436  88.0982780  61.0475779  45.7757854  88.7198067  60.8081007
  45.5034018  87.5152493  61.6832113  80.6959534  34.1324401   5.0217521
  79.7929907  33.8242817   4.9446726  80.7055092  34.6464419   5.8291817
  32.9657936  82.6914692  62.2728395  33.0172825  83.5068321  61.7740726
  32.0526767  82.4167919  62.1891880  27.7696466  71.5247440  66.5001440
  27.3062682  71.5991402  67.3343992  27.2221971  72.0043993  65.8784866
  53.5380936 107.6548767  83.3404255  53.0137062 107.8525734  82.5644302
  52.8980589 107.3889637  84.0006256 115.5931187  35.0072360   2.1298233
 115.2509403  35.1347256   3.0146381 115.9778023  34.1308832   2.1457496
  25.2528524  86.3777828  75.0143337  24.8187208  85.5330849  75.1337147
  25.8571649  86.2356377  74.2857504  31.2697554  95.0127697  84.0407753
  31.7635369  94.2356300  84.3024254  30.6103444  95.1196194  84.7263336
   3.5108742  25.6185842   4.0881512   3.7736931  26.2769914   3.4449881
   4.0609244  25.7961369   4.8511398  23.9328599 103.0259705  84.2597294
  23.8954759 103.3478737  83.3590508  23.2847786 103.5513783  84.7289467
 118.1549644  83.9673042  92.4375248 118.5383987  84.2697716  93.2607746
 117.8334904  84.7642803  92.0159626  38.6896968  69.2223406  84.7101307
  38.4328985  69.9385452  85.2909374  38.2783532  68.4462500  85.0905418
  29.1038108  96.8231297  64.1740131  29.6142268  96.3192654  64.8079157
  28.5970759  97.4356174  64.7072172  95.8493042  25.6678033   2.1099646
  95.8042336  26.6227055   2.0613216  95.0432777  25.4125357   2.5587255
 115.0953007  19.5622921   9.4260538 115.2887917  19.6124125   8.4899563
 115.2936840  20.4375815   9.7588372  40.6203365 109.3335533  67.8679848
  40.8776808 110.0942802  68.3888531  41.2318325 108.6455441  68.1305552
  31.9136262  84.6065140  88.7259769  32.0457482  83.7729836  88.2743073
  32.5050068  85.2151966  88.2832527  11.5087473  75.5596733  12.6256955
  12.3350596  75.9377003  12.9265857  11.6032672  75.5034304  11.6748357
  21.0118937  80.2112579  80.5004215  20.6321788  80.8962536  79.9501181
  21.4403272  80.6861687  81.2125587  44.6489191  99.1478157  77.8162146
  44.0522242  99.1929626  78.5633087  45.5024481  99.3884563  78.1765079
  39.0829849  84.3972492  77.1850634  38.8340282  83.5041904  77.4231720
  40.0393009  84.3777370  77.1489239  34.1588664  95.6182384  89.6496487
  34.2936778  94.7008324  89.8871708  33.6973190  95.5833912  88.8117981
  46.8071127  95.8992195  78.1054831  46.9913673  94.9977589  77.8415632
  47.6284027  96.2098408  78.4865665  31.3886118  89.8463726  89.4142151
  31.6677046  89.0408230  89.8494339  31.6739225  90.5468082  90.0009251
  15.7137799  86.0084248  78.5229778  15.8001316  86.6630554  77.8299856
  16.0084629  85.1920509  78.1193352  29.2581773  77.2630787  80.8119869
  30.0215054  76.7731094  81.1177444  28.9603543  76.7843056  80.0384808
 112.2248554  64.9346685   0.8720019 112.1793270  64.7532415  -0.0667437
 113.1491661  64.8211050   1.0933442  64.6734142 107.4966431  82.3636436
  64.4307756 106.5881538  82.1847248  63.9675951 107.8281879  82.9187298
  24.3766737  90.3820801  89.2755032  23.7679434  90.1087284  89.9617672
  25.0675178  90.8528233  89.7417259  46.0873365  56.5819931  96.7325878
  45.4223347  57.2407055  96.9328499  45.7728052  56.1593819  95.9333992
  85.7274342  13.2294965  82.4679279  84.7937489  13.4221768  82.5535679
  85.7647133  12.2837400  82.3251534  28.9890432  87.0257187  83.1945133
  28.8028002  87.9646015  83.1881714  29.8862743  86.9573116  82.8681183
  36.1142588  91.5209770  83.4662628  36.7001724  91.4035988  84.2140293
  36.6194892  92.0470142  82.8463650  32.8577876  83.3965206  83.2723141
  33.0559611  84.1090012  82.6645756  32.5062776  83.8339615  84.0477562
  40.7085133 101.0286427  69.1769791  40.1385403 100.6525707  69.8477459
  40.3866625 100.6593227  68.3546400  47.4829149  86.3341618  78.0323124
  47.8117228  85.5114651  78.3946562  46.8860197  86.6690063  78.7015104
  29.9916577 106.3652611  94.5387459  29.1195393 106.5309811  94.1807270
  29.8355675 105.8087063  95.3017044   2.5749198  94.7672939  60.7241488
   2.8399265  94.7565842  59.8044252   3.0474249  94.0339756  61.1181116
 112.3827457  20.7472348   1.0760738 112.6229858  20.9838128   0.1802229
 113.2082367  20.7723045   1.5599777  17.2000825  98.4493637  59.2499971
  17.6391149  98.7157822  58.4422159  17.8905833  98.4605885  59.9128056
 114.1338158  34.4024658   5.2771664 114.6133995  33.6274505   4.9846274
 113.2447529  34.2727184   4.9470761  20.7544875  50.5438948  84.3346119
  20.5931544  49.6773624  83.9613438  21.4904618  50.4138279  84.9326515
   7.8857297  57.0451736  85.8682156   8.0863082  56.6059399  85.0417328
   8.7064874  57.4686337  86.1197567 104.8858356  26.4351392   2.9778212
 104.4202709  26.6582203   2.1717724 105.0977612  25.5065393   2.8828433
  12.2076356  75.2800512  89.6761799  12.6636946  76.1167669  89.7664452
  12.0491540  75.1938438  88.7361431  31.5771103  98.9928055  79.3492174
  32.3193121  98.9117050  79.9482107  30.8064389  98.9447308  79.9148893
  51.8933344  60.1680946  67.3576307  52.1391869  59.6503878  66.5909672
  50.9379864  60.1156235  67.3857403  17.2839141  91.9501686  93.3778477
  17.7009809  91.5378857  92.6213360  16.3547373  91.9836712  93.1503868
  36.4494991  96.6359043  59.4889069  37.1417069  96.6952229  60.1473570
  35.6369114  96.6377544  59.9948025  97.7972507  40.9666061   4.1009450
  96.8951988  40.7555437   4.3417272  97.7194023  41.7244482   3.5214260
  83.3041382   1.2676248  81.0345936  83.5140324   1.0894186  81.9513416
  84.1397285   1.5211536  80.6424904  94.7430992  52.0194197   1.7294933
  95.2246952  52.3340893   2.4945283  94.1295910  51.3744068   2.0813362
  21.2107897  80.0806427  65.0353432  21.8247199  79.6527338  64.4385004
  21.5987778  80.9395123  65.2027941  48.1951714  89.5466518  70.8356953
  48.0463076  90.4581833  70.5843496  48.3008766  89.0832901  70.0048161
  42.2839069  77.6953316  82.9959297  42.8629971  78.4574890  82.9936409
  42.7607012  77.0307636  82.4986935  20.3831911 107.0647240  82.2332668
  19.5845199 107.1668339  82.7508831  20.0770259 107.0152760  81.3277054
  40.1702499 106.6539478  74.9593687  40.3522730 106.7562103  74.0252161
  39.4747329 107.2867012  75.1385355  33.5058141  96.9812870  63.6740589
  33.6961126  96.4861107  64.4708204  33.4584641  96.3180923  62.9854631
  62.7641916  95.8206177  78.5262489  61.9512415  96.2150097  78.8421631
  63.3476830  96.5639782  78.3740187  14.5353889  80.2683163  81.9608307
  13.6614406  79.9665546  81.7130661  15.0857437  79.4878960  81.8953514
  25.2153611  92.8625298  79.4003820  24.3179488  93.1148815  79.1831255
  25.7508469  93.2746315  78.7224007  52.2828817  88.9402676  84.3011761
  51.6242123  89.5550060  84.6244240  52.5536394  89.3013191  83.4570408
   9.8564488 104.6399212  85.8154202   9.0774018 104.5510292  85.2663994
  10.1448357 103.7402916  85.9694576  88.8455105  27.4767423   1.5340371
  89.1292572  27.0198607   2.3258573  88.8630486  26.8061137   0.8512618
  16.3152623  89.8945332  85.1064777  16.4317584  89.5877266  84.2072964
  15.3809214  89.7794437  85.2796650  19.7526789  71.5111780  73.6547804
  19.2733240  71.3321733  72.8458261  20.0968575  72.3967314  73.5382843
  79.0359116   4.6954283  73.4932852  78.1395626   4.3633527  73.5434341
  78.9861393   5.5762506  73.8646412  49.3615675  90.0850487  88.0067730
  50.2329063  90.4803753  87.9798889  49.0067720  90.3449440  88.8569546
 109.1438866  16.4196849   6.6153824 109.7180843  16.6909480   5.8991742
 109.5758629  15.6526661   6.9912964  19.5405328  92.4529552  65.4204702
  18.9982641  92.5099564  64.6337509  20.3738260  92.8494644  65.1662445
  82.0337582  14.9837625  89.0354538  81.1208248  15.1383698  88.7928009
  82.2064877  15.6159043  89.7331619  64.3926334   2.4165253  87.8181076
  64.3338346   1.8697517  88.6015701  65.1903296   2.1211253  87.3791885
  76.3001108   6.5921593  88.4397411  76.2075520   7.3466283  89.0215015
  76.2930202   5.8354497  89.0258884  83.3751583   4.6201870  66.3151503
  82.5527096   4.6654913  66.8027401  83.7790203   5.4780221  66.4464760
  33.5884881 103.7692070  81.4456749  34.3149257 103.6729336  80.8298397
  33.1519055 104.5774364  81.1766148  68.6737871   4.7863445  67.3871136
  67.7325487   4.9507788  67.3299837  69.0751886   5.6462252  67.2617674
  32.1941185 102.3434162  86.9685078  32.9138231 101.7217541  86.8599033
  32.6110458 103.1357384  87.3070812 108.2098103  28.8390923  15.1833594
 108.8582993  28.2211852  15.5208242 107.6741695  28.3202338  14.5832682
   0.0839657  54.9032974   2.6446444   0.7326636  54.4594193   3.1909025
   0.0304674  55.7876205   3.0070588  59.3653727 103.2282257  86.3344193
  59.3497896 103.2178402  85.3773975  59.2409039 102.3130798  86.5859318
  47.0165443 109.8523140  70.9813118  46.2677050 110.3967476  71.2243557
  46.7106628 108.9541340  71.1075640  91.5064812   2.2158033  63.9793396
  91.5231705   3.1627476  64.1180801  90.5941677   1.9678299  64.1291237
  90.9293270  83.8290501  78.1977463  90.6059933  82.9700470  78.4694338
  91.8770695  83.7785339  78.3220816   3.8611031  99.4388580  81.7531204
   4.3737400  99.6926117  82.5206184   3.7635204 100.2484798  81.2519073
  30.6331086  88.9035511  93.4962845  29.6977878  89.1065121  93.5109329
  31.0293412  89.6342373  93.0215931   9.4243681  30.2008033   6.3192552
   9.0409845  29.8779368   7.1347344   9.7818357  31.0592914   6.5460706
  26.3411093  82.7074432  82.7518845  27.1525693  82.2139168  82.6327705
  26.3351059  83.3362770  82.0302486  11.3045704  75.1240301   5.1910174
  11.3852954  75.9858370   4.7823551  10.3613150  74.9673939   5.2353728
  44.6639585 101.7029190  87.7764893  45.4906416 102.1381950  87.5682640
  44.6140957 100.9747028  87.1572590  33.5940170  84.1214657  73.6893034
  34.0082192  84.8718452  73.2631493  32.9247403  84.5066261  74.2549515
   7.8016049  59.1710949   3.0073532   8.5027146  59.8076582   3.1468701
   7.2069734  59.6006441   2.3924267  25.8197880  96.0025692  69.2070341
  26.3744068  96.1769199  68.4466171  26.4356995  95.8018112  69.9117184
  80.3230667   5.7854015  59.9825001  81.2618542   5.9636617  59.9265909
  80.2289009   5.2401716  60.7635832 106.3245773  60.6213188   6.2976378
 106.4291096  60.6503820   7.2486687 107.1662807  60.9217834   5.9548712
  85.0594425   7.2769046  64.1652107  85.8864784   7.0427215  64.5864058
  85.2020931   7.0906001  63.2372189  96.0386753  10.4228938  72.7975607
  95.4103947  10.1885188  73.4806204  95.8733654   9.7948480  72.0943785
  59.0030336 103.8010406  93.1496239  59.7835827 104.3307877  92.9873180
  58.9713192 103.7066746  94.1016388  34.2788911  90.0133038  85.1085377
  34.4548345  90.6388664  85.8113575  34.8116183  90.3209114  84.3751812
  67.1112728 110.3884792  94.1921520  67.8876066 110.4644871  93.6373901
  67.3842573 110.7471752  95.0365734  51.2008953  99.7695827  88.9685631
  51.1731052 100.7260990  88.9917755  50.4542160  99.4952869  89.5009708
  58.3679199 105.4607677  79.1316795  58.1726265 104.7950172  78.4722328
  57.7567482 106.1725426  78.9417553  34.9105453  80.0531769  95.8089542
  34.8689938  79.0969372  95.8196259  34.0437913  80.3338623  96.1025333
  18.4638131  93.6148167  89.4442654  18.2430136  92.7873993  89.8718739
  17.6378930  94.0978336  89.4162846  48.9830637  93.8993454  84.1320896
  48.8270140  94.0149593  85.0693798  48.1528997  94.1382599  83.7198067
  76.7404985   4.3889737  76.7369986  76.7264366   4.3223783  75.7822180
  76.9472265   5.3074300  76.9100094  48.0420446 100.4884529  89.6930885
  47.3989344  99.7935963  89.8338318  47.9552031 101.0541821  90.4603195
  61.3838005 100.9885025  91.3443947  61.2645006 100.2090454  91.8870258
  60.5290461 101.4192677  91.3527298   3.7789753  62.2353220  21.0144162
   3.9328149  61.4991617  21.6065574   3.0523449  62.7148914  21.4122319
  45.5341578 107.9703426  82.4116707  45.3925323 107.1238232  82.8354454
  44.9532366 108.5716534  82.8777027  83.7939835  23.3818030  66.3349724
  83.6678982  24.3289876  66.2786007  84.6965027  23.2428169  66.0479689
 114.6741676  55.3721523   1.8188378 114.5886612  54.4544792   2.0772853
 114.0397930  55.4815865   1.1104435  21.5103149 110.5842781  57.2230721
  22.3604727 110.9419632  56.9670963  21.7163134 109.9348545  57.8954172
  21.8413997  87.6754189  71.6085434  22.4612546  86.9486809  71.5463924
  22.3717475  88.4566593  71.4516115  10.7004523  64.4820404   1.3669163
  10.9354842  63.5646152   1.5059322  10.5490088  64.5502949   0.4242405
  93.3630085  11.3605964  74.8223257  93.3556747  12.3016179  74.6472311
  93.0517769  10.9632134  74.0090275 108.2629585  10.0835180  25.3955460
 107.7856064  10.1126349  24.5663810 108.4181309  11.0022175  25.6149697
  17.1992540 103.5374260  87.5718975  16.9510233 104.3471146  88.0180168
  16.3667250 103.1378651  87.3199463  41.0878181  96.2068748  75.6493187
  41.5439844  97.0472050  75.6939077  41.4233780  95.7941246  74.8535395
   5.4052138  51.4313984   8.4120601   5.5856234  52.3099661   8.7464267
   5.0703984  51.5760183   7.5270647  83.5616207  69.8372269   0.3228214
  84.4593525  70.1647043   0.2674140  83.1110382  70.2474546  -0.4153661
  91.0619068   5.6529570  94.5345879  91.4600563   6.0683173  93.7696171
  90.4268456   5.0369471  94.1692734  84.3053246   7.7561975  88.6153984
  83.3940029   7.8153479  88.9021492  84.4668961   8.5819572  88.1590557
  47.3368025  93.9534760  91.9315815  46.7650318  94.7177410  91.8594074
  48.0043697  94.2128944  92.5666332  34.9998021  90.2778339  58.5364819
  35.6377840  90.1509953  59.2387104  34.6551061  89.4014931  58.3648825
  77.5940990   2.4585894  57.7197647  78.0454826   2.2597729  58.5401011
  76.6640806   2.4235097  57.9435253  19.3880272  86.8933296  70.9707880
  20.1983595  87.2573280  71.3273048  18.9308846  86.5356827  71.7319298
  45.7872391 100.0006294  73.7477732  45.0265074  99.9600697  73.1682301
  45.9834766  99.0858078  73.9498091  24.5800591  27.6879382   3.2420450
  23.8167953  28.1490588   2.8941509  24.8483324  27.1012807   2.5348726
  65.4366922  93.7312698  89.2703533  65.3369522  94.2765522  90.0507069
  66.3402224  93.4178829  89.3110371  38.3732772  77.0540905  75.6064129
  38.6132216  77.6584721  76.3088274  38.7819433  76.2246990  75.8540630
  30.6404901 103.0242825  84.1370106  30.9210181 102.6570511  84.9752712
  30.4303527 102.2607517  83.5993385   3.5276213  51.5030193   3.3539161
   4.1528627  51.6778183   2.6505312   3.1175929  50.6734228   3.1092155
  86.0340977  31.9086695  79.0251446  86.9733143  32.0744181  79.1066074
  85.8705902  31.1661911  79.6067142  42.1050072  82.8800869  91.9427299
  41.2779331  82.9125404  91.4619732  41.8489075  82.9309940  92.8636360
  45.1270008  90.5059052  95.0426388  45.6781149  90.8298397  94.3301964
  45.0965548  89.5584202  94.9100876  70.0467682   9.8860461  51.7261457
  69.7220850   8.9995009  51.8837833  70.0383472  10.3010941  52.5886393
  87.6931286  27.2705674  83.0867004  88.0622292  28.0418897  83.5168839
  88.4192944  26.9093752  82.5783157 101.0403599  35.9761921   0.1448938
 100.4842414  36.1779610  -0.6076029 100.4260529  35.8285824   0.8639738
  52.8422260  95.4069519  49.3886805  52.8684902  96.3456345  49.2031622
  52.7823257  95.3528976  50.3424740  53.7834072 102.5323200  85.3423691
  53.8910055 101.5818787  85.3788090  54.6470976 102.8798389  85.5648613
  31.6492653  96.4783192  81.4518547  31.4198303  95.8940315  80.7292271
  31.6520691  95.9136772  82.2247696  26.6189599  86.8873310  80.0945663
  25.9610391  87.4012375  79.6262932  27.4559879  87.2000122  79.7512817
  33.4646606  97.9178810  69.5435476  33.8471794  98.1251431  68.6909342
  33.6751914  98.6744690  70.0908089  89.5534515  13.9321184  78.6047602
  88.9898586  13.2613242  78.2192278  89.3318939  13.9248574  79.5359373
  95.2705288   4.4702840  74.8135042  94.9294662   5.3438336  75.0053787
  95.3428555   4.4456559  73.8593578  51.7411327 105.8346272  68.5556126
  52.5462103 105.6330013  68.0787182  51.8661594 105.4349804  69.4163656
 117.5549793  36.9599891   2.4173416 117.0827389  36.1730480   2.1454066
 118.3638191  36.9427228   1.9057611  45.3421926 105.3502750  64.4571209
  45.1321077 105.0355816  65.3363609  46.2934256 105.2648640  64.3930864
  48.0309772 101.7129993  85.3478146  48.1513357 100.7754993  85.4989624
  47.6337862 101.7664051  84.4785500  30.7640457 112.5391769  83.9924717
  29.9165416 112.0988655  83.9284706  31.2610745 112.0122337  84.6181870
  95.8794594   3.9484560  90.3094101  94.9673557   4.1127431  90.5488110
  96.1222458   4.6963191  89.7635269  86.5093136   3.9397421  63.7111235
  86.3356876   3.2281661  64.3273592  86.0936546   4.7059011  64.1066694
  11.1977112  21.3944435  13.9240062  10.8847558  22.2347569  13.5890961
  10.5580497  21.1499405  14.5927989  79.0032721  22.1774578  70.3817081
  78.9600372  22.9129529  69.7706366  78.0963087  21.8836927  70.4674721
  38.8144159  85.0131893  96.4045811  39.1711926  85.7699966  96.8695354
  39.4110107  84.2964363  96.6203690  94.3590260   6.1813998  84.8423481
  94.2660809   5.6234658  84.0701389  94.7972870   5.6264323  85.4874611
  38.9441538  79.8540640  83.5532284  38.3259940  79.7522306  82.8295326
  39.3653965  78.9980316  83.6306572   7.0578533  89.4502354  86.5823269
   6.4806366  89.6325493  87.3238277   7.1721923  90.2983952  86.1536217
  51.5284967  98.1871891  83.1572533  52.0070505  99.0068340  83.0331516
  51.5133905  98.0599213  84.1058350  42.8296757  74.7993803  82.1097183
  42.2347069  74.5166636  81.4152336  43.6498833  74.3425703  81.9231224
 102.3997688  13.2465422  83.4967136 101.9100666  14.0578568  83.3618164
 102.5986862  12.9371011  82.6130199  56.3172531  88.6832619  73.2265472
  56.0565281  87.9675293  73.8061905  56.8669367  89.2454529  73.7724638
 115.0048256  65.8965874   6.1277121 115.3943443  65.0529957   6.3576102
 115.6365299  66.2972927   5.5305332  89.4956684   1.4150044  92.8736115
  89.4903278   0.4579869  92.8557014  89.7135639   1.6364004  93.7790012
  51.2513828 108.2863808  78.4691763  51.8787670 107.6377010  78.1500769
  51.4157104 108.3354950  79.4108868  82.3855495  17.6959038  67.4893475
  82.7479553  16.8119371  67.4302101  82.8108978  18.1771219  66.7795992
 100.2525330  19.2859054  74.9504852 100.4494095  19.8011482  74.1681862
 100.4314613  18.3815360  74.6929359  78.8443661   1.1601395  89.2038631
  78.6731339   0.7010816  88.3815575  78.8269901   2.0877704  88.9684200
  34.8136568  93.7485409  74.9956179  34.1626215  94.2516041  75.4848194
  34.6829581  92.8447342  75.2824545  82.6142406   6.4534116  81.1694336
  83.0108738   6.5956187  82.0289135  81.6960239   6.2600303  81.3584232
  97.2435570  50.0497770   3.4239921  97.1992111  50.4618692   2.5611791
  97.3374462  49.1154051   3.2386112  95.0591183   6.2667924  81.7558384
  94.2957020   6.7891645  81.5097618  95.7973003   6.7094201  81.3370323
  71.5042734   9.7157574  86.6096210  71.8357515  10.6014061  86.7578888
  71.6599560   9.2601335  87.4369049  68.4726429  10.7106650  69.8096848
  68.6561346  10.3539610  70.6787777  68.9591742  11.5345061  69.7812986
  58.1273556 101.6118050  69.0544891  58.9372826 101.3013649  69.4593048
  57.9336262 102.4333954  69.5058107 113.7936020  52.9027987   1.8123539
 114.6565056  52.5064182   1.6918464 113.4515762  52.4947596   2.6078093
  40.2136946  99.8679447  66.5703535  40.1835299  98.9117527  66.5381908
  40.5837297 100.1244450  65.7256556  54.5795584 107.0872021  53.4282207
  53.8826752 107.7433300  53.4188175  55.3828192 107.5889587  53.2894897
  25.6204867  95.1793003  49.0439510  25.2461958  95.1804733  49.9249363
  26.5643787  95.2535343  49.1846371  47.3446894  81.1093998  44.5365858
  46.4531898  81.0452175  44.1940355  47.8435659  81.5202808  43.8305235
 104.0415573   1.5466706  83.0127239 103.8729000   2.2918326  82.4360752
 103.1891537   1.1225623  83.1115532  60.1852322  16.3535452  85.5196095
  59.4699955  16.0975933  84.9372387  60.4769468  17.2006726  85.1826954
  52.1997929  98.6323261  78.2464838  52.6295090  99.4778442  78.3756208
  52.8429985  97.9888535  78.5439205  22.9353929 107.2445774  77.1480227
  22.4680042 107.9723454  77.5580692  23.7360597 107.1527767  77.6644897
  85.0085926 108.8429356  92.5100517  85.3547573 109.4808578  93.1341267
  85.7829380 108.4991360  92.0646095  81.2301254   4.0294120  54.4783735
  81.0791969   4.6025726  53.7267494  82.1083736   4.2589363  54.7820616
  75.0013733 104.6432781  71.9933271  74.9548578 104.1683483  72.8230858
  75.5283785 104.0815353  71.4250422  48.2072353  93.6478233  77.5962687
  49.1235828  93.7686634  77.3474026  48.2306957  92.9759121  78.2776022
  37.2022653 100.5393219  94.1209126  37.3068476 101.4496422  93.8441277
  37.0339704 100.5928612  95.0616837  45.4803228 109.8286915  86.8534184
  46.2764311 110.0457096  87.3385429  45.0063372 109.2272377  87.4277210
  59.2979097 103.0185509  80.5375481  58.8453960 102.1798992  80.4474163
  58.7311172 103.6459637  80.0888443  64.5072460   5.1671785  87.3307800
  64.7837067   4.2803475  87.5617218  63.5773897   5.0810862  87.1205807
  58.0794907   8.6551839  94.2085743  57.4604750   9.3648827  94.3799782
  57.9217243   8.0247998  94.9113941  49.6076965  12.6843357  82.7618694
  50.5501652  12.7378750  82.9203415  49.4639397  11.7825925  82.4747753
  13.7010658  93.9053822  79.1693544  13.7912142  94.5993900  79.8223925
  14.2045820  94.2172146  78.4173822 116.1033249  79.5033741   4.7728220
 117.0315552  79.6183395   4.9763301 115.9601116  78.5588694   4.8330674
  94.7401714  35.4804969   2.3579851  94.6911049  36.4015555   2.1021056
  94.4491005  35.4693866   3.2697880 108.3949089  47.1739388   1.3937452
 109.0617275  47.3088169   2.0670862 107.9610825  46.3588810   1.6461591
  19.7121835  60.6088877   0.5580514  20.3663826  60.5218935  -0.1352653
  18.8961387  60.7982397   0.0949636  41.7848921  82.4861050  68.8873148
  42.5859165  82.9147625  68.5859156  41.6398287  82.8394699  69.7649956
  93.0819416  22.5579786  78.7122011  92.7144241  21.7159653  78.9808464
  92.6208401  22.7728128  77.9013586  60.5758810  85.5564022  84.3531227
  60.3590107  85.9395218  85.2030659  61.3105917  84.9704266  84.5349789
  43.8500452  93.9241600  57.8989029  43.1563663  93.6364174  58.4924030
  43.9371395  94.8620605  58.0691338 115.2852058  28.6223388  13.3616912
 115.1525688  27.6770115  13.4323931 114.9820518  28.9701176  14.2003679
  14.4872332  46.3853359  13.5366321  14.3151927  46.8904114  14.3313217
  15.4258490  46.2004137  13.5688674  32.3501015 111.3362598  61.0336828
  32.3398185 112.1515751  60.5322981  32.7513504 111.5741348  61.8695307
  38.4316969  92.7935791  90.1940727  38.6462545  92.9822636  91.1076355
  38.1479621  93.6347294  89.8360348  86.4434338   2.8255534  82.8076649
  86.2359715   2.5240666  81.9231892  85.5909824   2.9408938  83.2275009
 117.6954174  47.9428196  -0.0552442 118.2774353  47.1836185  -0.0220087
 117.6507282  48.2501698   0.8501673  39.7266054 110.0738335  78.9165497
  39.4261789 109.6666718  79.7290754  40.5451250 110.5089855  79.1550970
  38.0559444  84.1770172  74.5095158  37.9854465  84.1597843  75.4639626
  37.2353339  83.7921715  74.2017508  60.7602692  91.6446781  95.9918022
  60.8870935  91.5355110  95.0493431  60.8691645  90.7644176  96.3516808
  25.7905531  94.4605160  90.4217243  25.6844234  94.4068432  91.3715076
  25.1730227  95.1394081  90.1496983  90.5324370  -0.0621438  89.7976398
  89.9373586   0.6016230  89.4490337  90.2437360  -0.1919198  90.7009983
  40.0404263  95.3718281  90.6603050  40.1701069  94.8643875  89.8591137
  40.9155464  95.6840038  90.8903885  57.6682234 105.7901382  90.1036739
  56.9759560 105.4534245  90.6725502  58.3791304 106.0201836  90.7019424
  35.0751948 110.0037861  95.1054382  36.0205460 110.1381397  95.1724529
  34.8601890 110.2578354  94.2079639  29.4573832  82.6269054  55.1854467
  28.6680412  82.9395866  54.7434044  29.7398973  83.3668041  55.7229900
  46.5414381  90.0235558  79.0054417  47.4765110  89.9469566  78.8156891
  46.4968157  90.1137829  79.9573326  13.6280203  50.1809406   3.8043699
  14.5768785  50.1358366   3.6866128  13.4916973  50.9494638   4.3584621
  84.3986225  22.7901888  76.0926390  83.8835716  22.9312611  76.8870306
  83.8183689  23.0584550  75.3801966 117.9755497  61.2738991  12.6876819
 117.3303032  61.3552475  13.3900213 118.7968063  61.0775757  13.1384861
  83.6205673  11.0784316  73.7488747  83.0999851  11.3191712  72.9825401
  83.4286118  11.7603004  74.3926477  99.1400623  54.2920494   4.1193783
  99.5319462  55.1383352   4.3349165  98.5839653  54.0872097   4.8710614
  98.7994862   3.0019903  67.7032757  98.1999779   3.6526817  67.3379946
  99.1793919   2.5701568  66.9381475  55.8210516  10.8364701  75.3950071
  54.9060869  10.5580950  75.3552723  55.8070755  11.6294706  75.9309053
  14.9261391 100.3820324  44.6022177  14.7178674  99.5557690  44.1661787
  15.1832473 100.9696484  43.8916969  46.8247843 110.9750080  91.1730099
  46.1230993 111.6036606  91.0037136  46.9415998 110.9964848  92.1228123
  12.5649261  86.8576527  84.6917915  12.3398817  87.0563698  83.7828922
  11.7253077  86.8554115  85.1514339  42.8640985 107.6381683  79.0405464
  42.5384092 107.8828526  78.1743526  43.7238979 107.2523212  78.8729429
  57.7303219  95.3376102  72.2383165  56.9637108  95.8869743  72.0748138
  57.3892355  94.5907784  72.7303791 112.3686504   1.0874309  65.4969788
 113.1360722   1.3286260  66.0157442 111.6498470   1.5847436  65.8871555
  53.0915642  99.9215031  82.0042324  53.8350010 100.1387215  81.4417839
  52.9545259 100.7068634  82.5340080  50.9214401  89.2081738  81.4885330
  50.2913523  89.7494221  81.9642162  50.5607653  88.3228111  81.5362358
  44.1431475  98.5116482  88.1617355  43.4402370  98.0095196  87.7494144
  44.5395374  99.0037346  87.4427414  56.0936117 107.5160694  86.3169575
  56.8455553 106.9505024  86.4928818  55.3323078 106.9717026  86.5177345
  50.5243635  90.3697395  74.5689821  50.3959799  89.7250843  73.8731575
  51.0159159  89.9001408  75.2428389  93.0973530   8.0682063  88.7777805
  92.6094723   8.7566566  89.2297173  92.4414444   7.6219964  88.2421494
  48.1028318  75.8848190  89.9636459  48.7083101  76.5737677  89.6898270
  48.6262178  75.3167772  90.5290031  36.9638491  79.4751644  70.1131153
  37.2657466  80.3825951  70.1537657  37.1139288  79.2132759  69.2047501
  84.7442245   4.8964885  89.0815544  84.0800095   4.2921990  88.7500763
  84.4143105   5.7649630  88.8510323  93.8673973  12.2990084  57.3224735
  93.9582539  11.5638244  57.9286814  92.9232883  12.3852265  57.1903419
  68.8702297   4.8749182  64.4474554  68.9351225   4.1933641  65.1164103
  68.1965113   4.5571384  63.8463306  25.1468039  76.6551638  72.9283905
  25.7967186  76.8300629  72.2477627  24.5141983  77.3686075  72.8445005
  80.8110809   2.1926376  56.4199924  80.6123257   2.6130301  57.2566509
  81.0442638   2.9158905  55.8379555  53.8270950 111.7599297  60.1097918
  53.4502172 111.6094494  59.2428732  54.7668409 111.6235161  59.9893904
  43.9299250 101.1336517  75.9494686  44.2238808 100.6930923  76.7467928
  44.5301485 100.8256245  75.2704382   3.0741423  68.2842827   0.9310674
   2.4112512  68.9670897   1.0339440   2.7364838  67.7262640   0.2304705
 114.7876453  64.2303467   8.5619473 115.7233429  64.3210220   8.7421685
 114.4389153  65.1169538   8.6543709  59.7522926 111.4416313  79.6473694
  59.8813820 111.0398960  80.5065441  59.5101452 110.7127476  79.0761089
  15.2759647  67.0967579   0.3765369  16.0189641  67.4080992  -0.1404246
  15.3880000  67.5125074   1.2314241  61.7505646  90.1717567  86.1460876
  61.6672373  90.7423210  85.3820610  62.0006227  90.7602692  86.8583775
  88.0766678   4.7543424  94.4390011  87.3619461   5.2755368  94.8047352
  87.7132797   4.3789729  93.6369514  43.1522322  97.7685452  71.5374088
  43.7047386  97.1803188  72.0521450  43.6449575  98.5883331  71.4999628
  34.0868783 110.8683205  73.7839985  33.5440850 110.6595039  73.0237293
  33.7742329 111.7255020  74.0733337  97.5978851   0.3810434  92.8906155
  96.8204117   0.9386897  92.8623772  97.6659775   0.0201006  92.0066929
  43.0239534  94.0793991  80.4347515  42.9609537  94.1556454  79.4826698
  43.9556217  94.1925621  80.6229591  29.7581220  89.2546654  77.1240282
  29.4821334  90.1253700  76.8377876  29.6280599  88.6977863  76.3564253
 105.4959583  59.6765089  31.6827822 106.1656284  58.9942551  31.6347861
 104.7843838  59.2788029  32.1845055  35.5326319  98.3185196  56.1117363
  35.5492353  98.9969826  56.7867565  35.0062490  98.6951256  55.4065275
  86.4406395  10.4671252  75.0107384  85.8973217   9.6929651  75.1580858
  85.9034634  11.0351443  74.4584417  30.4788899  77.1316957  83.8082504
  30.8121705  76.5003681  83.1706047  30.6094861  76.7073107  84.6562290
  31.9766235  87.6320744  74.4149256  31.0417533  87.4510098  74.5122004
  32.4090481  86.9132614  74.8759508 116.1081696  76.7912817   4.7545463
 116.9145870  76.4542389   5.1448381 115.4295444  76.1803627   5.0417328
  24.8579097 100.8225918  95.7267380  25.6303549 100.3854656  96.0851860
  24.1223025 100.4380989  96.2034798  53.3000660  81.1777878  88.3032322
  53.1250191  81.8269825  88.9845085  52.9102182  81.5497589  87.5120926
 109.2577553  61.0042810   1.5489936 109.6638393  61.8047953   1.8814126
 109.0315342  61.2093639   0.6418019  58.7116289 100.2620220  81.1435604
  58.6237335  99.3900204  81.5284348  59.6545935 100.4262829  81.1353874
  88.3644485  10.7485414  92.6765347  89.1435814  10.1942575  92.6323223
  87.7955627  10.3119195  93.3105373 100.6422138  51.5150213   4.0440306
 100.1727009  51.1629963   4.8002476  99.9834824  52.0194244   3.5666698
  38.9028263 109.3720055  81.5059662  39.5377159 109.8144722  82.0693207
  38.8800597 108.4721279  81.8314362 116.8859291  26.9006515   2.3504269
 116.5620041  26.2423825   1.7356205 116.7351723  27.7361035   1.9082451
  85.4153592   0.5277705  86.1855125  86.3081462   0.7952952  86.4036751
  85.2430541  -0.2203775  86.7571926   3.0312350   1.1951849  64.8875999
   3.9750928   1.1782358  64.7292423   2.6520675   1.4540283  64.0476799
  62.1718740 105.6510544  93.1349373  62.5085402 104.7621441  93.2477570
  62.8229856 106.0856628  92.5841236  68.9979744  10.0658810  79.6229458
  69.2816639  10.5098164  80.4221153  68.1365204  10.4384077  79.4349337
  50.3160763 110.7970333  82.3658752  49.8518562 111.5204620  81.9447041
  50.0091410 110.8109379  83.2724190  48.9793491 105.8774090  51.7077351
  48.2455826 106.4309311  51.4404774  49.2886019 106.2678528  52.5251389
  37.9602647 100.0662231  81.7911816  38.2248783  99.1961670  81.4924812
  37.0053148 100.0224972  81.8401051 111.6110420  47.8581762   7.4105507
 111.2326717  47.0798683   7.0015281 111.7459774  47.6069498   8.3242834
  36.7365646 111.9892311  73.9148855  36.3246489 112.6799202  73.3957386
  36.0035229 111.4797974  74.2603588  89.9502563  23.7497663  69.5807600
  90.6813526  23.1476450  69.4422531  89.1958523  23.1800222  69.7307444
  19.6556103  94.4320488  96.2510300  19.0779090  93.8783550  96.7763042
  19.1448796  94.6356583  95.4674911  56.2503576  80.7966805  89.2567348
  55.7539749  81.0784626  88.4883404  57.1452141  81.0895348  89.0844154
  37.1150541  84.8918438  89.5719719  36.3698316  84.5861053  89.0548611
  37.5998902  85.4647446  88.9778805  67.2111273 101.5357494  79.3684530
  66.6091394 101.4137650  78.6343098  66.6663361 101.4192200  80.1468182
  73.5054541 102.0222187  91.7600536  72.9469585 102.7048779  91.3881683
  73.9653873 102.4546337  92.4795723 100.8201504   7.8158605  88.3802032
 101.7123985   7.6099336  88.1014252 100.8298492   7.6871973  89.3286705
  85.9284401   1.9799720  79.9949121  85.5276871   2.7724013  79.6375895
  86.6552639   1.7906551  79.4015074  89.2994499   7.9130715  95.9147167
  89.8741817   7.4365556  95.3156757  88.8285160   8.5301924  95.3547096
  29.8873782  25.2325130  74.5840406  29.5828605  24.3291497  74.6702719
  29.0883732  25.7431769  74.4534969 102.6943302  18.3481240  50.1556635
 102.6468086  18.7224114  49.2759609 102.9023457  17.4248767  50.0122261
  76.3306761   1.5894794  77.6337004  76.9144011   1.5343301  78.3903074
  76.8950319   1.8776666  76.9162846  86.3329792  17.2357333  61.2149668
  85.5593395  17.3506260  60.6631374  86.4507484  18.0842757  61.6419792
 109.3986607  26.2487578  76.1492395 108.5849094  26.4096785  76.6268873
 109.8654366  25.6045365  76.6815233  20.4658580 112.0943451  83.1831741
  20.3302097 112.6893330  83.9206123  20.0120854 111.2907314  83.4371948
  30.8305788  66.8536806   2.3559985  31.5826130  67.3527145   2.6748115
  31.2032533  66.2321711   1.7306411  37.7175760  33.4632683   5.6280595
  37.6499009  33.5704041   6.5768343  36.9256902  33.8759613   5.2833354
 109.4212914  26.6283536  69.7627449 109.0088463  25.9035659  70.2326441
 108.7241077  26.9842196  69.2118120 100.4436302  11.7716980  77.2786856
 101.0747433  11.9808960  77.9672813 100.9824753  11.5365279  76.5233278
  60.5253553 107.2710228  87.5700092  61.1338758 107.0024204  88.2583332
  59.7415113 107.5545788  88.0405521  67.8586578 105.7193565  76.9627285
  66.9565821 105.9035301  77.2245884  67.7765989 105.2639294  76.1248302
  49.9461269 110.1733589  85.2271843  50.2329731 110.0628090  86.1336708
  49.2320824 109.5443726  85.1235104  36.5500641  45.0158644   9.4499850
  37.3506570  44.8685312   8.9464241  35.9519362  44.3291330   9.1552472
  83.2234859  23.8780141  39.4762969  83.2137585  24.5834184  40.1232433
  82.2996616  23.7138939  39.2869830   3.9714658  57.9292774   2.4424744
   3.8423342  57.2886419   3.1418622   3.3833945  57.6427889   1.7436701
  90.6559944   3.5978496  74.3278170  89.7167683   3.7042189  74.1769409
  90.7266140   2.7921277  74.8397350  26.2964845  41.6985798   4.6175608
  25.4582191  41.6757822   5.0791025  26.4333701  42.6240683   4.4151664
 113.0592537  12.2551560  96.2884903 112.7639866  12.7632499  95.5329132
 112.9492092  11.3426220  96.0212708   2.4554700  57.9584789   5.9636778
   3.3049771  58.3994436   5.9527880   2.5049606  57.3255396   5.2473176
  55.3192234  97.8567314  83.9049435  56.2713146  97.9105282  83.8221550
  55.1620674  97.0056438  84.3138218  42.2533989  99.7047997  92.5244713
  42.6622152 100.1003075  91.7546177  42.0185804  98.8204861  92.2432709
 104.4205379  14.1322100  85.8475304 103.7349606  14.1990113  86.5121746
 104.0871048  14.6397698  85.1076412  63.6019230  12.3168504  81.0346031
  64.1748190  12.0602024  81.7572021  63.6131191  11.5655398  80.4416084
  31.7268157  75.2928591  94.8852158  31.9367456  76.2025118  94.6737957
  31.2132049  75.3466797  95.6911564  45.9905529  96.2433720  88.6462784
  45.3372145  95.5461788  88.7036705  45.4911947  97.0191574  88.3912563
  40.2988911 105.6210232  61.0246706  39.9957180 105.6257343  60.1167631
  40.6257772 104.7321320  61.1634207  76.7098856   0.1652826  91.0420513
  77.5788736   0.0561944  90.6557941  76.4311743   1.0372314  90.7623100
  80.6547546  11.3428867  50.8035851  80.1245975  12.0121014  50.3707933
  80.4345989  10.5307746  50.3472614  48.6550617  97.3717022  72.9010582
  48.3486128  97.0023060  73.7292290  48.9703894  96.6167736  72.4041843
  72.7500725   4.4176182  88.3547306  71.8614340   4.7176334  88.5458851
  73.1067133   5.0840217  87.7674103  85.1636982  14.3571222  73.5455179
  84.6896553  14.2714953  74.3726730  84.4835854  14.5414114  72.8976583
  67.3156357  99.9307060  97.0894909  68.0363417  99.8077679  97.7073097
  67.4241543 100.8264828  96.7700577  60.4144955  95.4893875  87.0935917
  61.0119581  96.1443901  87.4544716  60.8716154  95.1451588  86.3262653
 107.2224903  29.9854565  73.0365133 108.1498051  30.1909328  72.9177380
 107.2107220  29.0568280  73.2683420  55.5624914 110.6888771  68.1107187
  56.4188385 110.3369617  68.3537340  55.6996250 111.6344643  68.0534220
 111.0338593  19.0941143  47.3481274 111.4817142  19.7847939  47.8366137
 111.2024021  18.2972574  47.8509617  74.4053793   1.6889501  80.3762054
  75.2219677   1.4043561  80.7866096  73.7189770   1.2519002  80.8802605
  79.9359185  -0.1678205  94.3794823  79.9711854   0.7849669  94.4642162
  79.8456866  -0.3214669  93.4390163  61.1351681  94.6983719  82.9951954
  60.8621597  94.6590519  82.0785999  61.0472870  93.7987328  83.3100891
  53.6396122 106.8515205  76.9680166  53.0808926 107.4466896  76.4681768
  53.4967566 105.9946346  76.5660620  39.5008349  93.9946175  52.4773884
  40.0332546  93.2020473  52.5451803  39.8713708  94.4691372  51.7332315
  75.5549526   0.7376403  93.7784195  74.8056602   0.1429515  93.7446976
  75.8073664   0.8570319  92.8628445  34.8149967  72.6108456   1.4105591
  34.3097425  72.2157001   2.1210596  35.0782251  71.8707991   0.8634980
  61.4328718 108.8472271  90.7071304  61.2714481 109.4514465  89.9825001
  61.8113852 108.0718708  90.2926731  91.0258579   6.4684588  75.4466581
  90.6926250   5.6172651  75.1626635  90.2407169   6.9803578  75.6409359
  83.7999630  27.7296162  64.6742487  83.9197254  28.6119914  65.0253916
  83.3357716  27.2576618  65.3656340  96.8845463  11.6648793  53.0647612
  97.7124214  11.4581871  53.4985065  96.9292736  11.1999106  52.2292757
  57.6355743  96.5875435  43.4478617  57.4035692  95.6993294  43.7189388
  56.9651556  97.1424198  43.8464689  74.3358040 108.9724731  88.4698486
  73.5442829 109.4405174  88.7356758  75.0029802 109.6545410  88.3930588
  60.9199429 111.0844326  96.4078140  60.4519510 111.9176674  96.3535690
  60.2286720 110.4230785  96.4392376 108.7561607   6.1734188  91.4983559
 109.0791130   5.8064282  92.3213100 108.3694267   7.0132452  91.7460537
  79.7409201  16.9741905  66.3414860  79.0165663  17.2014129  66.9245100
  80.0644493  16.1378074  66.6761827  95.1640320   3.2858407  62.2225094
  95.4202175   3.0138326  61.3412523  95.4649162   4.1919804  62.2904396
 102.3231411  10.2229500  79.6640444 102.6825333   9.3363094  79.6335030
 102.7844810  10.6924665  78.9690971  81.4667797  98.3659935  90.0512123
  81.8806362  98.6186695  89.2259216  80.8528042  97.6727867  89.8088837
  99.2504978   6.6236335  84.3190861  99.7537041   6.9503409  83.5732460
  98.3640766   6.9540972  84.1731644  59.4244385 103.2136345  64.0850973
  59.3860865 103.8264084  64.8194504  58.5086393 103.0623531  63.8513088
  89.4789600   1.3633472  72.5558615  90.3266239   1.3823558  72.1116209
  89.6947289   1.2214695  73.4775686  30.5735302  72.3575497   5.5280626
  31.2315917  73.0054903   5.2763474  30.3066015  72.6173639   6.4098096
 104.9211788   6.5678966  93.4606647 104.9724007   5.6123102  93.4391785
 104.8797417   6.8262941  92.5399303  70.2404070 103.9360809  96.6630936
  70.2967644 103.6187363  97.5644016  69.5939732 104.6411896  96.6974163
  59.4296265  92.0619011  75.5390263  58.6456203  92.4805546  75.8944035
  59.2534590  91.1237621  75.6104374  84.5122433  10.3272986  88.1755447
  85.3951263  10.2358949  87.8172112  84.5577812  11.1072266  88.7285995
  11.0315466  46.6826820  14.6397901  10.9800816  46.8202209  13.6939228
  11.4047301  45.8063173  14.7344327  66.8834162 108.2162380  91.6496944
  66.3235950 108.8924026  92.0313168  67.2384596 108.6185074  90.8570099
  48.5031366 108.5466194  74.9647236  47.7481937 108.3160400  75.5061340
  48.4835005 109.5026207  74.9210453  87.5473499  12.6509941  55.5260372
  87.6595116  13.0850315  56.3717699  87.7739620  11.7363548  55.6943083
  99.6651173   0.9537195  83.5325623 100.1975060   0.1627070  83.6167717
  98.7650967   0.6504982  83.6519337  49.4060707  89.2321491  85.6367970
  49.4840527  89.9183273  84.9739933  49.2673635  89.7059345  86.4568615
  78.3529949   6.0431832  68.0965424  79.2394447   6.4021987  68.0571461
  78.2386971   5.7872492  69.0117788  97.3960495   2.3053256  88.1253529
  97.3397636   2.6212239  87.2235394  96.5744591   2.5852594  88.5289097
  52.9865503 110.6758308  68.1452751  53.8754702 111.0042191  68.2802391
  52.7662516 110.9410095  67.2523165 101.6587448   5.5741727  85.0940895
 101.4534855   4.6850449  85.3831387 100.8049202   5.9847528  84.9575806
  32.3672867 105.4522896  90.4887199  32.0997572 105.3379822  91.4006329
  32.1174431 106.3516617  90.2767563  67.9989815  99.1246700  83.4955311
  68.3896732  99.9847317  83.6500835  68.6145973  98.5074234  83.8908291
  93.1068230   9.6618891  69.8421383  93.8511372   9.0636784  69.9082565
  93.3073425  10.2108383  69.0840626  96.4590645   2.1369889  78.3330393
  96.5893269   1.9903865  77.3961449  97.2558784   1.7986053  78.7414742
   9.6459651  26.3540220  10.6627250  10.2414572  26.9255233  11.1475003
   8.8470709  26.3382530  11.1897457 107.5058365  11.7255008  66.3174868
 108.1725979  11.6863465  67.0031404 107.9734135  11.4933968  65.5151606
 104.6231556   6.8886721  81.7177773 104.8741436   7.6740515  81.2315464
 103.9372158   6.4861923  81.1851120  54.8474312  63.3795214   1.0737693
  54.7956753  63.1366301   0.1493475  55.5799675  62.8668213   1.4154716
 117.7661037  19.1477358  88.4914398 117.1613693  18.4246802  88.6579323
 117.5272083  19.4639885  87.6201534  69.5517397   1.5735279  63.8565493
  69.6279669   0.7925969  63.3083105  70.2589750   1.4873628  64.4957924
  26.4217591  70.8737230   1.6831878  26.6818285  71.4825439   0.9918612
  25.8175826  71.3760328   2.2298929   0.9096795  51.7334318  27.3027277
   0.8125180  51.7864370  26.3519478   0.7087911  50.8216047  27.5135541
   4.8476225   5.9328115  87.5449085   4.2929754   6.6713256  87.2935200
   5.4976815   6.3119447  88.1364441  83.6994362   2.9106852  83.7122250
  83.3938313   2.0166087  83.8653851  82.9406261   3.3634347  83.3441830
  87.3919773   7.7924705  83.4507561  87.7706337   8.4634793  82.8827763
  87.4137878   6.9931406  82.9246044   6.5269911  99.8313808  52.3289967
   6.1244708  99.2513466  52.9753542   6.4462066 100.7061863  52.7090263
  19.9655414  35.0547099   2.0689443  20.1602554  34.4762611   1.3315743
  20.2268577  34.5539355   2.8417119   8.0796689  83.1930065   1.8084656
   7.5682533  82.6375008   1.2201639   7.4910110  83.9151764   2.0279793
  64.3797779  86.3149357  94.3619442  65.1069355  86.0084629  94.9037552
  64.7180271  87.0981121  93.9278412  89.7875881  25.8665752  82.2914219
  89.4381332  25.0423241  82.6301289  90.6234455  25.9766102  82.7447128
  81.2501335   3.4173447  73.3778620  80.4414272   3.9271915  73.4256601
  81.7640400   3.8469282  72.6940536  59.2480421 103.6975861  73.2085276
  60.0453949 104.1886139  73.0101585  58.5507393 104.3528557  73.1834078
  82.0086384   4.3098423  94.2446709  81.8737888   3.8804719  95.0894737
  82.3548317   3.6203507  93.6781216 112.7955055  12.4383855  79.3164492
 113.1360531  12.7909136  80.1386261 112.2433949  13.1376207  78.9664793
  83.8260841  10.7424366  84.4611168  84.6491337  10.5760753  84.9206257
  83.4323215   9.8765796  84.3540096  99.3176556   6.1301696  70.5498362
  99.4857121   6.9020706  71.0903549  99.7929955   6.2992817  69.7363949
  95.0805759   5.2910137  72.1334982  94.1834736   5.1582050  71.8272448
  95.6238747   5.1226109  71.3636303  74.7810411   5.6246549  67.8074646
  75.3145123   5.8308697  68.5750055  75.1294518   4.7913697  67.4904871
  81.8519115  19.5652044  89.7974110  81.5048313  19.0698302  90.5392742
  81.0865593  19.7480798  89.2524147  39.5345140  80.7962036  96.6996288
  40.1016045  81.1973858  97.3581886  40.1088667  80.6451702  95.9489441
  37.4913287 111.1960220  83.9379215  36.5962696 110.8570671  83.9522743
  37.5528860 111.6748714  83.1113911  63.8069677 102.3714733  90.6389523
  64.4366693 101.6559792  90.7271576  62.9648638 101.9791985  90.8696270
  99.6018982  16.0538614  79.4874859  99.2125988  15.2151227  79.2401028
  98.9321518  16.7022157  79.2699718  60.1642275 110.5987740  82.1863747
  59.4320869 110.2327824  82.6826191  60.7706404 109.8660374  82.0786667
  49.5275497  94.4785213  93.9004230  49.7684765  95.4034710  93.9520931
  50.3332996  94.0356541  93.6342049  23.6787438  55.1060104  41.2555504
  23.5016751  55.0691509  42.1955109  24.2897677  55.8359718  41.1553764
  92.7812290 107.7802372  89.5664692  93.2461739 107.8092957  88.7302780
  92.7705669 106.8526554  89.8024845  61.3272858 110.1733017  88.4089756
  61.5178251 109.3820190  87.9051876  61.3984394 110.8851051  87.7729607
  87.1150017   2.6911458  91.9886875  87.9280567   2.3211244  92.3325634
  86.4232922   2.1718749  92.3987198  98.3214378  13.0679762  72.8285646
  98.6550236  13.5650969  73.5754395  97.6225567  13.6148381  72.4697685
  87.4109268   7.1626633  66.5763998  87.3344612   8.1071216  66.4408064
  88.3462906   7.0158255  66.7169762  75.9426451   2.6497635  70.4028130
  76.3509274   1.7854235  70.4523325  75.2462149   2.6236296  71.0589647
  67.8715992 112.0700932  91.0479546  66.9335032 112.2450066  91.1228466
  67.9221773 111.1822987  90.6936836 112.1371078  59.9284935   6.2456250
 111.4267826  59.7165012   5.6400496 112.0117664  60.8559322   6.4465696
 101.4856625  28.0164552  84.3780804 102.2448635  28.3366060  84.8652649
 100.8416843  27.8009295  85.0526714  95.4892349  33.0818105  73.0403805
  96.0304165  33.8620400  73.1611919  95.0296021  32.9777765  73.8735342
 103.9388371  24.8791838  79.3927479 104.4832325  24.0936613  79.4458342
 103.5637760  24.8516273  78.5125208 115.0133801  20.1596618  82.9033566
 115.2580643  19.5584226  82.1998787 114.4280529  19.6486771  83.4623814
  21.1566424  50.3160667   6.9231158  21.2335491  49.3930054   6.6817147
  21.1746454  50.7842302   6.0884124  94.5578384  27.3424459  47.8582573
  93.7100983  27.4176431  48.2963324  94.3505001  27.3923635  46.9251156
   2.7368677  14.0565372  69.9602413   3.5593128  13.7015581  70.2975893
   2.9859504  14.5190334  69.1600609   5.3305131  28.2350016  54.9713278
   5.9729654  27.6872158  54.5203114   4.4976446  27.7803278  54.8454952
   8.7207913  19.3969119  60.7641125   8.3862817  19.1996372  61.6389942
   8.0131048  19.8832309  60.3411436  15.8563435   1.2381115  85.0924873
  15.9037888   2.1837869  85.2327728  16.7101717   0.9108566  85.3755283
  46.3141727  95.1625919   5.9048831  47.0099163  94.7038269   5.4340243
  46.0867023  95.8994007   5.3377873  16.0584545  14.8690772  62.5832224
  16.9526732  15.1300812  62.8034067  16.1608279  14.2490852  61.8611717
   6.7904818  44.2851305  54.7618961   6.9225198  43.3450556  54.6391821
   7.2354829  44.6887779  54.0167284   6.9015795  27.6623440  62.1217585
   6.3259470  26.9439268  61.8595457   6.8363833  28.2948446  61.4062738
   4.3533719   8.4166104  78.6302137   4.0459216   8.5609335  77.7352953
   4.1861624   7.4884981  78.7941647 103.6347580  35.2493358  72.7120543
 103.8115597  35.5316567  71.8146896 102.9348755  35.8293104  73.0121040
  87.5868893  13.7019932  84.5796585  87.0222664  13.4099293  85.2952957
  87.0482731  13.6042213  83.7944412 111.3558006  31.0108638  60.5102682
 110.8186340  30.7425332  59.7648335 112.0081043  30.3158545  60.5979395
  29.3684316  34.6928334  78.5284328  29.8002505  34.0228319  79.0583992
  29.5020914  34.4064760  77.6249027  77.9898828 112.4555431  76.7878056
  78.8815587 112.2369064  76.5170097  77.5913518 111.6122723  77.0029831
   3.2809508  23.1522632  78.6537552   2.7533960  22.6917601  79.3063307
   2.6437378  23.4828329  78.0205774   1.3169785  14.2753780  78.5428047
   1.6304064  15.1303530  78.8377810   1.4616987  14.2806184  77.5966215
  25.7482862  22.0178294  85.4438686  26.0782719  22.1408463  84.5538139
  24.8759985  22.4118042  85.4325104   0.2834204  13.4202552  85.5362511
   0.5996684  13.0202746  84.7261715  -0.4112359  12.8345311  85.8372784
  15.5853844  21.6562009  74.2153263  16.1307490  21.6018391  75.0000906
  14.7286570  21.9358039  74.5379305  18.9984763  15.2798009  49.6045923
  19.9440527  15.4075372  49.5284367  18.8597429  14.3652487  49.3584633
  40.0898695   1.0303841  92.1717358  40.0470686   0.4633828  91.4017296
  40.2209568   0.4291422  92.9049110   5.3651631  17.0750189  62.0534182
   6.2790179  16.8086958  62.1542835   5.0526375  17.2026932  62.9491043
  91.0418129 108.1566620  67.7343130  91.6802883 108.8114357  67.4517488
  90.5763721 107.9148388  66.9336128   4.8640457  18.1004953  82.2545242
   5.6032306  18.5191703  82.6955986   4.1426188  18.1676280  82.8800392
 111.0900497  32.3449683  80.7221889 111.3310146  31.7744732  79.9923182
 111.2013721  33.2318807  80.3798008  71.5886450 110.3547478  82.1614647
  71.0615015 110.1955891  81.3785172  71.1167431 109.9062443  82.8631687
  10.7977152   1.9110383  83.5362244  11.6568696   1.7879300  83.9398766
  10.9219873   1.6493259  82.6239204   8.9161378  38.2514787  56.8446922
   8.7544888  38.2961893  55.9022999   8.1216758  38.6090255  57.2412062
 103.5459423  21.0904050  54.2626762 102.7855301  21.0077953  54.8381615
 103.5104179  20.3127384  53.7057161 117.6314354  31.9526434  86.9753170
 117.8636169  32.8812408  86.9811249 118.1239128  31.5780568  87.7056503
  33.8347268  27.4971676  93.2061577  34.2259097  26.9701648  92.5093937
  33.1236434  27.9725003  92.7764511   0.8763079  32.9707098  58.4581280
   0.0929650  33.3942676  58.1071234   1.4626862  32.8904700  57.7058315
  25.1123762  44.7655296  65.1738691  25.8231854  44.4560242  64.6124506
  25.4345703  45.5914354  65.5348444   9.0610254  23.6563778  82.7637100
   9.2794299  23.6128926  81.8327713   8.6318684  22.8209281  82.9483223
  98.4680176  35.8853340  68.6800432  97.7047253  35.3255081  68.8222075
  98.8726902  35.9625149  69.5440578  24.4629478  21.9801903  66.0519457
  25.1441121  21.6515446  65.4652262  23.8250804  21.2681818  66.1009741
  17.7706265  27.3475695  66.2657261  17.2012556  27.2794628  65.4992962
  18.5771620  27.7394843  65.9308577 117.5063801  52.4354792  72.6187897
 117.1274185  51.5613317  72.5266600 117.7037048  52.5138330  73.5521460
  21.3532567   3.9515918  70.3641272  21.1961484   4.5589277  71.0871029
  22.1510386   4.2769355  69.9470806 116.9336796  26.2330985  87.1966648
 116.2690258  26.7051983  87.6982498 116.6396809  26.2988758  86.2881088
 105.5360889  21.7217112  65.6873560 105.3099728  20.8238816  65.9302616
 105.9086514  22.0988536  66.4843512  24.6377349  32.1050811  60.6894493
  25.1404452  32.2031045  59.8808050  25.0223207  32.7440357  61.2895012
  28.2227015  22.2087622  54.9995089  27.5959897  21.5054321  55.1691818
  28.9082265  22.0821214  55.6554413   3.5871917   6.2596637  59.1395187
   3.4929517   6.5854019  60.0346422   4.3170732   6.7620480  58.7774229
 118.3687115  22.8863692  74.2123699 118.3704758  22.1439028  74.8164988
 117.4448299  23.0214643  74.0015984 117.3092175  41.8975115  79.0507317
 118.0583382  42.3943520  78.7217951 116.6507149  41.9716549  78.3600092
  17.0698667  26.6351080  76.5094852  17.5932467  25.9220982  76.8754387
  17.7076709  27.2027373  76.0767794  18.8597858  42.0273066  80.5763626
  18.6631274  41.5288305  79.7832203  19.6551454  42.5147676  80.3618526
  11.4772153  33.9045000  83.3314323  11.8614447  34.5802116  83.8900089
  10.5914783  34.2188215  83.1500340 107.2339725  41.4998007  81.3673019
 106.7700863  40.6625462  81.3743973 107.2531891  41.7707682  82.2851467
   8.3536828  40.8426952  62.4666739   7.7166766  40.5273294  63.1077671
   8.9134872  41.4421225  62.9601717  29.0071487   6.7398214  85.2872753
  29.0487552   6.3068676  86.1399460  29.6060538   7.4823284  85.3661919
  26.4885902  28.5554790  78.8927841  26.1257195  29.4379997  78.8172007
  27.1634626  28.6309671  79.5673800   5.6541723   8.2259572  53.4525061
   6.4888555   8.5595006  53.1234407   5.6708205   7.2917706  53.2445383
 118.7063122  35.1519561  85.2948093 119.4180584  34.5430326  85.0976849
 119.1441917  35.9871459  85.4589653   2.8566334   7.6229692  64.9595499
   2.3961985   8.2266963  64.3766737   3.7802571   7.7266055  64.7306156
 111.5555000   9.2801434  60.8056974 110.7986450   9.7276580  60.4273605
 111.2121010   8.4369779  61.1012936   7.7297413  57.6948738  62.9678106
   7.0639932  57.6707840  63.6551476   8.1172520  56.8196917  62.9789305
   2.9348168  18.8330889  67.1967316   2.0638737  19.0808904  66.8864346
   3.0131152  19.2546988  68.0525017 100.1570320 109.0719223  87.7869034
  99.9888611 109.8398685  87.2408295 100.8245754 109.3617344  88.4087086
 117.6508617  23.2516170  59.5456553 117.4962330  22.3086619  59.4894695
 118.4902096  23.3300948  59.9990463   4.4367281  21.2134910  83.3909512
   4.3901727  22.0546031  83.8454723   3.5548061  21.0797358  83.0437374
  12.4201775  24.3478346  58.6506987  13.2312787  23.8859701  58.4385014
  12.4973738  25.1877284  58.1980944  24.5291591  11.3137162  83.5990620
  23.9023185  10.8647013  83.0318832  25.3449225  11.3179791  83.0983162
 109.6180153  43.0899715  81.3335419 108.7457085  42.7325535  81.1675072
 109.4556332  43.9166689  81.7878914  12.3415959  25.3595090  86.4654255
  11.6568935  24.8191714  86.8596935  12.1556687  26.2457561  86.7756271
   5.3285474  18.4992874  65.6007719   4.6307501  18.4860504  66.2558556
   5.3685641  19.4109643  65.3118515 116.2945747  21.9430447  93.7137794
 116.9682789  22.5803423  93.4766960 116.2663269  21.3375664  92.9729462
 110.6994343  23.3945322  89.3306255 111.4094925  23.0294108  88.8026810
 111.0023403  24.2715764  89.5657253  27.5995421  25.3505683  95.6524277
  27.6487088  24.4431162  95.9529972  26.7583537  25.6668043  95.9820175
   1.6967531  30.6631303  84.7999382   1.5786402  30.4855537  85.7330704
   1.9198599  29.8130417  84.4207191 118.6243343   5.1765472  64.3881083
 117.7016735   5.2611572  64.1477871 118.9114952   6.0741603  64.5556402
 108.3594704  19.3338180  52.7622938 107.5258255  18.9758241  52.4571419
 108.4827232  18.9479518  53.6295605 112.1543503  39.6005654  64.6452522
 111.4584351  40.1080513  65.0628614 112.2187805  39.9639416  63.7620544
 105.2703667  17.9960763  91.4758492 104.3353081  18.1950653  91.4278316
 105.3705502  17.5125837  92.2958660 112.1832848  20.3692269  76.4196062
 112.2385979  19.4301212  76.5963840 112.0380306  20.7664418  77.2782993
  64.6085072 109.5484924  95.2914333  65.4417610 109.7259235  94.8550415
  64.4175625 108.6345387  95.0805950   8.3642691  43.0930710  78.8054323
   8.8634539  43.8844824  78.6036491   7.4486250  43.3645344  78.7411213
  14.9071681  38.6616778  41.2800789  14.9142873  38.2921648  40.3971052
  15.7174766  39.1683340  41.3342285   9.1599655  25.0996995  63.1947803
   9.4081801  25.2691817  62.2859907   8.2028198  25.1060700  63.1868172
  15.9353685  21.0641170  64.6988535  15.7575977  21.3801146  63.8129807
  16.7070544  21.5566087  64.9784708 113.3929443  11.3535762  88.1427860
 113.9209366  11.6685271  88.8764477 112.5187492  11.2298691  88.5125351
 112.4402046 107.4454880  91.7668915 112.7655697 108.1812096  92.2856236
 112.0011711 107.8540421  91.0208511   5.3598017  28.7222743  74.8006296
   5.1092517  28.5712123  73.8892365   5.8008993  27.9148674  75.0647449
  42.0413637  11.3715541  78.2612610  41.2315416  11.6453636  77.8306198
  42.0341778  11.8324316  79.1001701  19.2368221  20.9090877  83.5769844
  19.4559312  20.0661254  83.9740276  20.0609469  21.2180352  83.2006836
   5.5569619   2.7507544  83.5200214   6.4214027   3.0583945  83.7926579
   5.4615474   1.8978959  83.9439964   4.1180262  38.3227158  82.2217655
   3.4429067  37.6441693  82.2262573   4.1035998  38.6690283  81.3295269
  30.8597231  28.0356622  54.9024820  31.7192483  28.2702446  55.2523708
  30.4204035  27.5888157  55.6260586   6.9851661  25.9154296  85.8093548
   7.7271599  25.3278875  85.9524250   7.3801684  26.7266560  85.4897881
 108.3180714  16.2822545  34.5392942 107.7049923  16.9824994  34.7629714
 109.1730499  16.7118335  34.5128965  21.9446969  26.7428541  36.2756610
  21.8182039  26.8301082  35.3308773  22.2968364  25.8601117  36.3896513
  74.3042660 100.6649208  35.0653529  73.4234810 100.6863976  35.4394984
  74.8873615 100.6829643  35.8242393 104.2112732  16.2995720  67.2840214
 105.0857162  15.9157407  67.2187614 103.7127304  15.6721056  67.8074455
   9.8887467  10.8112323  72.2522497   9.2127526  11.4717543  72.4038267
   9.7845531  10.5686450  71.3321829   3.7864587  25.3227592  88.9829159
   3.3944336  25.2729201  89.8547363   3.0458206  25.2402115  88.3821964
  11.3141036   9.2972887  81.9824028  11.1241853   8.3680004  82.1111870
  10.4921496   9.7409707  82.1916199  21.2182736  26.4289904  62.3060942
  20.4817986  27.0335340  62.2146559  20.8721161  25.7075024  62.8313208
   6.1036372  42.4146080  83.2195091   6.4659095  41.9760132  82.4496841
   6.6980523  42.1783972  83.9316177  29.8677063  12.7620745  61.7665958
  30.0794649  12.1785700  61.0379601  29.9978113  12.2256601  62.5486231
 112.4607658  24.0513515  79.6719456 111.5485191  24.2179942  79.4347286
 112.7951431  24.9036455  79.9512625  11.9973397  10.5329144  64.1847277
  12.7953827  10.4675114  63.6602497  11.2930298  10.6077445  63.5408497
   4.8747405  12.7536845  74.7787333   5.8085436  12.5462949  74.8138571
   4.7740194  13.5046852  75.3636122  25.0860119  18.5314727  53.9376831
  25.3958631  18.5519588  53.0322552  24.2610526  19.0165973  53.9195538
  35.2719808  12.6920581  27.6566720  34.8431492  11.8516481  27.8180528
  35.0088811  13.2409620  28.3953977  12.8906310  21.1008620  88.9478016
  12.6848662  21.9573259  89.3224525  13.8099015  20.9560251  89.1718483
   4.0067348  26.6384888  77.0459557   3.7673357  26.1705613  77.8459311
   4.9494538  26.7835712  77.1263504  10.7778358  27.9631686  80.9094429
  11.3408053  27.7388620  80.1685047  11.2973690  27.7389622  81.6814804
  17.6512194  14.2907369  35.9204388  17.1953368  13.5437381  36.3082504
  18.1467307  13.9169407  35.1917577  25.8958673  26.2420225  57.6980257
  26.2867785  26.8410254  57.0619297  26.3805699  26.4027143  58.5076380
 108.2282448  39.5923448  73.6716270 108.4868050  38.6987495  73.4460878
 107.9382706  39.5352125  74.5820570  14.9107516  20.2309513  69.4630146
  15.6501579  19.9101305  69.9793291  14.5940542  20.9939003  69.9465895
   7.7958739  31.7124009  48.0887222   7.1060205  32.3758411  48.0752707
   7.4035710  30.9681749  48.5452938 110.7531834  20.8525634  73.6156178
 109.8464775  20.6025720  73.7934494 111.1886883  20.7950544  74.4660664
   0.6692342  41.6682053  81.6574287   0.0269032  41.5485859  82.3569584
   0.7951675  42.6157618  81.6073608 113.2549572  40.8481979  67.6067400
 113.2988644  41.6987753  68.0435753 112.3205185  40.7029915  67.4585629
   1.1899689  27.8120732  48.9470577   0.7077242  28.6174655  48.7599325
   1.3903154  27.8645039  49.8815870 116.2461662  37.4769449  60.3043270
 117.0160580  37.8552508  59.8796129 115.5424595  38.1001258  60.1235771
  20.9114814  63.5002375  54.7838211  21.7453146  63.1274366  55.0701380
  20.9391665  64.4084072  55.0849676  20.0462198  22.8776526  71.1038494
  20.4116011  22.0996761  70.6825638  19.7554159  23.4290886  70.3775024
  23.1985641  45.7214928  77.2373199  22.3515010  45.8780575  76.8199444
  23.2841158  46.4276218  77.8778601  27.2714591  52.2808552  58.5481691
  26.4409590  52.3153925  59.0228415  27.0486116  52.5464153  57.6559544
  26.4576769  34.9700141  65.5960512  27.0388412  34.2832279  65.2692366
  25.7762170  34.4989753  66.0756016  23.4537435  42.6763153  87.5712013
  24.2497253  42.1582890  87.4516487  22.7455902  42.0323420  87.5643349
 110.3934479  18.3886361  60.4908943 110.1610851  18.9394712  61.2384367
 111.0374260  18.9036977  60.0048447  19.4258857  30.5158806  87.1101475
  19.5004964  31.4577055  87.2638607  19.2822015  30.4377723  86.1670208
  18.3759332  15.1239300  88.6921787  19.1683495  14.6257281  88.8924408
  17.6726675  14.6392024  89.1242599   5.8117205  42.3125744  73.9409304
   6.6846067  41.9198990  73.9305258   5.8562112  42.9770994  74.6284294
  13.2659090  24.1659999  83.9668560  12.9485416  24.5020437  84.8050594
  13.4663808  23.2458377  84.1381550  25.2407718  20.1676345  87.1503448
  25.4722500  20.9177470  86.6026402  25.6737900  19.4232523  86.7324638
  23.0020976  30.4192185  92.8930664  23.1755400  30.5309534  91.9583607
  23.0880904  31.2993097  93.2595062 104.9705315  32.5393295  54.2559147
 104.8556328  31.9320607  53.5249901 105.5245876  33.2359123  53.9037418
   8.0528784  62.7104664  80.7600498   7.8318399  63.4079075  80.1428413
   8.0775326  63.1443214  81.6129208  15.0743842  43.4420633  74.2366409
  15.9737802  43.5465431  73.9261532  15.1643085  43.0368137  75.0991488
  13.8976431  49.2168283  93.7736130  14.4749880  49.9092913  93.4520531
  13.2211578  49.1374636  93.1010818  25.0833583  35.7173920  71.9660187
  25.8678508  35.2394819  72.2351074  25.2805233  36.0220408  71.0802746
  15.4511547  42.2186852  47.3050070  15.4796541  41.8285227  48.1786156
  14.6141136  42.6821566  47.2768736   8.6333448  40.7934189  73.9946365
   9.2344064  40.6405449  73.2655382   8.7909800  40.0625324  74.5922852
  24.6035552  54.3214655  92.1316242  23.8750839  53.8360548  92.5188446
  24.9609852  53.7294292  91.4698315  25.5766535  34.3255687  88.0951023
  25.8185363  34.2641330  87.1710110  24.7908068  34.8720503  88.1011677
  15.6079316  26.2854791  70.8970690  15.9116304  26.6973209  70.0881290
  14.6793211  26.5121818  70.9472704  18.8795543  68.0366516  81.7354393
  19.2932081  68.1752682  80.8834362  19.0515518  68.8443613  82.2194386
  84.4285297  95.9827137  15.3960907  83.5217762  95.7438850  15.5884397
  84.4547272  96.0762596  14.4438326  49.0199912 107.9901687   0.4285738
  48.8079286 108.7412778   0.9827348  48.5993964 108.1842128  -0.4090861
  -0.1950666  25.5045271  74.6413469   0.7349185  25.6838679  74.7799253
  -0.2824518  24.5632362  74.7915745  -0.1255968  39.8234868  68.7386894
   0.1918376  39.8391867  69.6415854   0.0203347  38.9228845  68.4491253
  27.4584508  58.0651188  58.7302923  26.7043853  58.2647038  59.2850780
  27.1812558  58.3174038  57.8495264 108.9976406  18.4778810  81.3110065
 108.7972927  17.7161324  81.8549061 108.9793587  19.2173970  81.9184685
  25.4260111  45.4751110  83.1891918  24.9955869  45.4490471  84.0437603
  25.0340247  44.7507954  82.7013969  93.3762741  51.1532879  62.5874376
  92.7331066  51.5692663  62.0133924  92.9106903  50.4092026  62.9692698
  25.0876307  35.2818775  82.9226017  25.5541229  35.4301620  82.1000195
  24.2745471  34.8490858  82.6621819  99.6499062   1.5765260  57.3139524
 100.1013088   1.3069770  58.1138325  99.3233681   2.4551958  57.5077152
 108.5715866  48.0050850  69.4829226 107.8422165  47.9630089  70.1013660
 109.1543484  48.6725998  69.8449183  24.2030072  41.1921310  79.4587708
  24.9620271  41.5311956  79.9332762  23.6260462  40.8511305  80.1421833
   2.2855432  57.3381519  81.6155624   3.0132776  57.6414633  81.0727596
   2.4327788  56.3970089  81.7094326  44.2894125 100.8984280   1.4604449
  44.6693516 100.9006786   2.3390073  45.0004530 101.1928177   0.8912456
 112.5744915  32.8811431  84.4393063 111.7141628  32.4703479  84.3538284
 113.0439663  32.3263860  85.0622559   0.9600662  44.3056822  75.3360319
   0.4699265  43.9017391  74.6199131   1.4964224  44.9751997  74.9114132
  25.4434943  18.7060332  51.3491154  24.7869682  18.4139800  50.7167292
  26.2782216  18.6051607  50.8916378   8.9261895  42.0895767  59.9855661
   8.4389305  41.8124580  60.7614613   9.3988329  41.3052797  59.7067833
 103.1954765  52.8525591  72.6238346 102.3763275  52.3813248  72.4716520
 103.8252258  52.4338818  72.0370150   1.1902716  49.7394753  73.7272453
   1.0733932  49.3205833  72.8745413   2.1345815  49.7102165  73.8810444
  61.5826750 106.8570137   7.6806849  61.1967468 106.4698696   8.4664422
  61.2627459 106.3108158   6.9626701   8.9908743  55.1547813  62.4205351
   9.1459775  54.7390604  61.5723896   9.8665100  55.3156281  62.7721357
   1.0635412  10.7838440  59.8948956   2.0085479  10.9305501  59.9357748
   0.7156932  11.5759408  59.4852400  19.9250281  59.9895525  57.4500465
  19.1345894  60.5282640  57.4150085  19.7020197  59.2042589  56.9502306
  14.8167551  34.6129179  81.3859558  14.0485930  34.6142220  81.9570541
  15.3251457  33.8532782  81.6700649  12.8244221  35.0454640  59.6756840
  13.5687482  34.9403811  60.2682781  12.9892910  35.8758235  59.2289734
  16.8306708  36.0375452  68.6106062  16.1105931  36.6146588  68.3563280
  16.6612399  35.2214861  68.1398869  18.6125970  27.6624823  61.8591690
  17.7488875  27.9621506  62.1427870  18.6883938  27.9706073  60.9560919
 109.5344734  41.5316296  85.9399223 110.2738285  42.0732212  85.6637669
 109.8334122  41.1114073  86.7463207  48.1527519  17.7241313  72.2418880
  48.5453272  18.0700636  73.0434132  47.3678637  18.2560861  72.1106958
  13.4861159  24.1022682  76.1516857  12.9917395  23.9475846  75.3467655
  12.8224766  24.3444157  76.7975807  55.5970812  85.4299927  11.7765558
  55.7366943  84.6136379  11.2966466  55.9701681  86.1067104  11.2116778
 112.2178650  21.3393116  88.0795288 112.3124409  20.4195857  87.8317642
 111.9558430  21.7794704  87.2709274   7.8434896  25.5417347  50.4838800
   8.7169242  25.7100010  50.1302814   7.9910338  25.3663325  51.4132309
  34.7082996  82.0043182   7.1579498  35.0088525  81.5939999   6.3470626
  33.8569021  82.3805237   6.9347429  11.5488374  14.3816352  63.4990931
  11.3825881  13.6514223  64.0952301  11.0654879  15.1154983  63.8786316
  19.3984509  37.1723199  58.3087587  18.4997749  37.4331498  58.5102081
  19.3495655  36.8072939  57.4252415 119.2669244  60.4415035  42.0523930
 118.5720896  60.9127951  41.5926933 119.2400853  60.7861280  42.9449987
  31.9297123  29.4827175  94.7858143  31.9025898  28.7416983  95.3911114
  31.0394382  29.5415020  94.4391251  26.6865015  26.4878058  60.7237816
  27.3717308  25.9562206  61.1288881  25.8871078  25.9731030  60.8346128
  11.2730789  62.6927519  56.1759758  10.4825497  63.1765890  56.4151335
  11.0420036  62.2431469  55.3631496  15.3579187  26.5112424  61.0458469
  15.0564814  25.9944391  60.2986670  15.0800538  27.4052525  60.8464241
   7.8486758  22.0485926  64.8906803   7.8418320  22.1273971  65.8446074
   8.7770832  22.0217323  64.6592283   4.2009801  38.7217236  50.4913425
   5.0471461  38.2814837  50.5714941   4.4193414  39.6520019  50.4353762
  25.5773759  43.0382013  67.6036310  25.9841490  43.8320541  67.9508543
  24.9029326  43.3572626  67.0040035 117.4126530  17.6935625  71.4743996
 117.4152565  16.7366540  71.4978695 117.1263218  17.9538441  72.3498964
  27.6968670  23.9740705  68.8285065  28.1051850  23.5426426  68.0779219
  26.7568517  23.8616967  68.6871719  13.2186604  36.5232635  69.6862650
  12.5373495  37.1336699  69.9681377  13.1809318  35.8108616  70.3244591
   9.3778598  35.0953436  81.9948864   8.8475710  34.5762897  81.3902283
   8.8792884  35.9031391  82.1178627  13.0924094  15.0065577  55.0269604
  13.6438298  15.7453203  55.2846384  12.4651194  14.9143207  55.7440615
  20.8668923  39.2796326  88.4854412  20.2048230  39.7194457  89.0187836
  20.4295874  38.4918308  88.1623840  16.8248999  44.1449404  58.3050394
  15.9969974  44.5672941  58.0760717  17.4450374  44.4616747  57.6482773
 115.2690887  35.7825780  89.6597385 114.8806858  35.4930019  88.8341904
 116.0686302  36.2406182  89.4006062  23.0754852  52.1951580  65.2165651
  22.8354239  51.2839937  65.0481033  22.2405624  52.6395226  65.3638029
 117.4308681  37.8266168  70.8560753 117.3721123  37.6084995  69.9259138
 118.3243084  38.1506515  70.9701252   9.2376524  28.5599828  77.6863194
  10.1700461  28.3441472  77.6693153   8.9696223  28.3931303  78.5899544
 115.5512524  20.8012366  86.7919159 115.4277611  21.4097714  86.0634422
 115.8752155  21.3475227  87.5080585  10.0472581  24.4007468  55.4138613
   9.6382505  24.8367095  56.1614418  10.3861725  23.5799885  55.7712507
   4.3946341  52.3385668  79.1397285   3.4763116  52.2990084  78.8726139
   4.8851937  52.2837925  78.3196163   8.1695700  46.1902285  66.1061144
   8.7198627  46.7113066  66.6908264   8.6500132  46.1716413  65.2784300
 116.8126297  26.1801267  94.3336582 117.5175476  26.7024922  93.9509487
 117.1562386  25.8988023  95.1816082 108.0423164   1.2091970   3.0463642
 108.1039238   2.1632275   3.0939278 107.2695541   0.9927776   3.5681254
  20.1536489  45.6853724  79.7022152  19.3289471  45.2311707  79.5295954
  20.8263063  45.0156116  79.5789719  19.8237920  59.5224571  44.2329884
  19.6402335  58.6747837  44.6379423  19.3497336  60.1540041  44.7739601
  32.9556513  30.2140594  48.7088108  33.4553885  30.3581643  49.5123863
  32.9774213  29.2658114  48.5800219  25.7940555  33.3316326  62.8611040
  25.3687763  34.1299224  63.1743145  26.6529226  33.3361959  63.2836628
 115.1168823  38.1163311  91.4856052 115.2334213  37.4080539  90.8523655
 114.1783619  38.1173420  91.6737938  26.1967874  40.4521561  68.2898378
  27.1253753  40.5454588  68.0771160  25.8330679  41.3286114  68.1643009
 108.9932632  48.6433029  74.9723816 108.9094448  47.6897812  74.9724054
 109.8220062  48.8109016  75.4210854  80.9674168 108.9074612  15.5689418
  80.1164341 109.0204144  15.1455009  81.1128902 109.7294903  16.0372829
  24.2975044  38.5362363  81.4357662  24.6715856  37.6610327  81.3341999
  23.7267184  38.6425281  80.6747532  25.8506346  51.0435247  54.5592737
  25.6359315  50.8567286  53.6453581  25.1793909  50.5822039  55.0621128
  12.3474932  52.7914000  71.1311722  11.7079771  52.8469849  71.8412161
  12.1357739  53.5296154  70.5598116  33.7393379  37.7022338  88.1923962
  33.1196165  38.3143878  88.5891914  34.0914106  38.1735682  87.4373341
   2.3570535  35.0822687  78.5735130   1.9179395  35.8993673  78.3373785
   1.6671260  34.4198728  78.5352898  56.6142607  94.4910240   1.9552974
  56.4543486  93.6397839   2.3628013  56.2900162  95.1266861   2.5932884
  25.7055521  64.9584675  67.8998232  25.3879261  64.2504358  67.3394394
  25.8667636  64.5404625  68.7457037 103.2016087  32.6683831  73.0123711
 103.0665398  33.6150527  73.0548286 103.7863064  32.4767447  73.7456131
  31.2271738  23.7915373  79.5192432  31.8980384  23.8524389  80.1992893
  31.7145228  23.5964918  78.7188148   1.8296412  24.6526718  56.8519258
   2.1251866  23.8533688  56.4160395   0.8782935  24.6452260  56.7465019
  19.4191730  33.3709455  87.1438694  18.8677931  33.5361147  86.3790607
  20.2987027  33.6250520  86.8644238  14.7123933  27.6585579  37.9027057
  14.6256769  27.0971870  38.6731458  15.4089952  28.2737732  38.1318092
  56.8702364  73.5339403   5.8865488  57.1341705  73.5578156   4.9667656
  57.2245121  74.3416691   6.2584329 107.2329617  54.4056845  59.5089102
 107.8334713  54.9087524  60.0589466 107.5782490  53.5132122  59.5313978
  20.3816986  50.6748819  66.2610006  21.0381579  50.0380659  66.5434122
  19.5430851  50.2602959  66.4636803  28.5441136  34.0158129  84.6721077
  28.8018250  33.6629272  83.8204670  29.1949415  34.6927047  84.8577690
   9.0947300  43.7182140  81.5295124   9.3894273  44.6003342  81.3031292
   9.3394846  43.1828499  80.7747173  30.0333214  46.8053246  43.8159132
  29.4515014  47.5154591  43.5449409  29.7933650  46.6333246  44.7264481
  18.8405514  45.8630133  59.5194912  19.4439340  45.4973221  58.8726282
  18.1723046  45.1870966  59.6326971  18.4389997  39.5392108  93.5089779
  18.0166233  40.1357031  94.1270638  17.8128219  38.8233352  93.4010220
  -0.0358076  53.3567619  80.5644417   0.7817370  53.0862570  80.9823895
  -0.3138853  54.1277695  81.0588646 109.8905754  38.8442183  94.6452332
 109.2785072  38.2501078  95.0795650 109.8730087  39.6385050  95.1791191
  15.9729683  66.7447090  64.5272398  15.7174587  67.6517916  64.3594646
  15.7988930  66.2904501  63.7028742   8.2694668  17.2293806  69.0214872
   8.4084684  18.1689191  69.1405582   9.1323084  16.8398035  69.1627884
 104.2838764   9.7947979  50.2882147 103.5293961  10.3834200  50.3110075
 104.4375134   9.5667255  51.2050629   6.1817151  30.7183433  69.1439199
   6.3103837  30.8022928  68.1991291   5.8650804  29.8230338  69.2639017
  34.2883468  76.9643784   2.6836425  34.7848487  76.8388653   3.4923229
  33.3818078  77.0682287   2.9728436  96.9649696  46.8196487  83.4882164
  96.7661858  46.9795084  82.5656319  97.8713226  46.5118170  83.4880829
  30.6601405  88.8348866   2.0144069  30.3161383  88.4941578   2.8401175
  31.6059279  88.8869762   2.1522777   5.0744921  60.8394527  87.6303673
   4.9993688  61.4657164  88.3503532   5.8125627  61.1587667  87.1112061
   1.4515123  33.5275602  81.5205288   1.8870245  32.7603769  81.1490631
   0.8971138  33.8546920  80.8121109  23.7736511  37.7637076  60.3005648
  24.5062327  37.1554017  60.2029848  23.1578684  37.5092483  59.6133327
  21.8131661  34.6440554  86.4057159  21.6071749  35.1308608  85.6077003
  22.2816920  35.2722883  86.9552994  12.7161872  43.0976677  73.2945585
  13.4438586  43.5101509  73.7599421  12.8349757  43.3616877  72.3821878
   0.6758316  48.2356024  77.5187349   1.5149629  47.8300142  77.7368879
   0.6639122  49.0482092  78.0244541  25.0261855  56.5764380  53.2482433
  25.3124595  56.6570759  54.1580677  24.1602874  56.1723518  53.3045292
  34.3969393  11.2409759  80.4469872  33.5560441  11.6033316  80.1680183
  34.3382931  11.2072670  81.4017963   9.0632969  59.9842215  62.2755337
   8.3685911  60.6349373  62.3764706   8.6117750  59.1418028  62.3274136
  12.6304054  18.6257052  63.5544920  13.5575712  18.3896482  63.5249472
  12.4107552  18.6175883  64.4861126  26.2015176  85.4645061  25.5660582
  26.8449330  85.8476925  26.1622286  26.6029119  84.6459198  25.2744436
  15.7241011  39.2845535  78.0926371  15.2395654  38.9969802  77.3188448
  15.7175708  38.5251093  78.6752462  19.9906385  42.4284267  89.2360497
  19.5719206  41.8490314  89.8726082  20.8757854  42.5583935  89.5764256
   3.3858263  53.4096241  62.1257877   3.1589612  52.6529408  61.5852356
   2.5984606  53.5791636  62.6430321   3.4251943  51.3080168  86.4121819
   2.4735421  51.4108038  86.4172173   3.6999428  51.5784168  87.2883224
  30.9254146  77.4080944   7.5999528  31.5077448  76.6571760   7.4848843
  30.8258605  77.7710629   6.7198527 101.5252876  16.7521489  77.0479298
 101.0628128  16.4844978  77.8421021 101.5551472  17.7075386  77.0986271
   4.2522007  33.4211302  66.6327143   4.9381718  33.5906219  67.2784281
   3.7686634  32.6749682  66.9872046   4.0547135  38.7122250  63.4536314
   3.3283970  38.6410236  62.8342581   4.8232475  38.4360909  62.9542971
   8.1941110  30.8668518  76.4631891   8.1570804  30.5566978  75.5583858
   8.5614735  30.1314878  76.9536114   3.8874841  74.4877720  57.3029041
   4.7773749  74.2070580  57.0895386   3.9922637  75.3745270  57.6477480
  76.1996794   1.1237520   0.9020519  76.0943174   1.4796427   1.7843631
  76.6057444   0.2673834   1.0361267  18.1060910  48.8825417  63.7296724
  18.0497611  48.1702137  63.0927706  17.8171968  48.4904528  64.5537090
  10.9031856  49.2369938  62.2120380  11.6602218  48.7139845  61.9482374
  11.2544560  50.1177216  62.3430252   1.9586790  53.0884695  73.6833715
   2.5848010  52.9667807  74.3970919   1.8557934  54.0376091  73.6142349
  17.7252162  57.3246002  82.4261189  18.2260776  56.9942427  81.6803074
  18.1892693  56.9898129  83.1934452  30.2179027  49.6714687  85.2118969
  30.8777571  49.2076969  84.6963978  29.4865680  49.0569735  85.2733326
  17.5819850  66.7212105  93.9323902  18.3191037  67.2414064  94.2522144
  17.4567747  67.0130730  93.0294132  45.0359011  89.6188831   1.4727204
  45.1997757  88.7853718   1.9138905  45.1122046  89.4155216   0.5404904
 116.7106628  30.0032234  74.1194010 117.1243191  29.6583462  74.9107170
 116.8195152  30.9518647  74.1862249  50.6386805  82.6233387  12.9200923
  50.3338385  83.4899044  12.6510882  51.5906191  82.7095318  12.9712355
  28.6389613  31.2570643  59.5640087  28.3265400  30.3557038  59.6425676
  29.5666957  31.2099767  59.7949266  11.2239683  20.1065755  84.4732189
  11.4880836  19.2031598  84.6473312  11.6126096  20.6116199  85.1874447
   2.6207957  14.5873332  96.4034748   2.2689003  15.3651738  96.8363285
   1.8864572  13.9738226  96.3793182  34.1312170  70.9957409   3.5463077
  34.6146631  70.5536938   4.2442384  33.5039806  70.3416920   3.2380459
 115.8174515  35.3528857  42.3449898 115.4658985  34.7570133  43.0064821
 115.7959270  36.2139201  42.7625895   9.2844856  21.2962317  72.9540205
   9.1164511  22.1343255  73.3848286   8.7093842  20.6766033  73.4029627
  41.7896891  83.5930443   3.9581960  41.9173145  84.5281887   3.7986934
  40.9369707  83.5378265   4.3895391  20.0067544  36.5904784  52.1542072
  20.8426571  37.0559311  52.1833849  20.1911306  35.7984567  51.6492891
  20.6911421  35.7268071  64.0522575  19.7503161  35.9018421  64.0733099
  21.0417604  36.2117434  64.7993422   7.5367206  21.8832397  94.3509007
   7.7296275  21.2025738  94.9956608   7.4171489  22.6782608  94.8703957
  15.4973125  55.3559399  56.4566374  14.8808122  55.0928307  55.7733107
  15.2086627  56.2310696  56.7156076  11.3110912  16.9901872  69.2332220
  11.8659103  17.6612186  68.8355732  11.9270027  16.3767850  69.6339989
  15.9854925  42.5082684  79.8008776  16.6228950  41.9634247  79.3392515
  15.9644902  42.1519709  80.6890488  17.2630370  25.7901430  51.3059568
  17.4524665  26.6068149  50.8440113  17.7818060  25.1294827  50.8470011
  13.9147282  30.1980686  81.1991978  13.2352591  30.4794860  81.8118572
  13.4357858  29.9453926  80.4098892  17.4561667   8.5685408  81.6766453
  16.9264078   7.7903146  81.8497086  16.9996715   9.2753649  82.1329784
  16.5056729  35.9484839  73.1938696  15.5550754  36.0125685  73.1017351
  16.8504286  36.5860128  72.5686264   9.5901978   7.9110903  74.4361258
  10.3934801   7.4488294  74.6754646   9.0984017   7.9762852  75.2547312
  23.6710310  67.5143862  58.6796427  24.4317675  67.4036694  59.2499495
  23.5686064  66.6654539  58.2494640  23.9917922  15.8266962  91.8329811
  24.3656611  16.7066872  91.7875004  23.0556059  15.9560668  91.6811562
 115.3637791  36.8969059  52.6353407 115.2382183  37.8396153  52.7437878
 116.3111496  36.7731762  52.6937294  10.5304277  37.4336362  63.1956768
  11.4540780  37.2079396  63.0853987  10.2972901  37.0765948  64.0526485
   7.2484499  27.1722960  76.3741922   7.9870462  26.5636659  76.3575840
   7.5573295  27.9094410  76.9009209 105.1833439  41.6941261  65.1169586
 104.5329285  41.9030571  64.4464827 104.6724987  41.3357019  65.8427668
  49.5174551  94.3519592   1.1880420  48.7184429  93.8300037   1.1147495
  49.7266626  94.5974827   0.2868306  34.9464083  23.1287456  48.4703970
  34.7548342  22.5843334  49.2340374  34.6784472  22.5949574  47.7224016
  13.4919345  48.3884525  75.9855938  13.9387870  47.5824547  75.7268953
  12.5954616  48.1139612  76.1785221  10.7405126   4.4953310  77.5500393
   9.8330951   4.7356617  77.7372980  11.2573421   5.0094265  78.1703806
  33.2203364  16.6403532  78.5788012  33.4923673  16.9767904  79.4326401
  32.5817442  17.2791731  78.2620335  10.4037023  33.9704990  58.3558750
   9.7049189  34.6236062  58.3186817  11.2034440  34.4820952  58.4779930
   2.6402685  18.2503963  72.0605469   2.8616831  18.7273967  72.8603411
   2.6144594  17.3319221  72.3288202 118.8142014  43.8693714  62.6085901
 118.1252861  43.2528210  62.8565741 119.1925049  44.1532326  63.4407759
  13.4080815  39.7767401  47.6267719  13.0247116  40.6522274  47.5740194
  12.9545677  39.2754507  46.9490814  11.8904150  37.2266436  67.4247360
  12.2740626  38.1035948  67.4245167  12.4523377  36.7195344  68.0106688
  29.3206930  34.1552639  14.4373167  29.0155387  33.8856506  15.3035855
  30.0256276  34.7779989  14.6148038  22.9953694  18.0502307  69.3144035
  22.1561861  18.1800377  68.8726425  22.8256416  17.3567998  69.9520397
  13.9343143  47.2370386  78.7164593  14.3599784  47.2150707  79.5735216
  14.6107244  47.5602913  78.1213045 110.4356861  30.4777265  77.9633999
 109.5461941  30.5072904  77.6110268 110.9681892  30.9278274  77.3075962
  29.0907502  17.2289908  53.2799673  28.6781096  16.4970386  52.8214884
  29.2543530  17.8783786  52.5960398   6.2054145  29.2286849  29.2240381
   6.1822265  29.2417598  30.1808667   5.4767305  28.6603522  28.9745402
  33.6854005  47.9807949  64.9290371  34.4464087  48.2300568  64.4046593
  32.9420304  48.3802557  64.4773006 118.2722950  61.6976833  80.8780670
 118.9735126  61.9401455  81.4828396 117.5314903  61.4817905  81.4444828
  23.7419033  46.4119291  73.8060427  23.8021183  47.2806740  74.2033958
  24.2086577  45.8378935  74.4133806  23.8416719  47.7530479  62.1022797
  24.5414472  47.3053837  62.5778294  23.7365842  48.5871267  62.5599909
   5.1992160  49.2728186  78.0920839   5.0975078  50.1470661  78.4683561
   6.0809493  49.0027332  78.3486652  39.0454245  28.7410021  88.2582855
  39.0891957  27.8233147  88.5269260  39.3665123  28.7421656  87.3565483
  19.3434036  33.6653423  62.1710110  19.0541184  34.2199516  61.4464712
  20.0822759  33.1719875  61.8147755  11.2648106  49.6205568  84.9807835
  10.7400799  48.8381195  85.1501369  10.6888819  50.1891804  84.4697094
 107.0554256  43.5512161  91.2221622 107.5646973  43.1013393  90.5480099
 106.4784145  44.1387844  90.7342434  26.2480402  31.7224336  47.2890377
  26.4479923  31.0669160  47.9572773  27.0973992  31.9394469  46.9046879
   1.8540049  22.7196455  85.4812527   0.9225857  22.8995085  85.3534222
   1.8860611  21.8011594  85.7488060  34.9442458  49.8937464  66.7461157
  34.4475245  49.3827486  66.1070681  35.6799364  50.2500772  66.2480974
   3.6056134  68.6872911  67.5755167   3.9493871  68.5876322  66.6877556
   2.6792628  68.8941860  67.4518204  30.2360010  57.7975988  65.4624367
  30.7657957  57.0262384  65.2610493  29.3713355  57.4457026  65.6739855
  96.7090416  54.5110607  79.7939968  96.1930656  54.8169565  79.0480518
  97.3367119  53.8958120  79.4148827  60.9068203  10.3843939  17.8575003
  60.9864902  11.3222003  17.6831377  61.7998028  10.1003766  18.0527997
  26.1462450  59.2309380  89.3949223  26.7527032  58.6172915  88.9803505
  25.9115100  58.8128567  90.2233791  19.5760500  58.8618088  59.9847317
  19.9348068  59.2514324  59.1874123  19.2305064  58.0148172  59.7028971
  36.4279246  63.4691238  87.0649529  36.9646287  63.9273548  87.7116394
  35.7400489  63.0475426  87.5800514  20.8953309  53.4781599  73.1768322
  20.7706308  52.6668215  73.6691856  21.2151289  54.1052103  73.8254976
   9.9086154  63.8771009  51.0704184  10.5764174  63.8529205  50.3850794
   9.4903874  63.0171585  51.0277510  45.9368563  66.1750269  82.8341103
  45.1959896  65.5911255  82.6716137  45.6001234  66.8225622  83.4534168
  12.1215928  61.1799908  65.9707642  12.0023847  61.7844534  66.7033291
  11.8740177  61.6880989  65.1982594  12.1978235  52.8142834  50.8861399
  12.5789869  51.9523239  51.0533905  12.5331724  53.0613327  50.0243187
  21.5246058  49.4571257  55.2594233  20.7372093  48.9512253  55.0586700
  22.1571636  49.1904879  54.5923376  27.9243827  40.9774303  58.1611300
  27.6872087  41.9016886  58.0855036  27.2709370  40.5185080  57.6332760
   1.7971678  32.1981359  55.9009600   2.3711400  31.4336538  55.8524466
   2.3905791  32.9471111  55.8449936  18.4084380  46.1961412  70.1500320
  18.1867719  45.5500984  69.4794130  18.6288202  46.9867229  69.6574402
  15.8308303  43.6560106  67.0996523  16.2921369  43.0433512  67.6724291
  15.3626966  43.0975151  66.4790344  99.4171047  51.6955900  67.3905897
  99.8442841  52.1664381  66.6750145  98.5238934  52.0394421  67.4040031
  19.9465454  51.4636803  63.4048319  19.3196535  50.8491516  63.0232620
  20.1039529  51.1281872  64.2873812 107.7718353  65.7501841  67.8107452
 108.3934879  66.4752150  67.8748322 107.2607994  65.8007479  68.6185265
  25.5017591  74.0952826  45.6022263  25.3251624  73.4779215  46.3120937
  25.1190639  74.9200821  45.9013748  18.5328019  70.5666637  67.8583145
  19.0445709  70.0357485  68.4685993  19.1878927  71.0303020  67.3366547
  14.2238009  37.6900864  76.3221598  13.6865520  38.2934499  75.8087873
  13.6178422  37.3135376  76.9603252  46.2442017  50.3165817  93.6606789
  45.5919313  50.8083487  94.1596222  45.7556915  49.9504280  92.9234409
  30.8933115  60.3133535  64.6041965  30.6692863  59.3976927  64.7703505
  31.8468690  60.3444815  64.6816254  24.8545527  56.1099005  84.7699261
  25.3980732  55.3459311  84.5771408  25.3253269  56.5694761  85.4651928
  11.6817236  25.9122729  72.1502686  12.3590434  25.9384060  72.8261280
  12.1661580  25.8309817  71.3287163  23.6792016  52.6891232  68.2233953
  23.4120679  52.2128344  67.4372530  22.8740406  53.0979109  68.5409546
  16.4709425  54.5117092  78.8893747  15.7585418  53.9388227  78.6056089
  17.1971858  54.2991400  78.3031845  14.7699118  32.2398472  58.7401056
  14.4725049  33.0478168  59.1583967  15.6631696  32.1183038  59.0618992
   5.4514599  44.8576593  84.7180367   5.9139514  44.1811895  84.2233372
   4.8456362  45.2445936  84.0859795   7.2667867  34.4276309  80.3606033
   6.5215707  35.0219107  80.2727604   7.5418776  34.2537522  79.4604254
   7.9197526  70.9034681  58.4818649   7.7723485  71.8348217  58.3172798
   7.4006629  70.7132435  59.2632723  13.9924204  58.2091904  59.9512339
  14.6529722  57.5541258  60.1766014  13.8343346  58.6810684  60.7688999
  14.7383606  55.8683157  66.3900995  15.4791188  56.3523531  66.7550898
  13.9959669  56.1148500  66.9417381   3.2123092  71.3054132  49.9252224
   4.0651321  70.8869171  50.0426388   3.4064397  72.1175385  49.4572496
  35.5590582  45.5787277  70.9700203  36.0777378  45.9514761  71.6829443
  34.6505404  45.7011461  71.2454128  27.3559737  64.8764563  49.5298958
  27.8439784  65.6837988  49.3677759  28.0289698  64.1990519  49.5964336
  32.0916128  56.5948582  69.0551567  31.8849206  55.8637905  69.6374369
  32.8652167  56.3047695  68.5718203   7.7874541  42.8840685  49.3293571
   6.8372160  42.7787209  49.3760490   8.0438828  42.3995113  48.5447025
 113.1926250  46.6606760  60.6765223 112.4878883  46.2235689  60.1984882
 113.7859535  46.9747639  59.9942160   5.2060306  38.8234162  74.8762226
   5.3560722  39.7101545  75.2039623   5.1525313  38.9251494  73.9259481
 112.5873756  25.9209299  75.0242805 111.7917728  25.8887625  74.4930410
 112.6620102  26.8378973  75.2885342  22.6719499  65.7296705  96.2180042
  23.3234215  65.5320978  96.8908978  22.6834393  64.9654341  95.6417751
  21.4299035  57.2921562  70.0916195  20.7282114  57.0075750  70.6771708
  22.1857619  56.7644739  70.3494072  11.7816257  63.9374447  89.7990322
  12.7200735  64.0974569  89.6993160  11.4610910  64.6922493  90.2927494
  35.7066941  98.0154800  10.5124342  35.3969598  98.0865955  11.4153397
  36.5420485  97.5532627  10.5814862  16.7037404  66.2585211  80.9972572
  17.2913766  66.9167948  81.3681889  16.1548769  65.9858799  81.7325497
  35.1618457  55.0842142  75.7059669  34.8802614  55.3516340  74.8310757
  36.0749221  54.8199368  75.5933571  18.1637895  11.1817741  68.2858658
  18.4961188  10.2999759  68.4538507  18.4277928  11.3696790  67.3851824
  11.8731213  43.1678200  79.0140295  11.0745525  43.5435677  78.6434412
  11.8294168  42.2393417  78.7854433  42.5218534  60.3636694  80.9550571
  42.7471113  59.4367743  80.8753300  42.8926516  60.6287241  81.7967796
  18.5060728  37.7095509  77.5096655  18.0934727  36.8901753  77.2364998
  17.9958522  37.9934001  78.2681751  40.3729439  62.0005655  69.8892021
  40.0606632  62.8687763  70.1440048  41.3251972  62.0901060  69.8514128
  16.3615537  40.3711367  74.9734402  16.4342666  41.1815929  75.4775238
  15.4805636  40.0488901  75.1638174  21.7398453  39.1042900  61.5572834
  22.0340347  40.0087833  61.6648626  22.5477457  38.5984778  61.4696312
  42.1665859  82.4253750  56.7343283  41.8924475  83.3281231  56.8959570
  42.3802090  82.0810223  57.6015186   9.4664681  43.4162712  57.7507830
   8.6475861  43.8967752  57.8723717   9.4593048  42.7524424  58.4403563
   5.7272494  39.6001339  40.3368902   5.8134437  38.6468410  40.3429365
   4.8114869  39.7563624  40.1062298   6.3102561  58.8010979  73.5128450
   7.1636999  59.0716314  73.8514853   6.5111768  58.1106424  72.8810740
  -0.0195135  46.0550308  89.4140816  -0.0074098  46.9732666  89.1440201
   0.8508367  45.9020758  89.7819519  10.0907445  50.4348230  56.5678215
  10.3937566  50.0194836  55.7604122  10.8457863  50.3963757  57.1549034
  75.6773996 105.7043362  10.3015351  76.5312481 105.6465340   9.8727739
  75.7066298 105.0345612  10.9847438  16.9532573  72.6900816  55.3077078
  16.1863017  72.8184462  55.8658600  16.9091678  73.4044123  54.6720886
  39.6217847  75.5297804  48.4498119  39.8544240  75.3499603  49.3607283
  38.6809158  75.3595734  48.4048176  25.4402375  58.3578634  71.6201162
  24.7369075  58.7613869  72.1287680  25.9199953  59.0970373  71.2463713
   0.0765271  20.7449174  90.1991463  -0.3102729  20.0396252  89.6803188
   1.0013539  20.5091119  90.2721024   9.2931348  24.5985270  71.5590477
  10.0818408  25.1327014  71.6530275   8.6407524  25.0363898  72.1057701
   4.9633819  34.8603606  42.3956633   5.3579152  35.4556274  41.7582989
   4.0235296  34.9119091  42.2217321 118.4610748  57.7730083  68.9149904
 118.4035683  56.8261814  69.0432215 119.2578411  57.8969049  68.3992052
  26.1446524  37.3870063  85.6671238  26.0616970  36.4334798  85.6553936
  25.4450679  37.6953888  85.0911808   7.2637755  67.7686405  85.0881195
   7.0205343  67.2042274  85.8219433   6.6872400  67.4954987  84.3745136
  23.3368587  65.7481337  48.1120205  22.4928236  65.3180408  48.2493496
  23.1539202  66.6795635  48.2353210  17.6874757  59.3995953  93.9592934
  16.7438138  59.2391968  93.9617634  17.8692508  59.7727776  94.8217964
  21.1406207  56.5887785  61.6202021  20.8740830  55.6938648  61.8307209
  20.9820628  56.6709709  60.6798124  10.1576853  29.4744158  55.6376934
  10.6248236  30.0880003  56.2047291  10.6704664  28.6674857  55.6841087
   5.2876192  67.8178835  43.0027580   5.3438348  68.7019205  43.3654642
   5.2937102  67.2438908  43.7687397  21.2768650  64.5585203  67.1000195
  21.6082883  65.1771116  67.7509689  21.8369460  64.6924210  66.3354206
   4.2392361  44.8045111  66.6434002   4.6506107  45.6621265  66.5361643
   4.4379330  44.5547152  67.5458145   4.9483341  60.5778456  74.8072624
   5.3898913  59.8053551  74.4543886   5.4172230  61.3183737  74.4225645
  56.9064903  65.6122684  83.1968975  56.2601089  64.9136448  83.0952168
  56.8703318  65.8386135  84.1262531  15.5600035  41.0135269  82.1533108
  16.0217857  41.3474131  82.9224014  14.6519983  41.2881231  82.2811985
  18.4376574  48.3958960  73.9697361  17.6967907  48.6030722  73.4001541
  18.9457190  47.7514505  73.4769964  29.8704529  63.0248785  58.6461306
  29.1801667  63.4837055  58.1673670  30.1310062  63.6361361  59.3351221
  42.4516821  47.1321058  77.1803713  41.9760752  47.8671169  76.7933464
  43.1172800  46.9083595  76.5298748  25.9053016  67.3746920  60.3140736
  26.8566608  67.3820543  60.4193926  25.5871129  66.8493176  61.0482216
   9.4960803  52.7561045  75.5131435   9.1550040  53.6434603  75.6249285
   9.9309230  52.5603294  76.3430929  84.0024471   7.5476217   2.1824740
  83.7291813   8.1070930   1.4554623  84.7003651   7.0039034   1.8170694
  33.0584335  62.4314499  42.3527956  32.6725841  62.7229500  41.5267324
  32.4291706  62.7042437  43.0205107  19.7745287  29.6755314  81.9126511
  20.4125881  28.9620590  81.9209671  19.6145380  29.8645592  82.8372574
  15.0409997  60.4360723  36.7654204  14.9219048  60.9834099  37.5416112
  14.3550766  59.7718811  36.8331671   6.5901279  49.6874857  59.4929934
   7.1343458  50.0579786  60.1878214   6.8866801  50.1273298  58.6962366
  14.3295419  56.6163731  63.7955284  14.6095967  56.1685848  64.5938301
  13.6626315  57.2365665  64.0901804   5.4696774  61.2741804  80.5624771
   6.1356241  61.9617224  80.5566597   5.4171413  60.9993601  81.4778709
  25.5943584  55.0631666  66.2339258  24.9315405  54.7099924  66.8273687
  25.1671839  55.8104563  65.8152246   6.3841861  39.1389918  57.4987364
   5.4925817  38.8516927  57.3019266   6.3551855  39.3955827  58.4204483
 113.1390858  28.7395167  74.7479391 113.8741589  29.0034795  75.3013134
 113.3140945  29.1544056  73.9032650  11.6278982  57.1476889  79.2936897
  10.8238459  57.6624203  79.3628502  11.7051005  56.7090416  80.1409531
  19.6563447  44.1927481  84.5588684  18.9666808  44.8087358  84.3115711
  19.7911525  44.3468714  85.4939079 111.6559982  31.5307856   6.3657826
 112.6094055  31.5013027   6.2859404 111.4941120  31.5172482   7.3090965
  21.9850373  65.6247187  72.4161768  22.5414824  65.5460882  73.1910419
  22.5960302  65.6055689  71.6795969  19.2009640  23.1106639  79.2047548
  18.3013511  23.3286142  79.4485283  19.2922449  23.4368730  78.3094978
   3.2772973  48.6629534  85.9071255   3.5145801  49.5780087  85.7567692
   3.4192291  48.5296011  86.8443012  23.4405565  40.8435726  51.4405394
  24.3970823  40.8114576  51.4243364  23.2342482  41.7680883  51.5781593
   9.9188566  32.9449344  76.5491390   9.3376660  32.2344112  76.2778330
  10.2234066  32.6863456  77.4189758  49.2147446  61.9572926  72.2342682
  49.7993898  61.8954659  72.9896498  49.7672033  61.7346764  71.4849615
  25.1054120  58.6484909  39.3797040  25.2898431  57.8480005  39.8710632
  24.5109749  58.3702517  38.6829543  23.3343697  42.9060268  69.2000198
  24.1001081  43.0628586  68.6474991  22.7332592  43.6190081  68.9842558
  18.1002104  30.4048085  64.3419600  17.5704551  30.2037001  63.5705042
  17.5361896  30.1855469  65.0836086  11.3638246  66.9157457  66.9280863
  11.9612110  66.9334269  67.6757812  11.3549125  67.8175354  66.6072607
  74.3033314 110.1523972   2.7221295  74.8751354 109.3928623   2.6108390
  74.8322630 110.7803345   3.2142204  37.7139878  77.0080042  71.1001110
  37.5806856  77.8751802  70.7174015  36.8306923  76.6911316  71.2888145
   4.1421381  39.1479158  79.5115995   3.2248631  39.1198421  79.2394781
   4.6168765  38.7221408  78.7977552  60.3907108  87.3884296  13.0543232
  60.9066439  88.1933308  13.0074954  60.1122189  87.3353004  13.9685714
  24.7920036  44.1026068  89.6670437  24.8628426  44.0098381  90.6170940
  24.3014455  43.3298969  89.3868542  17.8699052  40.5640364  62.0104599
  17.2130036  40.9497738  61.4308739  18.4225929  41.3011408  62.2701693
  11.3865280  82.8361034  47.9085016  11.8588829  82.4079990  48.6225271
  11.9817293  83.5213566  47.6045275   6.9100177  51.9040632  74.4688559
   6.6465849  50.9838343  74.4650984   7.7204257  51.9232798  73.9598322
   6.3749486  37.0058513  85.1862812   7.3023844  37.0760870  84.9600887
   5.9828293  37.8079391  84.8411274   7.5482410  59.6989536  66.2921000
   7.8853071  60.4825878  66.7263079   8.3123696  59.3169498  65.8603430
  22.4320889  39.0901256  74.6509886  22.5681496  39.1586804  75.5959845
  22.8079009  38.2417774  74.4158173  15.5915141  47.5981092  80.8694935
  15.7028425  46.9781685  81.5902710  16.4762342  47.7311516  80.5291939
   1.0360624  37.2137094  68.5014820   0.9171912  36.4229369  67.9753828
   1.6916679  36.9702625  69.1550493  29.1372609  66.8465281  49.1199303
  29.3539357  67.7772570  49.0649509  29.9829435  66.4005756  49.0732622
  15.8040142  64.2197609  66.4755201  16.6256583  64.5454025  66.1079693
  16.0702038  63.5290241  67.0823574 115.1976490  16.7021132  89.1788483
 115.6743050  16.9361377  89.9752617 114.2763615  16.8303251  89.4047070
   0.6848120  44.0345526  41.0824251  -0.1790190  43.7169600  41.3454151
   0.5191875  44.9028826  40.7152748  29.5276284  59.4017982  44.8090363
  30.2629924  59.8433876  44.3842173  28.9629793  59.1276836  44.0863562
  19.5469892  31.1761999  84.4146442  19.1432655  32.0351219  84.5391178
  20.2480960  31.3305783  83.7815189  17.0504665  44.6831274  78.4826708
  16.9368100  45.5553150  78.8603067  16.3731134  44.1511679  78.9003325
  17.8338337  41.2019539  77.8961515  18.3907294  40.8247805  77.2150946
  17.0282412  40.6862783  77.8596354  59.5259714 101.3612461   2.9185656
  59.4718170 101.9670677   3.6576691  60.4076862 101.4887238   2.5684875
   0.3536443  64.8989916  88.1062603   1.0886625  64.8889542  88.7193489
   0.0237582  65.7968187  88.1425095 117.1173573  28.7195110  65.0232983
 118.0322933  28.9999652  65.0018835 116.8646622  28.7966681  65.9433126
  20.9696507  72.5529909  70.2826881  20.6716943  73.3864117  70.6472015
  20.1720452  72.1343231  69.9590063  39.5297861  61.0446072  74.8183775
  39.4021559  60.2020121  74.3825150  38.6433244  61.3596201  74.9949646
  15.3546262  62.5917435  81.4427471  14.9432039  62.9051876  82.2481728
  14.6725214  62.0788383  81.0092831  34.2367864  51.0475397  91.8013763
  33.5325766  51.4997339  92.2659588  34.0787697  50.1190424  91.9721127
  28.6806369  50.9599638  81.4354897  29.1785216  51.5967560  81.9481659
  27.7730370  51.2570095  81.5007591  18.9453793  57.8968048  62.9220724
  19.5600724  57.8224611  62.1921015  18.5222411  57.0393944  62.9671431
  96.4507866  55.6955385  68.3672714  96.9331455  56.3688087  68.8471413
  96.7756748  55.7622290  67.4693680  10.1449502  44.8501730  77.7237225
  10.3581607  45.7782602  77.6266575  10.2916706  44.4784737  76.8539286
  29.5231485  55.0854921  45.8361530  29.7943568  55.1612091  44.9213076
  30.2077794  55.5396748  46.3273048  33.1351447  52.4289083  80.1199627
  33.3440328  52.7828503  79.2554903  33.1185246  51.4803410  79.9927807
  30.3795481  50.6457615  78.7335539  30.0320888  51.3582182  78.1969786
  30.1103258  50.8645582  79.6256733  29.2044997  54.5320797  68.3411646
  28.9090300  55.3691959  67.9831648  29.8490071  54.2150974  67.7084255
  31.9370842  62.3505402  80.4669476  31.9147992  63.2726717  80.7227039
  32.5033879  61.9352102  81.1173630   8.6386985  56.5006304  68.9013290
   9.1564316  56.3655329  69.6950102   9.2393649  56.9329071  68.2942295
  57.4165249 104.8524570   7.0920789  56.8734217 105.5772495   6.7823243
  58.2955647 105.2247715   7.1621287  29.0144944  60.1899147  92.6520443
  29.0825915  59.2858601  92.9590797  28.3540726  60.1586866  91.9598675
  40.3949118  54.9669504  74.4502592  41.2170124  54.8926592  74.9348783
  40.6174231  54.6990871  73.5586500  30.8488941  54.8832607  75.0452757
  30.7041502  55.8252478  74.9561834  30.6442118  54.6950579  75.9611988
   8.2369637  81.2095070  82.3569775   9.1100103  81.2627602  82.7458000
   7.6403892  81.4008617  83.0806541  26.3874125  44.2710352  58.2102203
  26.7946649  45.1320934  58.1155968  25.6957221  44.4031715  58.8585520
  12.7829909  45.2395153  58.5876894  13.4341180  44.9940014  57.9304266
  12.5228739  44.4101572  58.9886093  15.1547253  36.7423582  54.7138119
  15.6875408  35.9863591  54.9604034  14.3884993  36.6919947  55.2852964
  13.2618546  55.3625917  54.7241354  12.6334846  55.8543730  55.2528477
  13.1452179  55.7015657  53.8365984  27.7960920  52.4914646  87.7037621
  26.8432856  52.4003315  87.6943684  28.0601048  52.3404121  86.7961788
  40.7464933  54.0318918  71.8565559  40.2654028  53.2708740  71.5315437
  41.2485409  54.3382931  71.1013746  37.0340729  50.4081059  75.8816576
  37.0352316  51.1154318  75.2367401  37.3354506  49.6404505  75.3957510
  30.1279831  66.8155479  58.8020802  30.8166718  67.4113798  59.0969038
  29.3358684  67.3527765  58.7890530  31.7357540  48.8581371  53.1621122
  31.6137576  49.7182417  53.5640764  30.8521461  48.5776138  52.9238367
  38.2014322  48.5919476  74.1719341  38.7578940  48.6153936  73.3934498
  37.4081373  48.1391668  73.8857412  41.8831539  48.6805916  73.0319643
  40.9450674  48.6115551  72.8545761  42.0510721  49.6221828  73.0699205
  32.3228693  94.6259308  75.9005928  31.8155766  94.9381256  75.1513100
  31.9513631  93.7666130  76.1000490  19.7704673  45.4068804  43.3507109
  19.7471738  44.9284506  42.5219822  20.6997013  45.5806446  43.5009193
  44.9805307  54.7813940  71.0336781  45.4150200  55.2841949  70.3447342
  45.6263542  54.7331476  71.7385292 118.8050938  42.9640245  73.1813765
 118.0896378  42.7007627  72.6025534 119.5595360  42.4618912  72.8733015
 117.1890640  25.9033680  59.9378824 117.0445633  24.9631453  59.8314190
 118.0528259  26.0577655  59.5553732  32.9687262  45.8793640  72.1654081
  32.9155874  46.8330097  72.1023750  32.0567322  45.5889130  72.1770763
   9.7364229  58.3875179  71.5786505   9.0740788  58.5324430  70.9029818
   9.2850256  58.5772038  72.4011421  20.8840919  53.6615086  65.8546305
  20.0043249  53.3036757  65.7354832  20.7392645  54.5493793  66.1816549
  69.2896700  96.9044113   4.6891794  69.9275494  96.1909103   4.6733230
  69.1540289  97.0837879   5.6195867   5.6101424  43.2387161  78.5340309
   5.7993835  43.6465883  79.3790531   4.7642815  43.6046696  78.2755136
 105.2970600   7.0386219   8.6688089 105.6233025   7.5447416   9.4128817
 105.7941723   6.2211764   8.6987650  12.0234227  64.1655540  66.3161945
  11.5532267  63.8061237  67.0684958  11.8074298  65.0980520  66.3219786
  36.3555312  62.6922178  60.6062365  35.5289507  62.2569704  60.3975344
  36.8979788  62.5617409  59.8284483  30.9525323  87.1922016  60.1837349
  30.1539993  87.6311016  59.8905754  30.7004952  86.7543316  60.9967422
  36.5493250  50.9769535  65.0304461  36.3482738  51.9040632  64.9028826
  36.4746189  50.5932474  64.1567039  26.4616323  58.8613987  76.6369152
  25.9415555  58.0994368  76.8921804  25.9055305  59.6119022  76.8460226
   8.2962006  72.7058935  79.1059637   8.6701488  73.3674717  78.5239744
   7.4992889  72.4180555  78.6606407  40.2415514  57.6884842  58.5404253
  40.4970741  58.5257578  58.9276123  39.3569946  57.5317812  58.8709354
  13.3475316  50.7991695  43.3548450  13.8693464  50.9471035  42.5661373
  13.1119657  49.8722267  43.3158064  10.5151594  57.5453806  67.0734024
  10.6295574  58.0015850  66.2397242  11.4023399  57.4568272  67.4216843
  26.8332744  60.3158808  97.3917961  26.8321276  60.6697416  96.5024090
  25.9650922  59.9264050  97.4957371  15.4328763  47.1104240  85.6672287
  15.3169072  46.8018913  86.5658855  15.2285790  48.0447435  85.7065201
  41.7341042  56.4784288  89.7133350  41.8391037  56.6228485  88.7729359
  42.2303057  55.6791258  89.8897743  19.8077595  64.0962315  76.7775965
  19.4769430  64.7681475  76.1815071  19.9781060  64.5641232  77.5950813
  18.0558205  43.5732794  61.3487005  17.3279524  43.3574057  60.7657385
  17.6514554  43.6705732  62.2108221  37.7625704  49.7138643  90.4444027
  37.0827222  49.6134233  89.7781086  38.0506349  50.6225491  90.3575802
  15.5782747  66.6764832  61.7425537  15.6761360  67.6029634  61.9622993
  15.2088046  66.6774940  60.8595324  18.9290726  78.8491440  92.0243168
  19.3866718  78.0206442  92.1672249  19.6252072  79.4769669  91.8307400
  34.5090985  81.2854195  79.9451780  34.6933985  80.3463173  79.9261379
  33.9255261  81.4301205  79.2003727  13.8384759  75.1145649  77.8305197
  13.7240171  75.8193970  77.1930647  13.0427492  74.5884657  77.7513409
  15.9709597  81.3560486  39.2787385  16.2979388  81.4063263  38.3805251
  16.4356005  80.6118298  39.6614647  33.6931705  66.8226242  69.2902946
  34.1466379  67.6628113  69.3587446  33.6294603  66.6608286  68.3490229
  32.1794415 102.3986721  62.3546457  31.7586136 103.2583618  62.3632097
  32.7897072 102.4233818  63.0916643  20.2065253  96.2252140  58.7953997
  20.8919287  95.5719566  58.6549997  19.4371247  95.8634090  58.3556795
  27.1444225  76.7179489  70.9753799  28.0132794  76.9680071  71.2896919
  27.2991514  76.3646603  70.0993204  40.4836082  68.3472538  63.5536194
  40.6474495  68.8645792  64.3421364  40.7385254  68.9226580  62.8323984
  22.2411227  65.9481430  69.2899370  22.7626204  65.4817772  69.9432135
  22.8580618  66.5535259  68.8786793  40.2712631  68.8057709  71.0288811
  41.1959505  69.0040731  70.8810234  39.9056029  68.6999035  70.1506329
  41.1344433  41.9726849  88.8029575  41.3011932  41.1927652  89.3322563
  40.2335739  41.8666077  88.4973240  38.2049823  60.8945656  65.5638838
  38.3480072  61.3249302  64.7209358  37.8227139  61.5748072  66.1182976
  36.8338561  61.4532185  75.5652380  36.0516357  61.9557762  75.3376484
  36.5756249  60.9425974  76.3325834  42.0068407  63.4978437  56.7977715
  42.7361536  63.4606314  56.1789417  41.2682104  63.1199121  56.3204622
  42.6686478  76.2236834  66.5430450  41.8082714  76.3162041  66.9522238
  43.0885506  77.0739269  66.6734219  12.1514535  50.1915884  78.0819321
  12.1460903  49.4767380  78.7184715  12.8537202  49.9643564  77.4724913
  27.6192570  54.5680141  52.3707104  27.1354795  54.8591948  51.5977859
  27.2897649  55.1186275  53.0809879  31.2027407  62.9504919  83.8015747
  30.7128811  63.7711668  83.7490368  32.1166968  63.2090855  83.6830616
  15.6387353  88.1817627  89.8949528  15.4541218  88.6345196  90.7178497
  14.9326622  88.4533691  89.3085098   9.4011652  68.0827618  77.7957821
   8.4563464  68.0924416  77.9489326   9.7836286  67.9671860  78.6656046
  30.6639385  95.0084114  65.7609272  31.2531328  94.2730713  65.9293127
  30.7545400  95.5692005  66.5313387  27.9484344  56.7196608  67.1189928
  27.7924585  57.4863577  67.6704264  27.0779705  56.4616537  66.8157482
  39.9339366  70.6311178  75.8374166  39.1030908  71.0535812  76.0552406
  39.9431276  69.8336172  76.3667059  43.1849766  79.9146843  77.8330421
  43.1466198  80.2053928  78.7442207  42.5821781  79.1722155  77.7929449
 106.1303329   9.7044814   1.8530560 105.9262753   8.7776792   1.9780837
 106.8578720   9.8724622   2.4519721  48.6104012  71.3685179  78.2050037
  49.4868994  71.7454386  78.1281042  48.2082796  71.8437195  78.9321280
  22.9761338  57.6420593  88.5401726  23.6020613  57.0478916  88.1261539
  22.9433322  57.3570347  89.4533730  28.7795448  73.9998341  64.0786600
  29.4813991  73.5702085  64.5675898  28.0363441  73.4008789  64.1503096
  52.9132938  55.2142811  96.0833740  52.2426510  55.6808281  96.5821743
  53.6393118  55.8348083  96.0194874  46.3405275  62.4124241  67.7981567
  45.7859516  63.0633974  68.2281733  45.8606195  61.5895319  67.8918171
  21.2397885  64.1916990  48.7998056  20.3697658  64.3093681  49.1811752
  21.7694736  63.8402653  49.5154619  38.6219168  71.1560106  86.7443466
  38.3742261  71.5316343  87.5892067  39.0535188  71.8735170  86.2805176
  12.8232825  68.6178017  77.5626421  13.4178758  67.9093695  77.3160410
  12.1451092  68.6073351  76.8872166  27.6588702  66.7293644  77.1912813
  27.6915884  66.3928795  78.0867910  27.2548509  67.5931120  77.2745800
  42.1111345  57.6296806  62.3276329  42.9083633  58.0709982  62.6207018
  42.1567297  57.6623821  61.3720798 114.3228626   9.1141498  17.9110920
 114.5666885   9.5655608  17.1029997 114.3688107   8.1841677  17.6891577
  28.6005688  55.1318789  87.9260731  29.4532037  55.2246141  87.5010490
  28.5296798  54.1970682  88.1192970  37.8875852  58.1037998  65.2984667
  38.7086391  57.7415752  64.9654579  37.9036736  59.0218496  65.0279903
  17.9558408  90.1458073  81.5701771  18.7479067  90.1228619  82.1071434
  18.2237279  89.7691345  80.7319736  25.7542276  64.7913313  75.9341669
  26.5190697  65.2957535  76.2113047  25.1055121  64.9428177  76.6215181
   6.5105861  40.0613403  64.2859507   6.3561046  40.4100418  65.1638889
   5.6353909  39.9538279  63.9135170  44.1403484  67.0967054  91.3027000
  43.4058666  67.7035141  91.3952255  43.7963533  66.3847733  90.7632160
  52.6563263  62.4873877  65.0040817  52.0920944  62.6286411  65.7642889
  52.1637487  62.8525400  64.2690563  10.6417704  72.3952532  74.6363306
  10.2031350  73.1926298  74.9330235  10.1370919  71.6835928  75.0301123
  29.0570784  88.9184189  70.5086279  28.2912707  88.9656925  69.9363184
  29.8024845  89.0495586  69.9226189  33.7670207  61.4542627  68.3028746
  34.1831684  62.2891855  68.5172415  34.1360283  60.8342552  68.9318848
  15.1101613  74.1524839  80.1825523  15.6709921  73.4009027  79.9906492
  14.8559499  74.4873953  79.3226480 118.7118562  68.1657791  64.2725563
 119.0330416  67.5875378  64.9644423 119.0972453  69.0183067  64.4747972
  50.1731491  54.0080929  74.1641235  49.6635818  54.7601557  73.8625050
  50.5353689  54.2860746  75.0054073  11.3331902  67.8056622  80.1204109
  11.3418758  68.0437279  81.0474968  12.0494699  68.3114386  79.7365332
  60.5133247  65.7314682  93.3020878  59.9695587  65.0348568  93.6699009
  61.0212755  65.3009748  92.6144123  25.0071430  92.7054787  84.8418999
  24.7961760  92.8047371  83.9135265  24.2039013  92.3640060  85.2348709
  34.6927023  43.1323004  73.1175518  33.8662910  42.7141905  72.8757620
  34.9949145  43.5497522  72.3109293  15.4342568  70.7995558  88.3745480
  16.0301149  70.0506639  88.3931351  15.3995657  71.1006260  89.2825127
  46.7935038  56.8780947  72.6288319  46.7018270  57.4869919  73.3616829
  46.0135841  57.0274162  72.0943594  28.9182997  52.6029873  77.4561501
  28.9150929  53.3151960  78.0956650  28.2813215  52.8724098  76.7944098
  34.7849536  50.6170750  73.3262825  35.0942183  51.4903021  73.0853081
  35.1513147  50.4651880  74.1974545  39.7994757  68.5038328  48.5626602
  40.4065895  68.5051155  49.3026876  40.2253628  69.0506935  47.9025126
  13.2325006  72.6450634  76.0750961  12.7493000  71.9966364  75.5629444
  12.5598872  73.2444286  76.3984823  52.6436281  71.1836863  49.9248314
  52.8975725  72.0843554  50.1261711  51.6865730  71.1999130  49.9206686
  29.5001125  71.1461878  88.5135460  28.9908171  71.6450977  89.1522408
  30.4112911  71.3602638  88.7139416  34.6070409  74.9515867  56.0385227
  33.8837481  75.3933668  55.5936527  35.1852036  75.6612015  56.3185406
  27.3165393  53.1319714  74.9813128  26.3754201  53.2546091  74.8568630
  27.6075864  52.6878548  74.1848946  50.5513954  61.6675282  78.6976385
  50.9262753  62.3956394  79.1931629  50.4196882  60.9777737  79.3481159
  15.1373601  60.9686995  74.4892359  14.2881024  61.4046240  74.4187784
  15.6048548  61.2250519  73.6942768  36.0916734  77.9242992  93.7758255
  36.8142843  77.5686979  94.2931366  36.3002801  78.8535690  93.6800385
  10.0496578  31.3269949  67.8123856   9.4399798  31.8986845  68.2789660
   9.7482085  31.3457966  66.9040823  24.7460556  58.7643337  49.8668146
  24.8212624  58.9555073  50.8017111  24.8853278  59.6085691  49.4377518
  14.6788406  79.9239016  93.3103561  14.0604866  79.5982122  93.9644146
  14.6529603  80.8756256  93.4092808  44.0659714  53.9994764  84.6726322
  43.2213449  53.9642525  84.2236328  44.4660139  53.1476927  84.4975185
  54.1258478  89.8881149  75.8623838  54.0713739  89.2362690  76.5612125
  53.9284134  89.3996048  75.0632572  36.9113016  75.2778244  47.9701996
  36.1598611  75.8663511  48.0423641  36.9857645  75.0982714  47.0329475
  38.3112741  71.9080353  49.1692638  37.4207640  72.0101833  48.8334179
  38.3013558  72.3567915  50.0146914  45.1328039  79.5939302  51.8849373
  46.0605955  79.4831371  52.0926809  45.1223040  79.8418045  50.9604502
  33.4163666  55.7938337  94.9832153  33.1895018  55.0367546  95.5232143
  33.2870483  55.4937029  94.0835381  14.9655545  65.8833551  86.7832375
  15.1342452  66.5190458  86.0877705  14.1478980  65.4576588  86.5254593
   2.5518146  76.5915298  75.3615713   2.6402929  76.6728354  74.4119453
   1.8666327  77.2186422  75.5928469  36.4589787  88.9526272  64.6692562
  36.6347790  89.4978142  63.9023781  37.0146346  89.3199062  65.3566980
  35.8416629  60.0070000  77.6571465  35.6611252  59.0855980  77.8433084
  35.8161545  60.4338408  78.5135269  35.5999875  71.5217686  73.5041571
  35.8818960  70.7357311  73.0362844  36.0052395  72.2442484  73.0245495
  49.7512960  68.5338211  82.1545124  48.9468861  68.7192535  81.6699696
  49.5332956  67.7784348  82.7004910  59.7952700  61.5919256  86.7815876
  59.2513084  61.1187267  87.4112129  60.6485128  61.1608791  86.8306637
  21.8755937  46.6234875  69.7617435  21.1474085  46.7277384  69.1492796
  21.7312956  47.3004866  70.4228687  21.4554763  73.7220335  73.5062790
  22.1433210  74.0004444  72.9016399  21.9167709  73.2232285  74.1805458
  18.1168449  61.0971642  71.2390947  18.3635604  61.3606405  72.1256304
  18.9255226  60.7565308  70.8566809  25.8939552  63.5854387  86.4496899
  24.9937773  63.7342787  86.1602688  25.8042550  63.1751013  87.3098087
  11.4066660  90.6724739  72.4545527  11.5966618  91.4845753  72.9242516
  11.7808425  89.9843884  73.0047941  32.7688456  70.9847975  81.6347313
  33.4568310  70.8145142  82.2780895  33.1656575  70.7574034  80.7938576
  17.8377783  47.9381466  76.4802361  17.8958809  46.9846773  76.5415239
  17.9098010  48.1227922  75.5437803  32.9474568  71.5331841  74.2357063
  32.5841618  70.6955957  73.9481497  33.8472605  71.5286922  73.9092684
  96.3651466  11.2845206   5.4119682  96.2568092  10.3370106   5.3299910
  95.4736519  11.6313648   5.3778034  30.6960225  65.2824783  73.5927439
  30.9632397  65.6553936  72.7526474  29.8357463  65.6663656  73.7624121
  72.7258110  98.3792114   7.5146592  72.6785088  98.8358212   8.3546007
  73.0915642  97.5209713   7.7288651  42.8258324  55.4205799  81.4673042
  41.9396639  55.3783703  81.8266964  43.1231356  54.5107985  81.4556217
  36.6205812  76.8638086  56.8402052  37.5539231  76.7165470  56.6871691
  36.5852928  77.6819706  57.3357868  29.1856408  65.1670027  56.5897703
  28.3720708  65.1494265  57.0937872  29.6797562  65.8994389  56.9580364
  32.8976846  77.5726700  77.7498865  32.9184818  76.6301060  77.9153490
  32.0087433  77.7414656  77.4376011  41.5394306  59.5047283  54.9125910
  41.7954254  58.7667751  54.3593121  41.4747477  60.2451706  54.3094397
   9.7392064  56.2594604  91.3689137  10.6630683  56.2164497  91.1222076
   9.6959549  56.9661951  92.0130253  41.1470652  67.4090338  55.5896568
  41.1628819  68.2386160  56.0669136  42.0132113  67.0300531  55.7393312
   4.0071380  56.9643116  91.2630177   3.2552189  56.5378952  90.8518982
   4.4085330  56.2790203  91.7973232  22.4279976  76.1667919  76.9038868
  21.8422461  76.0622692  76.1540890  21.9884777  76.8067598  77.4637938
  12.6450109  52.1831179  39.2269635  12.8244114  52.8843164  38.6005712
  12.2855854  52.6317978  39.9922919  19.0942836  61.5542269  73.8226700
  18.9287329  61.5804100  74.7650814  19.6179211  60.7634592  73.6933565
   9.4945055  46.8958616  85.9160995   9.4494241  46.9302225  86.8716240
   8.8502115  46.2322569  85.6696320  29.7394443  61.3193083  71.9574022
  30.1987696  60.4894066  72.0859289  30.0935483  61.6646242  71.1378908
  24.6189356  73.9820147  55.8656883  24.1043544  74.7883463  55.8300066
  24.9508214  73.9491940  56.7629099   7.2989053  72.5203466  53.4208155
   7.8581905  73.2697916  53.6251831   7.2145635  72.5373507  52.4674892
  46.9327974  68.0476093  89.3273449  45.9987307  68.0088472  89.5328903
  46.9792318  68.5588217  88.5194206  33.6169195  53.5788202  84.6337318
  32.7126360  53.7750387  84.3887806  33.9004302  54.3431711  85.1353455
  38.1340694  80.8381748  57.3161793  37.2040915  80.6118584  57.3286581
  38.5077143  80.2782536  56.6356516  40.5303288  67.4096251  73.7062979
  40.0881243  68.2112360  73.4268188  40.8656359  67.0260668  72.8959417
  53.2920408  44.0104675  95.3480244  54.1143608  44.2219925  95.7899189
  53.2483292  44.6257257  94.6160507  23.3367348  58.1421089  47.2050095
  23.8844109  58.2257557  47.9855776  23.9593220  58.0334234  46.4861155
  28.5228491  79.7071457  79.3733931  27.9255986  79.0383816  79.0383148
  29.2208385  79.2118454  79.8020220  37.0966029  54.3782330  52.6483297
  37.3929763  53.5282946  52.9739094  36.5929890  54.7497988  53.3725834
  48.0879354  59.9941254  64.5231915  48.4971237  60.3763008  65.2995586
  48.2957697  60.6060791  63.8171101  10.7924807  65.0908566  69.4419146
  11.4135182  65.7839918  69.2180729  11.1965597  64.6368647  70.1814032
  38.4560776  76.6493034  60.4499817  37.6337886  77.0661545  60.7074881
  39.0888381  76.9424915  61.1056376  42.7916622  77.7426767  59.9222803
  43.2886410  77.0107841  59.5567942  42.6920652  77.5254345  60.8491659
  88.2783985   7.6677996   6.2280244  87.3698330   7.8819460   6.4398885
  88.6901760   7.5047702   7.0766038   7.7311230  95.7122803  78.3833456
   6.8288690  95.5508995  78.6592531   7.6474488  96.2054634  77.5672531
  51.0466909  72.9614449  78.7744093  51.4600563  72.7149057  79.6018076
  51.7693186  73.0002928  78.1478834  89.2268944  13.0699468   7.0930874
  90.1047802  12.6989746   7.1820408  89.3270397  13.7703681   6.4484072
   8.8471621  59.5526838  74.1645765   9.7691137  59.4827032  74.4122458
   8.7929022  60.3718185  73.6723328  15.3550875  49.5367241  77.4182034
  14.7085011  49.1842222  76.8067312  16.1888981  49.4630575  76.9539118
  76.8101358 103.3648396   1.1241402  77.3977613 103.7837505   0.4952967
  77.1088409 102.4562550   1.1625718  52.7794123  88.3075237  73.8450718
  53.3630133  87.7679825  73.3116531  52.0865631  88.5784912  73.2427645
   6.6653383  60.5814695  60.3199577   5.7370210  60.8074760  60.2618265
   6.6857094  59.6284294  60.2331972  32.0136905  83.6679554  47.4961233
  32.5228453  84.3732166  47.8956127  31.1048388  83.9605522  47.5640297
   2.4347062  84.5815849  89.3655109   2.0089909  84.0478897  90.0364590
   3.3579037  84.5923424  89.6181488  41.1357355  96.0348034  64.8767424
  41.2396955  95.1314735  64.5777321  41.3741446  96.5672398  64.1178560
  50.3277159  58.4214115  71.7980385  50.9114790  57.8672600  72.3160839
  50.0895119  59.1361618  72.3884869   7.7411008  60.5313253  86.3425350
   7.9525906  60.2494240  85.4525661   7.9290390  59.7667980  86.8869686
  59.0805721  60.7778215  76.9044590  59.2774487  60.2759743  76.1134958
  59.3581963  60.2102661  77.6235104  30.6096506  52.7945280  66.6020727
  31.5490746  52.6149845  66.5636110  30.2528262  52.3717690  65.8209324
  46.4980507  86.9405842  46.5100670  46.1368704  86.9961357  45.6253672
  46.1830664  87.7315903  46.9474697  38.9441609  57.4402523  61.8421793
  38.2497668  58.0923462  61.9360924  39.7334933  57.9538870  61.6708136
  45.4014635  56.9417763  89.4750214  44.5174837  56.5752029  89.4960880
  45.9771633  56.1853743  89.5875072  27.5999808  54.0162706  64.4698095
  26.9458604  54.5095634  64.9648046  27.0871210  53.4369898  63.9062119
  35.7495356  47.4453163  73.6188841  35.3561020  47.1550369  74.4417953
  35.0272202  47.8482580  73.1370831  86.9621754  18.1534994   0.4870265
  86.5466785  17.7613652  -0.2809727  87.5105572  17.4555111   0.8452467
  37.2059751  55.3842926  70.2951241  38.0756140  55.7060289  70.0575399
  36.6123462  56.0929680  70.0469065  17.0906985  51.3105631  94.9274254
  17.1118975  51.1700392  95.8740139  17.9056966  50.9222031  94.6093273
  58.1411171  85.4106998  60.0964642  57.6344061  84.7141647  60.5139637
  57.7613020  85.4917622  59.2215967  14.3528402  76.7889643  75.7059097
  14.9792886  76.9589090  75.0024080  14.6961570  77.2758436  76.4551210
  35.7447863  49.2462158  87.9005909  35.5981660  50.0292969  87.3700047
  35.5546308  48.5175228  87.3097610  19.1798615  38.5253024  85.4802418
  19.4101489  39.4106293  85.1984692  18.3349574  38.6256838  85.9187508
  46.5471220  65.0510931  70.8046532  46.2591648  64.3376112  71.3740873
  46.5334129  65.8261395  71.3662100  27.1798825 105.8302307  71.9272566
  26.8920803 105.4373646  71.1032104  27.9771137 106.3083458  71.6990900
  39.9148130  71.1712360  81.0270119  39.4479036  71.5675354  81.7626572
  39.2239380  70.8115673  80.4706287  39.2056417  90.9803391  76.3388872
  38.9090872  90.3073883  75.7261658  38.5054207  91.0376740  76.9889927
  67.3644829  95.0022411   3.7100807  68.2247114  94.8916245   3.3051068
  67.4067020  95.8606911   4.1313890  25.7243013  57.8102398  86.8322754
  25.8900857  57.1349049  87.4900532  25.3608465  58.5437202  87.3284054
   1.7562191  72.5357294  56.4692307   1.6582483  71.9593573  57.2271442
   2.4306208  73.1626701  56.7306900 118.8826466  49.7275639  67.4654627
 118.5023689  49.5844650  66.5987778 118.6593533  48.9379740  67.9583311
   2.6468816  55.5927038  75.7976580   3.1996429  55.9111404  76.5112972
   2.6457697  56.3057613  75.1590824  26.3871074  54.7882175  61.1757135
  27.0817685  55.1693392  60.6386614  25.8603859  55.5377436  61.4532089
  11.2746429  66.1056757  91.5091038  12.2213864  66.2102318  91.4143562
  10.9523237  66.9898796  91.6838264  48.6781549  55.1499176  86.9695663
  48.8680649  54.6638155  86.1671543  48.4137440  56.0185194  86.6665077
  16.9949925  77.7144098  45.0881577  16.7843235  78.0076122  44.2016554
  16.3999665  78.2089376  45.6517315  40.2333450  59.5076323  77.4807739
  40.1204395  60.2704763  76.9137144  39.9109960  58.7721443  76.9598341
  42.3957062  59.3241024  75.3667831  42.2453213  59.6896219  76.2385702
  41.6162300  58.7973452  75.1902008  35.4976606  85.7500553  71.8941212
  35.5852222  86.6800880  72.1029186  36.2281466  85.3323460  72.3503447
   3.9173561  76.4360046  59.6322536   3.7908223  77.3531389  59.3891859
   4.6989149  76.4403152  60.1848650   9.4415271  68.4746838  71.0146189
   9.0639371  67.5988674  70.9333658   9.1633296  68.9301109  70.2199984
  31.9872785  52.9733372  57.0575762  31.2047768  53.4495211  57.3353815
  32.7164316  53.5261726  57.3385429  38.9981794  49.1931438  87.6618385
  38.8754487  48.4171772  88.2086945  39.6724129  48.9381266  87.0320702
  24.4816089  66.6076279  53.6738873  25.2682447  67.1327305  53.5265779
  23.7754989  67.2496128  53.7480164  39.3995929  52.0005655  70.8279419
  39.1823459  51.4027691  70.1126289  38.5889363  52.4823952  70.9919786
  41.4984226  73.0078983  76.9255638  42.3429489  72.8512287  77.3480129
  41.2872362  72.1782637  76.4973831  38.5900497  85.7672787  68.4420776
  38.8801455  86.0696030  69.3027020  38.9729905  84.8945332  68.3531904
  27.3777103  60.3188229  66.4189386  26.7725062  59.9508762  67.0628166
  28.2001090  60.4256582  66.8969345  23.9961219  96.9881916  65.8980274
  23.2908010  96.3546085  66.0296631  24.5112514  96.6267300  65.1767683
  53.9154387  57.2767258  43.0479288  53.9525032  56.7575169  43.8512230
  53.9851046  58.1837940  43.3455944  12.6032805  59.1819954  82.6554585
  12.4470198  60.0418663  82.2650242  13.5198390  58.9913464  82.4559402
  37.6230812  56.5419483  80.6624126  37.0677662  56.0067415  81.2293434
  37.7260327  57.3666000  81.1373615 109.6317196  16.4801204  10.5567110
 109.0394688  16.7441213   9.8526007 110.5079460  16.6083086  10.1933539
  49.6387863  66.4154005  56.8142033  50.3964710  66.6904926  56.2979984
  48.8830900  66.7142296  56.3083792  36.5021229  79.7126770  81.9579697
  36.7672300  78.9063692  81.5154552  35.9197855  80.1474380  81.3350010
  40.7511473  49.1778088  75.3252172  39.8515797  48.8620949  75.2395487
  41.0353661  49.3383121  74.4253874  48.8641119  55.1427126  83.3350086
  49.2325783  56.0219002  83.2484818  48.0424690  55.1780939  82.8452301
  25.3354192  59.5980167  62.5726652  24.7249079  58.9041328  62.8217268
  26.1515379  59.3701935  63.0179501  31.6372180  68.7925196  56.1891365
  32.2064567  68.1664610  56.6366243  31.2236857  69.2879963  56.8960476
 115.5505562  67.1040630  75.1638365 116.0645771  66.6234970  74.5149374
 116.1509895  67.7693987  75.5000448  11.2850010  74.0432835  77.3533344
  10.6755674  74.5919752  77.8470516  11.1280537  73.1573009  77.6798868
  37.7407050  54.8381901  59.3015528  37.2176838  54.0911579  59.5924568
  38.3815980  54.9685478  60.0004768   7.1161050  63.5884953  78.1706619
   6.4718711  62.8920126  78.2975912   6.6189629  64.3983984  78.2852650
  29.5282960  50.3861666  58.5642004  28.8632393  50.1006317  57.9377794
  29.1926885  51.2134743  58.9093924   1.4464067  78.0468273  58.6149168
   1.4955226  77.8258467  59.5449638   0.9095275  78.8387203  58.5849190
  46.9548702  70.9463263  75.5949402  46.1417484  70.8686352  76.0939646
  47.5968409  70.4519987  76.1045933  29.1214919  46.4449167  87.4986839
  28.3561110  46.1308384  87.9801273  29.2051220  47.3634529  87.7546787
  22.9778290  84.4541359  75.4237461  22.2492838  84.8118687  74.9163198
  22.5604105  84.0104961  76.1621094  34.9203372  64.2916584  65.8904600
  35.5904436  64.5108700  66.5378666  35.4037786  64.1889238  65.0707293
  30.3279805  66.3345766  83.0964851  30.1965046  67.1254253  82.5735092
  29.5582056  65.7958221  82.9136753  21.2678909  51.7350435  56.6666603
  20.6535482  51.5393972  57.3741484  21.2691283  50.9455919  56.1253738
  56.2035513  69.1900921  39.8279643  56.6906023  68.7009096  39.1648531
  56.6469574  68.9845610  40.6509972  63.4649849  64.3107367  85.4182434
  64.3727493  64.1006851  85.1989937  63.4555340  64.3637991  86.3739204
  46.6016769  61.9416380  54.2702103  47.2740173  61.3179684  54.5444918
  45.8288527  61.4023399  54.1024923  25.9215164  67.9072857  49.8878336
  26.1308289  67.7018452  50.7989931  26.4980769  67.3400879  49.3758821
  30.7942891  48.5019255  71.4319563  31.1800885  48.9398766  72.1906328
  30.4381061  49.2135954  70.9000826  46.1244392  64.5661974  77.8537130
  46.7869091  64.0197420  78.2765007  45.5992174  63.9520645  77.3406649
  50.9799051  83.2587624  74.1459990  50.9656954  83.8292980  73.3775473
  50.1001406  83.3330631  74.5157671  44.8428965  88.2755661  76.1209011
  45.7127666  88.5797024  75.8619308  44.5209265  88.9509773  76.7178822
  17.1447647  72.9213858  49.3763351  16.2632179  73.2817078  49.4726467
  17.0104766  72.0652199  48.9699173  14.2592812  81.2962341  75.2021027
  13.9649069  81.5830898  76.0665655  13.9503682  80.3930092  75.1314211
  42.4058390  57.4466944  69.6908045  41.6997766  57.8964806  70.1549149
  42.5312519  57.9584408  68.8916683  11.8654203  83.4717941  70.2432489
  11.4748406  83.8525009  71.0298538  11.8505526  84.1813850  69.6009874
  36.1047029  84.1693306  69.3941402  36.7541122  84.8103046  69.1049242
  35.6237674  84.6138954  70.0922108  15.5458224  58.9986134  82.3520184
  16.1213315  58.2433081  82.4726009  15.5877936  59.1843748  81.4139557
  23.0041313  74.5153236  80.3702736  23.2959199  75.3682041  80.6922817
  23.6834097  74.2478561  79.7511768   6.7847925 111.7841816  46.9053602
   7.7060199 112.0425129  46.9342518   6.6479361 111.4852905  46.0063791
  42.6855707  60.2137995  72.6333332  42.6674747  59.8907948  73.5342026
  41.9416046  59.7851706  72.2102213  48.2695293  66.6954279  77.7878857
  47.9066753  67.0818233  76.9908476  47.5247288  66.2617779  78.2043648
  35.0993156  92.2875500  62.3888206  35.5910563  93.0496693  62.6947641
  35.7709932  91.6660500  62.1080780  11.3177848  41.0232735   7.2583622
  11.6866171  40.7852030   8.1089598  11.1010337  40.1858854   6.8484455
  20.4746389  43.0970573   5.0817180  21.4262080  43.0154800   5.1456898
  20.2675223  43.8852406   5.5838102  24.0666580  81.0628510  91.6204262
  24.2529535  80.1273441  91.7001057  24.9128485  81.4586544  91.4117718
  50.4629421  77.2822809  81.3677120  50.7058811  77.0878887  82.2729301
  50.0991201  78.1669760  81.4020634  32.0991039  98.9620781  48.4776306
  31.4220929  98.7161064  47.8472471  31.9134641  98.4271717  49.2494059
  20.5080700  53.3011198  79.9297571  19.7440410  52.7251101  79.9563503
  21.1310458  52.9008055  80.5362892  38.2813048  81.7971516  77.9712534
  38.9473295  81.2153912  77.6049280  37.4518776  81.4449978  77.6483440
  48.7718010  98.0517769  66.0816383  48.2069206  97.3337936  65.7958937
  48.2747030  98.8437080  65.8767939 118.5263348 100.2100468  62.1944284
 118.0361938 101.0165977  62.0348501 118.0340672  99.5343971  61.7281723
  32.3642707  75.0119019  77.9265642  31.4542842  75.1019144  77.6436281
  32.3389316  74.3351841  78.6030579  22.6003957  71.2174225  47.7122402
  21.7047548  71.0890198  48.0246067  23.1267858  70.6179380  48.2411718
  31.1868405  97.1070290  71.2990475  31.6347599  97.4165249  70.5117655
  31.7852616  96.4629078  71.6774988  49.6972609  64.8054552  76.6087484
  49.1768312  65.4401970  77.1011734  50.6052637  65.0488043  76.7891407
  48.0907440  76.2037754  80.3475952  48.8850117  76.6814852  80.5866814
  48.3748960  75.2936316  80.2632141  51.7834330  86.1698246  54.2501450
  50.9377480  86.3922691  54.6394634  52.4259758  86.6147327  54.8027992
  25.1712966  87.6920033  64.0702581  24.5828152  87.9516029  64.7791481
  24.6931648  87.9098415  63.2701540  49.3080807  88.5204506  68.1778955
  49.3726873  87.5658894  68.2073832  50.1431465  88.8056946  67.8070354
  55.3147221  92.9191685  79.6395063  54.4414043  92.6129436  79.3950272
  55.1542473  93.6299992  80.2601433  35.8200526 106.0055065  66.0352421
  36.4892006 106.4265728  65.4956388  35.9413862 105.0688553  65.8796835
  18.0923378  78.5169268  81.6177273  17.3852837  77.9586744  81.2942123
  18.2360220  78.2241106  82.5176430   1.3950424  28.7176704  16.4864469
   1.4461379  28.5845947  15.5399203   1.6499779  29.6314430  16.6139519
  52.3752594  80.4933834  94.3304348  52.6781654  80.7541943  93.4606838
  51.4592600  80.2474308  94.2012596  45.0007153  77.6937246  64.0096235
  45.0098419  78.6502743  63.9756584  45.4486370  77.4213314  63.2087469
  31.7937183  87.8796101  69.0802670  32.6762295  87.7391911  68.7372065
  31.7989945  87.4525547  69.9369097  43.8137960  39.7325468  90.1829433
  42.8720379  39.8893452  90.1140976  44.2035103  40.6067657  90.1731110
  55.1550341  62.4119949  92.5159073  54.3374062  62.3977661  92.0184040
  55.5921841  63.2159805  92.2353077  74.4255835  -0.2129102  67.7109003
  74.8638231  -0.3938413  66.8793678  74.3097574   0.7372260  67.7188253
  17.9526699  62.2297239  76.3377762  17.4826121  62.4755144  75.5409908
  18.4242952  63.0229378  76.5919638  72.3032379  85.0460911  83.0365372
  71.6103935  85.4066753  82.4832058  72.8173208  84.4939709  82.4473667
  36.5094852  54.9249458  82.9468250  35.9418654  54.1567898  82.8837967
  36.0038018  55.6302071  82.5429344  39.8962283  95.6317043  35.1749802
  39.9851203  95.1725483  36.0101461  39.7715259  94.9349117  34.5306563
  35.9340692  69.1318750  71.2150288  36.7911458  69.2065239  70.7954121
  35.3071451  69.2314005  70.4985857  25.2311516  90.8271217  67.8831768
  25.3036022  91.4129448  67.1296549  25.2815461  91.4069843  68.6430836
  53.0676508  78.8544512  97.4171257  53.7809229  78.2185030  97.4723530
  52.8255653  78.8630104  96.4910793  37.9366469  98.2701588  57.7558517
  37.1499777  98.2580280  57.2106600  37.7163577  97.7185726  58.5064936
  45.8010721  68.6052418  69.7515583  46.3931227  68.6075592  70.5036926
  45.4741573  67.7067137  69.7068453  50.4749727  79.6302414  61.0397339
  51.2203836  80.0017357  60.5679417  50.5135822  78.6930847  60.8487320
  48.6593914  88.8049889  62.9720259  48.9420748  88.3316422  62.1895552
  49.1538668  88.4035015  63.6865425  32.0297933  64.8762846  81.2040615
  32.1137881  65.5106068  80.4921532  31.4454031  65.2987289  81.8335533
  34.2916465  67.4385452  84.5341587  33.3523679  67.3076582  84.4043255
  34.5186853  66.8481874  85.2525997  35.4183555  80.6580353  64.6106625
  35.3658295  80.3984737  63.6908245  35.0425386  81.5380859  64.6330261
   4.1567919  30.6852698   4.9711588   5.0340837  30.5242300   5.3185153
   3.9975780  31.6132712   5.1434922  42.4115324 102.1623421  81.1305332
  41.8033123 102.4902916  80.4681587  42.6120520 102.9265594  81.6709042
  42.6467705  67.9384184  79.6192646  42.4049139  67.4628782  78.8245296
  43.6019182  67.8837109  79.6497965  20.0074100  82.2521114  79.2862940
  19.4175625  82.5619316  78.5990334  20.8390331  82.6892853  79.1032028
  48.6530590  91.9552994  79.7792530  47.9919910  91.7222977  80.4311275
  49.4243526  92.1920013  80.2943325  42.8822517  86.1319160  67.3713255
  43.2924604  86.8058395  66.8292952  42.6266670  86.5908718  68.1714964
  26.5886617  94.4208527  77.5183678  26.7963529  94.2537117  76.5990400
  26.5025473  95.3724766  77.5752783  34.4489217  63.5467815  77.2937822
  34.6169686  63.4617376  78.2322741  34.6059918  64.4719839  77.1052122
  29.5347166  66.6242647  93.1681347  30.0350356  65.8094883  93.1227779
  30.1931953  67.3144150  93.0885887  36.1148834  85.9211063  86.2744331
  36.9474316  86.3589096  86.4517021  36.3607836  85.1097775  85.8300114
  40.9616041 101.6082668  85.3076839  40.6485701 101.7082500  86.2067032
  40.1738310 101.6867733  84.7696400  41.9022322 107.2513485  69.3191671
  41.8740082 106.3497639  69.6394300  42.6496601 107.6428127  69.7712088
  38.8308501  68.0348444  82.0964622  38.4285784  68.7551880  82.5817585
  38.6216116  67.2542000  82.6093388  24.0874171  71.7524147  71.4681911
  23.1432128  71.6178799  71.3868713  24.1719460  72.5281811  72.0225191
  45.3297663  94.4207764  74.3572378  45.7383394  93.6833763  74.8106003
  44.4346476  94.4437218  74.6955633  15.7137823  77.6715612  62.6190042
  14.8756909  77.2315645  62.7612495  16.0880423  77.7630186  63.4952402
  48.6642408  76.4087057  74.2250061  47.7617693  76.6711617  74.0436554
  49.1606092  77.2268581  74.2031384  51.1145639  89.7807598  58.3656979
  51.0794115  89.4129658  57.4826765  50.7297230  90.6527328  58.2774544
  48.8722086  80.5649662  67.0010757  49.3501091  80.3030968  67.7880144
  48.4624338  79.7577906  66.6899920  36.8038702  89.9054718  62.0085430
  37.5489998  90.4293251  61.7142820  36.7839408  89.1594601  61.4091206
  54.3639040  57.9697990  66.6753817  53.8135481  57.4945021  67.2978163
  54.8934841  57.2910309  66.2569904  37.4778152  80.4705524  46.8546724
  37.5810456  79.7858381  47.5155354  36.5325570  80.5286312  46.7155838
  29.7793102  80.1321125  59.8097324  29.7723389  80.5145168  58.9322615
  28.9598417  79.6403408  59.8632002  56.7115974  72.4015141  80.2008438
  57.0276737  72.9601097  80.9109879  57.5048161  72.1276665  79.7403622
  41.6227722  66.5351582  77.2328568  40.8158875  66.2332439  76.8157101
  41.9890594  65.7509136  77.6415443  47.6127100  77.8445578  58.8490391
  47.4464083  78.7828970  58.7590504  47.2188711  77.6110458  59.6896315
  28.3076620  63.5765123  72.9539251  29.0360904  62.9676104  72.8320169
  28.4462833  64.2518139  72.2898626  23.6978269  88.9521599  66.0798597
  22.8955102  89.4477081  65.9156895  23.9267302  89.1602135  66.9856977
  31.8072343  79.3841219  61.3180161  31.7326522  79.6505165  62.2343683
  31.0710502  79.8141623  60.8828926  69.7515869  90.9529114  41.7310524
  70.5956078  91.1436272  42.1403074  69.9702358  90.7187843  40.8290529
 112.8868866  49.0248728   0.1727936 113.5015583  49.7182560  -0.0672693
 112.6797295  49.1959572   1.0915138  39.5806146 100.3133965  74.2058468
  40.2581072 100.8303642  74.6417093  40.0551701  99.5835972  73.8078117
  51.6601849  78.8589048  78.1022978  51.0358143  79.5744753  77.9825115
  52.3949194  79.2576551  78.5685492  52.9399776 110.7171059  74.2985392
  52.8585911 109.7670650  74.3824673  53.4973812 110.9755135  75.0325394
  13.1284249  84.8224068  47.7982998  12.6059210  85.2361965  47.1112728
  13.8199985  84.3583202  47.3265219  10.5387020  95.0164413  69.5629549
  10.5363750  94.1962910  70.0564957   9.9111295  94.8716354  68.8548470
  52.7374840  87.5694180  61.0684299  53.5652161  87.2844315  60.6812906
  52.6186132  86.9979954  61.8271065  19.1737056  56.5825415  71.9114685
  19.0950370  56.6184378  72.8647518  18.8446093  55.7149553  71.6764832
  46.1302185  68.1866121  58.6267805  46.9811487  67.8515530  58.9094257
  46.2904406  68.5393953  57.7515078  14.8467004  60.1912594  49.7932816
  15.3524256  60.1548004  50.6051540  14.1392374  59.5597172  49.9232197
  52.4835730  73.5913324  94.6944523  52.3583412  73.9050531  95.5900669
  52.9373503  74.3079710  94.2508888  53.2468033  78.1639194  72.5814009
  52.7700901  78.4396029  71.7984724  52.6283503  78.3009052  73.2990217
  37.7773571 109.5834351  73.3833122  37.0946670 109.1760826  72.8501797
  37.4414158 110.4591370  73.5744286  46.1491251 101.5859318  83.0065250
  45.5247831 100.9041691  83.2547665  46.1214209 101.5992165  82.0498180
  45.6475306  73.3652735  55.5410337  46.3096666  73.9432716  55.9201431
  44.9094677  73.9424944  55.3453207  53.0027056  93.4371471  71.0404921
  52.4202061  93.4514046  71.7999125  52.4709845  93.0634022  70.3377724
  36.0401845  93.8804245  58.7304497  35.3252506  94.3054295  58.2566690
  36.2639904  94.4957829  59.4286442  58.6562395  98.1391716  64.1874218
  59.2295170  97.9152393  63.4543228  58.8472891  99.0594769  64.3684387
  38.4501195  90.6121349  72.2723675  37.5995684  90.8915615  72.6110697
  38.7616706  89.9685860  72.9087687  29.4291162  63.0104637  54.7771072
  29.1884303  63.8993359  55.0382805  30.3794193  63.0422449  54.6668863
   5.6966043  48.4089041   4.5044953   5.2094793  47.7964211   3.9533076
   6.2108189  48.9295435   3.8874471  42.1523333  79.6165419  62.6047373
  43.0240059  79.4544220  62.2439957  41.9009542  80.4691696  62.2496748
  47.1992588  79.8492193  87.5073147  46.7905378  78.9838886  87.4879742
  47.1011639  80.1402283  88.4139252  36.6720295  94.3643379  62.9832506
  37.3907018  94.1613197  63.5820198  36.5570116  95.3115368  63.0595732
   1.1042918   2.4970295   1.6439453   0.7910287   2.4492693   0.7407194
   0.5658352   3.1771660   2.0485573  51.3140488  98.9860249  70.7924938
  50.8312607  98.6846066  70.0228834  50.7597780  99.6686172  71.1707497
  60.2807474  96.1616993  71.2825680  59.4518375  95.7521534  71.5303946
  60.8882427  95.4292679  71.1790085  49.1206741  59.5041752  67.6462221
  49.1042280  59.5326662  68.6028576  48.2692814  59.1407299  67.4027586
  31.6982150  89.8143387  78.9841557  31.0681939  89.6321106  78.2869482
  31.3478184  90.5868053  79.4277191  46.4159346  92.2296429  75.9752226
  46.9728422  92.7649784  76.5404701  45.5946541  92.1444798  76.4594507
  50.2371645  56.0371208  60.8302879  50.8674288  56.5146971  61.3696575
  50.0745392  55.2266407  61.3128901  35.0427437  74.4152498  61.4545059
  35.2030420  74.3374586  60.5140352  34.9453545  75.3556919  61.6038895
  36.7464161 103.3630276  65.2216434  36.9434643 103.2615662  66.1528301
  37.6033616 103.4439182  64.8029137  51.2431526 107.8513718  75.5549669
  51.2016344 108.6749744  76.0409594  50.5258179 107.9092598  74.9238443
  47.8153324 103.9150333  66.3415909  46.9037628 103.9198399  66.6335773
  48.2922888 104.3663788  67.0380306  41.7932272  90.7013988  70.9883165
  42.5168991  91.3062477  70.8249807  41.0168266  91.2602615  71.0215712
  24.2108083  93.9258099  67.8171825  24.2435145  94.0058613  66.8638945
  24.5955157  94.7409534  68.1393242 108.8203812  32.3815823   1.5496622
 109.0109158  33.2631445   1.2290730 109.4662380  32.2331166   2.2403620
  47.8143120  83.8645935  60.6250000  48.3313751  83.0749607  60.4657412
  48.0269623  84.1127205  61.5246868  37.7558112  98.9168930  54.2275810
  37.0525599  99.5560551  54.1129780  38.2713127  99.2565536  54.9591017
  58.5767794  92.0875263  71.2377691  57.7877522  92.6026535  71.0694885
  58.9573383  92.4817753  72.0226145  35.2649450  83.7705517  88.0212402
  34.4834375  83.2265186  87.9237938  35.8155537  83.5347557  87.2746086
  50.5703211  85.6575871  72.7441502  50.3500843  86.5695953  72.9338121
  51.4584112  85.5498695  73.0846214  30.3180623 107.3556423  68.0449247
  29.9186158 107.1464157  67.2005892  29.5890522 107.6584339  68.5863066
  46.4043856  74.0293884  64.8017454  45.7001591  73.5156488  64.4063091
  46.6732740  74.6372414  64.1129494  56.4998388  90.2443123  83.6261559
  55.8909035  89.9800777  84.3157959  56.1281872  89.8762321  82.8245163
  29.9032640  58.9711809  57.8807545  30.2989173  59.4256639  58.6244869
  29.0928435  58.6005259  58.2301283  13.0820179  84.3295288  63.1356049
  12.6608968  85.1876163  63.0848551  13.3301246  84.2385197  64.0556002
  46.8701220  92.4907684  88.5871601  46.5110493  91.6125298  88.7136078
  47.5873947  92.5494194  89.2182827  34.0671039  72.6479101  52.3306751
  34.8611331  72.8309631  52.8329086  34.1439247  73.1990623  51.5518522
  83.6925125  -0.1680746  66.7378569  82.7881145  -0.1267442  66.4270687
  83.6813927   0.3037320  67.5706291  20.9096456  89.1469669  63.4053516
  20.1886749  89.7704411  63.4932041  20.7033348  88.4525204  64.0309763
  51.3917494  84.2780304  80.6206512  51.4749575  83.3385277  80.7838345
  52.0418072  84.6797466  81.1970901  48.3316088  61.6489410  77.4327803
  49.1752720  61.6702223  77.8844500  47.9657793  60.7912254  77.6489401
  24.8581886  81.2119007  77.2192287  24.7816277  80.3045177  77.5142193
  25.6146455  81.5553093  77.6947021  32.1103930  73.0596972  63.5803890
  32.9404354  72.5831747  63.5667801  31.5366650  72.5257540  64.1299105
  42.4701500  66.4917946  85.5313778  41.9744825  65.7323885  85.2250195
  41.8018198  67.1147156  85.8169270  44.3233681  77.0041132  69.8403549
  43.7059402  77.5223160  69.3241310  44.4285631  77.4974394  70.6538630
  13.1076789  72.5565243  62.8637934  12.2643197  72.3241377  63.2523441
  13.3094108  71.8283844  62.2761297  31.8019271  76.1440277  74.1582155
  32.0938277  76.8324947  73.5606909  31.5369248  75.4252672  73.5842896
  39.4630766  81.8608475  73.3616352  38.7637877  81.2111855  73.2897568
  39.0226531  82.6540470  73.6667347  65.9757423   7.3153806  78.8677645
  65.1881838   6.7721534  78.8379812  66.6403723   6.7988354  78.4120464
  40.2512789  56.8921375  64.6470308  40.8275366  57.0694780  63.9035845
  39.9303055  56.0033321  64.4946051  17.6090586  92.5396252  57.5108242
  17.7464414  91.7057800  57.9603291  16.7599237  92.4423409  57.0798492
  34.7408581  76.0974407  66.8613911  34.8933887  75.5232000  66.1109114
  35.1670265  76.9208479  66.6234493  55.4487991  86.3365841  90.1475143
  54.9952316  87.1328354  90.4240799  56.1385679  86.6455746  89.5601654
  34.1367602  77.0390749  61.5428734  33.2770324  77.3538065  61.8222332
  34.1210175  77.1145058  60.5887794  37.9706454  54.6487713  63.6852026
  37.5221562  54.5228195  64.5213985  37.9593205  55.5959702  63.5476303
  29.5671678  78.6592436  92.6730156  29.0462756  78.3074331  91.9511223
  30.0363755  79.4007826  92.2906590  41.1044741  80.8510590  75.3131485
  40.3093767  81.1505699  74.8723030  40.7897091  80.2733135  76.0083866
  49.4397783  74.8241949  71.6109085  48.8962793  74.6165895  72.3709965
  50.2178764  75.2421665  71.9798231  63.6541271  90.5049992  89.1196728
  63.7312555  89.6389961  88.7192631  63.7601900  91.1162186  88.3907032
  59.5167446  82.6708126  95.3817177  58.7537813  82.1385384  95.1563263
  59.6662807  83.2146645  94.6083546  34.1534638  74.0171099  58.7875223
  33.2202291  73.8563204  58.6480522  34.5089626  74.1427755  57.9077196
  43.4531021  44.0427637  95.5707073  43.3631372  43.2851410  96.1487579
  44.1069078  43.7749863  94.9248981  27.8896523  89.3872643  74.0441656
  27.2382355  89.1914558  74.7176313  27.3774862  89.5164299  73.2458973
  16.9565439  44.2193127   2.7008131  16.3226962  44.7441626   2.2119376
  16.4378202  43.7893915   3.3807603  53.9432096  79.5276403  79.9517441
  54.5972013  79.9161911  79.3707561  54.4343519  78.8953304  80.4763317
  26.0945940  79.4559860  71.2377501  26.3949490  78.5925627  70.9539843
  26.8322086  79.8163271  71.7299986   3.0858645   1.8972445   4.7593999
   3.0849251   2.2383480   3.8650402   3.5076264   2.5831944   5.2769148
   7.2535837  59.6370029  52.1738482   7.6129019  59.3201542  53.0025387
   6.3047457  59.5829868  52.2879553  47.8711653  71.6653585  73.2043743
  48.4648418  72.3520041  73.5081816  47.4578476  71.3357687  74.0023565
  35.2294803  94.7800827  80.2712059  35.1618743  95.3000832  81.0719967
  35.3618979  95.4255867  79.5769310  45.5862284  66.7587233  73.2192898
  45.4529333  67.6772308  72.9851913  44.7846270  66.3201237  72.9341650
  35.2922869  60.8919716  80.1367092  35.3042293  61.8459463  80.2143097
  34.5967221  60.6119537  80.7316971  44.1660833  92.0351601  68.6660051
  44.6517181  91.7589474  67.8887701  44.6131039  91.6030979  69.3938303
  13.8715208  87.9746723  41.8738031  13.5753870  88.3101559  41.0276413
  13.4990704  87.0944595  41.9261122  34.7120738  82.0479107  67.9856682
  34.9607038  82.2632313  67.0867538  35.3026438  82.5696564  68.5290289
  35.7693052  34.9319553   4.3913776  35.3607512  34.5633674   3.6081418
  35.0335002  35.2026391   4.9405161  36.9991612  77.3797274  63.6180449
  36.3760281  76.7734861  63.2175398  37.2204065  77.9933071  62.9174757
 119.0634441  95.6651783  63.1395197 118.2541656  95.2343178  62.8644753
 118.9823341  96.5601158  62.8097677  35.6809831  82.1417332  54.9948406
  34.7519469  82.3444939  54.8852491  35.7417822  81.2007236  54.8304081
  31.2077212  69.1275311  74.1354990  31.0100055  68.8359499  73.2454872
  30.4855967  69.7138071  74.3614435  37.1576595  67.3653364  73.1739855
  36.5998125  68.0015945  72.7265358  37.8502679  67.8924227  73.5723686
  42.4001026  76.6446447  63.5196781  42.3321533  76.1285686  64.3229723
  43.2757759  77.0295334  63.5556221   9.2426968  93.1125355  63.0611038
   8.4914207  92.7713680  62.5758982   9.6945339  92.3323250  63.3825827
  48.3955431  83.5527229  74.9701548  47.8483820  83.7478447  75.7309294
  47.7987719  83.6128521  74.2241812  50.4332161  88.6225224  72.2625303
  49.6055222  88.9857674  71.9475508  51.0830736  88.9200497  71.6258240
  77.6989746  10.7547569   1.9154352  76.8492126  11.0160172   1.5606412
  77.8621006  11.3739884   2.6268935  34.2706108  87.5952339  61.7378569
  35.0448728  88.0183125  61.3667059  33.7560081  87.3272419  60.9765434
  24.1888142  75.7278824  60.7399750  23.2699203  75.5597162  60.5311966
  24.4282246  75.0283146  61.3478518  48.0240870  74.8626947  67.0233154
  47.3546982  74.6471119  66.3739491  47.7424908  75.7016516  67.3881245
 118.2080269  75.4392242   1.8125106 118.1315041  76.2754440   1.3530415
 117.5506401  74.8785448   1.4005411  41.7229605  73.0536652  56.7797613
  42.6282883  72.8680229  57.0290661  41.1975908  72.4924660  57.3500919
  44.7922659  83.8082504  68.8291502  44.8923874  84.6099281  68.3158064
  45.5076265  83.2444572  68.5348177  82.6076984   0.2297508  72.8926849
  82.9231644   1.0169157  73.3366299  81.8265152   0.5178754  72.4204922
  47.8959274  98.9240360  70.8252525  48.3015347  98.5070133  71.5853882
  47.2359848  98.2961082  70.5312967  46.0511208  76.5762329  73.6281157
  45.9177542  75.8660603  73.0003405  45.7360029  77.3584843  73.1753302
  37.2581005  63.7753487  95.4389858  37.1509624  63.3907461  94.5690250
  37.7645469  64.5733166  95.2873707  52.4305582  94.2989540  77.6312637
  52.4244452  94.6091366  78.5367918  52.2883272  93.3549213  77.7004957
  42.1994400  82.4201965  52.2044992  42.6741171  82.2900391  53.0254602
  42.8434277  82.8128242  51.6151381  46.0977125  83.3114815  76.5745306
  45.7163048  84.1820240  76.6881609  45.4144955  82.8063297  76.1337662
  34.8109961  52.4940252  82.3057175  34.4224858  52.7012968  83.1556129
  34.0806293  52.5466871  81.6892529  59.2043352  81.8671513  82.5455856
  58.8591814  81.5700912  81.7036533  59.7484350  82.6239586  82.3278046
  40.3336000  80.1998997  69.7431946  39.9234366  80.3874683  70.5874777
  40.7805157  81.0130692  69.5081186  62.1406603  94.0625668  71.5821123
  62.9742765  93.6026955  71.4829302  61.5798664  93.4436703  72.0497751
  25.5701613  93.4102440  82.0751190  26.0761905  94.2200661  82.1411419
  25.4010201  93.3092022  81.1384106  47.8542089  81.3241863  77.3662519
  47.2902060  80.7142353  77.8417444  47.3037195  82.0929432  77.2172737
  77.6029730  18.0517554  63.8126135  76.9322014  18.0810702  64.4948435
  77.3156786  18.6967993  63.1663799  83.7792969   1.8024877  62.8471994
  84.5025444   1.7563979  62.2218800  83.2243156   1.0543126  62.6270771
  81.4287567   1.1980821  90.1279831  81.9365978   0.3869090  90.1097584
  80.5409050   0.9301905  89.8909664  52.7306223  84.1523552  75.9830618
  52.1018791  83.6542702  75.4607344  53.2473993  83.4857464  76.4355993
  56.7584944 108.8497543  80.7363701  57.6999855 108.8058567  80.9034061
  56.3697529 108.2889175  81.4076233  41.6314459 103.1760597  61.6738749
  41.5532064 102.5444221  62.3888159  42.1325493 103.9006424  62.0481920
  57.8891706  92.2099018  79.9340677  56.9780684  92.2298145  79.6412706
  58.2278395  93.0798054  79.7223997  66.0010862 103.4629726  65.0693989
  66.8494701 103.3328342  65.4931259  65.7550669 104.3597412  65.2963495
  42.1021080 105.8913898  58.1734514  41.7966890 105.0305462  58.4596348
  42.9116106 106.0336113  58.6640739  37.5908804  99.6249485  63.3967924
  38.0238438 100.4432583  63.1536102  37.6517010  99.5963573  64.3516302
  48.9452219  92.9050159  61.3974714  49.2434454  92.5506115  62.2351456
  49.1880798  93.8303566  61.4288139  40.8654308  98.5449886  72.5858736
  41.7670393  98.3319950  72.3450947  40.3308773  98.1081676  71.9227982
  52.5242138 108.7965012  52.6705122  52.0212936 108.5327435  51.8999672
  51.8629026 108.9682102  53.3408976  55.0740957  90.6829262  69.0556335
  55.0905418  89.8569584  68.5721684  55.4650259  91.3189316  68.4565544
   7.2370821  81.3287544  71.6312408   7.9949725  81.8990993  71.7598438
   6.9388914  81.5233707  70.7427359  11.4241886  56.1649895   4.3517655
  10.7588005  56.6815901   4.8063150  11.8255901  55.6333876   5.0391561
  22.0272803  35.6396317  15.1570773  21.9363999  35.0737119  14.3904555
  22.1197796  36.5207529  14.7947228  44.6392822  87.3664761  87.9275894
  45.4928541  87.1032524  87.5835514  44.0079737  86.9978428  87.3097038
  51.6201258  91.5774441  87.8112221  51.1701107  92.4211025  87.8553677
  52.1436405  91.6267872  87.0113945  58.2847071  96.0606003  81.6131496
  58.4460020  95.1179790  81.6540337  58.1851768  96.3264370  82.5272846
  27.9326105  97.0647335  58.2707262  28.2267904  97.6725864  58.9491081
  28.7046599  96.5345573  58.0730343  60.0094318  90.6286049  79.2891788
  59.4324827  91.2362862  79.7518778  60.4764318  91.1756325  78.6575842
  53.7839127 106.5557384  86.9710732  53.1969213 106.1264992  86.3486385
  53.6306477 106.0995579  87.7985096  50.9296703  92.9240513  80.7859039
  51.7790365  92.6663971  81.1442661  51.0931587  93.7684345  80.3657532
  26.8694258  98.1056881  65.3321314  26.5770197  97.4564075  65.9717989
  26.0684800  98.3787155  64.8847198  52.2851372  90.6930923  71.4935398
  52.9477453  91.0579586  70.9069824  51.4719486  91.1273479  71.2358952
  89.4933414   0.9662913  85.6931400  88.9013100   0.6897345  84.9936771
  90.3239536   0.5373129  85.4874706  80.2056503   0.9427527  71.8986750
  79.7390032   1.6981962  72.2561407  79.5163250   0.3123570  71.6897011
  27.5286865  78.8338709  68.2376099  27.0272160  79.5385933  67.8275871
  26.9690228  78.0618191  68.1542778  65.7129288 101.3932705  76.8106747
  64.8275661 101.7454243  76.7192698  66.2186241 101.8369007  76.1297178
  51.5171194  95.8616257  38.4961033  51.4575005  96.5031433  39.2040133
  52.0878744  95.1755047  38.8420868  60.8146954 101.6782475  74.5515966
  60.2625704 102.4465275  74.4062090  60.8375645 101.2357140  73.7031460
  70.2364874  98.1709480  85.3379154  71.1643076  97.9437923  85.2764034
  70.2314758  99.0730762  85.6578636  56.7740488  79.2971420  81.0859299
  57.1237135  79.3501616  80.1964664  56.7029619  78.3585501  81.2597847
  51.0439920 105.3604794  71.4425087  51.6739464 106.0790539  71.4977312
  50.8783150 105.1166916  72.3531914  59.2612314 106.7664528  72.3950338
  59.3754578 107.7004147  72.5708103  58.7468052 106.7357063  71.5884066
 100.3298759  11.9227016  57.5826597 100.9357929  11.6946983  56.8775988
 100.7498837  12.6564360  58.0314970  43.4713936  94.6338940  60.9568310
  43.9059639  94.9344063  61.7549992  44.0618086  93.9717102  60.5974483
  56.7396259 110.7637215  63.5590553  55.8797789 110.5325222  63.2077169
  57.3352337 110.6699562  62.8156233  37.1122861 100.1071548  90.8378410
  36.9440317 100.3253269  89.9211502  37.1729493  99.1519451  90.8494568
  96.4925480   4.0104303  51.1932516  96.4577675   4.8668340  50.7671118
  96.2372780   4.1832748  52.0994473  28.2111049  79.3849897  73.1165409
  28.7209249  78.7780380  72.5799513  28.8564491  80.0057697  73.4547615
  69.2349052 110.2036953  47.9556990  68.9530087 109.6929836  47.1967983
  70.0942612 110.5453396  47.7086687  95.7083225  15.7780457  72.2354746
  96.6321659  15.8574414  72.4730444  95.5757427  14.8398685  72.0995378
  41.3117123 109.3547916  65.2271175  40.9423208 109.2988777  66.1083984
  41.0096788 110.1997948  64.8939848  94.7591972   9.4419652  79.8744059
  94.3453598   8.7027037  80.3198910  94.9418640   9.1182709  78.9923096
  47.7083206 103.5672855  75.2114916  47.4016714 104.4653034  75.3370905
  47.1661806 103.2263660  74.5000935 106.3305187   0.1613840  65.5910873
 105.9086132  -0.5349693  66.0943937 105.8497906   0.9540819  65.8293390
  53.2862377 101.5558147  50.6257486  53.8221836 101.4402485  51.4103794
  52.4565697 101.1278439  50.8372355  30.4783010  77.0215750  76.4523792
  30.8946872  76.8214369  75.6140471  29.5622802  77.1891260  76.2308788
  41.6799974 110.5486012  53.9012146  42.3656940 111.0080910  53.4165335
  41.8098164 109.6257019  53.6829662  59.1792965  98.8508987  89.1563606
  59.7482395  98.1658363  89.5073986  58.4197187  98.8531876  89.7388172
  42.0538378  99.1804600  84.4352627  41.6713428  99.9852085  84.7849941
  41.3224792  98.7328625  84.0098095  55.6334543  96.3704109  88.8206959
  55.7472897  96.8936157  88.0272675  54.9413872  95.7472515  88.5994339
  62.5307083 111.6899776  82.8645325  61.7686939 111.4422894  82.3408794
  63.0608749 110.8941650  82.9072762  57.1827173  98.4671116  78.3741760
  56.5221643  99.1278172  78.5824347  57.9597473  98.7438965  78.8598204
  27.1717262  82.0436192  78.4026241  27.6321197  82.4170589  77.6510906
  27.6925421  81.2784290  78.6465073  32.7351379  94.6882439  71.7651701
  32.0320010  94.0845108  72.0046282  32.7578688  94.6621037  70.8085966
  64.9453592  98.2618999  76.3208103  64.8725557  97.9154873  75.4314661
  64.5591068  99.1362190  76.2696505  10.1931548  10.7991731  24.4664431
  10.5787683  10.6645620  23.6007547   9.2487580  10.7506478  24.3181443
  38.3594251  71.0528803  91.3218594  37.9140759  71.5038157  90.6045341
  38.8948345  70.3869629  90.8904362  50.8166075  92.2072506  69.5661640
  49.8863459  91.9817924  69.5624495  51.1269855  91.9578171  68.6957169
  43.9259768  95.8129597  77.0116186  43.3592558  96.5394402  76.7522240
  44.7411823  96.2318802  77.2876310  52.6092243  97.9425430  59.0949678
  51.7050648  98.2469749  59.1727543  52.9875612  98.4891129  58.4062290
  45.0797892  83.5080147  79.6159887  45.9403706  83.8224125  79.3388987
  44.5855188  83.4140682  78.8016748  43.0599689  92.0196915  96.1917877
  43.8850355  91.5436363  96.0975742  42.5344229  91.7386627  95.4427528
  46.1301374  86.5043068  83.4033298  45.8250141  86.9868660  82.6350403
  47.0721912  86.4054394  83.2655048  56.2663889 103.6440659  92.2613430
  57.1051073 103.7079430  92.7181816  56.3769817 102.9081345  91.6593456
  43.5469532  90.2464008  62.2977209  42.8297472  89.8479271  62.7907372
  44.1649580  89.5299816  62.1526861  55.4959202  93.9353752  73.4967327
  55.5764341  93.0804825  73.9197016  54.5750761  93.9904594  73.2413101
  70.2526999 111.5349483  87.3651791  70.7325983 111.3107681  86.5678883
  70.1934528 112.4901676  87.3484802  54.3065548 101.4281464  59.6183634
  54.6114683 102.3352623  59.6383095  53.5559464 101.4146614  60.2121973
  39.4082689  88.3983326  92.5154400  39.0886378  89.0384197  91.8795586
  39.3448758  88.8464355  93.3588982  53.7892103 101.4210892  66.9708872
  52.9540348 101.7764568  67.2749138  53.5956144 100.5101204  66.7497778
  61.2744379 106.0515785  67.5980234  61.7662954 106.5093803  66.9163132
  60.4758835 105.7568264  67.1602297  54.7875023   1.1686926  84.6647453
  54.8339272   1.9521487  85.2127171  54.3225241   0.5275979  85.2023602
  56.0780764  92.8905010  85.3223133  56.6870594  93.6234188  85.2317429
  56.4354277  92.2102356  84.7515488  96.5284634  30.4329467  77.4576283
  96.3806725  30.0334859  78.3148432  96.9628716  29.7498965  76.9467735
  52.3230076 100.0245190  73.1532621  52.8796721 100.6720257  72.7207327
  52.2196245  99.3269634  72.5059843  65.8678150 106.2475872  52.2913885
  65.0133371 106.0727787  52.6857805  65.6716108 106.4588547  51.3786411
  76.0289764 102.9833603  84.0860081  75.9436083 102.9070473  83.1356812
  75.1289034 102.9542828  84.4104385  85.6196785  21.0322833  73.3649540
  86.4188766  20.7611179  72.9133177  85.0926590  20.2350330  73.4186649
  89.2430210   9.7690165  63.9152098  88.7451649   9.1398537  63.3931732
  89.6314335   9.2448652  64.6156645  41.2057447 108.5548973  76.8711185
  40.4890633 108.8868427  77.4118710  40.7758665 108.0100822  76.2118626
  69.2886925 104.7948933  82.0752716  68.5414648 104.6392441  81.4976406
  69.7747612 105.5029297  81.6525936  28.5706496  69.0428638  57.8513241
  28.1072187  69.5076370  57.1545792  29.3005562  69.6187305  58.0790186
  46.3600016  88.7870789  72.7078533  47.0880842  89.0062237  72.1263838
  46.6581535  89.0559483  73.5767889  62.3524237  89.0897751  82.2460651
  62.7354383  88.4867573  82.8831673  63.0916452  89.3684769  81.7055988
  55.2611113  96.9593239  39.9577498  55.7985783  96.3955307  40.5140829
  55.1682711  96.4705372  39.1400075  57.7759695  97.5505829  67.9690742
  58.2443094  96.8209553  67.5634384  57.0587969  97.7406788  67.3642969
  26.3443637  73.6513948  73.6881733  27.0530486  74.0300846  74.2083597
  25.7996297  73.1897449  74.3256521  58.7474251 104.0850544  46.0805178
  58.1541109 104.4825077  46.7178869  58.7974501 103.1653118  46.3409233
  34.4351244  99.7567177  71.3587666  34.6174192  99.2374611  72.1419525
  35.2286863 100.2749538  71.2249231  62.4748182  88.9945316  52.8255892
  62.5243521  88.0770302  53.0938721  61.6813326  89.3247795  53.2469511
  57.4560690 108.5022449  60.1518774  56.5492916 108.2104969  60.0576687
  57.9726791 107.6978493  60.1039600  49.9090242  95.0046539  68.5477686
  48.9636850  95.0671482  68.6843443  50.0151396  94.2748547  67.9375553
  62.6248980  80.6411362  50.5605650  62.1274233  79.9407625  50.1383972
  63.5401726  80.4279232  50.3787994  57.4587917  97.6691914  86.8232346
  57.8565168  97.5593662  87.6869297  57.7032852  98.5558033  86.5579414
  60.6846189  92.0567894  73.0598307  61.0617828  91.1847878  73.1763983
  60.3403807  92.2861958  73.9230251  35.9707499  81.0450935  75.9593916
  35.5695605  81.5838718  75.2774906  35.2422476  80.5480099  76.3314533
  59.7609568  86.3187218  86.9194889  59.1781378  86.9923496  86.5690804
  60.6069326  86.7573452  87.0098782  23.8908243  73.6760712  96.2781906
  24.7685170  73.4033775  96.5456295  23.3686423  72.8748226  96.3176632
  42.4383640  87.0135117  85.9193897  42.3287439  86.0781384  86.0905457
  42.7517462  87.0565891  85.0159740  46.5864992  86.6963100  86.2029171
  47.5081873  86.4813519  86.3461781  46.4214087  86.4486504  85.2931690
  20.9822536  96.9203568  36.6088772  21.0047150  97.8042603  36.9755340
  21.8417954  96.5533733  36.8156290  42.0923519  99.6307087  60.3597689
  42.3212957  98.8454247  59.8626375  41.4821005 100.1031780  59.7935581
  45.6293392 103.0400658  50.2697706  46.0700798 102.1920776  50.3236675
  45.1488209 103.1130886  51.0943937  30.4119563  61.8779373   2.4200509
  31.2285423  62.0060253   2.9027659  30.6837320  61.8026543   1.5053369
  75.9189510  98.5243034  89.9880886  76.4176893  99.1531181  89.4664764
  75.7509136  98.9780807  90.8139706  65.5772066  97.1154976  86.9677639
  66.4916611  96.8715858  86.8245792  65.6156683  98.0238819  87.2670937
  44.4309187  94.5312500  63.7894249  45.0088978  93.8731289  63.4033489
  44.9137545  95.3533840  63.7046242  61.4642286  97.9992008  72.7360106
  61.0631275  97.4646950  72.0507002  61.4451885  98.8901997  72.3867559
  91.1715508   1.9708413  68.3243227  90.4783058   2.4993484  67.9289341
  91.8021965   1.8352027  67.6171303  61.4708900 105.3381062  72.9799938
  60.7925844 106.0094833  73.0533981  61.9589233 105.3999233  73.8011122
  57.5179768  93.3025360  76.9680738  57.1223402  93.9218903  77.5813437
  56.7732286  92.8869247  76.5335131  55.4567337  84.8752689  53.5426474
  56.4063263  84.8709106  53.6630154  55.3331041  85.1047611  52.6216221
  95.7501793   1.7996773  71.3306856  95.2089405   2.4035996  70.8221865
  96.6351891   1.9247741  70.9881258  44.2386198 106.1736202  59.8533821
  44.9759769 105.5639362  59.8820210  43.9143372 106.1997509  60.7535982
  91.1904335   9.2435157  45.6312990  90.6152534   8.8767153  46.3027573
  92.0717812   8.9922452  45.9075689  11.1439323  48.7387848  43.3385134
  10.9765041  49.0705204  42.4563837  11.0566032  49.5063972  43.9036512
  47.0723963 100.1692390  60.6103706  46.1155748 100.1822948  60.6339312
  47.2870779  99.9970341  59.6935892  73.6756897  15.3615355  86.9478226
  74.4320536  15.3238869  86.3623905  73.1798410  14.5670593  86.7498970
  23.0863643  11.9879508  10.5163181  23.3890057  11.1595607  10.1442802
  22.1651816  11.8340087  10.7259691  93.8450050  38.1009841   7.6784968
  94.0984631  38.9342356   7.2814065  94.6751308  37.6775599   7.8972018
  35.1937199 100.4933167  75.3134823  35.9165001 100.3325558  75.9200907
  35.3032207  99.8323059  74.6298885  86.7646313   2.1147293  68.0662727
  85.9936333   2.5555494  68.4233093  87.3254395   1.9598815  68.8263702
  60.6943560  96.8343735  79.9422503  59.9795389  96.7418098  80.5720901
  60.4965305  97.6447773  79.4728374  35.6345248 111.4447308  76.5482998
  36.3256502 110.9142494  76.9447422  35.8437800 112.3424149  76.8063974
  58.6377430   1.8081667  75.1805353  58.5401106   2.5101140  74.5371342
  58.3167553   2.1870035  75.9988785  75.9821987  95.7778263  73.1549788
  75.0516796  95.6858635  73.3596849  76.2252808  94.9390125  72.7631474
  86.9634151  17.7720308  81.7278671  86.6672039  18.5267603  82.2366619
  87.8570366  17.9948294  81.4670372  62.4122477 102.8095722  66.2142611
  62.7193880 103.5632610  66.7180967  61.5326118 102.6388264  66.5508890
  75.1945782   5.5198306  61.8734741  75.7051086   5.4594451  61.0660410
  75.0988245   6.4598447  62.0265627  51.4002275 105.6166077  59.9065208
  50.9261656 105.9404087  60.6724548  50.7283735 105.1980877  59.3682957
  19.0296531 105.8599091  74.2602301  19.9442434 105.7973385  74.5356226
  18.6213195 106.4285374  74.9130344  78.6632967 105.9552097  89.2378330
  79.1004038 106.5848923  89.8111343  77.7864122 106.3168621  89.1092968
  63.8917780 109.7496033  71.2651157  63.5524893 110.5604649  71.6440916
  63.1105995 109.2626381  71.0027122  21.6634560 109.7945309  54.3559885
  21.6760325 110.6703949  54.7419071  20.9238148 109.8110104  53.7486219
   2.3270375  23.7031412  72.7658558   2.4580880  23.2093668  71.9563818
   2.4124333  24.6197891  72.5037527  48.3601713 107.0147228  70.3323412
  48.1608057 106.9122887  71.2629271  48.9612913 107.7587795  70.2966642
  59.6985054 102.8309727  60.0087643  60.1545906 102.5210476  60.7911730
  58.7909079 102.9459286  60.2903414 113.2439804   0.5651138  79.3367910
 113.6921787   1.2739791  79.7981596 113.2083416   0.8570819  78.4259033
  99.7267151  20.7975721  57.7467346 100.5559444  20.3248668  57.8185606
  99.5002365  21.0223985  58.6491680  43.2685661  29.7181296   3.5037047
  43.3027649  29.9605131   2.5783324  42.3482466  29.8231959   3.7449634
  12.5299621  55.1746559   1.9542998  13.2626390  55.6409740   1.5518507
  12.4565578  55.5541134   2.8300029  57.7025747 109.1417217  65.4488134
  57.3886299 109.6544170  64.7039509  58.4949732 109.5959187  65.7352495
 103.1812477   9.4623822  60.2589893 103.4752178   9.0585965  59.4424343
 102.3418236   9.8658496  60.0380373  79.6863079 102.7823448  81.7649174
  79.1578913 102.3818970  82.4553204  80.3429699 102.1195602  81.5510178
  49.4121647  96.7071152  82.2604561  50.1066875  97.3231602  82.4936199
  49.7816229  95.8454323  82.4533844  92.5023079   2.9570767  61.5050125
  93.4117699   3.1977743  61.6815758  92.1431541   2.7320597  62.3632669
  56.5081024 103.4526062  74.7303343  55.8961868 104.1070461  74.3934441
  56.8724537 103.0398750  73.9473009  76.4194679 108.9909458  60.3892183
  77.0562363 108.3446407  60.6942558  76.2555170 109.5444870  61.1527205
 108.0073833   4.8715538  61.8836498 108.5529613   4.1719377  61.5243340
 107.2003269   4.8335031  61.3703728  60.6913757 104.3588924  90.1544094
  61.0503387 104.1418076  89.2940331  60.0566387 103.6645794  90.3312397
 101.6974449  17.0495224  68.5972023 101.5928459  17.9972041  68.6819887
 101.7535019  16.7331243  69.4988585  53.3128595  91.9512653  85.7039452
  53.0790615  91.9346809  84.7758865  54.2211437  92.2530651  85.7167721
  56.3890028 111.9020462  41.4137888  57.2965384 112.1523380  41.5869045
  56.4192963 111.4648342  40.5628109  45.7616949  86.4014816  43.8111305
  45.2650881  86.0017776  43.0970955  45.8256435  87.3256969  43.5703707
  96.9195938  20.6524467  73.4730101  96.7224312  19.8157716  73.0519009
  96.3594723  20.6678581  74.2490625  98.8436985  21.7387009  71.8974304
  98.1558990  21.3971353  72.4688292  98.4815502  21.6624236  71.0146761
  74.2409468 108.4426498  63.0832243  74.0364408 108.8651848  63.9174080
  74.0671444 109.1154957  62.4249649  48.2205677 103.8189602  63.6723280
  48.1539249 103.5631847  64.5923138  48.6510420 103.0767727  63.2479668
  59.7079563 106.5583992  91.7777157  60.0361347 107.4569035  91.7429447
  60.4390621 106.0241890  91.4673233  49.6211618 112.1476683  59.9356413
  48.7055295 111.8826014  59.8484659  49.6641725 112.5842258  60.7864046
  28.4368396  32.0700526   2.5122207  28.8676357  31.2744188   2.8246501
  29.1139436  32.7447319   2.5629282 101.8776417   5.0260538  80.7738876
 101.6610432   4.4786340  81.5286350 102.5604725   4.5388943  80.3127480
  93.1433964  15.1010358  64.5564222  93.9704609  14.9347568  64.1041565
  93.3377075  14.9365878  65.4791498  97.5923347  19.2221773  83.1938744
  97.6818466  19.6663260  84.0370560  97.1382236  18.4052765  83.4004879
  70.3048134 110.5103683  57.8485346  71.0579634 109.9292088  57.7424717
  70.6150198 111.1997032  58.4357548  73.4509277 108.4500599  67.4264479
  73.0301237 107.5991917  67.5496340  73.3513355 108.8909149  68.2702255
 102.8773022   0.0629610  64.6997595 103.4351349  -0.2467672  63.9862394
 103.4219265   0.6910449  65.1742268 104.8397350  32.0811248  70.6375170
 103.9774323  32.2060585  71.0338306 105.4540539  32.4191904  71.2891006
  54.6728468 110.0346375  87.5466537  54.1746950 110.3219604  86.7814541
  55.0962067 109.2233181  87.2660160  72.7567053 102.1685696  76.0660982
  73.2602549 101.3633728  76.1857605  72.7314377 102.2965717  75.1178312
  54.5599461 106.7042732  64.0896893  54.2706537 107.3127842  64.7695780
  54.3048668 107.1241188  63.2681751 109.3647003   0.4228498  72.5158548
 108.9851856  -0.1507393  73.1815815 110.0033665   0.9531222  72.9924536
  42.5095749 112.0565605  61.6554880  42.1440220 111.9274044  60.7803202
  41.7468786 112.0726204  62.2336531  49.0029764 105.7501793  68.0088806
  48.4824276 106.1503696  68.7053776  49.9003267 105.7652950  68.3416939
  64.6110296 111.5531158  62.5169373  64.2596722 111.3576794  61.6482687
  65.2132797 110.8318806  62.6995277  68.2205009 110.9836960  56.1870718
  67.7712202 110.1393127  56.1496067  69.0449047 110.7966328  56.6360712
  66.0046339 111.4431953  83.7168121  65.3979397 111.9234657  83.1533527
  66.3553905 110.7511806  83.1561756  58.2564306  99.0901184  70.8103085
  58.2501411  98.4059429  70.1409006  59.0739775  99.5647335  70.6600189
   5.1590526   8.8924867  43.8398361   4.9259818   7.9668856  43.9117527
   4.4913965   9.3481308  44.3525314 112.6110458  20.5627441  66.8646765
 112.7221012  20.8524156  65.9591436 113.4941292  20.5850840  67.2333097
  98.2714462  10.4351187  67.2919369  98.7181187  10.1595867  68.0924320
  98.8418484  11.1070073  66.9185209  53.2408857 102.5769711  77.3024702
  52.9635143 103.3019066  76.7423201  54.1362095 102.3868370  77.0223379
 111.5915298   5.8141398  85.6064320 112.5162983   6.0261154  85.4795742
 111.3179779   5.4280496  84.7743607  46.3856792  94.3041992  83.0989933
  46.2881613  94.3398380  82.1474457  45.8728456  93.5406113  83.3638954
 110.1061535  11.4913154  46.5100718 109.6905708  12.2172999  46.0448170
 110.0775623  10.7621586  45.8906031  19.7709131  75.0686455   3.4698749
  19.8205876  74.1197729   3.3540803  20.6153512  75.3926992   3.1565920
  89.3089104  13.4324265  58.7666941  89.5228100  14.1085088  59.4096518
  88.3520699  13.4127295  58.7491560  75.7746983 103.0599594  74.2593002
  75.6292677 102.1666718  74.5709181  76.6850853 103.0652714  73.9636612
  61.2981606 107.6368332  48.3226109  61.4666557 107.3401356  47.4282885
  62.0232868 108.2300854  48.5187626 115.1784515  24.6259904  48.6217546
 115.3805256  23.9780760  47.9467726 114.4077301  25.0859690  48.2891321
  64.9106216 100.2072620  85.9506226  64.7196245 100.4448795  86.8579769
  65.1314974 101.0368156  85.5272102  84.6765137  99.4334030  96.0799694
  83.8856888  99.0793800  95.6731510  85.2761936  98.6887455  96.1258030
 105.8964920   4.2141110  81.1973286 105.0289154   4.1036534  80.8083248
 106.0084629   5.1621258  81.2677860   5.9501380  72.4304247   1.9303790
   5.1326251  72.9255962   1.8783021   5.6728333  71.5169096   1.9997941
  91.5840435  29.0012741  68.8486624  91.3762665  29.3786645  69.7034359
  91.1864185  28.1307840  68.8681269  11.0312557  79.2234945  10.9836853
  10.9376740  79.8589325  10.2739751  11.7948055  79.5249653  11.4759624
  88.0478668   7.4972469  87.3275566  87.9304695   6.8418789  86.6398430
  87.5173283   7.1767139  88.0569458  65.3182316 104.5269394  86.8997765
  66.0743666 103.9656830  86.7280769  65.1184273 104.3832397  87.8247929
  59.3098927 107.1892738  81.1851597  59.0532160 106.6975689  80.4050541
  58.9772034 106.6689587  81.9164753  96.4981174   6.2853014  89.3842602
  96.0811234   6.8792999  90.0083733  97.2276688   6.7896980  89.0242958
   9.2659324  16.5118074  87.6401424   9.7089577  17.0719135  87.0027733
   9.9499863  15.9219575  87.9569721  73.2385492  29.7718763  65.7337570
  73.8006258  29.0013862  65.6522465  72.6894951  29.7518086  64.9499369
  96.5203190   7.1126980  55.7906723  96.9538689   7.8070885  55.2946043
  96.7133331   7.3158741  56.7059278  41.3149405 103.5140228  54.5358896
  40.7808208 103.5384083  55.3298378  40.9654093 104.2186165  53.9903450
  72.4047089 109.9272919  93.5465431  71.9502115 110.5388165  92.9671478
  73.0643320 110.4616547  93.9888000  95.1950836  22.5683308  44.1368198
  94.6133518  22.0999646  43.5381079  96.0275555  22.0996118  44.0775537
  54.8019886 105.2745628  73.5736990  54.2190361 106.0150814  73.4063005
  55.1203775 105.0198364  72.7076864 103.3650684  10.3071356  83.3534527
 103.1530952  10.6870139  84.2060947 103.9386845  10.9521782  82.9397964
 100.8579159   6.1486214  68.3229780 101.5735340   6.6213369  68.7480211
 101.2194252   5.2815676  68.1392431  96.8964291  98.4612465  48.5174799
  96.6830063  99.3848228  48.3844805  96.6121578  98.2762146  49.4125700
  78.0150080  12.2256088  67.4614477  78.3375216  11.3257623  67.4114990
  78.6144447  12.6616061  68.0671024 115.8787251  29.0967441  83.6645603
 115.6244469  29.8143148  83.0843258 116.7157650  29.3746424  84.0365314
  79.4533825   9.0512860  58.8364458  78.7897158   8.8605696  58.1735659
  80.2872467   8.9279664  58.3829212  97.4418926   7.5609219  81.0059071
  98.3767891   7.5996029  81.2076569  97.3213959   8.2016653  80.3050804
  75.7793427  88.7549019  88.6523724  75.7283306  89.6916103  88.8426685
  75.2356768  88.6388493  87.8731441  36.2489939 110.2973175  86.5929604
  36.1672974 110.1956844  87.5412369  36.8029189 109.5657539  86.3205147
 111.8705177   0.6387106  74.1381407 112.6233292   0.9629725  73.6438084
 112.1627712  -0.1989525  74.4975042 114.1161346  18.4587967  84.5446587
 114.4465065  17.5723910  84.3984699 113.6308002  18.4008169  85.3676510
  64.7501087  25.1335883  81.1780453  65.6471491  24.8114538  81.2662506
  64.2428780  24.6003962  81.7901421 111.0732937   4.4945031  67.3425961
 110.5151367   4.9473596  66.7104483 110.6002903   4.5629704  68.1719446
  58.6185169 109.4302559  77.7797365  58.7925911 108.4890175  77.7798223
  57.6777506 109.4998550  77.9420662 102.4663639   1.5082407  88.1141949
 101.6407108   1.4108342  88.5885811 103.0820751   0.9488316  88.5876846
  70.9102011 108.0871201  65.7035589  71.7195940 107.8360844  66.1486387
  70.8184195 109.0228367  65.8831310  55.7572794 108.8046646  71.9117641
  55.9241104 109.6750164  71.5499687  56.3215923 108.2218838  71.4036942
 108.4469509   5.4077864  65.9800434 108.0764103   5.0516784  65.1725054
 107.8631592   6.1295176  66.2135506  54.6084738 111.9816017  90.8315182
  53.7852859 111.9400883  91.3182259  55.2020359 112.4655914  91.4056873
 103.0660057   9.3933344  53.1631899 103.2938194   8.6256492  53.6875820
 103.6274052  10.0903940  53.5025597  97.3466396   5.5645788  93.0714989
  96.8592930   6.1007422  92.4460030  97.9062939   6.1871529  93.5356331
  97.6005173  29.1257572  54.4255018  97.7210236  29.7836304  53.7407303
  98.1704712  28.4020829  54.1653585  79.2529106 102.5827026  65.5289745
  79.5825005 102.0160770  64.8314476  80.0400257 102.9496193  65.9315205
 101.6296673  28.6529899  96.9053459 100.8270931  28.7145686  97.4233437
 101.7650604  29.5382118  96.5672970 107.8833771  10.2212083  51.6101885
 108.2853603  10.1878250  50.7421303 108.6005402  10.4606605  52.1971893
 109.9617767  17.7801692  70.3532314 109.4878387  18.5839462  70.1398039
 109.5195007  17.0994711  69.8460102  41.5412235  68.4197855  13.2151473
  42.0808029  68.1400061  13.9546108  41.9808149  69.2012405  12.8800106
  81.0986900   0.5298727  65.9053564  80.9310532   1.4116174  65.5727053
  80.2523327   0.2361301  66.2424469  95.4220486  35.0089478  83.3386040
  96.1150455  35.5260348  82.9279900  94.9843407  34.5720291  82.6080227
  98.4057713 111.0038471  64.8910856  97.6838684 111.5021896  64.5079947
  98.5780525 110.3067780  64.2581177 102.9203892  10.9635293  85.9447193
 102.9217815  11.9158280  86.0414600 102.0099831  10.7088673  86.0948944
 113.3856010   3.4683937  73.0849600 112.8642368   3.6654067  73.8631582
 114.1915894   3.9710522  73.2030821  29.3432951  59.0784073   0.7260858
  29.1232777  59.3144178  -0.1750932  28.6712313  58.4453964   0.9787890
  95.6946850   1.2151130  68.3811665  95.0190258   1.7463899  68.8024235
  95.9406090   1.7140275  67.6021671  96.7361641  12.9774177  56.6699743
  95.7816696  12.9056299  56.6679573  97.0125008  12.4753177  57.4366379
 108.1943798  24.1419339  92.8091908 107.5926685  23.4415579  93.0614853
 108.0668831  24.2388558  91.8654823  38.7073278 105.0101852  71.3976336
  38.3716559 104.2439556  71.8628740  39.5393682 105.2063656  71.8282795
  55.1905918 100.0629997  79.0699100  55.4316998 100.7184982  79.7244501
  55.0727320 100.5630589  78.2622671  98.0980968  10.7826197  58.4627104
  98.6505127  11.0641968  57.7334785  98.5491180  11.1047387  59.2431307
 109.5698166  15.6994259  66.7811537 110.1453400  16.4634562  66.8166447
 109.2788124  15.5765986  67.6847363  70.2918625 101.3957596  89.2216969
  69.9972105 101.1963844  88.3330631  69.9258041 102.2605610  89.4070339
  61.5916443 105.4102516  78.0136204  60.9835196 104.7657013  78.3755207
  62.1033907 105.7058907  78.7665796  62.7442598 108.2110214  84.4172478
  62.5795937 107.5337982  85.0733662  62.7153921 109.0322208  84.9081993
  84.6040344  32.0488858  69.9323940  85.2724743  31.5620518  70.4144859
  83.9124012  32.2065830  70.5750561   3.4042323   2.9298458  48.6647034
   3.1519011   2.0496760  48.9437437   4.0394515   2.7858424  47.9632854
  62.2207212  99.4604111  75.3367853  61.8693829 100.2847862  75.0003433
  62.0417547  98.8236523  74.6448755  87.7447796 104.8237514  58.9606905
  87.2011089 104.2628574  59.5139074  88.0935860 104.2346096  58.2917500
  25.3731179  46.7363644  21.4971232  24.8281837  46.9077444  20.7290697
  24.7550392  46.7060900  22.2273922 108.5968590  10.4970157  64.1670036
 108.0532360   9.7345942  64.3655491 109.4907475  10.1552367  64.1473341
 116.2276077   3.8796899  72.8067923 116.3004589   3.7112227  71.8673563
 116.4321423   3.0395493  73.2173586  27.9082870  17.4303579  67.7343941
  26.9806552  17.6543725  67.8088903  28.2409406  18.0118155  67.0506668
  56.1954403 109.8106098  89.8707485  55.7151175 109.9102688  89.0488052
  56.0232830 110.6219196  90.3486347 102.1785164   6.8883431  93.4065533
 103.1082249   7.0191133  93.5930061 101.8977642   6.2279475  94.0400219
  79.2464542 109.6346664  77.1845722  79.0852213 109.4010639  78.0987167
  79.0703869 108.8299370  76.6970825  77.8789473  27.5517511  61.0020971
  77.6667166  28.4780979  60.8877563  77.8874063  27.1964979  60.1133013
  62.5012159 102.9358768  93.7016010  61.9093800 102.2246933  93.4562778
  62.6997757 102.7748013  94.6240234  47.7993774 111.9364929  55.0706196
  47.0263672 111.6251183  55.5415058  48.3927441 112.2392273  55.7580090
  29.6663952 102.6226234  94.8177814  29.8964643 101.8229580  95.2908993
  30.1180363 103.3202553  95.2927113  62.9970264 110.7794285  60.1192570
  63.6504745 111.3694572  59.7436094  62.8367805 110.1315117  59.4331408
  72.7173233 108.9748573  57.1217251  73.3211803 109.7164536  57.1619701
  72.5856829 108.8236904  56.1857462  96.2074757   1.7408165  75.1868820
  96.3154316   1.2469800  74.3740463  96.0386562   2.6386109  74.9010563
  76.4255714 106.5591526  48.1135893  76.6328239 106.4401150  47.1867085
  75.4706812 106.6202831  48.1395674  92.8875065   2.2292183  95.1454926
  93.1999111   2.7146599  94.3819618  92.6730824   1.3604404  94.8056698
  93.6918831  17.8798783  75.6505013  93.2354832  17.4181116  74.9471474
  94.2079163  18.5496950  75.2018547 111.3018799  34.0619373  77.8993034
 110.3623009  34.1574526  77.7434587 111.5833950  34.9252009  78.2022190
  81.3257980  17.6062477  74.6870518  81.7633724  16.7966235  74.9502420
  81.3670921  17.6008677  73.7307596  52.9454184 104.5770168  75.5589962
  52.2581816 104.2413044  74.9834728  53.6355114 104.8686314  74.9631977
  69.9244881 100.8395100  79.8384953  70.1575994 101.0101318  80.7510662
  68.9728498 100.9389877  79.8117638 110.0180721  31.6231441  86.0449600
 109.3035316  32.2098112  85.7969952 109.6116257  30.7578921  86.0936356
  49.8941369  93.1770071  97.2043734  49.2499275  92.6049575  96.7872579
  49.4507660  94.0219554  97.2799700 100.3416634  19.5957184  82.9787064
 100.4607582  20.4632664  82.5921726  99.4604778  19.3336487  82.7121162
  54.8623991  91.2679577  92.2188854  55.4042959  91.2846851  91.4300251
  54.5685434  92.1725273  92.3268223  33.8596845  61.1701584   8.1476748
  34.7141910  61.1840773   7.7165633  34.0629053  61.1887121   9.0828693
  93.6356926  20.1076889  53.3954287  92.7868843  20.1909137  53.8299799
  94.2416191  19.8693514  54.0970564 114.4524193  10.9460604  47.1668911
 115.1058769  11.3082850  46.5685415 114.4806957  10.0022972  47.0095873
  50.9776449 110.1228142  76.6842270  51.0119629 109.4378948  77.3520184
  50.8595753 110.9338093  77.1787834  53.5934258 111.4563465  46.1093283
  54.0904951 111.7411900  46.8761539  54.1945744 111.5799427  45.3747702
   0.4575884  48.1123638   4.7947735   0.6123453  47.2273636   5.1250029
   0.8039482  48.6867857   5.4776400  96.0827637   8.1915849  71.1724520
  96.9670486   8.0727208  71.5190649  96.1300373   7.8586662  70.2762556
  74.8142147 110.5664825  58.8174057  75.3372717 110.7052708  58.0278635
  75.2998161 109.9075794  59.3136597 109.8625469   0.7096918  94.3840790
 109.9151325  -0.2094422  94.1220474 108.9242935   0.8847809  94.4565487
  65.8582497 101.0739899  81.8503094  65.6168270 101.4138508  82.7119541
  65.0670481 100.6373310  81.5347767 110.9746361  20.3516030  85.1918316
 111.0841751  21.3023257  85.1728630 111.5095043  20.0343156  84.4641781
  79.9338531  97.4472046  30.7865787  79.4627762  96.9830322  30.0945807
  79.7193146  96.9667625  31.5861940  81.1602688   2.4063183  78.4663773
  81.9048214   2.8363767  78.0457544  81.5008068   2.1088161  79.3100357
  69.2778444 111.5102959  61.2663889  69.4522524 110.5935860  61.0531664
  69.6876144 111.6393948  62.1217585  89.6082687 111.5324497  60.4317427
  90.1950169 111.9294930  61.0754204  90.1902103 111.2129307  59.7421837
  88.9047337   3.5906664  84.0202808  88.3370686   2.9032394  83.6717987
  89.7213268   3.1403682  84.2362499 111.4088631   8.9087683  78.3343506
 110.9396458   9.6847391  78.0278540 112.3176479   9.0603161  78.0747795
 108.8099957   0.4107190  83.2308674 108.8167381  -0.5180497  83.4623337
 108.6349201   0.8620779  84.0566158   1.5684620  22.1426582  69.4649363
   0.7238310  21.8816662  69.8319674   2.1679926  21.4420724  69.7217894
  58.6237240 105.8792210  41.9769669  58.6484766 105.1568317  42.6044750
  59.4627190 106.3253784  42.0921421  93.2642937   5.7602286  68.6498880
  92.7559662   6.1500955  69.3611145  93.2539558   6.4213437  67.9577541
 111.8091774  17.0459914  87.9666805 112.0886230  16.9893825  88.8804340
 112.3244858  16.3765061  87.5167084 103.6408901   4.2875242  43.6429834
 103.4213543   4.9461636  44.3019438 104.5957565   4.2278197  43.6728621
  56.4690399  90.9322834  90.0472736  56.9140005  90.6090736  89.2638302
  57.0735264  91.5752506  90.4179764  74.9909639 108.8991451  73.8831997
  74.5545864 108.2656384  73.3135748  75.9244633 108.7214375  73.7681723
  76.9385815  15.0499916  62.9072332  76.9888210  14.2549372  63.4378910
  76.9120073  15.7627439  63.5455990  40.0642252 107.2277355  86.7989731
  40.3426695 106.3304234  86.9820786  40.8182907 107.6290894  86.3670731
  60.1896191 106.3453293  84.9898911  60.1821423 107.2406101  84.6512890
  60.2796173 106.4483166  85.9372711  72.3839188 100.3523159  57.6304197
  73.3395624 100.3325558  57.6812172  72.1957731 100.9047508  56.8717051
  96.1840534 111.3324547  57.0086050  96.4141464 110.6471062  56.3812351
  97.0070839 111.7926216  57.1731997  92.9240894   0.8985646  88.9409351
  93.7328911   0.4665544  89.2156029  92.2276497   0.3082499  89.2285633
  96.3634872  25.4854131  48.8126850  96.0513306  26.3086390  48.4370661
  95.6077290  24.8997355  48.7675095  81.0965824 106.2942791  63.0711555
  81.1176777 106.8191910  62.2709942  80.1750946 106.2893581  63.3301497
 106.1301708  23.6452007  83.6267376 107.0597172  23.5201311  83.8178921
 105.9886932  23.1728435  82.8063202  83.4222031 107.4797249  42.3034000
  83.5518646 106.5543652  42.0957088  84.2983246 107.8031445  42.5132465
  91.2806320  35.2779245  60.3887367  90.7046032  35.9955645  60.6522036
  92.1113968  35.7032847  60.1762962   8.8021940   9.8667783  56.7655706
   9.1198415  10.4840684  56.1065674   7.9435849  10.2064848  57.0178032
 117.4867725   1.6940475  66.4291668 118.2461262   2.1451218  66.0601807
 117.7788162   1.3999492  67.2919798  58.8366222  94.4875336  57.0997286
  58.3642626  94.4431877  56.2683821  58.2044172  94.1834259  57.7509308
 106.5973568  10.1137078  47.3845243 105.9442520   9.6159524  47.8763914
 107.4091721   9.6188980  47.4956274  91.1485195  14.6959996  54.4382524
  91.7516804  15.0929952  55.0666094  90.4770851  14.2812741  54.9799252
  86.4149857  22.7707195  57.1553850  86.5937996  22.5213194  58.0620575
  85.4617500  22.7289915  57.0790386  30.2133298  45.3838682   1.1140261
  30.4869843  44.7279787   1.7552389  30.2319527  44.9218321   0.2759271
   5.0192910  36.1894846  73.5363865   4.1211158  36.1363220  73.2097578
   4.9934730  36.8821239  74.1965485 114.0937328  21.9572139  79.4842768
 113.9385986  22.8774500  79.6971846 113.3586502  21.7144084  78.9213181
  58.3270884  68.9391327  16.1048961  58.5344028  68.6948681  17.0068872
  58.2582378  68.1048918  15.6406331   6.2253356   6.4027184  72.9633617
   7.0153308   6.8975896  72.7460098   5.8630288   6.1454535  72.1155548
 105.6819057   9.3973607  80.3176594 106.5601540   9.3238586  79.9441290
 105.1400566   9.7143102  79.5950460   7.5954145   9.8371387  74.3672752
   7.5888062  10.6541610  73.8686132   8.3104140   9.3287051  73.9845181
 113.2661152   6.0829765  77.9861975 113.0704784   6.9714963  77.6887274
 114.2173386   6.0698593  78.0921221 119.0734386  15.2672553  87.3369789
 118.1906223  14.9754822  87.5644302 119.2580414  14.8417401  86.4996719
  78.2287836 108.9883518  42.5929451  79.0580606 108.5563183  42.3883152
  77.5977135 108.2724857  42.6672506   4.9883887  37.6121211  77.2944927
   5.4764771  38.0829144  76.6189480   4.0752554  37.6676798  77.0128298
 117.2872353   5.5994338  66.8190384 117.3486328   6.4389181  67.2748137
 117.8560734   5.6991720  66.0556841  56.8239784 100.6046391  66.5930939
  56.4983225  99.7238922  66.4074373  56.9531965 100.6172562  67.5414467
  54.7050381  47.5080538  15.2658916  55.4739237  47.6752901  15.8109391
  54.0359545  48.1014967  15.6070423 106.4748096  21.5538311  89.3790150
 106.5437508  21.8629313  90.2823067 105.8403397  22.1436334  88.9718056
   9.3789160   5.0461239  80.1873398   9.2535347   4.1160065  80.3754711
   8.4993857   5.3728396  79.9978256  14.2846632  21.3858414  67.1059990
  14.8651326  21.1846209  66.3719702  14.4981754  20.7278275  67.7675629
  55.6528521  96.1887264  75.4418278  54.9212170  96.7446041  75.1736164
  55.6059790  95.4324245  74.8569870  72.5294971 107.2014999  82.3579407
  73.0216169 106.3822269  82.3046875  72.7877140 107.5818634  83.1975079
  15.2928948   9.9108255  74.9678040  14.5653355   9.5353723  75.4637098
  15.6589496  10.5783939  75.5479670  95.9290791  20.4763627  64.0005445
  95.4759598  20.4377270  64.8428154  96.2314034  21.3820171  63.9325333
 109.7869587  14.0146279  92.9661465 110.1393795  13.1905353  93.3021545
 109.5382118  13.8181865  92.0629501 104.5986557  22.2991967  60.9180927
 104.4841862  22.2288275  61.8658113 105.0047112  23.1563163  60.7888699
  78.7452221  10.5488813  74.4259453  78.9259624  10.7259905  73.5028028
  79.2787075  11.1860323  74.9009848  83.1661129  99.3309212  58.0179071
  83.3911228  99.8132706  57.2223377  83.1658936  98.4122562  57.7490330
 115.1802921   5.4483247  89.8376751 115.7044601   5.6778854  90.6050014
 115.7629013   4.9099818  89.3019676 118.2104015   5.0925595  93.6448956
 118.7939453   5.0352752  94.4014835 117.7880669   5.9470904  93.7323189
  76.6873217 108.1884098  64.5031118  75.8043337 108.2907772  64.1480207
  76.8856239 109.0365219  64.9001312 106.4812469  42.6676083  68.6589003
 106.0422707  43.3951330  68.2181740 106.0081577  41.8890715  68.3651447
  98.2411575  11.0945129  89.2684555  97.4940968  10.9573889  88.6859417
  97.9650211  11.8034756  89.8492813  14.2652225  17.5305569  77.6471186
  13.3237779  17.5016189  77.8176355  14.5938230  18.2127702  78.2326412
   3.8094735  10.1909411  60.1171875   3.7143090  10.8677804  59.4470644
   4.3222433   9.5034677  59.6921206 114.3190193  14.1038036  55.4451704
 115.1328468  13.7342393  55.7876968 114.5724201  14.5173252  54.6199322
 108.5482979  41.5832186  76.6328526 108.8609505  42.0369434  75.8501530
 107.5943184  41.6375399  76.5761852 103.7480450   9.4958144  57.6059198
 103.6824608   9.0665650  56.7528820 104.3177605  10.2493846  57.4516773
 104.0408707  23.3060813  71.1658525 103.9750862  23.2948184  70.2109814
 103.1783867  23.0221510  71.4687252 115.7420444  22.7846670  46.5663576
 116.4166260  22.9350567  45.9041166 115.8540916  21.8681026  46.8185282
 118.0540562  47.9121017  59.2293215 117.0978165  47.9481602  59.2526817
 118.2533741  47.0165062  58.9565372 109.5839787   0.1447829  67.8879833
 110.3068733   0.7624321  67.9983139 109.6064186  -0.3939351  68.6788750
  70.4240561 102.3886299  69.1460657  71.1403179 102.4377823  68.5129881
  69.9814796 103.2342339  69.0731192 117.2716713  22.3557019  66.9615126
 118.1837368  22.0665812  66.9336271 117.2921085  23.1636906  67.4743223
  83.3153384 111.8979650  80.2935505  83.1553291 112.8393115  80.2265072
  82.6925539 111.5050035  79.6820354  59.9298000  59.7613716   1.0630440
  59.5444059  59.0222788   1.5336272  60.8236217  59.4805861   0.8668789
  76.8952656  99.0554237  56.2494183  76.8716431  99.0390396  55.2926493
  77.5924921  98.4423447  56.4823198 108.1440830  17.3086917  55.0909805
 108.8408279  17.0158803  55.6783915 107.6924038  17.9968727  55.5794811
   1.4244041  28.5339189  72.3778391   1.2292025  28.6135626  73.3115339
   0.5696896  28.5814929  71.9495487  88.1696224  18.9206910  73.2417059
  88.8353348  18.8882446  73.9287376  87.7111053  18.0834699  73.3127594
 118.9980507  27.2049928  85.4672050 118.8049030  28.1407237  85.4094982
 118.5886192  26.9259810  86.2861919  65.5553007 110.8236408  69.4291544
  66.4424992 110.5935764  69.7051668  64.9969101 110.5308819  70.1493788
 107.3110008  24.8680949  78.2625246 107.6363277  24.0684175  77.8491163
 106.7669010  25.2803254  77.5915146   5.1210421  14.7395742  67.5212526
   5.7504755  14.8463321  68.2344484   4.3393770  15.2042472  67.8201008
  18.8166213  34.1377258  69.8253679  19.4169307  34.6822929  70.3345871
  18.0378425  34.6823478  69.7108078  90.0682831  13.1875229  83.0013752
  90.7531738  12.7569735  83.5130215  89.4478035  13.5098398  83.6550999
 105.5667114  13.3311701  65.4701519 105.8884716  14.1469586  65.8538055
 106.0538578  12.6441038  65.9249735  93.1651592  35.8588505  84.7128296
  93.8905048  35.4040074  84.2848015  93.0472851  35.3948855  85.5417347
  38.9181113  65.0943041   8.7403846  39.3562675  65.9069777   8.4877735
  39.6022177  64.4268990   8.6874294 104.6079445  10.9461880  64.2638016
 105.0403881  10.8060050  63.4214401 104.9336147  11.7955208  64.5618057
  13.9879012  11.1193085  52.4221134  14.8778152  10.7948089  52.2843266
  13.7608850  11.5526044  51.5993452   5.0034499  23.1674075  59.3366432
   5.6028992  23.0765009  60.0773382   4.2346072  22.6548529  59.5864487
   3.2258156  10.4797041  90.2379036   3.6889836  10.7152998  89.4340324
   3.3918482   9.5430315  90.3442478  21.7470312  44.5754147  72.9662371
  22.5003695  45.1235628  73.1859016  22.1061587  43.6907244  72.8985596
  69.2992353 102.1189785  75.2893114  68.4194088 102.2094440  74.9233103
  69.8496675 102.6643562  74.7273397  79.4087505 111.4006996  70.6672430
  78.8908577 110.6088638  70.5222368  80.3163242 111.1165237  70.5586481
  20.9806132  13.4165418  80.7355499  20.9578347  12.8555894  79.9602795
  20.8361006  14.2998874  80.3963661  92.5690460   0.4560310  72.4686718
  92.4805927  -0.2853548  73.0676317  92.3844528   0.0888658  71.6041756
   2.9402709  11.1875606  70.5315733   2.7636373  11.9251466  69.9476242
   2.6421732  11.4856982  71.3909245  93.3003616  29.2688417  78.4288692
  92.8945827  28.5204816  77.9912329  94.1171455  28.9222717  78.7880325
 113.2964611  28.3211732  64.4458342 114.1511726  28.7009001  64.2420673
 112.6820183  29.0487909  64.3495893  41.5122747 101.1616421  42.2669363
  42.3308134 101.4769745  42.6500702  41.1491442 100.5731010  42.9287434
 103.4084034  42.3864889  79.4915104 102.9731178  43.1395435  79.0919304
 102.6923847  41.8403006  79.8159075  66.2678862 106.5639496  40.4972935
  66.2509489 107.0924854  41.2951660  66.2710238 107.2043037  39.7858334
  82.5438690   9.2973608  76.4940548  81.8484211   9.2776877  77.1514654
  83.1295300   9.9960285  76.7857790   9.1773850   7.3498291  87.2496414
   9.7298419   7.5031036  86.4831352   8.6683732   6.5706313  87.0260525
 112.6448441  11.5443337  62.2725439 113.5524654  11.7089713  62.0168924
 112.3839855  10.7836699  61.7533398  70.0517273 107.4419594  76.3825226
  69.3548679 106.8077087  76.2141657  69.6691036 108.2867432  76.1454964
 103.0266285  26.2492490  81.4049339 102.3682594  25.7675648  81.9056988
 103.2434082  25.6696796  80.6746292 107.0121002   9.7707659  59.2886209
 106.8524742  10.5990231  58.8361406 107.9658031   9.6965206  59.3229294
  99.8443985  14.7721100  67.7771950 100.4452991  14.6289384  67.0459986
 100.2600861  15.4594493  68.2977724   7.1745872  10.0727963  86.9704723
   7.4253350   9.1964710  86.6782188   6.2522775   9.9897248  87.2126961
  76.1456347 105.5218601  59.6437025  76.7390060 105.4449940  58.8965559
  75.3080082 105.7796764  59.2588043  85.2240753 108.4362888  70.3873014
  84.8841476 108.5893154  71.2689304  84.7446442 107.6686573  70.0756502
 104.6455383   2.9583779  85.9320641 105.5620193   3.0496350  85.6713390
 104.1514587   3.1020284  85.1249218 112.9775238  22.4980998  72.9490948
 112.5500107  23.2072544  72.4689245 112.3267841  21.7964292  72.9696512
 114.4131470  30.1206040  76.8329763 114.6940517  30.9369588  76.4195871
 115.2105236  29.7633290  77.2238493   2.0989752   4.2115909  80.1093674
   1.2759966   4.6334317  80.3563213   1.8869296   3.7183556  79.3169117
 113.9150143   7.0413268  84.9901581 114.6969604   6.5476018  84.7431278
 114.2380714   7.7218282  85.5807400   2.0464903   9.3465078  62.9326916
   2.6339331   9.3076056  62.1779537   1.1962387   9.5836216  62.5624466
 110.9508133  11.7869270  89.2391300 110.9695435  11.2025857  89.9970436
 110.1745319  12.3302770  89.3747520 107.5213337   2.2874431  88.7378979
 108.0789566   2.8429145  89.2826462 107.6644516   2.6052931  87.8464317
 101.2524223 109.4247150  52.8321123 101.6115189 108.7517357  53.4103632
 101.3894176 110.2452755  53.3055544  30.9171772   5.4521656  66.5804291
  30.8243990   6.0934061  65.8758497  30.7483172   5.9494936  67.3806715
 103.4758472  98.4197712  94.1670418 104.0780830  99.1519737  94.2990685
 102.7536583  98.5916996  94.7712898 106.3309383  22.0788717  54.2816448
 106.9228840  21.5204692  54.7856474 105.4741287  21.6615200  54.3706799
 105.2004910  23.8153529  96.2360954 105.5533028  24.3907237  95.5573368
 104.8577595  23.0612278  95.7564449 109.7688007   7.3411697  76.5925360
 110.3411293   7.8631288  77.1548748 109.8246765   7.7639258  75.7355738
  34.8649693  74.7712946  11.4749444  34.5242953  74.8713303  12.3638570
  34.4354963  75.4649925  10.9743726  85.2345753  97.8982067  53.3565521
  85.0275326  97.4630260  54.1835833  85.0962639  97.2248840  52.6904154
   5.0826919  20.2060151  62.0790529   5.0783169  20.4883432  62.9936552
   4.1932911  19.8889422  61.9220066  88.2950020 111.3900757  66.5928459
  88.6346531 110.9501362  67.3721552  87.3517704 111.4507866  66.7440271
 100.4258347  16.6179729  95.1945591 100.2369785  17.2705054  95.8689213
 101.2151337  16.1742580  95.5049896  14.1750193   4.7569135  73.8346338
  13.6206794   5.4327929  74.2246675  14.0360332   4.8477212  72.8919411
  21.0993242   2.1042843  91.6194153  20.3757000   2.7303064  91.6458511
  21.3116288   2.0227394  90.6896305 104.2239571  91.0742092  74.9898529
 104.1325474  91.6347122  75.7603788 103.3261013  90.8352757  74.7596121
  15.4779673  28.3622026  96.6571712  15.5471385  27.7586102  95.9174919
  15.2098346  27.8106594  97.3921108  17.5459123  30.1697421  57.3416710
  17.5553250  30.6950903  58.1417656  17.2393227  30.7716751  56.6635036
  79.4093132 109.8705578  61.6474628  79.7108793 109.0519524  61.2535477
  80.0585842 110.0644779  62.3235416  91.1458015  24.0721941  63.5902262
  91.6848087  24.8233247  63.8382435  91.6136074  23.6735892  62.8563976
  77.5613213  94.7372627  89.0660763  77.6170158  94.0718365  88.3802700
  78.3853817  94.6559238  89.5462132 105.3298950   9.9283844  61.7167616
 104.5743275   9.9682927  61.1304522 106.0811043   9.8246950  61.1326599
 117.1371841  32.6076508  80.6275749 117.2450542  33.3618283  81.2070751
 116.1959934  32.4334073  80.6339359   8.5310215  16.6960835  59.6020365
   9.1477942  16.0944569  60.0190115   8.6668903  17.5292182  60.0533199
 102.9316711 108.6661816  59.8636532 103.3695984 108.5830688  60.7107353
 102.3133183 109.3869686  59.9834013   0.2927629  26.7205739  58.8922453
   0.0629842  27.6432228  58.7820101   0.3224662  26.3729930  58.0008793
  28.5848737   1.8124419  84.4791412  28.8426876   0.9150521  84.2682934
  29.4126940   2.2757596  84.6067524  25.9556007  40.7419634  81.5289783
  25.3291130  41.3651037  81.8970013  25.5223012  39.8920679  81.6074753
  19.8359919  21.6304326  62.2863483  19.8387766  22.3914862  62.8668833
  19.8245561  22.0020580  61.4043045  30.0588250  19.0077770  62.8795433
  29.6936202  18.1534243  62.6494598  30.9921575  18.9304340  62.6817083
   3.9211521   9.8811424  76.3097382   4.3434480  10.6296360  75.8882475
   3.6434406   9.3226558  75.5836535 104.2071342  29.3302369  41.7080307
 104.5825958  28.6236262  41.1827040 104.8111629  29.4284463  42.4440527
 109.4127655  12.6701570  55.6111431 109.8171139  11.8983316  55.2148914
 110.0600147  13.3657658  55.4952908   4.4065991  23.0391192  52.6675463
   5.1991290  23.1155610  53.1988525   4.0191013  22.2054076  52.9340076
  33.1887245   1.0383886  69.9386930  33.8632226   0.8077679  69.2998695
  32.7990842   1.8426611  69.5958281  17.5367653   8.3553815  73.6113691
  18.3117080   8.8211715  73.2971478  17.3750746   8.7193698  74.4817734
  99.4830322  27.2151494  48.5314941 100.4106045  27.3492718  48.3369255
  99.1569138  26.6954327  47.7968025  15.7545424  17.2930133  70.6276894
  15.1810491  16.8146682  71.2264585  16.4700484  16.6843379  70.4438448
   6.7349237  10.7666111  47.3993492   6.5015370   9.8639369  47.6160097
   7.6833278  10.8050537  47.5229788 114.2449284  12.4920237  85.6497574
 115.1895142  12.4548244  85.8001614 113.8795662  11.8535233  86.2621689
   0.2807978  29.9687600  62.8062630   1.0009554  29.4808197  62.4068594
  -0.4079076  29.9662852  62.1415043 116.0319710  20.7887316  43.4043217
 116.7917633  20.2926397  43.0996180 116.4019012  21.4807105  43.9525414
  79.7736073  98.3769798  54.8324108  79.9336195  97.8362846  55.6058931
  79.7100258  99.2693043  55.1729298 118.3041573   9.2252433  70.9150887
 117.6585293   9.4718575  70.2528381 118.0399609   8.3479321  71.1921358
  16.7783272   1.4719738  81.0336876  17.6265407   1.0808322  81.2429142
  16.6593075   1.3003366  80.0995541  31.2404871   9.3936980  50.7952833
  30.4008269   9.0265477  50.5188704  31.6605139   8.6876833  51.2865591
  30.7541442  24.8167109  63.2286549  30.8039761  25.7555652  63.4083891
  31.0162616  24.4013262  64.0502310   8.8586968  24.6059299  53.0807781
   8.4041280  23.8365602  53.4238100   9.5492822  24.7809315  53.7200737
  21.5672445  22.9259014  45.2566099  21.2105918  23.2284904  46.0917568
  21.9486690  22.0706558  45.4548597   2.0164914  55.2900934  56.4616156
   1.4106506  54.5617676  56.3247395   2.3021913  55.1964331  57.3703671
  94.8497295  26.7444730  93.6888790  95.0844765  27.2629285  92.9192448
  95.5249786  26.0677290  93.7368298  16.1756754   7.6901406  54.8044682
  15.2380419   7.8611296  54.7159290  16.5075660   7.7044570  53.9067650
  16.8861914  20.9395790  79.5601559  16.8988788  21.1567521  80.4923058
  17.7161050  20.4874730  79.4082451  15.0272906   4.5149276  78.6490536
  14.6902907   5.3510326  78.3271980  15.2924216   4.0435666  77.8592730
  32.7509618  27.8655314  50.0939131  32.7704263  26.9543552  49.8013163
  31.9962859  27.9125428  50.6808424  14.9050105  14.3736577  57.2286034
  15.7987666  14.6511066  57.4297333  14.5264935  14.1502440  58.0789232
   9.6407783  10.9831488  47.5151253   9.7260070  11.5345299  46.7373419
  10.0243819  10.1448321  47.2576284  17.4641895  35.7566142  51.8654013
  17.6128209  34.8905873  51.4857435  18.3385134  36.0698056  52.0971346
 111.9246197  26.2688780  68.3591413 112.2933292  25.3862071  68.3934450
 111.0837936  26.1949301  68.8105631   2.9866305  38.1204367  48.0699110
   3.5636631  38.3228111  48.8063288   2.8107440  37.1832943  48.1539488
 103.3358860  19.3353093  75.3902388 102.9094696  19.8808038  74.7293043
 102.9412460  19.6095467  76.2180614  31.0836744  22.8571630  59.3569374
  31.8614173  23.1880331  58.9076376  30.4246926  23.5395145  59.2289925
 106.8520641  14.3903744  56.2733269 107.7263832  14.0041280  56.3243771
 106.9837475  15.2218032  55.8176756  22.1346617  27.2996736  74.3295956
  22.5025129  28.1738257  74.4591141  22.2930694  27.1076918  73.4053230
  33.5430241  26.8343449  42.7469397  34.2359686  27.1863365  42.1882248
  32.8537226  27.4979663  42.7204561   5.8784002  18.7280691  59.7872400
   5.5323446  19.4301963  60.3381443   5.9814209  17.9854250  60.3822994
 114.0882969  21.1643505  62.4317408 113.7766075  21.2915254  61.5356922
 114.6961880  21.8889332  62.5789785  77.4942017 111.4225483  56.6621113
  78.3888054 111.3612652  56.3272142  77.5856113 111.3207531  57.6094866
   7.8816342  33.6273026  53.0633926   8.0789429  34.3828082  53.6170292
   7.7963817  32.8969955  53.6762714  10.5201709  34.9324203  45.7037926
  10.3694749  35.0361681  46.6433477  11.4613914  35.0689650  45.5956697
  11.7014170  23.8703728  78.3073473  12.2534025  23.9696956  79.0830278
  10.8619261  23.5621500  78.6486483   0.3348823  16.8083632  52.9105234
   1.2081768  16.5156865  53.1711531   0.3933069  16.9211590  51.9617891
  21.6782641  20.1154089  63.6525917  21.0582924  20.7904649  63.3766079
  22.2248602  19.9626541  62.8817940  98.2715511  28.8204336  45.9484529
  98.2125187  29.1105008  46.8587303  98.4502697  27.8819060  46.0072517
  29.8512459   7.1577138  59.8998833  29.6905255   7.4248767  60.8048820
  29.2232203   7.6647335  59.3853474  34.4562197  20.5552983  56.6138887
  34.5455217  19.6967328  56.2002182  33.5387802  20.7922459  56.4782667
   5.2020931   4.4637200  69.7514820   4.7513494   5.2548939  70.0466156
   4.9325100   4.3608192  68.8388109  78.4353495 108.2320976  58.1159925
  79.0708351 108.9313698  58.2690048  77.6149082 108.5716152  58.4735394
  24.5316720   0.5476363  50.6472540  24.3463731   1.4687499  50.4643726
  23.6914968   0.1055151  50.5253220 111.7936802   1.8717982  68.4405231
 111.7895508   2.5609267  67.7762032 112.1232986   2.3017867  69.2296314
 104.9346447 108.2858181  62.0309401 104.9914265 108.7952614  62.8393269
 105.7635975 108.4542942  61.5829468  28.8520789   8.2364130  49.7636318
  28.4882140   8.4121758  48.8959122  28.2915235   7.5491202  50.1236868
   9.7282261  12.6951957  58.2013130   8.9773512  12.4635732  57.6547146
  10.4846144  12.3469853  57.7292347  43.3011770   2.5092632  76.9221592
  44.1358232   2.9225016  76.7011881  43.5011816   1.9531310  77.6751184
  36.4765501  18.8280344  73.1288481  35.5751252  18.9436507  72.8283548
  36.4873195  19.2100084  74.0064621  92.1581745 106.7414951  82.8715611
  91.7276287 107.5963783  82.8764153  93.0898857 106.9430447  82.7847767
 115.9451103  15.7286775  64.5604849 115.6287956  16.5726721  64.2382336
 116.3032818  15.2954566  63.7857151  77.7652693 104.9236393  61.9299126
  78.3608246 104.2750740  61.5545511  77.2067881 105.1875019  61.1986780
  20.5245614  30.4211593  61.8107080  21.0626626  31.2127662  61.8044043
  19.6548700  30.7247996  62.0708466   5.5806524  30.9967065  59.2204571
   5.8884716  31.6629744  58.6059952   6.0317725  31.1998892  60.0398731
   5.6467879  19.0396595  72.6953220   5.5700737  19.6882260  71.9955301
   5.7052249  18.2004154  72.2387171  18.8817406  10.0278580  80.1103020
  18.4543872  10.8255422  80.4222393  18.5118318   9.3305463  80.6517410
 119.3383694  18.8627779  66.8180895 118.5297775  19.3681002  66.7339849
 119.5439529  18.8935685  67.7524424  22.2947431  40.7454157  92.4530506
  22.6798701  41.3798618  93.0575275  22.3623180  39.9072766  92.9104233
  32.8190899   4.0117812  62.8123188  31.8632460   4.0623042  62.8059340
  33.0339193   3.6468485  63.6707497  80.6999969  40.2292728   0.6969471
  80.0086308  39.9916959   0.0790519  80.9832001  39.3952870   1.0717726
  24.5915055  32.5180483  37.2821689  24.9896479  31.6854882  37.5362515
  24.2249227  32.3530054  36.4134860  95.3099918 104.4854736  49.9818277
  96.2472248 104.2991638  49.9260616  95.0456905 104.1321754  50.8312702
 111.0430813  13.8398480  49.6174717 110.7361317  14.1690648  48.7727070
 111.4371777  12.9913616  49.4149971   7.3270637  28.6135173  42.7075243
   6.4192843  28.8355613  42.9145622   7.8440237  29.2972279  43.1335783
 111.7119026  14.3812025  54.7554588 112.5143242  13.9537179  55.0548077
 111.9461250  14.7656012  53.9107037  20.9685016  15.2449143  67.2621107
  20.9427738  16.1406648  67.5985670  20.7264280  14.7005987  68.0113459
  22.9990482  29.2783308  66.0338593  23.4607720  28.4447479  65.9434032
  23.5076237  29.8925185  65.5043697  23.2944489  32.6111245  85.2678585
  22.5707364  33.0936599  85.6674004  24.0281868  33.2256913  85.2808857
  24.5435643  46.1382151  70.8414364  24.4504046  46.6721869  71.6303730
  23.6656022  46.1183357  70.4606247   1.8836910  14.7749496  75.8804560
   2.7892417  14.4648039  75.8760309   1.9394028  15.6811428  75.5772352
   4.8750201 108.5852718  49.4501400   5.1070482 109.4827080  49.2113781
   4.0660977 108.4109497  48.9690065  11.1724102  10.2955520  60.4298973
  10.3562176  10.4923189  60.8896208  11.2046337  10.9322584  59.7158957
 110.1833725   3.1592488  53.9757299 110.7519627   2.4231824  54.2018604
 110.4278851   3.3837911  53.0779409  40.0385380   6.8307602  43.1362629
  39.4603109   6.3496494  42.5443029  40.7676888   7.1113795  42.5832510
  22.3457360  38.3203387  48.2113266  21.5634084  38.7793279  48.5171461
  22.8338885  38.9806247  47.7194309  22.0887280  28.8495851  68.5698557
  21.1460304  28.6836100  68.5674095  22.3522162  28.7477994  67.6552820
  97.2450924 110.7272053  82.9406738  97.4112797 109.9786568  83.5136509
  97.6341248 111.4714432  83.4000111  46.0088730  10.0467634  68.8796997
  45.9251642   9.1384298  68.5896063  45.6007051  10.5595708  68.1820917
 118.8522053  23.6718440  41.1084938 118.0708694  23.1786704  40.8584309
 119.4758224  23.5073543  40.4011917  14.3774033   6.1102802  32.5965524
  13.6712551   5.7339191  32.0712543  14.2511070   5.7381696  33.4693742
  97.8332520 100.0066662  54.8623514  97.1444893  99.4142532  54.5608950
  98.2822132  99.5199585  55.5535698   5.9546393  34.3936801  64.0877819
   6.4557803  35.2066326  64.1525602   5.5777371  34.2745399  64.9595499
  15.5392981  22.2880673  55.3600264  15.0491989  22.1910691  56.1765003
  15.2912796  21.5239668  54.8395777  16.1878169  33.4018254  47.8388548
  16.4365697  33.4250236  46.9148302  16.9497097  33.7515473  48.3008528
   9.4493783  18.7575138  34.0015793   9.1422552  18.1681430  33.3127046
   8.6509597  19.1506827  34.3539691 110.7476234  28.8266134  65.2257204
 110.4170513  29.6389890  64.8423147 110.2082539  28.6927485  66.0050774
  27.3412156  23.0485272  42.5468206  26.9778037  23.9155889  42.3669195
  28.0370092  23.2080579  43.1845140  26.7725229  27.0112157  40.0674629
  27.6191306  26.6849947  39.7623968  26.9179511  27.9440951  40.2249956
  32.9667306  39.3037367  93.4387398  32.5753450  39.9955273  93.9721107
  32.2842383  38.6356664  93.3745956  21.2824631  42.9822683  79.8060036
  21.6694307  42.1746922  80.1441002  21.4629984  42.9592323  78.8662672
  86.2645054  23.1623602  38.9508915  85.3304005  23.3640289  39.0056610
  86.5160751  23.4307814  38.0672097  39.0458536   8.3260143  66.4707518
  39.1353106   9.2381424  66.1946154  38.2581353   8.0165464  66.0235834
 115.1844788  12.5865507  63.0782747 115.7748890  13.2162511  62.6646042
 115.6889057  11.7738974  63.1153870  35.6736422   6.2277877  75.4487467
  34.9981833   6.4990735  74.8271418  36.4186740   5.9815753  74.9005318
  17.6184142  18.1840146  68.4945250  16.8927526  18.0854857  69.1109180
  17.5243974  19.0736842  68.1541109  29.4136667  24.7632027  37.6590133
  28.5295129  24.5417643  37.3666668  29.8471689  25.1018357  36.8756628
 104.5699215   1.5992521  56.4020729 104.0898323   1.7533098  55.5884314
 105.4179096   1.2573785  56.1187553  42.1234751  24.3265271  43.9505816
  42.2421694  25.0216007  44.5978928  41.1919928  24.3587828  43.7325716
  10.6772089  41.4274597  88.1397629   9.9195600  41.3662481  88.7215328
  10.5289161  42.2282600  87.6368141 115.3736591   3.9183703  66.1417103
 115.6213570   3.8608274  65.2189064 115.7969093   4.7181439  66.4538813
  13.6434281   4.7013947  67.8535843  13.4318841   5.5373251  68.2691574
  13.2407188   4.7560674  66.9869423  13.3226335  15.8590019  72.1232653
  13.5178828  15.4207718  71.2949753  12.5641847  15.3890717  72.4698973
 106.1222553  39.9241209  55.5073595 106.8731308  39.4115138  55.8067846
 105.3596878  39.4326210  55.8125591  98.1144428 104.2388725  44.3104172
  98.7418556 104.2920208  45.0313616  98.3853817 103.4669113  43.8135290
  41.6555023  16.3513482  49.5960951  40.8730745  16.8444467  49.3493319
  41.3498259  15.4493499  49.6919680  87.6832581  98.3285713  52.0183039
  86.8134594  98.3391285  52.4177694  87.8946304  97.3992634  51.9292021
 116.7848778  12.3949480  86.6317368 116.4736462  13.1588662  87.1173286
 116.8192291  11.6946292  87.2833538  87.1373081 108.0788517  63.6397314
  87.1272087 107.3427677  63.0279160  87.7578926 108.6994076  63.2576180
   6.8229157  23.2679081  57.3068333   6.1071038  23.3639193  57.9350281
   7.3110026  24.0886855  57.3725986 101.9065952 105.6330776  89.9094963
 101.4895821 104.8185158  90.1902580 101.2590981 106.3117504  90.1002216
  28.7914896  18.2574546  65.3080893  29.2323780  18.4722090  64.4860601
  29.1661286  17.4158502  65.5680513  19.3315458   1.5515396  50.9261417
  18.7527251   1.3879590  50.1815319  19.1482246   0.8351416  51.5339231
  90.9965038 110.5125332  46.6833544  91.1467361 111.2572575  47.2656250
  90.0753307 110.5856895  46.4337111 117.7275372  11.0000741  67.4162006
 116.8368530  11.3354504  67.3139858 118.2366371  11.7569578  67.7063227
 109.3056965  96.9833755  78.2277775 109.9918747  96.8362904  77.5768089
 109.5908356  96.4844036  78.9932585  16.7062235  32.6880050  16.9559109
  15.9726238  33.2026553  17.2923577  17.0648754  32.2494030  17.7274215
   0.9764124 107.5796604  47.5206947   1.7754181 107.2190571  47.1362686
   0.2661835 107.1346664  47.0583200  22.9126096  20.6762242  53.1186581
  23.0394697  21.5208721  52.6865578  22.4822044  20.1320791  52.4591970
  11.7022634  19.3222642  61.1460495  12.2872901  19.2051566  61.8945551
  10.8232093  19.2202342  61.5108538  38.4144354   9.2299199  55.2692795
  39.0185690   9.6288818  55.8954477  37.6580286   9.8164177  55.2592516
  96.0397243 111.6058636  68.0412817  96.1986542 112.5459671  67.9565287
  95.7005787 111.3422108  67.1858835  39.4811368  16.2537754  52.3435307
  38.9697981  15.4513335  52.2393656  40.3870630  15.9810841  52.1980286
  22.0961380  17.0206130  23.5624695  21.3974667  17.0503616  24.2160797
  22.9039693  17.0084715  24.0757847  10.5604267   2.1826877  80.6975651
  10.0788486   2.0139453  79.8877239  11.4536166   2.3719019  80.4100895
  88.9707947 107.3113823  38.2408142  88.8393307 106.5290070  38.7763906
  88.1132030 107.7361584  38.2227588  13.9830053  30.3239822  89.2961597
  13.6509228  31.0578251  89.8132992  14.1843963  29.6472549  89.9424744
   0.8724336   6.8604481  53.3510208   0.2841899   6.1138135  53.2381535
   0.8187164   7.0688367  54.2837191  22.7446318  16.7331851  52.8978682
  23.6301160  16.3917434  52.7731085  22.1787238  16.0966074  52.4611187
   0.2677168  19.0738845  69.5035934   1.0365568  18.9543760  70.0611162
  -0.3895612  19.4610775  70.0817776 103.1050014 112.1750832  95.7362556
 103.7699890 112.5992203  95.1939297 102.7576637 111.4740181  95.1848030
  99.5156574  30.1664782  72.8563070 100.1001072  29.6343279  72.3164272
  99.4654560  31.0059524  72.3991442   4.5532945  28.1846619  57.6238537
   4.0794361  27.3604703  57.5125027   5.3967774  28.0356002  57.1965933
 106.7409134  19.3785667  80.0486851 107.5307655  19.0372837  80.4680920
 106.0703754  19.3363261  80.7304668 109.3908691  87.8092766  36.2409091
 109.0003586  87.9453659  37.1041679 110.1396847  87.2358990  36.4044571
  68.1481314 105.1097202  58.8274527  68.1461525 105.9509850  59.2840624
  68.9603853 104.6874046  59.1069698  27.2471237   0.3579961  88.5029602
  26.8778181   0.8226531  87.7519989  27.2556329  -0.5610167  88.2354259
   6.2815619  33.5355043  40.2704573   7.1742743  33.1924224  40.3103447
   6.0748988  33.7711430  41.1748886  15.4416859  32.9433894  61.6745758
  15.6345296  33.8269043  61.3608170  15.6850028  32.9595017  62.6001930
  23.5961199  13.9301789  68.6922073  23.2260585  13.0493450  68.7506819
  23.6949992  14.0865660  67.7530622   6.5799659  14.9923074  59.4378996
   6.3392454  15.0242436  58.5120106   7.0359993  15.8190119  59.5954609
  39.7722483   4.6722001  62.6876163  39.9531007   3.7325552  62.7119398
  38.8452721   4.7317907  62.4565458  20.2054024   1.5360880  71.0851765
  19.5411730   2.1847820  71.3180447  20.9881496   2.0527939  70.8939934
  16.9161582   6.9476110  25.6263971  17.2638404   6.3424444  24.9713230
  17.0689511   6.5085202  26.4631081  15.8074749   8.0346209  50.6562757
  16.0252440   8.5280812  51.4470387  16.5688753   8.1462234  50.0870228
  17.5464225  14.9105358  78.6634684  17.3545587  14.9140584  79.6012354
  16.6872644  14.9472570  78.2430744  10.6958044  41.1737871  81.4973640
  11.4347768  41.7420530  81.2800407  10.7424629  40.4645109  80.8562851
  25.8336878  49.2846918  59.1025686  26.5286398  49.1327906  59.7430325
  26.2952304  49.5463371  58.3058548  21.1779118  26.0059190  65.6897068
  22.1283269  26.0916734  65.6149673  20.8418107  26.8782711  65.4841089
  16.9415879  31.9865370  71.5208673  17.7544224  32.4027014  71.2339211
  17.2254741  31.1881208  71.9660378  30.8047414  30.6222987  78.0279589
  30.9542823  30.9313536  77.1344519  30.9758115  31.3870025  78.5776758
  21.0110497  35.1678061  71.3368225  20.3803301  35.2952290  72.0454741
  21.8656206  35.2732635  71.7549372  19.6298718  12.8935778  63.4202385
  19.4038653  13.8235295  63.4017324  18.8622558  12.4532342  63.0554152
  33.0989599  29.1061306  39.0614390  32.5060797  29.8555183  39.0054059
  33.9741039  29.4936252  39.0755343  19.5131016  20.5967999  46.5469313
  19.1728318  19.7469246  46.8265057  18.7355793  21.0949183  46.2948036
  26.7282820  29.1123104  59.8594046  26.1246753  29.0888786  59.1168833
  26.6549635  28.2438493  60.2551699  17.9216802  49.1281891  69.9245596
  17.6597250  49.3511534  69.0313101  17.6428413  49.8780107  70.4501534
   3.9740619  16.3965011  48.6471510   4.5409688  17.1596944  48.5358667
   4.2297900  16.0295451  49.4934225  15.1497924  27.7379155  46.1943197
  14.2297614  27.5852680  45.9787464  15.2485144  28.6894870  46.1626768
  15.7614017  46.2836456  40.3950453  15.9044611  46.1256123  39.4618821
  15.2662063  47.1022081  40.4261827  25.6497192  22.5481558  62.3591948
  26.4389038  22.5073433  61.8190527  24.9346352  22.3528218  61.7536116
  17.3276162  19.8066485  70.9984732  16.8081248  19.1332555  71.4376783
  17.6050997  20.3924298  71.7028141  68.5642624 103.7795734  87.8649426
  68.3547258 104.4649601  88.4994316  69.3749666 104.0759277  87.4512196
  15.3072679   9.1651452  38.4580898  14.8257470   9.4525111  37.6823378
  16.1674774   9.5760465  38.3718896  14.0644038   9.6618474  60.0851965
  14.1670561   9.7451270  61.0332251  13.1193638   9.7112590  59.9413586
  11.2236392  11.0550272  79.8686600  11.5994143  10.5008852  80.5527306
  10.3423679  10.7061327  79.7349930  27.3373795   3.9327729  68.2497263
  27.3827696   4.6261564  67.5914001  27.2912478   4.3981197  69.0849209
   0.4866693  25.6023693  46.2789917   1.0585666  25.9011102  46.9860411
   0.8190805  24.7336817  46.0529089   8.3491087  38.1448174  74.9211645
   9.2511272  37.9194689  74.6935415   8.2966000  37.9980397  75.8655882
   9.5091456  27.0529914  43.7514067   9.6406287  27.1265292  44.6966791
   8.7217677  27.5690198  43.5782480  27.8747416  29.2289162  56.0935831
  27.7218580  28.3474326  55.7532310  28.7786269  29.2108107  56.4080572
  31.8171000  25.0656009  53.9005852  31.9756842  24.8113728  52.9914904
  32.5020790  24.6181440  54.3973923  29.2748165  16.4493251  72.7132463
  28.5040426  16.8756640  72.3385811  29.9476600  16.5344048  72.0377636
  12.0224762   4.0054372  54.8079634  11.7863333   4.4707149  55.6104517
  12.0529711   4.6866965  54.1362572  10.3439581  14.2610264  41.4728737
   9.5332533  14.0611947  41.0048389  10.7348359  14.9812329  40.9781504
   7.3679447  14.5470285  69.2105961   7.4796885  15.2804255  69.8154736
   8.2443827  14.1719830  69.1243982  23.8649845  28.8781929  49.7438574
  23.2466364  28.3090067  49.2857075  23.3850694  29.1822672  50.5142164
  18.5334873  27.5860476  70.8046007  17.8599584  28.1512713  71.1828995
  19.2395461  27.5892234  71.4509010  22.1186686  19.9975312  46.0999966
  22.4366283  20.6155396  46.7581749  21.1726499  20.1410651  46.0739136
  26.4089680  30.5981016  62.4675846  26.6209149  30.5485177  61.5354633
  26.0155559  31.4636993  62.5780392   2.1821049  41.3523340  64.3770742
   1.3172618  41.2057590  63.9939404   2.7025670  40.6030941  64.0872622
  30.9362507  21.5104103  53.3513737  31.5087342  21.4476156  52.5868130
  30.0712585  21.2640262  53.0237818  22.7124262  39.4766283  71.0093880
  23.1211734  39.3032455  70.1613951  21.8991828  38.9721251  70.9909010
 118.9363194  34.0831161  65.0862885 118.5083961  34.7171330  64.5108414
 118.9301491  34.4995689  65.9481239  26.7197323  36.0988235  45.3108883
  27.4034262  36.7076468  45.0313759  25.9752846  36.2975144  44.7429562
  14.7247243  15.9577334  75.2721930  14.3199766  16.4649355  75.9758711
  14.2476737  16.2181759  74.4842720  38.5458684  15.9435391  41.0628223
  39.3253374  15.3990984  40.9521723  38.5570741  16.5338075  40.3093719
  12.4144208  44.5212793  53.8425970  11.5889120  44.5003891  54.3266773
  12.1537459  44.6436548  52.9297447  22.6820016   2.6649663  62.4914503
  22.4436760   3.3812141  63.0800247  23.5157418   2.3416953  62.8329229
  16.7834640  18.2030725  83.5243130  15.9840786  17.8926778  83.0990314
  16.4901817  18.5336089  84.3734169  21.9146776  44.2476130  65.9278393
  22.4512792  44.6643353  66.6021013  22.1428823  43.3194685  65.9798336
  17.6027834  42.4016380  69.7487688  16.7588270  42.0912218  70.0768137
  18.1298423  41.6081333  69.6549940  17.4307072  55.2095842  69.5232630
  16.4911759  55.3560686  69.6330595  17.7113879  54.8230076  70.3527260
  27.2739673  29.5404100  72.4061823  27.5800538  28.6642241  72.6403666
  26.6313672  29.3921542  71.7124128  14.6860921  25.2284360  63.6342430
  14.4010830  24.3259311  63.7773657  14.7125709  25.3231072  62.6821041
  14.1798007  28.7125874  49.9446630  14.8468506  29.1356277  49.4040012
  13.4453368  28.5667205  49.3484068   2.0331442  17.5330663  58.0129576
   1.4052282  16.8763936  57.7117348   2.2622290  17.2561789  58.9001369
  17.6270020  31.9719386  38.9441872  16.9455349  32.5939608  38.6893868
  18.0129337  32.3498774  39.7344065  15.9561706  45.8421373  51.6148663
  16.1678016  46.1134052  50.7216358  15.2859235  46.4626455  51.9011736
  18.5692406  16.3298488  44.0197372  18.9086354  15.8590746  44.7809315
  19.1940284  16.1369729  43.3206892  21.5174150  29.7962236  56.2782669
  22.1202993  29.2476034  55.7764959  20.6498933  29.4461226  56.0756254
  24.9451137  18.0176079  72.4221182  24.8191023  18.7656629  73.0058670
  25.0590086  18.4068990  71.5551043  20.7473898   6.0316783  72.1739960
  19.9390793   5.7932305  72.6278734  20.5039120   6.7792380  71.6280079
   8.9909995  30.8390641  34.5647621   8.5730529  30.4080868  35.3102899
   9.4068545  30.1269746  34.0787315  25.5927968  30.5199981  56.0797930
  26.3577962  30.1702142  56.5365839  25.8554769  30.5484653  55.1597834
  15.0130737  22.6352406  70.6878805  14.9964631  23.1932378  69.9103212
  15.3711140  23.1950593  71.3768196   8.7690860  46.2721825  35.6048489
   9.1209555  46.0501957  36.4669061   9.2745358  45.7354546  34.9943781
  15.6218982  28.9988041  55.5537558  14.9730694  29.6907067  55.6823015
  16.2994051  29.1818500  56.2046862  16.4613628  10.8277059  60.2182198
  15.6541574  10.3137290  60.2401352  16.6750085  10.8985519  59.2878628
  15.6909800  37.4541569  50.6071281  16.3988876  36.9720507  51.0345316
  15.8867478  37.3885441  49.6724606  32.5470448  19.5251155  46.5786314
  32.3760915  18.6554348  46.2171602  31.7213798  19.9967301  46.4686823
  16.5834045  37.3407197  47.9113722  16.1902499  38.0436635  47.3941326
  17.5139225  37.3714280  47.6890516   6.6635162  32.5977278  61.2712097
   7.0211625  33.2544208  60.6736517   5.7633388  32.8823924  61.4289379
  14.5318162  17.2877407  55.0633526  13.9847291  17.5460756  54.3216038
  15.4248607  17.4893725  54.7839832  10.6223369  32.0113754  78.9886332
  10.7728922  32.8459668  79.4325018  10.0829935  31.5091205  79.5994377
  17.6748395  11.0886610  62.6717663  17.9658020  10.1832545  62.7804518
  17.1120226  11.0680985  61.8977880   8.4335393  28.6050963  46.3941765
   8.4134191  27.6928234  46.6832876   7.5295925  28.9058399  46.4872646
  14.8207521  52.0597982  45.2313995  14.2069781  51.5741062  44.6803904
  14.2982721  52.7705717  45.6029463  20.1856375  33.9892578  51.1670399
  21.1081719  33.7358737  51.1360502  19.8937368  33.7245965  52.0393848
  32.0666885  28.7072706  75.7665110  32.1995258  29.6219349  75.5175543
  32.2638607  28.6828423  76.7028618  13.4544814  19.0975976  37.1085382
  13.0125177  18.9366508  36.2748742  13.4415972  18.2504284  37.5539255
  25.6860065  40.5077600  24.8441362  25.5578852  39.5606852  24.8976755
  24.8016644  40.8717728  24.8849034  31.1920595  35.0464916  43.1422663
  31.6161871  34.9699163  42.2875834  30.8795452  35.9506679  43.1744146
   9.7751856  23.4660053  67.8377199  10.0379467  23.3083034  68.7445354
  10.0347281  24.3714213  67.6671505   2.9210505  35.9217072  81.5910530
   2.7402458  35.6197548  80.7009029   3.2115704  35.1369500  82.0557976
  18.1335366   8.3290613  62.1591616  17.3300624   7.8783745  61.8992758
  18.6501157   8.3805418  61.3549709  23.7945580  35.5950189  63.5746670
  23.8955569  36.0381341  64.4170904  22.8898597  35.2823663  63.5754442
 114.0135574  44.4498348  62.8622627 113.4615421  44.9201441  63.4870195
 114.5995235  43.9253044  63.4079123  23.8990831  52.5727654  46.5686750
  23.3658481  51.8216801  46.8289900  24.3251491  52.8559160  47.3777056
  20.2578807  33.4422231  53.7556028  20.9958816  33.1481504  54.2895603
  19.7709632  34.0365171  54.3265295  21.7967963  26.4584541  59.3656826
  21.4498448  26.0818577  60.1744080  21.1551809  27.1237254  59.1167355
  30.0300813  29.8326993  47.0214748  30.8330584  30.0981879  47.4697781
  29.7649050  29.0258121  47.4628925  11.7183697  18.5126734  74.8696518
  11.8171108  19.0993500  75.6195164  12.0188010  19.0280867  74.1211081
  12.0077705  23.4743404  74.1480875  12.3131859  23.0710077  73.3355141
  11.1390495  23.0984044  74.2903137  11.5485597  38.5590887  54.0464497
  12.1757877  39.2781162  53.9701843  11.8375897  37.9191184  53.3959627
  22.0586467  24.9301815  39.5385885  22.6760578  24.1995764  39.5739889
  22.6116729  25.7114553  39.5413780  98.4182167  15.7877076  71.4214754
  98.9875126  15.5543697  72.1547461  98.8080406  16.5834141  71.0593748
   9.1776752  36.4004111  58.7925148   9.1692144  36.9782352  59.5555878
   9.2149597  36.9943070  58.0427647  20.1797748  28.4042597  65.3350353
  19.7332644  28.9134955  64.6586227  20.8162141  29.0121055  65.7114649
  16.5031993  30.5563521  52.5571632  15.6584394  30.1193166  52.6649189
  17.1499944  29.8629570  52.6878881  16.4295292  30.1592493  61.8078804
  16.2665915  30.9182143  61.2478304  15.6265128  30.0625229  62.3197794
  30.1897740  44.9019861  48.4733248  29.8352361  44.0809870  48.1320047
  29.7815967  45.5808878  47.9360008  35.2341771  29.5175266  30.0441170
  35.0682139  30.4431367  30.2228212  35.0391221  29.4146991  29.1126609
  18.9847982  56.6458464  84.9520016  19.8207200  56.3384199  84.6013451
  19.0270972  56.4411497  85.8861065  34.2997837  18.7284327  85.6211948
  33.7416363  18.0057549  85.9083176  34.4181395  19.2655182  86.4046288
  20.1682997  31.0792279  59.0502930  20.5772662  30.8258915  59.8778200
  20.6156301  30.5498147  58.3901072  14.4956017  38.9788079  24.5945549
  13.5895050  38.8420677  24.3179274  14.7153044  39.8527241  24.2717004
  23.4660077  18.2352090  58.6897516  23.0285525  18.4780514  57.8737259
  22.9112363  17.5510979  59.0645170  23.1856155  25.5588770  79.2511320
  24.0042710  25.4010010  78.7809086  23.0720592  26.5088725  79.2220306
  10.4545581  25.3945613  60.4044867  10.5387485  26.3475156  60.3725243
  11.1882997  25.0716162  59.8814535  29.0365791  24.6189451  57.9819632
  28.1834197  24.3654871  58.3342552  28.9462781  24.5113802  57.0351267
  13.7264657  43.6689472  70.4637623  13.2271421  44.4401550  70.1951599
  14.5326579  44.0240526  70.8381796 106.2509537  98.9044094  53.6735725
 106.9195271  99.5513439  53.4483814 106.6327477  98.4072685  54.3969774
 110.4317856  13.8819337  64.8667622 110.1125813  14.1712654  64.0119934
 110.1157761  14.5471835  65.4781628  30.4027820  23.0648971  43.1470728
  30.3914356  23.9464760  43.5197926  30.2504635  23.1984091  42.2115469
   1.6343832  39.4561577  59.0821362   1.8201539  40.1824141  58.4869289
   0.7111651  39.2531681  58.9314842  17.1539915  18.0184460  77.5652361
  17.4559641  17.1879315  77.9330540  16.2052381  17.9162359  77.4900627
  11.3251162  59.7185516  75.3121948  12.0685399  59.1361761  75.1560163
  11.4074337  59.9706507  76.2319231  -0.1741408  39.5443296  52.9582977
   0.2204221  39.9184895  53.7460518   0.1903844  40.0606680  52.2394419
   2.3454098  22.2465396  55.3628016   3.0882549  21.9829988  54.8196983
   2.3483703  21.6248775  56.0906458   5.9015793  20.9037542  70.0642109
   6.3713437  21.6829872  70.3614426   5.7116103  21.0758471  69.1419697
  12.9940045   2.6032811  84.9296761  13.9192843   2.3778465  84.8334122
  12.9834759   3.2941663  85.5920982  28.8938355  31.4747429  52.6037741
  28.7175536  32.2422671  53.1478930  29.7020316  31.1077046  52.9620075
  23.5288763  26.5635014  64.7913647  23.6281395  25.6445384  64.5425987
  23.6757827  27.0486474  63.9794016  18.1361270  19.6902525  61.3761902
  18.1440604  20.4804516  60.8360481  18.7413085  19.8834682  62.0921898
  18.7789834  26.0834789  85.0894165  18.4068274  26.9503593  85.2514362
  18.1063461  25.6242299  84.5865440  28.0807424  13.4280527  58.9631796
  28.8105249  12.8158653  59.0573931  27.3073769  12.8690529  58.8879728
 114.2556095  61.6735983  78.1662130 114.7436047  61.7653227  78.9845467
 114.4759846  60.7963657  77.8529644  25.2403069   6.1606330  54.3951368
  25.3283715   5.4581696  53.7509155  25.0775099   6.9458747  53.8725233
  18.1267834   5.6490767  67.8406906  17.6071429   5.5844343  68.6419582
  17.5222552   5.3981060  67.1422720  24.2844343  33.9038658  66.4740944
  23.8927293  34.0829229  67.3289251  23.6186790  33.3995533  66.0064697
  26.2536812  39.6389079  56.7107677  25.5489969  40.0241327  57.2315884
  25.8028364  39.1434407  56.0270405  23.7238431  32.0736194  53.3837700
  23.2373786  31.9355154  54.1964912  24.6002173  31.7360854  53.5688877
  15.3866839  26.0923028  55.4290438  15.4380906  27.0474362  55.3928232
  14.8172092  25.8551693  54.6971321  34.0312028  17.1938646  81.0211277
  34.6403503  17.4448669  81.7155170  33.1780267  17.4999237  81.3287830
  30.7144189  22.2639632  74.9416971  30.1337552  21.7288041  74.4007158
  30.3667879  22.1727324  75.8288622  36.4073992   5.4166144  55.1029778
  36.9923854   5.1981544  55.8284426  36.0073519   4.5821634  54.8582602
  36.3491583  51.4647579  60.3963327  36.4246416  51.0042191  61.2320614
  35.4903841  51.2098074  60.0590801  25.8818984  11.2774301  62.1907663
  26.3551068  10.4458416  62.2184563  25.0631404  11.1026645  62.6548004
  25.8261538  21.7142034  79.3054056  25.4613733  21.8012786  80.1860809
  25.1986670  22.1652651  78.7405777  24.9705338  23.6754680  68.3874798
  24.6815515  23.3951974  67.5190496  24.6884465  24.5879602  68.4508514
  19.1112852  19.8221278  65.8215141  18.4779513  20.3113842  66.3466358
  19.7388947  20.4821110  65.5269670  24.4218946  36.4464498  40.5199385
  24.9632215  35.7036734  40.7873011  24.9441528  37.2165489  40.7445002
  34.4878459   7.7368248  43.9001322  33.6604929   7.8454113  44.3690968
  35.0021696   8.5075909  44.1401720  28.1693459  38.4485197  44.6629333
  28.8647485  38.9820409  44.2782211  27.3588061  38.8775420  44.3887138
  13.1369352  25.0935292  32.9854703  12.3308277  25.1604629  32.4736667
  13.0089867  24.3193769  33.5336947  20.4374576   9.5911229  58.1527376
  20.2003694  10.2807891  57.5327539  21.1416912   9.9722451  58.6771727
   9.6220779  45.4560709  63.4449768   9.7889489  45.2552080  62.5240850
   9.5249647  46.4080334  63.4686947  22.9689837  32.7566433  40.1352739
  22.0628452  33.0650902  40.1327801  23.3348608  33.0815768  39.3126035
   1.5515928   1.4710000  75.5792761   2.4837022   1.3888764  75.3776312
   1.2002149   2.0115939  74.8717976  20.6295872  33.6477113  58.2257652
  20.5588555  33.7121797  57.2733641  20.6444335  32.7069378  58.4016991
 104.0042400 106.0156441  61.2002182 104.7695446 105.5915737  60.8120012
 104.2134380 106.9495392  61.1830139  18.2312739  21.1954188  68.1803989
  17.6082969  21.3495469  68.8905907  19.0410209  21.6102123  68.4778690
  81.5209103  86.3882351   2.3652694  82.4223232  86.7060566   2.4169444
  80.9889793  87.1827888   2.3208952  19.9289632  26.4621186  42.1111298
  19.5844018  27.1032047  42.7328348  19.1638625  25.9531474  41.8431711
  11.5592551  11.6172338  68.6172867  12.1488941  11.4992869  67.8725386
  12.0699990  11.3315272  69.3747473   3.9983857  23.4909058  46.3065243
   3.7123090  22.9030776  47.0057058   3.5428196  24.3138075  46.4840746
  36.2414813  22.2766638  55.4347324  37.0979977  22.0685005  55.8079338
  35.6346655  21.6895390  55.8856058  13.0636525  42.9422855  81.5803337
  13.3176994  43.0861044  80.6687355  12.8515971  43.8153648  81.9104767
  20.5184531  46.1007643  57.1859598  20.7447124  45.4564714  56.5151930
  21.3612843  46.4456892  57.4807358  13.8916063  50.5736971  64.8760557
  14.3053722  50.2460623  64.0775061  14.5132422  51.2137604  65.2226400
 115.6623363  17.5122738  57.4229813 115.4152584  18.4325147  57.5143003
 114.9613094  17.1270943  56.8972111  26.9564509  26.9749546  54.8837996
  26.5026355  26.9408083  54.0417099  27.7354074  26.4330220  54.7582340
   9.7073370  36.5761733  65.7510996   9.5572233  35.6376338  65.6377649
  10.3848600  36.6306973  66.4250565  10.5082953  67.9875040  40.8955145
   9.6214086  68.2971334  41.0793447  10.9629607  68.7552023  40.5488777
  16.9448733  40.2404737  34.4979239  16.3078153  39.8995948  35.1257706
  17.2170198  41.0813618  34.8654580  13.6282575  48.4505081  70.4866314
  13.0228162  48.6795855  71.1917496  13.7942696  49.2780733  70.0351810
  27.9565096   1.1682133  67.0115376  28.2233810   0.4285273  67.5573206
  27.6046610   1.8079501  67.6305437  13.7908375  47.2569990  51.6683960
  13.1609368  47.1617317  50.9539843  13.3887434  47.8940868  52.2588778
  30.1164889  52.5879240  49.7314930  29.6396995  52.6901436  48.9078093
  29.4639993  52.2515583  50.3457785  37.6160693   0.1331438  77.7930069
  37.3594427   0.9930035  78.1261969  38.4830236  -0.0202847  78.1686163
  18.3948147  31.0205865  50.0097799  19.0128565  31.3176632  49.3419456
  18.9139926  30.9734321  50.8125639   9.5817369  38.4067774  89.9219418
   8.6790210  38.4668994  90.2345467  10.0588763  37.9992485  90.6447697
   1.0308406  55.0535488  30.8409619   0.3263830  55.6998158  30.8890367
   1.5771852  55.3485346  30.1124549  37.3328757  20.3636694  49.5360756
  37.9859328  20.1228905  50.1931667  37.8266406  20.4230785  48.7182140
 115.4274559  10.3093767  94.1148472 116.1168957   9.8844206  94.6250725
 115.4770470   9.8950303  93.2534027  14.7682416  48.1697226  55.7438707
  14.2336476  48.8462305  55.3282070  15.4224026  47.9418802  55.0832748
  32.4089885  49.0621424  60.0381041  33.1452322  49.4249773  59.5456314
  32.1391869  48.2941675  59.5344639  14.3733275  14.4559956  42.5827980
  14.4632161  15.4062080  42.5103569  15.0571871  14.1064739  42.0114851
   4.3488902  31.8223047  82.7246475   4.4527119  30.9436369  83.0898762
   3.5764557  31.7584729  82.1629524  16.9589055  51.1094999  64.6949625
  17.6648414  50.6568003  64.2335033  16.7888248  51.8893147  64.1665745
  36.7792678  57.0267868  57.9366159  36.9669247  56.3172531  58.5510874
  36.2328267  57.6356792  58.4334850   0.3166144  47.5351763  56.5588427
  -0.0838212  46.8220854  57.0562172   0.6145522  48.1542492  57.2253370
  34.8385024  68.0850315  47.2882223  34.4935107  67.3858738  47.8435469
  35.5848265  68.4325457  47.7765512  10.7211113  21.7919350  65.6451702
  10.4542780  22.0894027  66.5149689  10.6352317  20.8392715  65.6810522
   8.3762705   2.0724410  69.4147635   7.8749454   2.1065247  70.2294683
   8.4756511   2.9886782  69.1561842  11.6252744  65.3668737  79.0789509
  11.5386105  66.2700605  79.3838596  12.4667704  65.3476524  78.6231565
  13.2270682  22.8043270  44.9652672  13.0040646  22.9268885  44.0425110
  13.9214325  23.4420943  45.1306200  30.5346847  54.0881395  52.7359581
  29.6582437  54.2351103  52.3803139  30.5983663  54.6941996  53.4741068
  18.7688792  38.0451441  69.0820837  18.0802643  37.3860931  68.9943790
  19.5543683  37.6177144  68.7406969  32.1233249  51.4587784  60.9642172
  32.6654172  51.9770288  60.3694201  32.1572804  50.5712557  60.6073046
  25.2212882  45.9287262  60.2553368  25.1426315  46.8378401  60.5444098
  25.4297733  45.4411888  61.0522509  29.4427752  41.2872124  41.1573696
  29.8835373  40.5882788  40.6742001  29.8881984  41.3106441  42.0042944
  19.2448533  50.9099340  78.9935827  18.2952011  50.9223700  79.1129065
  19.5338917  50.1224756  79.4546700  30.0437188  63.2366657  49.3785954
  30.5907464  62.5953245  48.9250803  30.5370831  64.0549707  49.3219948
  40.8878708  52.3257256  66.2875557  40.4558945  52.8015661  66.9969273
  41.6422749  51.9085646  66.7035913  24.8111129  44.6093559  75.4925251
  25.1633000  43.8585567  75.9705400  24.3444133  45.1179838  76.1556387
  36.6922712  78.4828615  61.1653423  37.4396110  79.0088892  60.8807182
  35.9262824  78.9947796  60.9056711   8.7573063  19.8464727  69.1990471
   8.3029693  20.2457452  69.9409342   9.6413088  20.2118444  69.2347574
  18.4340882  49.7768402  55.5128574  18.6421919  48.8441610  55.5678844
  17.6518905  49.8156500  54.9624968  33.8852048  48.5632992  72.0272160
  34.0610027  48.9357281  71.1631441  34.0915108  49.2699099  72.6390743
  21.3116002  40.6598663  49.6325588  21.9268560  40.9367466  50.3115463
  20.4780054  41.0539532  49.8895550  33.2914567  51.9579172  52.6543045
  32.4007940  51.8956995  52.9993868  33.6830020  52.6889467  53.1323433
  15.7736969  61.3049603  64.6229553  15.2377725  62.0964098  64.5717812
  15.9313154  61.0630083  63.7103510  21.6161013  38.8524938  45.3727150
  22.5146198  38.5898399  45.5724859  21.3775229  39.4489312  46.0823488
  32.4217367  48.1819296  55.9946871  32.1254086  49.0062046  56.3806820
  32.2359753  48.2745838  55.0602674  19.1891253  57.0129347  68.4182501
  19.9097288  57.2082424  69.0172625  18.6794531  56.3392115  68.8683128
   6.8171632  29.9631429  66.3111925   7.2951365  29.1539645  66.1295223
   7.0354581  30.5397916  65.5790329  17.7680957  29.1297603  46.2216520
  16.8750799  28.8958192  46.4746857  17.6826453  29.9888873  45.8083344
  47.5436878  74.1485119  76.8856764  48.0371952  74.0561581  76.0707188
  47.2111893  73.2690763  77.0653009  28.1410527  58.8148165  42.5109863
  28.2112813  58.8374805  41.5566349  27.9464149  59.7187853  42.7583599
  12.7620983  58.2754564  50.5590582  12.2322476  57.6047325  50.1282215
  12.3406625  59.1018295  50.3229809   4.8466212  42.2399282  63.3098841
   4.5916918  41.9886684  64.1976404   5.7138920  42.6319981  63.4116507
  41.7832041  51.3585091  72.9544640  41.4250660  52.2015810  72.6766205
  42.5473404  51.5857792  73.4842539  39.6336603  78.0884552  50.8876657
  38.9120197  77.9560947  51.5024376  39.9428582  78.9760494  51.0687923
  17.6534092  52.6984739  75.2479172  17.5972736  51.8839931  74.7482157
  16.8101978  53.1274366  75.1022577  43.5825491  88.6821938  66.1562586
  42.8585052  88.1552601  65.8181286  43.1787157  89.5145512  66.4018917
  22.3728299  79.0447187  57.2770786  22.8864408  79.0387440  58.0847931
  22.2403288  78.1194830  57.0706463  18.7894917  58.1680059  55.9957552
  18.1053007  57.6366711  55.5885696  19.6087301  57.7663660  55.7063341
  46.5399122  55.0421810  81.7727470  45.7889462  55.2770662  82.3178291
  46.2328720  54.3031311  81.2476063  41.3361597  81.2918854  48.5370445
  41.9725227  80.6368828  48.2502604  41.8608856  81.9559097  48.9842224
  27.6657224  83.0166721  75.6618786  26.9027901  83.2176113  75.1198483
  28.3674479  82.8456593  75.0337315  47.1184731  74.6653223  70.1805353
  47.9404020  74.8428154  70.6378746  47.1736193  75.1848745  69.3785048
  35.8343148  63.2593060  57.5414658  35.2658415  63.8137484  58.0759382
  35.2397895  62.6302528  57.1327353  49.6239281  67.4775887  39.9276924
  48.9541531  66.8692875  39.6152878  49.8326302  68.0165482  39.1646719
  53.9223862  65.4030704  56.1429310  54.0562296  65.0559092  57.0248556
  54.7881460  65.3646469  55.7364607  30.3999734  69.4010019  49.6532011
  31.1858988  69.0409803  50.0642252  30.3537440  70.3020048  49.9730206
  45.1536751  60.7635975  82.5994587  44.6846199  61.1641741  83.3314133
  45.6901503  61.4714813  82.2426319  49.3072367  76.3045931  50.4876804
  50.0900555  76.3675117  49.9404430  49.5631742  75.7263327  51.2062502
  44.6262741  72.3534870  63.7595463  44.7663069  72.4814129  62.8213263
  43.7336874  72.0138979  63.8243723  56.9193125  53.3619118  69.4010401
  57.3082495  52.6907349  68.8402510  56.2740421  53.7959051  68.8429117
  48.6470366  56.3389397  67.2030401  48.8011265  55.8269644  66.4090824
  48.3518314  57.1919298  66.8844604  49.6724892  55.0545645  64.9145079
  49.1712904  55.8076763  64.6016884  50.2809668  54.8591089  64.2019176
  51.5636063  61.2624788  70.2305460  50.8372974  61.7839527  69.8888350
  51.9512510  60.8551502  69.4559193  29.7039700  62.4272060  66.0538387
  30.1037359  61.6302681  65.7055426  29.3847895  62.8926563  65.2807188
  48.9916134  65.4291630  69.4373703  48.3764172  65.4793644  70.1689720
  48.5056353  65.7803965  68.6912489  33.7761426  53.2200909  59.5671749
  33.6326933  54.0019608  60.1004076  34.7253036  53.1811571  59.4496632
  45.7017708  48.8138247  60.5588293  45.5357885  49.6940947  60.8961773
  44.8881912  48.5689211  60.1179790  28.7968540  67.8515053  70.5494928
  28.9012980  68.5288429  69.8812580  27.9648709  68.0603743  70.9742451
  47.3291302  69.2578888  71.9622517  48.1464815  68.8860750  72.2938061
  47.5157785  70.1907778  71.8568134  60.9076500  48.7175798  42.0377398
  61.8464708  48.8392162  41.8961477  60.6843567  49.3505907  42.7201414
  23.1916618  59.8971510  81.7925072  23.5790634  59.0691233  82.0762825
  22.4073458  59.9922705  82.3329067  31.7171836  71.4385176  45.1804447
  31.1157513  70.8388233  45.6218910  32.0041084  70.9603643  44.4024515
  42.9100180  50.9519625  68.1450415  42.4103785  50.3188229  68.6605263
  43.3538532  51.4945173  68.7968683  24.0692425  52.4449062  58.6957216
  23.7320304  53.0567741  59.3500471  23.5903192  51.6322613  58.8584423
  54.2478371  65.0421810  40.9863520  53.6041737  64.3987417  41.2828541
  53.9747810  65.2610970  40.0954294  36.1165190  65.5669117  70.3301048
  36.3996649  64.9762106  71.0280514  35.4405737  66.1100292  70.7355070
  31.2046576  64.2848444  67.9442978  30.9904838  63.5977411  67.3132229
  30.7627368  65.0646925  67.6084757  26.7670250  43.6831474  55.5785322
  27.6294470  43.2678699  55.5808687  26.6958690  44.0922976  56.4409494
  60.0795031  60.8115387  31.2508869  59.5154285  60.6654882  30.4914665
  60.3470564  61.7276764  31.1778569  32.8208542  67.8942633  49.7146225
  33.7273145  67.6001930  49.8045349  32.2963405  67.1323442  49.9607897
  27.1887636  55.9215212  71.7598152  26.5048289  56.5524721  71.5353870
  27.9579759  56.2192059  71.2740898  45.6729126  63.3779573  58.9843750
  46.5495586  63.6517763  58.7146568  45.7259941  63.3097363  59.9376631
  41.6430283  89.5147991  55.4420042  41.4800072  89.8841858  56.3098812
  42.5661373  89.7019958  55.2715588  30.9735632  61.0158443  74.9740982
  30.1552868  60.5778456  74.7399759  30.7842135  61.4477873  75.8070469
  36.5319133  65.5596638  55.2048063  36.7840862  66.4203835  54.8704386
  36.3614845  65.7047749  56.1354685  17.3796582  74.9122763  53.1937838
  18.0396390  75.3671551  53.7169886  17.8773081  74.2738724  52.6828909
  48.4010220  75.1857090  55.2861261  48.3326530  74.9162483  56.2020683
  48.7194681  76.0875511  55.3249073  26.7794991  42.8602028  49.5986652
  27.6791549  42.6860523  49.3220425  26.5205669  42.0744085  50.0800323
  57.8478861  59.1504669  42.9257774  58.7063074  59.3933392  43.2727098
  57.3853779  59.9826431  42.8267908  36.2534237  53.7572193  65.7279396
  36.7726612  53.3166647  66.4006472  35.5873799  54.2399788  66.2173843
  37.9643989  64.7339487  61.4354086  37.3912096  64.0897131  61.0199022
  38.8374639  64.5287704  61.1009073  48.6373949  61.7676973  61.7189217
  49.4827318  61.9611597  62.1241522  48.8600826  61.3250732  60.8999443
  39.0477228  71.6661072  61.9403410  38.0911565  71.6541243  61.9076777
  39.2883158  72.5268173  61.5975142  33.6444211  78.3439827  84.9652767
  33.0627155  78.0012083  84.2867756  34.4702172  77.8792429  84.8299694
  16.8625355  20.5366850  48.8997364  17.6898694  20.6494689  49.3677473
  16.3420093  21.3013768  49.1457653   2.3329332  61.9400454  69.2227125
   2.2664319  61.7156363  68.2945681   1.4464912  62.2037935  69.4694662
  51.9891357  59.4359493  60.6029797  52.5540400  59.9749327  61.1567020
  51.6853666  58.7356520  61.1805058  19.9720824  42.8745461  56.7416763
  20.6102514  43.3777523  57.2474003  20.4837132  42.1704197  56.3433456
  52.5469828  75.2969694  54.2898989  52.1333170  75.2653742  55.1525164
  53.4814310  75.3894186  54.4756222  31.2108111  64.8729753  60.5779648
  30.9012532  65.6635380  60.1359081  31.0284233  65.0296402  61.5044785
  44.2615318  51.0692787  61.9984198  43.3592892  51.3159847  62.2017097
  44.7718048  51.3952637  62.7397633  65.5121899  60.6864786  45.0143576
  66.1872721  61.2690639  44.6663761  65.9862518  60.0892496  45.5929899
  55.0672770  54.7677898  78.3992338  55.2212048  54.9702072  77.4764299
  54.1366005  54.5486259  78.4443617  55.1237297  54.3214035  67.4895191
  55.3107357  55.1143551  66.9870424  55.1093292  53.6218023  66.8363857
  41.3630629  91.5411282  52.4911785  41.9626522  92.1363163  52.9411602
  41.9354439  90.9285164  52.0293045  32.3686934  67.5778437  46.1582088
  31.7053962  68.2427406  46.3430929  33.1385279  67.8643751  46.6496229
  24.2744541  44.3604279  51.8706465  24.4535422  44.4986391  52.8007317
  24.7101021  43.5337639  51.6631126  31.7796469  69.5426130  68.5410166
  31.9427609  69.5326853  67.5978661  30.8369422  69.6888208  68.6195183
  34.0513110  51.5384436  63.2563400  33.4535980  51.6027689  62.5114679
  34.7440267  50.9493685  62.9573965  35.0298834  75.0841141  64.1684246
  35.0882053  74.5225525  63.3954573  34.2045045  75.5564833  64.0595770
  28.9808798  56.8016720  70.1440620  29.1439462  57.5068092  69.5176268
  29.4314814  56.0429239  69.7732639  37.2244430  74.3575287  75.1022387
  37.2072077  74.2374325  74.1527605  36.6525412  75.1089096  75.2590418
  26.0114264  49.1561222  73.1390667  25.0824714  49.1669989  72.9085112
  26.1302185  49.9288940  73.6912823  28.3966327  78.5057306  47.8383636
  29.3495512  78.5016489  47.9287148  28.2139540  79.2470932  47.2610903
  42.0600843  57.1236420  52.0569849  42.1200562  57.2168159  51.1062193
  41.1229324  57.1774483  52.2442770  18.6364794  63.4606934  67.7110338
  18.0552793  64.1794109  67.4622679  19.4618678  63.8882303  67.9394531
  26.1202669  46.9016171  56.5876293  26.0839725  47.5099659  55.8495045
  26.9861484  47.0414829  56.9709253  36.7478132  76.0233116  51.0855246
  36.5359020  75.6315422  51.9327831  37.3305726  75.3893423  50.6675434
  35.0996709  63.5706997  54.1013908  35.6373119  64.2200994  54.5546627
  35.1202512  62.8023958  54.6719265  40.7045364  51.5051222  76.8297100
  39.9479747  51.3238096  77.3873615  40.8123493  50.7107973  76.3065958
  36.0636711  58.0346918  55.0075245  35.2183890  58.3763552  54.7159815
  36.0062766  58.0369997  55.9630013  23.1116676  65.6727695  80.1500607
  22.3089147  65.2019119  80.3739071  23.0316997  66.5117550  80.6038666
  16.9268298  69.6440792  64.5573092  16.8497729  70.5120468  64.9534512
  17.7824569  69.3249702  64.8441982  19.9665558  56.8379688  41.1094809
  20.7256007  57.2896004  41.4784098  20.1708460  56.7473030  40.1787424
  33.1038380  51.6790581  65.8445168  33.8146853  51.2643766  66.3333559
  33.3497524  51.5704918  64.9258375  44.1003370  59.2194700  66.4835358
  43.4858370  58.4871531  66.5318394  43.6668444  59.8590088  65.9184599
  46.7200089  58.1715631  66.8139362  45.8423519  58.4636593  67.0601606
  46.7781639  58.3522606  65.8757448  37.2019029  49.7110510  71.0918808
  36.8761158  50.1113510  71.8980169  38.0793810  49.4011545  71.3159943
  57.5678015  68.1934738  44.6958733  58.0103874  67.7618790  45.4266787
  56.7789888  67.6708889  44.5512533  28.8989544  68.8256836  54.5236635
  28.4250951  69.6108818  54.7978210  29.8043156  69.1174269  54.4167185
  43.3025360  63.7306738  64.5563841  42.7985859  64.2745876  63.9510536
  42.9567814  63.9513493  65.4212523  28.4436965  47.6783609  84.9242687
  28.7778997  46.8135738  85.1623440  28.2715416  47.6182461  83.9845943
  24.8841667  75.8486414  75.8195114  24.6712327  75.5404043  74.9386692
  24.0505743  76.1597872  76.1724186  37.3199177  58.4028912  67.9113722
  37.5821376  59.2421722  68.2896376  37.3206663  58.5553980  66.9664001
  19.4535899  69.5804024  43.2966852  20.4033017  69.4733953  43.3498430
  19.1721988  69.6774197  44.2064333  39.8792815  58.5026217  83.3280849
  39.5032573  59.3762970  83.4354496  40.6655073  58.5115147  83.8739777
  33.9410996  61.1072302  63.4628677  33.6327052  61.5034533  64.2778111
  33.9621139  61.8314838  62.8373671  42.5018406  66.4593363  62.6740074
  42.6875162  66.6401577  61.7525625  41.8151855  67.0841789  62.9070616
  38.0580401  90.9914780  57.0496035  37.9828501  91.7782211  56.5095901
  38.0538154  90.2688313  56.4219141  25.6817269  50.7687140  64.9015188
  25.3727055  51.4128637  65.5385494  25.6431055  51.2253571  64.0611458
   8.3054215  78.2603645  50.1509762   8.2093817  77.4676991  49.6230650
   7.9192936  78.9532185  49.6151733  41.6913891  57.8586531  67.0358324
  41.2443590  58.6352682  66.6992903  41.1790228  57.1230793  66.7002058
  38.3729744  68.1373978  56.6634750  37.9322982  68.8940430  56.2767982
  39.1926599  68.0621243  56.1749268  55.2848387  52.8450060  65.3042936
  54.9780464  52.1023130  64.7841835  56.2390947  52.7722454  65.2861118
  33.5866356  76.9904280  58.7266397  32.6795363  76.8127823  58.9753294
  34.0161443  76.1356831  58.7608480  57.6287317  56.5354538  68.0694342
  57.4286652  55.6001043  68.0330229  57.7986336  56.7796421  67.1596336
  26.3260841  81.6145325  52.0708323  25.9340286  80.9312916  52.6146269
  27.0134950  81.1646557  51.5796041  26.2391114  47.2437572  63.3402729
  26.8771935  47.9429102  63.1979275  26.7265821  46.4370203  63.1735945
  26.1205864  52.1768236  69.6439886  25.2699351  52.4387980  69.2918587
  26.6979265  52.1507359  68.8809490  35.8677936  58.5024071  74.1110325
  34.9908304  58.7099600  74.4336605  36.4087796  59.2382622  74.3975306
  37.1215677  51.8237162  81.0321522  36.3650084  52.1947145  81.4862537
  37.0054126  52.0864868  80.1190853  50.3313875  62.8869438  66.6499186
  49.6859598  63.0160570  65.9549522  49.8116779  62.8285265  67.4516201
  48.8626051  77.8697348  64.0885258  49.7758865  77.5900316  64.0259457
  48.7383175  78.4513855  63.3385515  38.9461946  64.5375729  53.6869860
  39.3534875  65.3390408  53.3583689  38.1513405  64.8365402  54.1286373
  32.9199815  73.2533026  68.3190918  33.6137938  72.7913475  67.8484964
  33.2777929  73.3940125  69.1956758  26.9675255  63.9836740  57.9725313
  26.4432216  63.2750797  58.3456659  26.4533162  64.2955542  57.2278500
  40.3978157  59.7695398  60.7725143  40.9787798  59.8637152  61.5273952
  39.7998548  60.5142784  60.8360958  45.9585905  58.4449387  74.8530436
  45.3270721  57.8671408  75.2814913  45.6222582  59.3269539  75.0116777
  45.3527546  59.5426702  51.8157244  45.5178642  59.5652199  52.7583075
  44.5994234  60.1198006  51.6906500  51.0194206  65.9102726  46.1851454
  51.8714190  65.8077478  46.6091919  51.2235928  65.9890032  45.2532911
  32.3764968  57.9286385  81.9631577  31.5392494  57.5987291  82.2893620
  32.2728467  57.9458666  81.0117435  46.0397291  63.9408302  73.2499409
  46.0621738  64.8042107  73.6626148  46.6688490  63.4202290  73.7493515
  65.5577278  68.4470749  56.6376877  65.4528952  67.8888941  57.4081898
  66.4520311  68.7817717  56.7042828  40.0307178  53.3514357  62.3663235
  39.8928881  52.4141693  62.5032902  39.4149733  53.7740803  62.9650402
  48.7931681  52.4837732  90.2075386  47.8877926  52.7532721  90.0529385
  48.7206745  51.7104340  90.7669258  57.2073030  55.0309134  13.4317052
  56.3038731  54.8759174  13.7074327  57.6875591  55.1644564  14.2488670
  46.2599087  84.0724182  64.8292351  46.1732435  84.5258904  65.6677341
  45.4874134  83.5093021  64.7805166  46.0935163  71.4702797  42.8879309
  45.3210163  72.0315409  42.8211212  46.5941763  71.8376160  43.6163807
  70.1618671  83.9813423  33.0839610  70.3619337  84.3817997  33.9300346
  70.4693699  83.0787468  33.1674910  62.5421858  79.4372988  52.9290009
  62.7058983  80.1543999  52.3164654  63.3744097  78.9666080  52.9746675
  39.8542833  71.0320759  46.9365931  40.7947350  71.2102127  46.9434309
  39.5385695  71.3798666  47.7706194  56.0682440 103.0541706  54.7951078
  55.1155663 103.0170631  54.8802996  56.3810968 103.2353020  55.6814194
  46.5739536  67.5462198  45.7891417  47.2773123  68.1420135  45.5311775
  46.5809345  67.5675154  46.7460823  58.8642216 101.3836670  47.0229530
  59.2543983 100.5595493  46.7317200  59.0217257 101.4028358  47.9669142
  47.9798460  78.8238287  52.2480011  48.3397913  77.9500103  52.0959663
  48.7037563  79.3173027  52.6335764  66.8917561  67.0797920  63.4016323
  67.8198671  67.2023964  63.6011696  66.5120983  67.9548979  63.4808922
  29.5197058  87.3567486  75.1036501  28.9280891  87.3646069  74.3512154
  29.0069318  86.9591618  75.8073664  55.5700970  77.6673985  37.5308228
  55.3158760  76.7624426  37.3500967  56.5140963  77.6250648  37.6834583
  67.7723265  87.2800732   3.9497542  68.1395578  86.4896965   3.5539213
  68.2103539  87.3488045   4.7980714  58.0119610  59.5939493  53.6319017
  57.7768469  58.8233662  53.1150341  57.9209232  59.3092966  54.5412540
  77.0716858  54.6989870  46.7188120  77.5180626  55.3671503  47.2389460
  76.2100029  54.6138859  47.1268511  42.2179747  76.1675930  53.9289093
  42.4632215  76.9890547  53.5031271  41.8309641  75.6413889  53.2292223
  36.5177536  76.8895340  26.1685944  35.7770753  76.3042784  26.0101533
  37.1609831  76.6475916  25.5022979  72.2928286  68.8221312  45.3736210
  72.1945572  68.8973904  44.4244576  71.9017792  69.6245289  45.7192659
  12.7106929  94.1423893  58.4090328  12.3981726  94.6751785  59.1402674
  13.2787967  94.7296524  57.9104233  51.7715693  62.8567982  44.8427200
  51.1344481  62.9490519  45.5510950  51.6109896  61.9821453  44.4885588
  56.2235165  76.5188313  51.5186119  56.5604782  77.3394489  51.8781614
  56.8958044  75.8709526  51.7295980  39.3303990  76.2159348  69.1940117
  40.1207018  76.4415169  69.6846914  38.6123323  76.3944054  69.8012638
  30.2486300  81.8702602  62.2061586  30.1113367  81.6119480  61.2947559
  29.7045708  81.2657928  62.7109861  49.5844126  44.9083090  34.4674444
  50.2353144  45.2724791  35.0673962  48.7697411  44.9069834  34.9699783
  19.0158403  81.3038635  62.2272778  18.2125258  81.5498543  62.6859760
  19.6631491  81.9471264  62.5161219  57.8422403  60.0277901  47.5968170
  58.2361603  59.2523575  47.1971130  58.1583023  60.7581663  47.0649481
  48.7420130  78.9058495  48.8171244  49.4606638  78.5479164  49.3383312
  49.0370989  78.8189411  47.9106998  59.9075270  70.6875277  48.6248016
  60.3538752  70.7241297  47.7788353  58.9811087  70.5939007  48.4029579
  32.4354911  98.4127235  74.6217537  32.6730824  98.0385780  75.4701614
  32.5893378  97.7047253  73.9962196  45.9398317  89.1874504  38.4677076
  45.2895164  88.9529133  39.1297603  46.2371254  88.3482456  38.1161547
 106.9427109   6.0809696  49.1873646 107.0171261   5.6108403  48.3569002
 106.3820553   6.8309098  48.9886427 107.0452309   0.9556962  55.4273891
 107.3638630   0.0699742  55.6011724 107.6583195   1.5260744  55.8910847
  45.6004572  83.8308334  61.8303108  46.0033178  83.3364582  62.5441170
  46.2839985  83.8875580  61.1626387  56.1839581  76.6129589  48.8228989
  56.0544395  76.6641283  49.7699118  57.1283245  76.7148161  48.7044621
  63.5131836  83.0071735  45.9578896  63.6082077  82.2387505  46.5206718
  62.5951958  82.9936504  45.6870604  57.2256899  55.7130814  50.1705217
  57.3506927  54.7678041  50.0865126  56.2815380  55.8391476  50.0760937
  43.6264610  57.9077053  59.6767616  42.9526043  58.3376265  59.1501617
  43.8347769  57.1084356  59.1930199  54.7207832  63.3117199  44.7149944
  54.9873209  63.5783195  45.5948305  53.7681055  63.4046459  44.7148657
  20.1119280  81.1118221  59.5676756  19.5153844  81.0696125  60.3150654
  20.8325028  80.5273533  59.8030615  52.2312307  74.9682426  74.6235132
  52.3313713  74.9299622  73.6723328  52.2122765  75.9038305  74.8248863
  61.3018703  67.2053766  52.5307226  62.2538805  67.1163702  52.4861574
  61.1532831  67.8417063  53.2301807  56.0509634  81.2094688  51.1446905
  56.4708376  82.0328045  50.8955812  55.1376343  81.4457798  51.3066196
  61.7402744  83.3196735  26.0063362  61.7347288  82.6974487  26.7336869
  61.1430883  84.0152454  26.2816215  47.5429678  54.4691753  44.7319269
  46.6955709  54.6381187  45.1437616  47.4070311  53.6696100  44.2235470
  57.2171164  64.7765875  44.7309589  58.1178856  64.7794724  44.4071770
  56.7536879  65.3848171  44.1551781  79.3187714   2.1883318  59.7650051
  79.8928881   1.4238375  59.8115921  79.4033003   2.6039866  60.6230927
  38.1780553 103.8267231  54.1380310  37.2734833 104.0465546  53.9152002
  38.4384394 104.4963646  54.7704983  56.1898518  64.3489122  29.8291159
  57.0308542  64.8002529  29.9014831  56.2800312  63.5821915  30.3950095
  51.6117382  88.3223438  64.4759035  51.3028049  88.0806065  65.3490305
  51.9485331  87.5060463  64.1064930  56.5644693  83.1974983  39.3645430
  56.7627859  83.3867168  40.2816582  55.9598446  83.8916016  39.1020966
  87.9882431 106.2957382  67.6830053  88.0610943 107.1527290  68.1031084
  87.1701622 105.9318447  68.0214596  17.3799026   5.1928270  56.1226511
  17.8581464   5.5804479  56.8556356  16.9647491   5.9372437  55.6870794
  64.6723509 107.4675369  69.6297741  64.3876696 108.3808613  69.6618557
  65.5742836 107.4864101  69.9497652  79.6955919 111.5580463  66.6142511
  79.7782850 110.6598186  66.9345474  79.9986458 112.1007442  67.3421669
  82.9129887 106.3525295  67.4884892  83.8503742 106.5440083  67.5181437
  82.5362110 107.0770454  66.9891357  94.6771240  98.3237743  62.2573185
  94.7844696  99.1652870  61.8139505  95.2825928  97.7360249  61.8054438
 104.3208694  11.4339006  36.3465476 103.8209534  11.7246068  37.1093106
 103.7088966  10.8878756  35.8530045  91.5424919  92.7329254  54.6787739
  91.6327095  91.7831802  54.7567987  91.6953754  92.9126263  53.7511063
  67.4183321 109.8511124  50.0750732  67.7937126 109.3838120  50.8213663
  68.1686687 110.0500584  49.5150280  92.9935551  98.2547188  53.4401369
  92.2095394  97.7524567  53.6621094  93.0644131  98.1799889  52.4884939
 105.7011986  90.6358051  39.1869378 106.2567616  90.8879280  39.9245119
 105.6781101  91.4125156  38.6279917  64.3110037 104.6957874  75.4801273
  64.0779543 105.3782749  74.8507309  64.8514748 104.0837574  74.9805975
  76.6241598 102.8719997  64.3671608  77.5334787 102.7387047  64.6347427
  76.6432905 102.8059101  63.4124374  94.6100330   2.2694270  54.7487783
  94.5333672   2.0957404  55.6869602  95.3216648   1.6995895  54.4570637
 112.5566959   1.6131799  76.8423939 112.2698021   2.5037652  77.0443344
 111.9314766   1.0506940  77.2994900  81.4268303  94.5455933  44.5566368
  82.0796394  94.6509361  43.8645506  81.9373512  94.3261623  45.3360367
 107.5165749   8.0307972  62.5113583 107.0128250   7.2582865  62.7676630
 106.8693447   8.7345397  62.4658775  74.5169640 105.8299828  62.4956036
  74.2348051 106.7337513  62.6364040  75.1316309 105.8822346  61.7636967
  24.0856719   8.0767810  49.3279076  23.3599472   7.4763554  49.1574764
  23.8398600   8.8839924  48.8759995   4.1351289   4.1278380  76.6227293
   4.0736169   4.8638481  76.0138512   5.0160766   3.7785298  76.4880228
  21.7966175 102.5589848  65.9082413  20.8682632 102.5702381  66.1411858
  21.9100857 103.3204556  65.3394604  79.8097372 107.2348022  51.7420435
  79.0644217 107.0252609  51.1791754  80.2427101 107.9671669  51.3033915
  72.1678066 107.3331928  87.5735760  72.3593664 106.4573097  87.2383690
  73.0258560 107.7472782  87.6658916   5.2848405   0.4081239  95.3190041
   5.9929693   0.9301302  95.6962299   4.5960763   0.4230569  95.9835434
 108.8116074  15.4855120  69.2525005 109.4619274  15.0087333  69.7682524
 108.1341553  15.7260227  69.8845243  80.3532982  99.0495872  52.2070694
  80.1577282  98.8891029  53.1302309  81.1572456  98.5565376  52.0433331
  67.0746469 103.0946732  62.6533651  66.7951202 103.5363007  63.4552765
  67.9967642 103.3329487  62.5576687  97.1900558   8.5148352  65.8157206
  96.5459633   8.8830626  65.2109146  97.4195290   9.2426461  66.3935280
 115.0665569   1.3703695  56.9448757 115.2806377   1.3710880  57.8778267
 115.7725716   0.8685456  56.5375185  73.5204363  92.2417927  38.3667302
  73.6714172  93.1172562  38.7231112  74.1469622  91.6841221  38.8279319
 105.5335331   7.8041917  68.8905954 106.3994503   8.2017571  68.7991905
 105.0279522   8.1607902  68.1602144  70.7260275 104.1303158  58.8591290
  70.8945036 104.1295242  57.9168701  71.5957069 104.1017437  59.2579651
  69.4282675 109.3085766  83.4953785  68.6333847 109.3008804  82.9621506
  69.1133976 109.2295551  84.3958473  20.0159407   8.2560134  70.6245804
  19.7633827   9.0439814  71.1057758  19.5494986   8.3242989  69.7915125
 105.5975246  11.6876352  45.3514719 106.1288261  11.4403296  44.5946455
 105.9467411  11.1621213  46.0712719  91.3566685  13.0499983  57.1928310
  90.5079460  13.1010354  57.6324892  91.7580414  13.9052141  57.3469114
  68.4482002 106.4249039  61.4452124  68.9349365 107.1337891  61.0247278
  68.5112524 106.6135788  62.3815107  86.2177277 105.1605606  71.4972734
  85.8496189 104.2790794  71.5582943  86.3862896 105.4130936  72.4050426
  49.8104763 102.2751999  33.2463193  50.7456255 102.4484634  33.3545351
  49.4458055 102.3706913  34.1261649  70.5068254 104.1127777  73.8910103
  70.6947041 103.9653015  72.9640913  71.2683439 104.5928955  74.2163086
 100.6966305  67.4891520  63.1073666  99.9734211  67.8554726  62.5984335
 100.3025913  67.2514486  63.9466858  60.9106970  95.8751106  50.1468706
  60.0479364  95.8580017  50.5610991  60.8569527  96.5884972  49.5109320
  71.5163136  92.1572495  43.9097071  71.8113470  91.8228054  44.7566605
  70.9065437  92.8615761  44.1295528  31.5991497  14.1432524  46.0850430
  31.6625071  13.2549345  46.4359140  30.6867123  14.2268705  45.8081007
 109.1722775   2.3450722  65.9343290 108.5739326   1.7465544  66.3815355
 109.5218945   2.8997052  66.6317368 114.0417194  13.2527220  65.4433107
 113.2095146  12.9633057  65.0692606 114.6488190  13.2556283  64.7032785
  76.2422514 102.0801830  51.4692307  77.0105362 102.1426105  52.0367432
  75.8531666 101.2327194  51.6852093   0.7557122   6.2510735  45.5824900
   1.1500615   5.9263027  46.3919640   0.5163600   7.1567404  45.7792377
  77.7343607 108.4755707  28.7434459  77.4440670 107.9969501  29.5199013
  77.0768738 108.2734680  28.0777884  91.0434914 104.2570496  65.6468391
  90.1218224 104.4189930  65.8481359  91.0929108 103.3135509  65.4932165
  88.8616848  93.5997200  46.6663313  88.3159733  93.7514782  47.4379587
  89.7589016  93.7031651  46.9833946  12.3613119   6.2682420  53.3318615
  12.7405822   7.0072079  53.8075924  11.5429354   6.6099161  52.9716539
  95.3237057 109.7525215  48.7702942  94.9463081 110.6317520  48.7429285
  95.9334469 109.7305298  48.0327559  91.2459087  15.8944046  52.0241404
  91.3491535  16.7829514  52.3648167  91.2328815  15.3390336  52.8036404
  70.5251694  12.1629858  42.3331404  71.0346937  12.2756553  43.1355906
  71.0433388  11.5569973  41.8035126  84.9817944 104.0946007  57.2642279
  85.6246281 103.3909988  57.1751451  84.9374771 104.4901657  56.3937140
  83.5724640 106.5938282  53.5429716  84.1722107 107.3093224  53.7541723
  82.9692078 106.5599251  54.2853785  84.2817612 112.0934145  61.5086508
  85.2034285 112.2819678  61.3319921  83.8075214 112.5364050  60.8050299
 108.5896206   2.6442742  29.7252226 109.1289234   2.5504819  28.9399886
 108.9711952   2.0302355  30.3525925 103.0258465 103.1071281  46.5809441
 103.4776115 102.3006344  46.8293524 102.6552773 102.9182816  45.7188225
   1.6683951   3.1530625  77.6652050   1.3778889   2.6452920  76.9075680
   2.4394491   3.6274132  77.3542404 117.0779991  11.7044640  50.4833746
 117.6230145  10.9618878  50.2230453 116.1806202  11.3783264  50.4156208
 108.1232357  14.2441344  71.8578672 107.5818634  14.9881971  71.5942097
 107.5181103  13.5027361  71.8776321  64.6755505 110.2611160  56.1469316
  63.9772987 110.2078438  55.4943705  64.4016933 110.9660053  56.7337561
  31.1707211  17.3716807  71.0652018  31.1322021  17.4834216  70.1153231
  31.9626617  16.8549383  71.2136555  61.1452859 112.0857668  68.3354664
  61.8716901 111.7890592  68.8836765  61.2234967 113.0397508  68.3299637
  61.7505598 112.2903538  72.2239208  60.7948303 112.2471333  72.2545624
  62.0388460 111.7315578  72.9456425 110.2827263  17.3441160  49.6171236
 109.3805695  17.6625443  49.6478605 110.2338600  16.5347934  49.1083622
 112.1335316   2.5182998  62.2950029 111.7932701   2.6338258  61.4078140
 113.0616474   2.7422675  62.2266197  83.0391407 108.7490082  65.6232977
  83.1252098 109.4905281  66.2224531  83.2363033 109.1139793  64.7606516
  88.7693310  95.4828262  51.6796780  87.8540134  95.4964733  51.3999653
  89.2687130  95.4518032  50.8636570  83.6854649 110.2253246  47.9794645
  83.5160065 109.8042679  47.1367168  83.5718632 109.5264053  48.6235428
   1.0298282   2.9715770  66.0253191   0.7795629   3.8411140  65.7130623
   1.4952648   2.5770301  65.2877998 110.0890827  10.5830586  72.9998446
 110.8676815  10.0265408  72.9826307 110.3831959  11.3936520  73.4153748
  78.4242439 109.6776199  49.1139269  79.2357874 109.5355034  49.6011972
  78.6005735 109.3175602  48.2447338  61.1317587 111.7806911  20.8808041
  61.9808197 111.3575459  20.7531834  61.3270426 112.7176857  20.8697128
  91.3912964  13.7850547  69.2442846  91.3329411  14.6824014  69.5723009
  91.3899803  13.8777328  68.2915831  18.2430160  52.9466009   5.6922936
  18.5198462  53.7936974   6.0416132  17.4834681  53.1493664   5.1462120
  84.6729088 104.9288654  41.5608406  84.6212101 104.4177151  42.3684835
  85.4129314 104.5513058  41.0853910 100.7288265   8.8098443  48.9564514
 100.7822227   9.7647566  48.9954758 101.3385010   8.5081446  49.6298742
  83.1981659 106.5498257  80.4179382  82.4747944 106.2281132  80.9559631
  82.8513813 107.3355961  79.9954081  84.4209099 109.8555088  88.7051868
  84.7065067 110.0605297  89.5954895  84.9623299 110.4124069  88.1457520
   8.6328608   1.9034839  74.6878338   9.1789180   1.2679935  75.1506567
   8.5092604   1.5243083  73.8176727  25.8816433   4.7502476  51.5831137
  25.8900928   5.6535840  51.2666607  25.0626659   4.3863201  51.2468624
  94.0160084   0.9132902  78.9210081  94.5666695   1.6798130  78.7615013
  94.5474148   0.3493885  79.4830132  74.5095158  99.7610283  44.6552801
  74.6027946 100.4262543  45.3371954  74.0065670  99.0607262  45.0710440
   7.9753709   2.8284329  82.1637630   8.7699050   2.3788649  81.8759441
   7.2854996   2.4811438  81.5983391 113.6085892  17.8832734  78.7264919
 113.0679131  17.9627204  79.5123625 114.3484211  17.3403180  78.9986515
 112.1322918   1.3763808  36.4670706 111.5908241   0.7189081  36.9038391
 112.7482128   0.8675715  35.9398198  36.4016056  54.4161844   1.2289003
  35.6224275  54.0178823   0.8409937  36.7591667  53.7362146   1.7998840
 102.4705887   8.5870415  46.3185883 101.8740463   8.4435689  45.5838919
 101.9053078   8.8842708  47.0315742 109.3882847  20.1942921  50.2478790
 108.7703705  19.9733436  49.5510340 108.9473724  19.9243236  51.0534477
  53.3321095 103.8882160  55.4826880  52.9030275 104.6842003  55.7965994
  52.9735184 103.7527943  54.6055889  52.5482368  96.9722748  89.0582085
  52.0199108  97.7363586  89.2890453  53.2116556  96.9230175  89.7464561
  11.1592245   5.8242542  35.2034259  10.5067730   5.1374626  35.3407383
  11.9750285   5.3506011  35.0411010  96.3857079 109.5839787  80.2540493
  97.1398926 109.0325737  80.0457478  96.7558765 110.3246498  80.7342720
   1.5608093   4.9760717  57.1256590   1.9882755   5.7282138  57.5352764
   1.9575524   4.9191716  56.2564087  78.3811998 111.0475636  73.3566046
  78.8235140 111.0985279  72.5092602  78.1163454 110.1309776  73.4337854
  77.6138163  92.3777962  43.6150646  77.4446201  93.0844784  44.2381239
  78.4596920  92.5992680  43.2256031   7.1775502  19.1840291  48.0071545
   7.6087612  19.2559743  47.1556187   7.5970817  19.8551273  48.5455322
 100.1248837  17.2329652  56.8758678  99.7264194  18.0662060  56.6245317
 101.0013676  17.2612298  56.4921808 103.0591106   4.3498972  31.0332680
 103.2039070   5.2506560  30.7436156 102.1507359   4.3383741  31.3348389
  98.2865143 101.2038898  52.0660496  98.4197330 101.4004230  52.9933357
  99.0318775 100.6522369  51.8286467   3.3034363  14.4999945  38.2291079
   3.7000743  13.6293042  38.2575560   2.4160188  14.3699706  38.5634971
  78.2464266   4.1572985  55.8878183  78.0674696   3.4091234  56.4574146
  79.0545702   4.5348242  56.2351084  71.6231585 109.8431969  72.9913998
  72.3918247 110.3027916  73.3292723  70.8854151 110.4066753  73.2247543
 107.5264359  10.9804177  43.0115175 108.2815266  11.5596533  42.9088163
 107.7552319  10.1975298  42.5105476  68.7411785 106.9192791  64.0333748
  67.9369974 107.1954823  64.4729614  69.4448137 107.2880650  64.5673418
  50.4831743  99.4283104  38.7375164  49.7053719  99.5305538  38.1890583
  51.1631107  99.1267395  38.1350470  72.3673725  98.5791874  36.9935989
  71.7853212  99.2947483  36.7378163  72.0331812  97.8175926  36.5197682
  81.9307899 103.4252262  45.6291866  82.2975540 103.4316063  46.5133095
  82.5280762 103.9714241  45.1181650 100.2937317   3.3651525  61.4889812
 100.5462837   2.4613617  61.3002682 100.1437759   3.3795440  62.4342489
 111.7812824 108.6509037  95.7294655 111.7096996 107.7002430  95.8152580
 112.3105145 108.9199734  96.4802933   4.7308981  27.7400565  40.9622574
   4.5195681  28.2970572  40.2130413   5.5487239  27.3077917  40.7162094
 109.3919563  85.5559444  54.8062086 109.9732304  84.9338531  55.2436543
 109.6566772  86.4107609  55.1459932  96.7981052 105.5908680  80.3620243
  96.0328960 105.5462837  79.7887039  96.5541077 106.2226677  81.0384369
  60.4774094  98.1694221  48.7584257  59.7027969  98.1291771  48.1975412
  60.4138613  99.0194225  49.1939497  95.8125591 101.9403076  56.8312263
  94.9922848 102.4281979  56.7581081  95.6660080 101.1468410  56.3162851
   9.8431158   1.8607534  39.8745775   9.1940236   1.3276413  40.3336000
   9.4519246   2.7334958  39.8355579  93.6762333  98.8676453  41.1726379
  94.0491962  99.3927765  40.4645634  94.4271660  98.4141541  41.5556288
  95.7641125   7.5818598  68.5842514  95.6571198   7.6223534  67.6339102
  95.4859924   6.6965699  68.8190794  60.9216785 100.7456779  36.6676307
  60.1646376 100.1606941  36.6375041  60.6742811 101.4254570  37.2944689
  78.3483791  95.9903336  39.9684334  78.7359095  95.1156616  39.9368930
  78.4893370  96.2824249  40.8690119 107.5489235  90.8983803  55.3730869
 107.5166130  90.2201176  56.0477352 107.5443840  90.4148960  54.5469809
 102.0515060  98.4489632  69.5415306 101.2552071  98.9616394  69.6804810
 101.7471886  97.5428486  69.4908237  83.8831234 111.3315487  52.1774006
  82.9509926 111.3061142  51.9612265  84.2247009 112.0731449  51.6778231
 102.4359417  83.7086964  59.1015625 102.1879768  84.6065807  59.3218946
 102.3358631  83.6590004  58.1509066  64.2867136  99.4074821  57.2951269
  63.3645058  99.2680931  57.0798683  64.6468306  98.5255337  57.3884678
  52.8713369 100.3938580  24.2215872  53.2321405 101.1100292  24.7442293
  53.5052586  99.6833038  24.3189621  64.5686722 100.8413219  65.5274439
  63.8244724 101.4251804  65.6740904  65.3252649 101.4255524  65.4776239
  95.7117176 111.8244934  61.0795403  96.5514755 111.8117809  60.6203270
  95.4623318 110.9029102  61.1482716  69.4131565 107.6728916  86.3102627
  69.3652344 106.7176533  86.3484192  70.2850437 107.8825283  86.6450596
  59.6823168 110.8625889  48.2679367  59.9920845 110.5647087  47.4126339
  60.4634237 111.2113762  48.6974049  80.8263969 104.6708298  74.6953249
  80.8646297 103.8464260  74.2104197  81.3070583 105.2926159  74.1489029
  76.9172573 103.2014370  70.6070280  77.4384737 102.4609375  70.9172344
  77.5098658 103.6882019  70.0342226  99.4330120 106.8953133  36.5916276
 100.3300858 106.5614414  36.5865684  99.0154171 106.4713287  35.8419061
  76.4980888  15.3857517  69.5032263  76.7072058  15.1407957  68.6018372
  75.5442381  15.3233147  69.5532465  89.6196079 100.2577591  56.6392422
  89.8117924 100.7450294  55.8380795  88.6871815 100.4091835  56.7938280
  76.4507484 100.5148983  49.1811180  77.3149681 100.1064396  49.2312956
  76.5384102 101.3236332  49.6855927 109.0596867   2.8937331  60.5137873
 109.0982819   2.0326382  60.9300327 109.8272610   2.9181844  59.9424171
  17.3701918  11.8532073  54.6650124  18.1929028  12.3411345  54.7011518
  16.7293918  12.4876022  54.3438435  71.1260462  94.5053673  84.3988514
  71.2151670  95.2793312  83.8427353  71.0775471  94.8542500  85.2888870
  80.1354313  99.5129871  58.0688572  79.8894262 100.4218674  58.2410669
  81.0651970  99.4700527  58.2923031  80.1831245 105.1592445  59.7078228
  80.7176971 104.4858932  60.1286125  80.5977249 105.9850216  59.9576855
 111.8267345  10.3777289  50.5903530 111.8311214  10.7419777  49.7051764
 112.6951599   9.9886191  50.6935453  66.6227150  96.2661171  50.8103752
  65.9037304  95.9484100  51.3565969  67.2985697  96.5309620  51.4343214
   3.9645609  31.7983794  64.1553211   3.4174046  32.5148630  63.8335991
   4.3765506  32.1478319  64.9454975 112.0203876   8.3164376  83.0445099
 111.2177944   8.7270325  83.3661938 112.4083996   7.9095930  83.8192081
  96.0721016  18.5338593  72.1176338  95.3760242  18.9024794  71.5737391
  95.7783318  17.6438057  72.3118973   1.2868840  14.5882809  61.0816383
   1.3646848  14.3859911  62.0139790   2.1432471  14.9417722  60.8409786
 116.2806225  22.7322960  84.9297237 117.0429325  23.0988669  85.3777695
 116.6427612  22.2972536  84.1578197  14.1107810   5.9952152  49.5479012
  14.6354592   5.6790745  48.8123751  14.6240830   6.7140073  49.9168062
 116.1996651  33.1086922  40.6636000 115.9200764  34.0069103  40.8404160
 116.9035530  33.1990075  40.0212383  73.2858610  99.6616554  89.0037155
  74.2327833  99.5602131  89.1000175  72.9556704  99.6918869  89.9016571
  93.1060219 101.6058445  61.3888216  92.7765560 101.3610554  60.5240917
  92.6840687 102.4440670  61.5774298  21.4385009   0.3309125  36.3043666
  21.6074657   0.5762422  37.2140360  22.2914219   0.0557921  35.9681129
  11.6957629  10.3456306  74.2596006  10.9707463  10.5613124  73.6730289
  12.2600460  11.1184907  74.2371607 113.5866261   8.9283437  44.5770311
 114.1357136   8.3266699  45.0797415 113.2410908   8.3955997  43.8607788
  25.4125166   7.4937510  51.5908480  24.9330473   7.7829796  50.8145189
  26.1896420   8.0521095  51.6142225 105.6353951   6.5159583  63.9592505
 105.6978130   6.6631186  64.9030066 105.9952736   5.6385523  63.8293362
  83.4118080 105.8261776  59.1157818  84.2967701 105.8441639  58.7514162
  83.5324001 105.5497837  60.0242376  88.9250851  91.7955875  76.5890884
  88.6209393  90.9057236  76.4105654  89.8542500  91.6942310  76.7955160
 111.0828781  14.0984213  37.2619390 110.5155945  14.3240047  37.9991865
 111.0517979  14.8667836  36.6919518  17.8203058  21.9002748  85.7763767
  18.2988524  21.4588165  85.0747108  17.5910926  21.1999989  86.3873672
   3.2088271  24.4963098  69.6863651   2.4252966  23.9528561  69.7698450
   3.0270883  25.0653005  68.9383984  14.5685697  19.9739265  59.9479723
  14.0576017  19.2077053  60.2088356  14.7955751  19.8101187  59.0326214
  86.6828251 110.5213261  69.1250706  87.4032593 110.6456280  69.7429371
  86.1928368 109.7772408  69.4750357  84.8268509 104.5302677  61.3787031
  85.4594421 105.1654243  61.7143154  85.3593349 103.7829494  61.1062670
  61.2782907 104.1111660  35.3367615  61.9361639 104.3628311  34.6886063
  61.3234234 103.1554604  35.3652120 114.1833782  45.6952906  57.0259953
 114.2670250  46.6322660  56.8490696 113.3280659  45.4591656  56.6669321
   1.5223353   1.9108488  45.5393410   0.7273962   2.2461143  45.1247311
   2.2282575   2.1666029  44.9456263 107.2784805  21.3164282  63.1236553
 106.7085457  21.5777850  63.8469076 107.6881981  22.1318817  62.8348637
  26.6673946  10.5935347  77.4074650  26.0778856  10.8266997  76.6902876
  26.2439203  10.9464931  78.1899786   3.9710203   5.3128737  82.8833580
   3.1702992   5.8329505  82.9511642   3.7039137   4.4282559  83.1330299
   4.2426586  45.9582233  56.8046093   4.4458914  46.4111567  55.9862137
   4.3483275  45.0297689  56.5971422  72.7471399  70.9974575   2.9537195
  71.8909073  70.5701160   2.9755643  73.0244637  71.0250902   3.8694480
 119.1311073   5.6846488  80.3830433 118.4169579   5.2904493  79.8822165
 119.3887711   6.4508057  79.8703575 113.4200001 109.5004940  54.9560738
 114.0518570 109.6957397  54.2640734 112.5665379 109.6600246  54.5530987
   9.1056186  17.8174651  81.8461704   8.5624909  17.3968065  81.1796188
   9.1237086  18.7403810  81.5929317  11.4349139  27.3803425  75.8658361
  11.5216148  28.3192039  76.0309315  12.1207106  27.1851134  75.2272463
   6.9622672   5.5749452  65.7067013   7.3177743   6.0572731  64.9602413
   7.0992923   6.1562681  66.4547110  99.5663834 105.2573967  58.8153982
  99.7006416 104.4374466  59.2906713 100.3692913 105.7561016  58.9665842
   9.7294486   1.5765457  78.2288837   9.5402604   0.9293472  77.5494909
  10.3458440   2.1824135  77.8175306 100.5387402  10.5131447  41.0209274
 100.2905369  11.4257550  41.1684656 100.2028751  10.0468302  41.7864180
  15.2071846  18.4654212  64.2511368  15.4079759  19.4012702  64.2611027
  16.0557961  18.0371702  64.3637943  73.3406544 104.5868969  69.6114445
  73.6174011 104.8264694  70.4958916  72.4135351 104.8226738  69.5784616
  95.3828526 100.9020805  51.9718647  96.2386608 100.9135437  52.4004650
  95.3697300 100.0779343  51.4851999  70.0676775 112.2808743  41.0811377
  70.3199863 111.4746380  41.5312052  69.9061966 112.0101643  40.1773310
  78.0655527 106.9846153  35.0233364  77.8623581 107.4694252  34.2233968
  79.0111685 107.0864010  35.1314235  75.6427526  96.1433506  42.4328232
  75.3958511  96.9928169  42.0672083  76.5487766  96.2598801  42.7187824
   1.9087613   1.8938544  62.1381187   1.9685690   0.9921048  61.8226767
   2.5138590   2.3831928  61.5807676  18.8429379   6.1996025  80.3044796
  18.1151283   6.7629677  80.0415230  18.6249554   5.3413677  79.9409533
  12.3625517  26.6537476  82.9128075  12.8452873  25.8678102  83.1687450
  12.6512301  27.3243403  83.5318470   2.3026974   5.3935051  47.6527739
   3.0634183   5.9153843  47.9080725   2.4797690   4.5224068  48.0078316
  63.4151411 101.6754627  48.2176971  64.2554379 101.3426781  47.9024363
  63.4654617 101.5895462  49.1697073 111.6868210   7.2458655  38.1177211
 110.9900665   7.8962404  38.2059336 112.1171379   7.4664092  37.2916365
  72.9518986 106.1211681  74.3608952  73.0837393 106.1968422  75.3059435
  73.8236094 105.9360123  74.0115166   4.6219605  12.0452797  67.4276114
   4.9435073  12.9359663  67.2879028   3.6712888  12.1177757  67.3427582
 110.2674866   5.2496624  39.3798828 110.5644131   5.9361678  38.7825775
 110.7216072   5.4345548  40.2019644 102.7944279 111.0280895  55.1235819
 102.9235172 110.3973866  55.8319473 103.3891106 111.7483521  55.3328514
 107.5300980  15.9872115  82.1727848 107.3086071  15.4220748  82.9129124
 106.9226837  15.7249999  81.4810371  69.4104004 104.3799019  24.8545551
  69.1118813 103.9208412  25.6396532  68.6210918 104.7921944  24.5034957
  80.0818920 111.4697266  83.4175968  79.6563101 111.3288689  84.2633343
  80.8866405 110.9536648  83.4655380  10.9093440  33.3373117  54.2083549
  10.4233372  33.1973839  53.3956718  10.4246759  32.8386879  54.8661566
 115.9608078   0.4715919  39.5516968 116.1738110   1.1956748  40.1403952
 116.7190838  -0.1102609  39.6035624  99.8298359   6.8517506  77.7638960
  99.3181992   7.6399493  77.9460907  99.2603683   6.1297709  78.0297661
 114.5594597  21.7518735  59.3263817 114.5370197  22.6850677  59.5382261
 115.4910088  21.5324044  59.3096399  86.8131161 106.1329365  61.7347670
  86.8844128 106.9957829  61.3265467  87.4430180 105.5906105  61.2600708
  18.6029696  10.9738982  46.9018126  18.2505691  10.1605082  46.5406466
  19.5462227  10.9143782  46.7502832  55.0927830 107.1870995  60.4439545
  54.1537333 107.2986221  60.2956963  55.2464199 106.2513924  60.3133059
   3.9284199   2.6522794  51.3042641   4.7693270   2.2463056  51.0938025
   3.8174596   3.3318508  50.6393528  67.1895647 104.7736359  79.9954319
  67.2714090 103.9021873  79.6079922  67.0636511 105.3574562  79.2474127
  71.3364124 101.8026733  55.6238270  70.7299232 101.3010120  55.0790977
  71.5331316 102.5836182  55.1064730  68.6511755 103.6402225  66.7856550
  69.2218351 103.4246159  66.0480309  69.1270685 104.3172073  67.2667503
   1.6206308  26.3532281  64.5584059   1.5650856  27.2315311  64.1819382
   0.7119372  26.0568333  64.6099663  57.5706148 109.7073364  44.1926670
  58.3269930 109.8699665  43.6290455  56.9868660 109.1670704  43.6601496
  22.0976710  12.8981054  83.1260109  23.0504990  12.8950274  83.0346680
  21.7745924  13.1386006  82.2576714  69.4038391 108.7750435  51.7881060
  69.3548346 107.8446102  52.0074844  69.5813179 109.2088795  52.6226854
   8.4497738  10.4824841  79.3147993   8.2501274   9.6945447  79.8202944
   7.9387927  10.3872609  78.5110188 101.6846943  13.1603801  79.3742800
 101.4203358  13.2391989  80.2908707 102.0156574  14.0287697  79.1449356
  64.8471785 105.7120705  63.2916689  64.7905827 104.8285580  63.6555672
  65.3880835 105.6141567  62.5080442 104.5727730 108.5138893  92.3221302
 105.4529572 108.5974121  91.9553566 104.1139793 107.9341221  91.7141724
 118.0495262   3.7115088  36.6273308 117.3339272   3.9992902  37.1941972
 118.2505798   4.4765392  36.0883164   5.2788055  28.8709354  72.0403814
   5.9026808  28.4504318  71.4486170   4.4207120  28.6643982  71.6699076
 113.3705902  36.9181156  65.2311182 112.6170063  37.5082684  65.2394867
 113.9908314  37.3301649  64.6296644 102.1093273  22.4116492  47.0487881
 101.4546299  21.7298126  47.1994400 102.7520084  22.0027184  46.4691544
   6.3364577   5.7041615  81.1887169   5.9795892   5.1975363  80.4591942
   5.6006426   5.8056146  81.7924690  97.5559330  14.3841374  69.1881657
  97.7626991  14.6044374  70.0964308  98.4084511  14.3150175  68.7584352
   4.4386965  15.8143377  64.6955109   4.5992222  16.7152083  64.9763918
   4.5974758  15.2873766  65.4786682  67.8052950 101.8086052  51.2170362
  67.9859400 101.0443497  50.6697512  67.0350218 102.2126484  50.8174658
  93.6150742  11.3902652  64.5915890  92.6703453  11.4874172  64.4720984
  93.9920044  12.1500623  64.1478920 107.0605755   1.2247382  63.0846882
 107.9945850   1.0153049  63.0868721 106.7078686   0.7543284  63.8400316
 105.3930569  21.0995197  50.3942585 105.9581470  21.3759661  49.6728086
 105.2506638  21.8959975  50.9057045 110.8116913 105.1533031  65.5257416
 110.3167820 105.9673500  65.6185722 110.1424694 104.4760895  65.4269314
   0.7379743  17.1821880  60.8913136   1.1045639  16.3018441  60.9740114
   0.2075796  17.1469629  60.0952768   8.2754695  29.4442868  84.6259308
   8.9598095  28.9051771  85.0225067   8.3292657  29.2495680  83.6902905
   6.7659742  28.5918713  59.6516514   7.4919713  29.0375018  59.2151022
   5.9927815  29.1031313  59.4128609   4.6421388  16.5282297  79.9465322
   4.9445298  17.1431696  79.2782211   4.6720940  17.0275855  80.7626057
 115.5402660 110.2959251  63.4508944 114.7838783 110.0372314  62.9244137
 116.2927723 109.9335480  62.9832935  94.0610313 105.7918453  58.5427141
  94.8936749 105.6609917  58.9963770  94.0969086 105.1912212  57.7982664
  86.1322117 111.1791801  75.4802513  86.1041355 110.2224064  75.4848814
  86.6600800 111.4070129  76.2455463 116.5021992  27.1103668  44.4560385
 117.1765232  26.4874244  44.1850090 116.2792492  27.5853682  43.6554718
  88.7542820 109.1493511  78.3849669  89.7099400 109.1288280  78.4352827
  88.5002041 108.2324314  78.2803392   3.7832564  17.6507282  55.9275436
   4.6584523  17.8707480  56.2466908   3.2012141  17.8675091  56.6558743
 114.6685791   1.4884008  66.8207073 114.9453831   2.3854631  66.6339111
 115.4720879   0.9719364  66.7584467 106.4472103   6.7084366  78.0200291
 107.0183659   7.1337891  78.6596298 106.9449806   5.9463537  77.7238989
  93.8975525  10.4106343  67.1630144  93.9230728  10.5812716  66.2214899
  94.3299961  11.1689472  67.5556707   1.0473645  10.4235089  35.5514979
   1.8476333  10.1720405  36.0125470   1.3085604  10.4814124  34.6324468
  75.3186655  99.5759106  52.0811796  74.7320414 100.0386906  52.6794577
  76.1097383  99.4174004  52.5962591  56.0067129  92.6135540  70.9959269
  55.2924824  92.7559757  71.6170740  55.5770922  92.2747993  70.2104950
   2.0001617  21.0364556  57.6000500   2.0827557  21.4297676  58.4687948
   2.0584655  20.0940561  57.7572680  88.6441612  93.6425209  55.2000093
  89.5518112  93.5400295  54.9138069  88.2163525  92.8279591  54.9359894
  81.8295670 104.0650749  48.3165503  81.8574715 104.6322918  49.0870810
  81.1065960 103.4619617  48.4891653  37.2342944  15.6898189  48.9835072
  36.3737488  15.7100904  48.5648441  37.6338434  14.8782432  48.6705589
  92.9249573  98.6300850  49.1880035  92.4298954  97.8339386  48.9948845
  93.0433655  99.0509701  48.3364964  16.7654586  13.6347973  40.9945965
  17.5412619  14.1871345  41.0909605  17.1107435  12.7434349  40.9447765
  13.0176890  15.5422223  61.5080070  13.5343075  16.0120225  62.1626997
  12.2141218  15.2979696  61.9671917  74.6042013  96.1713505  48.1991386
  75.3712034  95.7454777  48.5819960  74.5909357  97.0423889  48.5958004
  74.4943523  98.6174679  49.5391703  75.1781654  99.1956234  49.2009830
  74.4644117  98.8051033  50.4773235   0.2714995  11.7416644  64.8730993
  -0.3086301  11.3050461  65.4968357   0.0564459  11.3459146  64.0284920
 112.9976654  17.8885114  54.4583130 113.1429672  18.8206816  54.2965221
 112.1560574  17.7015638  54.0423965 108.5666180  17.1296513  89.0798092
 108.5882854  17.6497257  88.2765102 108.5796070  17.7770793  89.7847176
  97.0260525  16.6651654  29.0494370  97.8278637  16.2533462  28.7273526
  96.3197136  16.1819410  28.6207056  10.6112075   8.1381953  89.2938232
  10.0651658   7.8847295  88.5496330   9.9879795   8.4231496  89.9621201
  60.7609034 109.2436504  76.0429049  60.0304651 109.5062923  76.6030073
  60.5380154 108.3572483  75.7585716  12.5331044   0.8649985  87.9728889
  13.2136929   1.5146865  87.7969933  12.1153855   0.7198738  87.1239567
 115.1799583  18.4294307  65.0201607 115.2575779  19.3659413  64.8380709
 114.2481518  18.2403636  64.9096394  26.6402555  13.6319637  53.9296532
  25.8327579  13.1251323  54.0151167  26.3629150  14.5427883  54.0282202
   2.0137651  19.5932996  61.0934448   1.3597897  19.7552180  61.7733955
   1.9063142  18.6679828  60.8732748  23.0847311   8.3103633  75.1410007
  23.1248021   8.5665774  74.2195988  22.8864813   7.3741353  75.1208591
   9.1933507  28.7299323  28.9802909   9.0467507  28.6569142  28.0372047
   8.4592879  29.2564774  29.2967272  88.1709766 105.0800037  65.2607489
  87.2786045 104.7365379  65.2167749  88.1906223 105.5930138  66.0686255
  85.0589180  98.0636215  41.9255304  84.8376083  97.3550034  42.5297785
  84.9433517  97.6814270  41.0555840 102.8112507 102.7037430  34.9133325
 103.5969734 102.2664833  35.2414846 102.3207378 102.0126629  34.4683146
  51.4412594 102.6034260  57.4598169  50.6824541 103.1261826  57.2006416
  52.1582747 102.9388237  56.9216442  27.9301882   3.8736060  55.4425955
  27.8600693   3.4937856  54.5667791  27.7029705   4.7956815  55.3226709
  98.1683064  15.5177772  58.1013393  98.6934090  16.3179398  58.0857420
  98.6498547  14.9044311  57.5462246 111.3001060   3.5334000  74.7606850
 111.5526485   2.6176271  74.6431446 111.5455532   3.7355524  75.6635284
 115.9150314   4.9446717  55.0353956 115.7283592   5.7302243  54.5212984
 116.6733646   5.1822352  55.5689955  13.5064590  26.9774032  74.2469692
  13.9645696  27.6625466  73.7601995  14.2043567  26.4740014  74.6662045
  88.1473351 101.6445065  66.8405390  88.1149197 101.2988472  67.7325583
  89.0763664 101.8119717  66.6821766 117.4084377  14.1749489  57.5533342
 117.6023865  15.0952959  57.3756361 117.2968197  13.7822151  56.6875744
  11.3388729   7.4882060  59.6463156  11.4008892   8.4374470  59.7527456
  11.0817981   7.3659497  58.7324238 116.6767216   4.1222626  46.9195414
 116.9236755   4.5973060  47.7130032 115.7321835   3.9914313  47.0029068
  57.2143745 101.8879128  61.2858200  56.5992165 102.2211933  60.6325674
  56.7650557 102.0099449  62.1221495  22.6516247   2.4789032  77.1051502
  23.5739303   2.2342929  77.0293188  22.3306251   1.9741544  77.8524256
 106.1372948   9.6150959  54.9731874 107.0002651   9.2171830  55.0879717
 105.5206013   8.9040649  55.1474190 114.8426151  21.5324974  68.2578564
 115.7703495  21.7283297  68.1267643 114.8299789  20.9061003  68.9815283
  98.2518196   2.1854162  70.4149723  99.0415764   2.5139391  70.8446026
  98.3531094   2.4425352  69.4985342   9.0163565   1.9257112  45.4082680
   9.1367114   1.0730887  44.9901962   8.3021510   2.3337996  44.9187708
  23.9339900  22.6387382  74.8363018  23.1465268  22.7616906  75.3664112
  23.6087275  22.5558043  73.9398909  50.6708431 109.7934914  61.9487619
  50.9516287 110.7085514  61.9419384  51.3674688 109.3326855  62.4163151
  11.6173410   5.9500247  75.3717279  11.3842821   5.5954933  76.2297583
  11.2092078   5.3512913  74.7462845  23.3997321  57.0258379   4.6570864
  23.7300634  56.2823820   5.1614505  22.5094938  57.1593952   4.9824589
  33.3836198   5.9957296  53.6144876  32.8387856   6.2461025  52.8683615
  32.7589178   5.8091801  54.3153286 117.1378708  31.2294292  58.0671024
 117.1186543  31.4277077  57.1308613 116.8848515  32.0495772  58.4908628
  22.7890992   2.0412958  55.9125519  22.5822806   1.4981496  56.6731071
  23.6484432   1.7331797  55.6247568  99.9485397  17.2212493  50.4948664
 100.8181477  17.6033127  50.6133652  99.7237968  16.8660128  51.3548231
 117.8281975  17.0868528  43.6504412 117.8505993  16.8860781  44.5860767
 118.1942654  16.3089049  43.2297039  22.8280115  21.1769295  55.9892464
  22.3382020  21.9918489  56.0998011  23.0229831  21.1398244  55.0528479
   2.4999812  16.5230989  44.0554953   2.1790458  17.1416819  44.7116852
   3.4444520  16.6755354  44.0243435  90.5739212  96.7562675  53.5547018
  90.7242870  95.8118629  53.5133648  89.7904682  96.8975449  53.0232143
  11.8190074   8.0860823  34.2477798  11.4751065   7.3232472  34.7125888
  11.7565489   7.8507280  33.3220696   1.1621924   1.1657164  68.2564068
   1.1995191   1.6962814  67.4605799   2.0220654   1.2801145  68.6610842
   3.9608562  10.3891051  52.4598789   3.3976984  10.4800177  53.2285261
   4.5034027   9.6236879  52.6496458   7.7263790  13.8559866  40.2405882
   7.6067942  14.2337132  39.3692350   7.0205855  14.2346489  40.7647085
  29.5490122  20.7279849  44.1037178  29.5026350  21.6817284  44.1704607
  29.5128131  20.4224157  45.0101089  47.1496534   4.9440277  34.4702196
  46.3005972   5.1557434  34.8581743  46.9531965   4.2750466  33.8143969
  21.7619729  11.8314302  61.9648933  22.0008969  10.9815872  62.3349094
  20.9451532  12.0638371  62.4065065   1.4129505  13.5139203  44.7434425
   1.1894636  12.5917923  44.6170855   2.0526066  13.5099411  45.4555225
  36.3892436  23.9813471  41.4312077  36.7386150  24.8718190  41.4663267
  35.4446292  24.0984845  41.3301420  23.7322402  24.6975708  29.6151781
  23.6183000  23.8273716  29.9972844  23.1967759  25.2716303  30.1628709
  91.0776615 105.2180290  41.7703772  90.5698395 106.0207844  41.8883991
  90.9131241 104.7114277  42.5656843 112.8371620 102.1497917  52.5489473
 112.8068066 101.8909168  51.6279173 113.7032604 102.5422096  52.6590252
  12.5363421  23.5017872  49.5523787  13.2928145  24.0785074  49.6590328
  12.6951253  22.7828693  50.1640844  25.0983191   4.6465766  48.5536623
  24.4561172   4.6499577  49.2634487  25.3499174   3.7275261  48.4626818
  10.1591218  13.0230975  29.7026563  11.0263753  12.6282895  29.7933674
   9.6745992  12.4119556  29.1477013 107.4548054 101.3769436  50.2760077
 106.6488552 101.8782043  50.1518917 107.5123501 101.2464714  51.2225294
  80.7346535  99.4503689  34.7918653  80.6787968  99.4161034  33.8369107
  81.5858746  99.0631104  34.9960375  16.8465567  10.0126898  52.5526428
  17.6531386   9.9527794  52.0407152  17.0012414  10.7366037  53.1594801
  38.4716868   6.7701536  53.7305593  38.3877468   7.6079136  54.1859102
  37.6505494   6.3140672  53.9148235  23.5984898   0.6982919  16.2810910
  24.2381525   1.3392697  16.5912688  24.0515399  -0.1424705  16.3450837
  21.3896751  18.6885309  55.0474024  21.7102242  19.5346236  55.3598213
  21.4345741  18.7528110  54.0934181 114.6791935   8.7644762  26.9892120
 114.7949409   9.6709740  27.2739863 114.3557644   8.3087337  27.7663374
  40.1068354   8.7791431  51.4687777  39.9844909   8.7210333  50.5212069
  39.8676801   7.9115367  51.7948055  89.6976280 111.4063263  41.4900589
  90.3968620 111.6408062  40.8798695  90.1457310 110.9566784  42.2064781
  30.5575919  26.8257952  57.3166561  29.8889875  26.1514878  57.1961975
  30.6140375  26.9403601  58.2652950  32.7251124  28.5593057  44.8875618
  33.6496639  28.8048291  44.9215508  32.6934695  27.6895404  45.2859783
  21.8053913   8.3966726  56.0249519  22.4774599   7.7753639  56.3051844
  21.3829899   8.6752427  56.8374825  96.0744762 101.8404388  37.0074821
  96.7461491 101.5985107  36.3698649  95.2484894 101.5979862  36.5889287
  24.3007898  16.3833797  25.4483819  23.8664579  16.4503014  26.2987399
  25.1635242  16.7735410  25.5887246 112.5815773  22.1841955  64.6673870
 111.8508339  22.1929622  64.0491915 113.1481934  22.8995872  64.3786049
  15.9645295  30.1879096  48.5939693  16.6397512  30.7710433  48.9407587
  15.6767821  30.6095028  47.7842236   4.8988429  25.1893568  38.7423825
   4.6584874  25.8717322  38.1156254   5.6695980  24.7717690  38.3579516
  35.8747816  23.3620071  58.1571722  36.3513303  22.7127075  58.6744165
  36.5152407  23.6770892  57.5193930  13.5702968  19.4578826  32.5544095
  13.1780052  20.1923609  32.0823097  13.3244777  18.6863542  32.0439696
  28.5571074  15.0557697  65.4683828  29.2239189  14.6966469  66.0537243
  28.1475592  14.2869699  65.0715828  25.0483751   5.9715694  64.9883032
  25.0228596   5.0238252  65.1200676  24.1298509   6.2258542  64.8995018
  32.4278736   9.8582107  33.3277225  32.6276541  10.6838429  33.7689161
  31.4833403   9.8902345  33.1758595   9.1601354   4.3842438  39.5762253
   8.4055841   4.3112072  38.9918017   9.5770210   5.2091169  39.3271804
   7.1919292   3.9937365  21.3524532   7.1154672   3.0680871  21.1210275
   7.9743141   4.2926469  20.8890343  20.0945878   3.1250343  59.8084831
  19.6882534   2.8806636  60.6399918  19.4543540   2.8688687  59.1446209
  98.4802055 106.6773033  64.0764093  98.6654377 105.7414055  63.9988041
  97.5266075 106.7280865  64.1420889  15.6574118   9.4997734  71.9072056
  15.8636796  10.3871381  72.2009230  16.3727593   8.9624810  72.2475386
  25.8556771  12.7132070  29.0482545  26.8127346  12.7129686  29.0646577
  25.6269050  12.0377684  28.4097576   2.3133507  92.7498531  41.1610699
   1.8063980  92.9924965  40.3862429   1.6627301  92.4133682  41.7772722
  45.5833817   8.9590675  29.7164845  46.3382006   9.3404448  30.1648521
  45.3332472   9.6163720  29.0671659   5.1267254   4.0124556  62.5792551
   5.9956157   4.2540932  62.2585154   5.2810049   3.6851996  63.4654427
  28.4806871  20.2958250  25.0822043  28.2644320  20.1373601  26.0010910
  29.3377829  19.8864305  24.9638176  30.3748393  26.7114711  46.2771749
  31.2393618  26.7900634  46.6804790  29.7619152  26.9225740  46.9814396
  19.3766189  18.4493089  28.0068827  19.4358194  17.7571630  28.6654115
  18.4498072  18.4749269  27.7689862  44.9019670  19.8355186  43.8637495
  44.1919374  20.2257442  44.3734646  44.5175314  19.0459526  43.4829283
  90.3647804 101.1447811  41.4744854  91.0954571 101.6419220  41.8421650
  89.6856499 101.8000889  41.3145304 115.4445648  26.2855124  66.0027647
 114.5666981  26.6033244  65.7916117 115.4976082  26.3444424  66.9566727
  20.4105830  17.3796952  21.3388062  20.8513427  17.2951329  22.1842718
  20.9959698  17.9289639  20.8174038   0.9802251  23.0155182  45.6851387
   1.1662456  22.5328541  46.4905357   1.6257292  22.6913023  45.0570965
 107.4583149  15.1392424  48.0231190 107.0481205  15.0878406  47.1597958
 107.2487926  14.3024826  48.4380484  21.5567017  23.7277603  55.7651663
  22.2976089  24.2964005  55.9747744  20.8075047  24.3209910  55.7102585
 100.9478474  71.5706968  49.4504118 101.0274792  71.4150095  50.3915024
 101.8297672  71.8189240  49.1732407  21.0999775   0.4694878  31.0927820
  21.6241241   1.2002068  30.7648301  20.9040403   0.7034656  32.0000267
   8.3649099  12.8334832  34.3580747   8.2337826  13.7716293  34.4956279
   7.6794350  12.5841784  33.7382340 104.4594574  98.8349819  51.5148735
 103.9740753  98.4317493  52.2346258 104.9199867  99.5704269  51.9189405
 111.2601280 110.6366348  49.0347481 111.1896610 111.5780926  48.8768768
 110.9339905 110.5183029  49.9268532   1.8109819  18.2920420  38.7365508
   1.3855456  18.3116364  39.5937848   1.4496046  19.0472198  38.2724977
 104.2917061 110.7885742  33.4841847 104.2287064 109.8991203  33.1361389
 105.1495266 111.0989857  33.1943369 111.8589401 107.2533131  68.0078793
 111.5789604 107.9536152  67.4184513 111.0434818 106.8946552  68.3580685
  22.0012331  16.7139518  37.3361397  22.1843672  17.1816540  38.1509709
  21.7453814  17.3993433  36.7188787  10.7103026  18.9948523  50.0768518
  11.2247419  18.6587501  49.3429470  10.4637837  18.2147264  50.5737066
  95.9660053 108.1543922  39.3087626  95.1643181 107.6333046  39.3535185
  95.6674576 109.0337658  39.0768123  18.7159204  15.1826370  18.2969403
  19.4652033  14.6444678  18.0416358  18.2516146  15.3511560  17.4770308
  31.8716359   6.5231270  23.4660125  31.4778376   7.3810184  23.6246800
  32.6611209   6.5181875  24.0072346  99.8449230 103.9545250  88.8855076
 100.4145432 103.2790470  88.5174084 100.0104618 104.7275925  88.3458900
 118.2801723  20.3107548  28.0161166 118.4018803  20.8942652  28.7650728
 118.6837292  19.4861066  28.2869124  19.4564831  15.4910195  40.6288576
  19.4811261  16.3632333  41.0223913  20.1257896  15.5177701  39.9450850
 113.4266376  16.9460666  47.1497393 113.3930206  16.4182043  46.3519526
 113.4699631  17.8498065  46.8373156  26.2769008  21.8734193  37.3237395
  26.2935543  21.2055421  38.0092263  26.0851336  21.3882232  36.5212154
  92.9437065 107.7775478  37.8704333  92.2371101 107.6775074  37.2325158
  92.5237370 108.1765461  38.6324406  11.8695593  18.1560004  47.8405476
  11.3724208  17.9879344  47.0400238  12.3937631  17.3652124  47.9674149
  32.3929954  16.4184058  32.7655792  32.6344872  16.2031174  33.6664462
  31.4681792  16.6599286  32.8167200   3.9467633   7.4987036  49.1379309
   4.7873324   7.2437984  49.5183229   3.3005178   7.2572839  49.8014927
  22.1371365   5.7056510  46.6132545  22.0243073   4.7793350  46.8264246
  21.4361477   5.8950067  45.9895658  15.4746878  13.8416135  24.4666219
  15.2896953  14.7404325  24.7388983  15.3277946  13.8428366  23.5207605
  99.5048523 100.5340767  28.6204004 100.0235748 100.0705147  29.2778707
 100.1384163 101.0841084  28.1596470 112.2893429 103.6926746  61.1920738
 111.5886402 104.1392517  61.6672659 112.0291138 102.7715206  61.1915731
  12.8069973  17.3373294  30.8315015  12.1505046  16.7566657  30.4466891
  13.6456525  16.9464993  30.5862641  15.5509162  18.1894326  47.6950502
  14.9586523  18.7801826  47.2297859  16.0468423  18.7605500  48.2816648
  34.3775725   4.6471474  68.0757046  35.1764631   4.1771597  68.3147001
  33.8247347   4.5915848  68.8551378  99.2342567 101.9499111  43.4423208
  98.9151096 101.1980724  43.9414358  99.2398548 101.6491985  42.5335979
   7.9386038  14.0798187  27.5743198   8.5466570  14.8141670  27.6593852
   7.3365372  14.3466151  26.8796492  24.0483212  20.7448101  25.1260018
  24.6582580  20.0332141  24.9314809  23.4908271  20.3986454  25.8228540
  93.0200577 100.5585575  54.7587109  93.0698490  99.8961926  54.0694857
  93.5233212 100.1880550  55.4837561  35.8508158  10.0770843  44.4526148
  35.7123971  11.0242212  44.4550228  36.4612484   9.9260753  43.7309504
  15.9080589   2.3036152  57.1140814  16.2047589   2.6161098  56.2593603
  15.6796670   1.3857034  56.9674301  97.6529503 107.4158096  51.2414122
  97.9290295 107.3441696  50.3276920  97.0830631 108.1846523  51.2598467
 115.1727676  98.6873055  84.6545124 115.8753395  98.2613945  84.1633606
 115.6194210  99.1306400  85.3757477  20.6264472   1.6176501  33.6719084
  21.2153268   2.3707592  33.6241484  20.7148933   1.3010836  34.5709038
  35.0574183  62.2352409  39.8893261  34.1165042  62.2144890  39.7147298
  35.1553535  62.8698540  40.5991936  16.3761985  22.3441362  29.8030686
  16.1780667  23.1774163  29.3757319  15.9205389  22.3916721  30.6435132
  20.8766055   7.0231199  67.8210878  21.5942359   6.4031279  67.6912832
  20.0928330   6.5408200  67.5578022  36.5783143  14.7061288  42.5473595
  37.1136045  15.0910449  41.8534327  35.7318592  14.5398045  42.1325302
 113.3382797 110.7873535  41.4220953 112.5292206 110.5670547  41.8837404
 114.0349483 110.4520321  41.9864130  23.8010979  23.7776351  15.6051588
  24.3793106  23.2010889  16.1046529  22.9693031  23.7507725  16.0780501
 118.5750866  15.5205595  45.6741238 119.2276669  15.8843219  46.2724924
 119.0854836  15.0143814  45.0420570  11.2822187  14.6500611  56.7710638
  10.9542584  15.5371583  56.9184875  10.6869602  14.0889513  57.2681093
  27.0360422  13.2115448  45.9508324  27.0406389  12.2543848  45.9583712
  26.5048599  13.4425128  45.1887751  53.0822229   9.1553444  62.0092344
  52.4864769   8.4971571  62.3671579  53.3024073   8.8297468  61.1364555
  30.0129366  13.7002933  67.6044178  30.8645034  13.4116912  67.9327106
  29.3857431  13.3833385  68.2543373  24.6598530  23.0591559  21.6220880
  25.5494833  23.3520460  21.8195844  24.2258930  23.8345361  21.2661457
 110.8688164 108.0730820  44.0474558 111.6078663 107.4869919  44.2103815
 110.7568073 108.5513783  44.8689842  16.6329813  17.0352530  50.0296926
  16.1654842  16.9354594  49.2004061  17.5032234  16.6750538  49.8589087
  21.4705539   9.9938834  24.2250967  20.7190752   9.4015932  24.1985726
  21.2238932  10.6654358  24.8610282  31.1369848  11.4741910  22.4718475
  31.4934182  11.6984963  21.6122699  31.4177442  12.1901214  23.0418015
  28.6725354   3.3875465  28.0677652  28.9561224   4.2993420  28.0011320
  29.4297171   2.8793481  27.7768326  11.6098845 105.9450436  58.0049038
  11.0028374 105.5671406  58.6412334  12.1882582 105.2206612  57.7661800
   5.5902886  37.2934484  25.3791618   6.1056376  37.2290111  24.5751119
   5.1910281  36.4290881  25.4776645  25.0488281  17.6373935  15.0555682
  25.4490566  16.9686389  14.4998574  24.8571277  17.1835387  15.8762383
  21.7607951  19.5114732  50.9670162  20.9974408  18.9340186  50.9587955
  22.4025321  19.0680575  50.4122305 112.9382515  29.0086842  60.1683903
 112.4063683  28.6063004  59.4817877 113.8407135  28.8060188  59.9219751
  14.1722763  48.4003782  39.0366507  13.5966325  48.9925098  38.5526657
  14.5411611  47.8244448  38.3669782  34.7003102  22.1586037  38.5408044
  35.1518345  22.9659820  38.7867713  33.8248491  22.2496414  38.9169860
  36.7407680   7.9898906  34.4280791  37.2991562   8.6480272  34.0142083
  37.3511767   7.3282373  34.7534180  12.3820186  32.6129818  31.3452291
  12.2294843  32.2845054  30.4591870  13.3250153  32.5157857  31.4776707
 104.2372608  93.7249470  61.5467739 104.3306065  94.3461514  62.2690058
 104.2418289  92.8654385  61.9680309  18.6174500  23.9834619  49.5679092
  17.8665650  23.9847636  48.9742756  18.9506292  23.0868912  49.5307064
 102.6314831  96.7164421  65.8088112 102.2367287  95.9402466  66.2061977
 102.0187950  97.4247265  66.0067081  65.5008650 102.9405880  50.2276325
  65.1873302 103.0645370  51.1234951  65.4150486 103.8034725  49.8223019
  21.9774795  22.8806973  51.4715338  21.4289784  23.3215475  52.1204042
  21.4354587  22.1605468  51.1493111  25.0221729  28.8144398  46.8843365
  25.7886052  28.4934616  47.3595047  25.3676343  29.4903564  46.3012171
  24.1913033  29.0420985  57.8355551  24.6208477  29.7287893  57.3254776
  23.4599233  28.7583423  57.2871017   6.0986632  18.2921433  57.2262096
   5.9375125  18.4353399  58.1588173   6.1982620  17.3437643  57.1432114
  33.2859516  13.7708914  38.2748795  32.4545074  14.2301071  38.1563425
  33.3620334  13.2101214  37.5028825  36.4236212   2.6513028  34.7318387
  35.9102464   3.2625231  35.2601290  37.2526908   2.5657359  35.2025318
  95.8794117 110.1160240  51.5031242  95.4284668 109.8969746  50.6877184
  95.1747990 110.2869225  52.1280575  15.4258204  11.9857335  29.2528129
  16.0147655  11.2499380  29.0855360  15.6175101  12.2459137  30.1538086
  29.9261808  36.2752914  34.2017937  30.0117302  37.2283125  34.2275405
  30.3370118  35.9759378  35.0128651   8.0582911  18.3323562  66.2092590
   8.1959224  17.9915488  67.0930767   7.1096367  18.4386003  66.1385536
  21.7951131   1.0035771  27.7124000  22.0209146   1.7435864  28.2759881
  22.6136112   0.5165074  27.6172209  29.7494626   1.0906009  26.2314630
  30.6608319   1.3217230  26.4109659  29.4254923   0.7338203  27.0584965
  41.7277336   1.7983578  47.2217560  41.1879826   1.8092731  48.0121851
  41.4562035   1.0067040  46.7572260  27.1217203  37.2085285  10.0001979
  26.8905878  36.8097925  10.8391380  27.7609825  36.6076303   9.6174467
  18.2527149   2.9052445  27.4783897  18.0166876   3.0426368  26.5609765
  19.1902578   3.0946481  27.5154471  10.1097620  23.1205273  51.2636662
   9.8370194  23.9212608  51.7116261  10.7385790  23.4165931  50.6055164
  38.3467388  10.0008941  33.5194182  38.1841350  10.9212244  33.7262630
  38.2880449   9.9559039  32.5650811  12.6587594  20.5534816  40.7288313
  13.0051637  19.6718955  40.8668184  12.2360814  20.7772350  41.5579939
  36.9512510  20.7073069  24.6046209  36.2169313  20.8651400  24.0112472
  36.7462850  21.2259388  25.3825927 103.2085800 104.3060589  48.9701128
 104.1244984 104.2782116  49.2467976 103.2196999 103.9764214  48.0715322
  34.8772979   8.1952709  50.1141930  35.3431559   7.4074298  49.8339891
  34.7706294   8.0870718  51.0592556  21.7000079  23.5998535  60.6093025
  22.5802064  23.3569527  60.3221035  21.8272090  23.9736462  61.4812708
  16.0929525  13.4889758  60.0505400  16.8237770  12.8864157  59.9125195
  15.3184688  12.9266739  60.0655317   7.8127778   1.6780779  58.5503912
   7.5020522   1.2110346  57.7747917   7.2213054   2.4261807  58.6324549
  11.2440670  12.1938312  39.7866774  11.6344643  12.4031854  38.9381528
  11.4363480  12.9557073  40.3333092   8.1792772  12.8211987  37.2136450
   7.8413808  13.6236000  37.6114011   8.3118349  13.0476177  36.2931061
  51.4503813   9.4517410  46.3777828  50.7023048   8.9745754  46.0187244
  51.9591475   9.7123224  45.6100035  31.8041158  13.5185969  55.2996635
  30.8643579  13.6314428  55.4423380  31.9716239  13.9447129  54.4590712
   9.5956028  22.4871731  29.5082068  10.1116514  21.6946387  29.6559119
   9.5723969  22.5839114  28.5561919  20.3053904  13.6953783  14.6928442
  21.1532331  13.6405718  14.2519498  19.7158885  14.0617347  14.0336752
  26.9580340   5.1626724  19.3717587  27.5703931   4.6339116  19.8832858
  27.1622944   4.9515042  18.4607613  27.8909302   8.9525527  35.6062865
  27.3876381   8.4243596  34.9866557  27.4519491   8.8193399  36.4463973
  90.3650093 110.8502579  68.9784527  90.4908848 111.7949677  69.0674210
  91.0374641 110.5767345  68.3545732 105.0868702 108.4445190  77.3157024
 104.8246670 109.2304897  77.7949953 105.0744438 108.7095261  76.3959980
  29.2791080  26.6240382  29.1752911  28.7655783  26.2632775  29.8980427
  29.7115898  27.3919964  29.5486975  17.4828482   6.1982268  28.2147241
  17.7734888   6.8191582  28.8827085  17.1177530   5.4658002  28.7111998
   9.8180687  14.4212091  60.7069349  10.1200247  13.9586031  61.4886284
   9.7029585  13.7335193  60.0511408  26.7146158  37.9765987  37.9263020
  27.0349097  37.7056026  38.7866521  26.1651039  37.2489142  37.6351905
 100.8098030 111.2119293  44.9787617 100.8382130 111.8624687  44.2771769
 101.2908173 110.4617310  44.6293974  33.7367892  27.7605629  52.7727461
  33.7129307  28.0076098  51.8482828  33.0962944  27.0532465  52.8482485
  38.9999318  26.9653249  37.0399594  38.2172322  27.1459126  36.5193820
  38.6622977  26.6702390  37.8856301 113.3323860  97.6170731  63.9053869
 112.5796032  97.2071838  63.4793234 113.3910847  98.4846020  63.5051680
  30.1064754  29.2865181  30.3133297  30.2531743  29.1820526  31.2534356
  30.4819584  30.1422262  30.1059556  34.6274948  14.5260358  29.7981215
  35.0594234  15.1311314  30.4010534  33.7183070  14.8240757  29.7700930
  23.6850953  23.8493490  64.1758156  24.2056656  23.6283517  63.4035444
  24.0802479  23.3414149  64.8844004 114.2420387 108.7420845  60.1272488
 113.8709927 108.9890385  59.2801476 114.9822998 109.3369770  60.2470684
  13.2540381  30.1889539  29.1865373  13.1131542  29.3495202  28.7486601
  13.2634866  29.9739575  30.1192307  27.5305486  46.2185526  39.7667074
  26.6383433  46.1126852  40.0968504  27.9219222  45.3491116  39.8511481
  50.5670452  22.3093462  38.9706302  50.4224110  23.0537271  39.5547652
  51.1045742  22.6622248  38.2615638  19.1830266  54.8798847  44.7217464
  18.4404433  54.2807627  44.6452379  19.9119186  54.4110107  44.3154144
   1.5512124  95.4989910  44.6662998   0.9377727  96.1586189  44.3425608
   2.3462369  95.6382370  44.1517353  26.9155550  31.8790817  34.1978812
  26.1000323  32.2875309  33.9074993  26.6681647  31.3749123  34.9730206
   2.2854856  10.4122686  54.8806047   1.5318941  11.0019052  54.9062920
   1.9265154   9.5547318  55.1086473  99.3844795 111.2616158  48.7644482
  98.7928581 111.3915443  49.5056152  98.8747787 111.5323257  48.0008078
  27.7409697  29.0811491  28.6314368  27.2678614  28.3166003  28.9598680
  28.5935569  29.0394783  29.0645552  13.7633777   9.4234973  21.2298059
  14.3223798  10.0545800  20.7765055  14.0197098   9.4936788  22.1493721
  11.4190674   8.9838976  49.7584295  12.2232723   8.4673721  49.8102713
  10.7387781   8.3467120  49.5406342 108.4868431   4.9383241  77.4685764
 108.9377594   4.9620831  78.3125782 108.7182522   5.7674485  77.0499659
  39.7145820  20.4895639  79.5002508  38.9542770  20.1263738  79.0460920
  39.9052954  19.8562813  80.1922131  35.1020503  38.7401509  30.4473305
  34.3556714  39.2974067  30.6678295  34.8374152  37.8637266  30.7267594
  39.8920417  21.9157672  45.5740166  39.2087269  22.2553682  46.1519289
  40.5776644  21.6098070  46.1677694  96.7416286  96.1065578  37.6386166
  97.1257687  95.8369064  36.8043804  95.8406734  95.7852936  37.6024103
  30.2975321  19.6433294  50.9155464  30.9645867  18.9696836  51.0477304
  30.7264066  20.3008699  50.3678799  12.0192862  13.9655375  52.7964783
  12.7202594  13.4879470  52.3528862  12.4634695  14.4533765  53.4899807
   5.7727581  40.4940271  46.9458151   4.9134469  40.4454136  46.5269423
   5.9038275  39.6250153  47.3251152   7.8963625  20.2055836  26.9840074
   7.7269614  19.2938340  27.2211742   8.7595338  20.1891255  26.5706110
  51.0306120  26.9874263  31.2093782  50.7537222  26.0968781  30.9937644
  50.8994198  27.0567036  32.1550107  19.5991170  17.9816890  51.0735226
  19.6035695  17.4407089  51.8631744  19.0592408  17.4935651  50.4518270
   6.4979178  33.8179994  74.9995327   6.3695407  34.6794176  74.6024084
   5.9671789  33.2266879  74.4657755  27.5966358  24.4925261  45.3459501
  27.3589897  24.9160695  44.5211077  26.8069696  24.0195513  45.6085443
  27.7934527  14.6950269  40.2729034  26.8514609  14.8541653  40.3325272
  28.0039763  14.8457944  39.3513942  28.0250287   1.5866689  50.0658464
  27.8343153   2.2415209  49.3942595  28.3527684   0.8313598  49.5776606
  57.0637512  37.2346044  46.0952044  57.5625229  38.0498242  46.1488342
  57.1381712  36.8503785  46.9687366  21.7496109  13.4875047  65.2779579
  21.2793636  13.8683999  66.0195875  21.0885024  13.4083784  64.5902729
  33.8736749  22.9527569  33.4781456  33.1432700  22.4428654  33.8285041
  34.4306993  23.1259370  34.2370677  44.6634912  17.7506304  40.2750015
  44.6346474  17.1742034  41.0386324  45.5722523  17.7085340  39.9773240
  11.7038298   8.0432558  65.2147102  11.8158340   8.9729851  65.0164938
  10.8324480   7.9851854  65.6065702  33.2609105  26.1459374  56.8754864
  32.3630071  26.2831807  57.1774244  33.3318734  25.1986527  56.7578030
  35.6343794  33.2723570  55.2881336  36.5191364  32.9104424  55.3377056
  35.5168843  33.7324214  56.1192560 117.3578262 104.2771149  55.7561779
 117.8707504 104.4618225  56.5429592 116.5428257 104.7630787  55.8820200
   2.9970956  31.2754178  67.6974583   2.8308821  30.8985615  68.5615063
   3.1594482  30.5192041  67.1335316  39.1807747  50.8354139  18.8752425
  39.1883922  50.1585531  19.5520258  38.7441516  51.5810347  19.2871153
  22.0921040   1.2691003  58.5829878  21.4310098   1.8921018  58.8847399
  21.9588518   0.4948505  59.1298056  49.0905523   0.1617565  55.7280922
  49.3237734   1.0474696  56.0062170  48.5559130   0.2897466  54.9445057
  20.6026721  23.8674092  64.0509176  20.2946949  24.5610690  64.6341991
  21.5570140  23.9096260  64.1115570  13.7668252  27.7151036  33.1961155
  13.8738942  26.8400311  33.5689640  14.5215487  27.8228211  32.6173043
  86.6457462 107.2033310  57.9496908  86.8261814 106.3119507  58.2482052
  87.0170307 107.2404957  57.0682192  41.3204050  21.8493485  39.5260429
  40.9452248  21.7181468  40.3968239  42.1943474  21.4627790  39.5810580
  12.3186660   4.6054000  42.9247761  12.9437196   4.8828691  42.2550392
  11.8881822   3.8382173  42.5474882   5.2997088  10.1069415  62.3154116
   4.6580446  10.0661027  61.6063023   5.1693583  10.9706259  62.7069330
  29.5916772  17.6068759  31.1747336  30.0395775  18.3993936  30.8788729
  29.4077826  17.1213210  30.3705883  31.6675043  39.2098427  33.4184861
  31.5685248  39.8742294  32.7365565  30.7942629  39.1282463  33.8019276
  30.8511090  27.6443148  52.3385668  30.3206587  26.8644810  52.1751213
  30.9053349  27.7014780  53.2925177   5.9937876  11.5336907  41.9595385
   5.6588197  10.8953047  42.5892115   6.3957953  12.2143090  42.4993324
  11.0342467  28.3791232  41.3902760  10.3719532  28.6783791  42.0132065
  11.4557898  27.6385164  41.8262053  52.8690624   5.5526900  47.2102499
  51.9209385   5.4557645  47.2991657  53.0597734   5.2408928  46.3255787
  46.7374372  14.0862858  26.0464191  46.1703014  13.4431028  25.6210899
  46.1936760  14.4656527  26.7368102  29.9961352  32.4980259  26.1319304
  30.4061437  32.6416135  25.2789903  30.1822019  31.5814996  26.3358688
  16.4601672  18.5461950  38.0762529  16.7549479  19.4304252  37.8583670
  16.9511795  17.9771674  37.4835086  19.2233324  16.9002807  12.3535812
  18.4791589  16.9461024  11.7533016  19.9861646  17.0780492  11.8033826
  10.0692880   2.8398874  31.0125732   9.4960678   2.7957311  31.7778850
  10.5731940   2.0266509  31.0435128  37.6116943  24.1150236  24.6254945
  36.9505119  24.8055148  24.6733546  38.0688858  24.1625881  25.4651022
  40.9754419  12.9264212  43.3175230  41.2727213  13.7956405  43.5864353
  41.6933060  12.5814044  42.7866077  34.1805482  25.2366853  31.8311834
  33.7215376  25.8369493  32.4187446  33.8605714  24.3688607  32.0776105
  30.4195046  24.0841389  40.3454971  30.1154733  24.2024088  39.4456053
  30.9935474  24.8333621  40.5047894  41.3106203  11.1583126  34.5300293
  42.0833349  11.6250932  34.8482490  40.8971834  11.7681503  33.9189672
   6.4131200  18.8162470  54.5675373   7.1028328  19.4750309  54.4867182
   6.2692279  18.7345493  55.5103254  44.9760151   4.0972233  59.8331785
  44.1303968   3.6523557  59.8901939  45.4789686   3.5763034  59.2071533
  34.3192530  11.7132163  40.3987789  34.4076848  11.8782187  39.4600630
  33.4619761  11.2970996  40.4891014  23.4304667  28.8842869  36.7959666
  22.7673125  29.4208121  37.2302461  22.9668760  28.0842161  36.5485764
  31.5500164  30.4921508  53.0315971  32.1259332  30.7731652  53.7426424
  31.8390417  29.6029806  52.8264809  16.0342026  15.5449891  34.1060328
  15.2241671  15.3713095  34.5855236  16.7215919  15.1601756  34.6497679
  30.7765460  34.0211797  48.0091143  30.9542537  33.2666826  48.5707092
  29.9542189  33.8043594  47.5698042  20.1968575  24.8645449  53.0603170
  20.1451015  25.4187155  53.8390636  19.2862034  24.7438073  52.7913141
  21.5814281  36.5572834  41.4275694  21.5383196  37.5114965  41.4896250
  22.4143744  36.3831568  40.9892654   8.0745155  37.8272843  38.7248826
   8.2110405  38.7330461  39.0027094   7.8925681  37.8892207  37.7871752
  11.7349100  24.0648270  35.7810116  12.4432135  23.4372807  35.6370568
  12.1784604  24.9063349  35.8875942  16.0193002 109.7233009  59.2111111
  16.0074532 110.5037975  58.6571074  15.4001391 109.1241646  58.7940931
  33.6745787  32.8464031  47.9535198  33.4756351  31.9105268  47.9254198
  33.1034327  33.2327175  47.2896004  39.6295285  24.2308736  36.8862391
  40.4509544  24.1731048  36.3982248  39.3613148  25.1453185  36.7963147
  32.8429365  14.6481144  65.0107241  33.7114596  14.5876837  64.6129274
  32.2504854  14.7887468  64.2721748  26.2894845  24.4831300  30.6086802
  26.1575651  24.3646979  31.5493178  25.4294920  24.7410250  30.2768111
  47.5734854  26.4650750  38.5107374  47.3222160  25.5586481  38.6881709
  47.7915287  26.8257904  39.3701410  14.6542811  34.4831991  49.9424028
  15.0071621  33.7889433  50.4989243  15.1887929  34.4491673  49.1490746
  52.0000076   9.0522146  29.5450425  51.5545034   9.4703114  28.8081908
  51.5652084   9.4071102  30.3204322  17.5572908   9.7650170  43.4728813
  17.4864817  10.7189310  43.5084581  16.6980159   9.4722170  43.1693220
 116.9336700  10.0912499  39.3881249 117.5676918   9.7381216  38.7639809
 116.4495182  10.7503593  38.8907266  28.0948448  18.7146819  33.0816507
  28.7362146  18.7734985  33.7897587  28.6208940  18.7077665  32.2819901
 109.8721123  12.4426067  61.9335222 109.2614174  12.1078312  62.5901842
 110.7182503  12.4609816  62.3806715  13.2919073   6.0916525  61.5072298
  12.8847086   6.5161520  60.7521009  12.6481748   5.4437774  61.7937613
   7.9258841   7.1524239  63.8373804   8.4541869   7.6430243  64.4670153
   8.4609812   7.1269596  63.0441236  15.6143332   8.0836833  47.1220446
  14.8514903   8.1094074  46.5444279  15.5510521   8.8872355  47.6383114
  35.5244994  37.6897502  26.5373898  35.3540158  37.9542732  25.6333995
  34.6968317  37.3137188  26.8370557  28.4004521  18.8057041  59.1899586
  29.0326905  18.0976903  59.3133402  27.5907922  18.4741747  59.5782423
 106.9852161 104.3425655  23.4791446 106.7143917 103.8316727  22.7163339
 107.3974419 105.1236916  23.1101775  13.6767566  33.5790706  35.1073503
  14.2485380  33.1326294  34.4828582  13.1132901  34.1303992  34.5644188
  12.6795292  12.1016800  54.8576498  13.2715774  11.8842411  54.1376305
  12.5659609  13.0501342  54.7962523  29.2172313  13.2793283  55.2625465
  28.3907366  13.3951783  54.7938061  29.0115428  12.6575816  55.9606552
  34.3936992  18.5705245  38.7370324  34.0822172  18.7745023  39.6188521
  35.1914525  19.0902674  38.6386108  25.8509207  17.8284883  59.5513439
  25.0002646  18.0751622  59.1883469  25.6408834  17.3808944  60.3709650
 118.9917583 107.7962780  44.1252947 119.5427966 107.5011635  43.4003830
 118.8594467 107.0132828  44.6597433  24.2833328   8.5091144  41.1227083
  23.6554646   8.4684730  41.8440676  23.9679623   9.2247051  40.5707073
  57.3339128   9.9942082  29.8693466  56.5066719  10.3659594  29.5632267
  57.1720982   9.0517032  29.9109745  28.6793208  29.0612459  50.8851624
  29.0568233  28.4743237  51.5403318  28.8853002  29.9400353  51.2038040
   5.3027111   6.0373807  26.2111759   4.9513382   5.6495672  27.0126557
   5.4053903   5.2977830  25.6122732  99.5795059 103.9943123  40.7276392
  98.7667751 104.2897129  40.3172350  99.8985672 104.7598839  41.2054825
  67.2111082  35.9696698  40.2870226  66.8578291  35.2073526  40.7456017
  66.5265989  36.6342545  40.3645229  24.2644930  22.4752331  59.8922873
  24.9540281  22.8031731  59.3150282  23.7874675  21.8397284  59.3586063
  28.8983345  23.2547951  47.4716711  29.6509385  23.4308505  46.9070244
  28.1398153  23.5082769  46.9457197 117.8328705  35.0836086  75.4654360
 117.6230717  34.8876214  74.5523071 118.6873150  35.5134273  75.4279375
  52.3983335  43.2723045  33.3672404  51.4804649  43.4820890  33.5396910
  52.4722052  42.3389673  33.5663843 112.2528267  99.4939613  78.6440277
 112.2001934  99.2885017  77.7106237 111.4143562  99.2014980  79.0013123
  20.0556040  22.9983091  39.5345902  19.7901022  22.4770117  40.2922106
  20.4333591  23.7930894  39.9112320  25.4038954  21.5862751  43.9885998
  24.5625234  21.4757681  43.5457516  25.9344697  22.0911145  43.3722734
  45.8988190   6.5716219  48.9882088  45.0107050   6.2243259  48.9053106
  45.8692980   7.4150485  48.5365534  21.1286783  23.5546637  42.6580429
  21.3317847  23.4691238  43.5895252  20.1724958  23.5348988  42.6185942
  16.1386752  34.1298676  64.2336369  16.4567721  33.8010931  65.0744438
  15.3431225  34.6153903  64.4517946  35.4940343  16.0954189  32.0063710
  34.6972489  16.6255867  31.9893980  35.5537748  15.7816589  32.9087114
  32.1810627   0.6985761  47.7625465  32.1263528   0.2756998  46.9055700
  32.9005551   1.3238762  47.6755810 105.6554890 111.6474438  52.9064751
 105.0185966 111.0964108  52.4515438 105.7049274 112.4434090  52.3771143
  46.9296598  28.1499577  34.2614365  46.4522314  27.7623177  34.9949384
  47.6877308  27.5782466  34.1401625  57.5502491  26.7566061  16.3106477
  57.8367567  26.8918896  15.4074085  57.4026155  25.8131433  16.3763297
  29.5151210  21.7477751  32.4290872  30.3517723  21.2827539  32.4277234
  29.0606523  21.4208412  33.2054925  31.2601066   6.9680136  47.6585436
  30.7866883   7.0509517  48.4863281  31.8470263   6.2237078  47.7918243
  47.4611855  12.6840222  68.3380699  46.7751265  13.2932353  68.0652905
  47.0569134  11.8195057  68.2645369  24.5036507  23.2989168  50.3355074
  24.9192452  22.7528000  51.0027885  23.6811948  23.5814953  50.7354403
  45.6729507  33.8345218  36.7422962  45.9511089  33.8142538  37.6579642
  46.0088968  34.6662688  36.4082766   9.8513114  28.8524294  52.7454948
   9.6209246  29.7554994  52.5272751   9.9854726  28.8617921  53.6931992
  15.6783116   2.8284514  43.8414907  15.2676713   2.2898448  43.1650925
  15.1760185   2.6411816  44.6344995  23.4628606   3.8161767  50.4573202
  23.0175471   4.4937462  50.9660721  22.7603745   3.2349730  50.1658630
  34.5163226  28.7515450  32.6703811  34.6219897  28.9677596  31.7439270
  35.4082799  28.6053467  32.9854536  20.0361037   5.3520703  21.4147878
  20.4879045   4.5334983  21.6198421  20.6840324   6.0340738  21.5916872
  26.2403345  30.5982685  53.4294081  27.1358633  30.7776332  53.1428957
  26.1491489  29.6487260  53.3501339  35.8159328   5.7338029  23.5002422
  36.2243009   5.2598941  22.7757573  36.1296225   6.6331375  23.4052205
  17.9914188 105.7799530  25.0998998  17.4797320 106.5883923  25.0711846
  17.4882829 105.1981544  25.6696367  22.5263858  50.2096272  59.7983503
  22.2998357  49.3479586  60.1482534  21.7716122  50.7595015  60.0085592
  10.7717109  37.2724557  28.8992357  10.6287575  36.4644265  28.4064031
  10.6346238  37.9708362  28.2591534  19.0169537  15.5763590  62.9102373
  18.8533640  16.3668823  62.3959017  19.8467743  15.7477653  63.3554935
  29.2446733  20.6318593  57.1996212  28.4542751  20.2967715  56.7762756
  29.3192577  20.1214361  58.0059290  29.5411038   4.3050626  50.1437044
  30.1616001   3.9274299  49.5203161  28.7200284   4.3684563  49.6557999
  42.2534895  15.6140959  35.7718682  41.3617420  15.2691197  35.7270098
  42.7751970  14.8861444  36.1097074  44.2383337  45.2791739  18.9255619
  44.7599173  46.0419083  18.6757326  43.4358931  45.3583908  18.4097660
  28.9980769  32.2665191  46.6167545  28.7056351  32.1808887  45.7093525
  29.3243980  31.3964438  46.8463516  12.1565175  39.2880106  45.3706360
  12.5329876  39.4648743  44.5085335  11.4631605  38.6497831  45.2028513
  42.0403671  38.4136128  33.7499046  41.9647312  37.5234461  33.4062290
  41.2154007  38.8345909  33.5081601  22.9741764  27.9059434  54.7843218
  23.0603433  27.5325823  53.9071608  23.3385754  27.2384453  55.3656054
  28.6060452  31.9604516  31.8704820  27.9252291  31.8796921  32.5384665
  29.4277811  31.8889165  32.3561406   3.5903737  16.6668165  28.4407425
   3.5723016  15.7356811  28.2196283   3.5935014  17.1139503  27.5944018
  18.3585191  12.1622455  49.3368101  18.7263489  11.5932393  50.0129509
  18.4585392  11.6651165  48.5249662  48.1730080   1.2860075  21.3121724
  48.1452036   0.3367651  21.1921835  48.2534170   1.6372666  20.4253912
  35.3995776  24.9842167  46.6452742  36.2227988  24.7634983  46.2095881
  35.3724003  24.4103217  47.4108696  58.8436937  45.0845575  32.2987223
  58.3203936  44.3652296  31.9452333  59.7425270  44.8734951  32.0461679
  62.7347946  34.4359350  39.8748112  63.4180927  34.1836643  39.2537689
  61.9215107  34.3756318  39.3736482  47.7064562  59.0380001  43.3647060
  47.0965290  59.5658970  43.8800192  47.8616190  59.5547724  42.5740719
  43.9405680  36.1608744  42.3993111  43.1530333  36.5584254  42.7707529
  44.6377230  36.7891049  42.5878096  50.9670115  57.1356964  39.8408985
  51.5652704  57.7681637  40.2387714  50.5986452  56.6552401  40.5823135
  49.8802423  26.9673967  37.0416307  50.2659321  27.6633787  37.5736880
  49.1034698  26.6949916  37.5301480  48.6334133  45.3076649  28.9810634
  48.8468885  44.8532009  29.7960019  49.1052198  46.1384583  29.0394592
  40.5581236  39.4638634  41.6833353  40.3441715  40.1860476  41.0926533
  39.7167706  39.2042089  42.0587540  46.2074661  32.5507903  34.2217422
  45.3823948  32.3285127  33.7903643  45.9459734  32.8968382  35.0750327
  42.8056908  33.6338043  31.4259362  42.0789528  33.1052899  31.0961604
  43.3783484  33.0055809  31.8659735  62.2225046  36.6074443  11.6665602
  62.2969866  37.0315981  10.8117056  62.0485926  37.3250699  12.2756577
  41.0156107  41.6732645  39.8868561  40.8128738  42.4899864  39.4306850
  41.5890551  41.9368553  40.6065178  44.4339275  47.6151657  39.1049719
  44.5781708  47.2159529  39.9629068  45.1667404  47.3076439  38.5714459
  52.1014643  42.5066805  47.5394535  52.4127388  41.7170286  47.9819393
  52.4534035  42.4384117  46.6519213  41.8066692  31.9710517  28.4256172
  41.1562443  31.3779926  28.8017249  42.6475191  31.5527081  28.6105323
  47.7073288  59.5114756  29.1991925  47.0313501  58.9111757  29.5137143
  48.4849977  59.2849016  29.7092152  36.9470882  51.5703821  25.8215356
  37.0997405  52.2926140  25.2121878  36.3399506  50.9919071  25.3600359
  59.4204378  65.8030033  24.1911483  60.2627611  65.4819107  23.8692546
  59.4726658  66.7536020  24.0918112  66.2213230  50.6116199  38.9598107
  65.2675867  50.6862307  38.9922333  66.4503908  50.1233435  39.7505999
  43.0611515  42.4774790  41.3238955  42.9372740  43.0683136  42.0667267
  43.5126114  43.0087233  40.6680059  50.7654047  31.5690637  28.1342936
  51.5253115  31.0026908  28.0001354  50.0117970  30.9981680  27.9846787
  49.7069740  50.4799271  38.9944243  50.5610085  50.7531834  38.6594748
  49.2279434  51.2982702  39.1250944  40.7539701  35.5720544  35.7312346
  40.6263590  35.3221464  34.8160887  40.4346752  34.8209643  36.2313843
  54.9853754  44.5387840  33.0485249  55.5510139  44.2320061  32.3398852
  54.1591501  44.0747404  32.9134440  72.5616360  30.2165508  27.7110815
  71.9544935  30.5103660  27.0319033  72.7004719  29.2883396  27.5229788
  46.0904741  34.6296906  45.2668095  46.6043901  33.8929987  44.9360418
  46.7434835  35.2774191  45.5318737  51.7093086  51.5551138  26.5194011
  51.9725752  52.4397469  26.7730665  52.0969105  51.4289474  25.6533289
  31.2097955  29.8644519  17.5074708  31.6786122  29.5826888  16.7219436
  31.4150119  29.1963053  18.1614602  49.1884184  40.8804846  46.1537695
  50.1319933  40.8866549  45.9929466  49.0329027  41.6534472  46.6965199
  61.7985725  34.5606732  34.8552179  61.5385818  33.9882827  34.1334081
  61.2050533  35.3090787  34.7931385  39.4125772  42.7950573  27.2587109
  40.0921869  43.2908726  26.8020606  38.9985061  43.4342575  27.8385401
  50.2512646  23.9567375  41.2096405  49.9832630  23.6455464  42.0742607
  49.6774197  24.7027087  41.0350990  69.4435072  53.8733292  38.3681917
  69.4623327  53.2403803  39.0860057  70.3238916  53.8375807  37.9941940
  47.8073120  66.8614483  54.8051882  47.9657030  65.9863901  54.4510460
  48.2564116  67.4502087  54.1986370  57.1657372  42.2548151  16.1815798
  57.8568411  41.6104746  16.0285294  57.0559788  42.2670555  17.1323872
  68.6740446  58.5088921  25.9741473  69.5454502  58.1221342  26.0596085
  68.0732346  57.7956390  26.1898637  48.6453629  44.8466444  45.8334303
  48.5766554  44.0185976  46.3086653  48.7332726  45.5093813  46.5184736
  70.1261091  32.3194933  37.5443721  69.7188711  31.7739511  38.2172537
  70.8228254  32.7873969  38.0046797  42.9915380  50.5547762  32.9010487
  43.7548733  50.4620743  33.4710956  42.3746014  49.8949575  33.2176900
  64.5698404  62.5949001  39.3658042  64.8058748  62.0433426  40.1116657
  65.3588343  63.1065464  39.1870999  68.1819725  28.4398580  32.4600625
  69.1324806  28.5318971  32.3945618  67.9488182  28.9215827  33.2536697
  43.6412621  69.3115568  25.9447312  43.2769775  68.5996580  25.4186821
  44.3841553  69.6316195  25.4329681  37.4986672  90.2414227  46.0091019
  37.7251101  89.8789120  45.1526260  38.2421827  90.0166702  46.5684795
  66.7462015  58.1296158  43.1157970  67.4450922  58.3227158  43.7406969
  66.3259172  57.3424768  43.4622097  30.3683782  74.5490503  50.7018137
  30.9316087  74.4182396  51.4646292  30.3293467  75.4992437  50.5930281
  54.9974394  53.0758715  39.1928625  55.0416470  52.4569368  38.4640265
  54.1248465  53.4634924  39.1253185  59.8011208  53.3224392  40.7846642
  60.7361221  53.4996128  40.6816578  59.3862486  54.1829681  40.7246399
  56.2923670  69.3933296  30.0274849  55.4985714  69.5922184  30.5240369
  56.7329741  68.7164688  30.5412531  78.5592079  50.1500177  31.3184786
  78.2052708  51.0272598  31.1721730  78.9803076  50.2016735  32.1765208
  66.1512756  55.6051254  45.0394964  66.2948275  55.7574081  45.9735394
  67.0243311  55.4296398  44.6884775  45.1888371  42.8379297  37.1401811
  45.3204727  42.6563835  38.0707431  45.6443214  42.1261835  36.6905284
  71.7465162  54.2474508  47.1740580  71.6059828  54.8125029  47.9337931
  72.2878790  53.5309267  47.5053453  51.6255283  74.8875046  45.5421495
  52.0811129  75.6720400  45.2368879  51.8368292  74.8352718  46.4742756
  44.4831562  63.7205219  55.0794601  44.7606421  64.5497417  55.4688501
  45.2810049  63.3577585  54.6946573  69.1939926  59.2108250  52.1904945
  69.5126390  58.4503841  52.6767349  69.7533131  59.2506409  51.4147329
  61.1755657  76.6853523  50.7511234  60.5668068  76.1286497  50.2656174
  61.3440418  76.2056541  51.5621328  50.9816837  34.4798970  42.0897150
  50.1738071  34.8619533  42.4326468  51.2464905  33.8435721  42.7539444
  59.4362020  51.3997412  35.5589533  59.6475792  51.4151192  34.6255112
  59.1012287  52.2772932  35.7431602  87.6032734  63.7162924  25.6806087
  87.6600647  63.3436584  26.5604663  87.9367542  63.0267811  25.1065016
  69.4488478  35.4288483  33.1420517  69.6334839  34.6232724  33.6249495
  69.1289377  36.0386562  33.8068986  43.9833832  52.0529461  46.1418104
  43.5496855  52.1851158  46.9848204  44.1463137  51.1105776  46.1014271
  59.2668104  36.3165140  48.7832880  59.1524410  35.8887243  49.6319056
  58.8556099  37.1742630  48.8901043  59.1437244  57.7616930  46.5098238
  59.7805023  57.8397036  45.7994270  58.3254480  57.5252056  46.0731030
  60.7568073  66.3566542  38.1677151  61.2328482  65.5353689  38.0447769
  59.9965715  66.1158943  38.6971569  38.3100152  62.2558165  28.2576919
  38.2453609  62.1416140  29.2058516  39.1789174  62.6332378  28.1206036
  61.4692450  61.4136028  19.8121059  60.5449295  61.3141966  20.0401115
  61.5580750  60.9650993  18.9711618  35.2090573  71.2939501  56.2735987
  34.7448778  70.8394718  56.9766045  34.9094439  72.2009039  56.3359785
  49.9152136  60.4314041  41.0051727  50.2532434  60.9623241  40.2839994
  49.0487862  60.1509047  40.7104635  54.5525265  55.2697706  45.3070641
  55.0809431  54.5722771  45.6950283  54.0328360  55.6098700  46.0354042
  83.2282162  86.0777283  26.2483335  83.2271576  86.9476223  26.6477275
  83.6192036  85.5098057  26.9122839  44.7732639  64.6867704  49.7474241
  44.4427299  64.3787146  50.5912733  44.0644503  65.2245426  49.3944168
  53.0822563  80.6749725  47.2254992  53.7911558  81.0430431  46.6980410
  53.4681654  79.9035454  47.6404810  36.4714479  70.6073761  46.3283014
  36.7789769  70.1624107  47.1180248  36.6826582  71.5293503  46.4752293
  68.5390329  57.3179960  46.8961239  68.5438108  56.3742876  47.0561886
  68.7936974  57.4064398  45.9776688  37.8066659  64.5807648  39.6172047
  37.3928857  65.3069878  39.1507101  38.0048060  63.9395523  38.9346933
  64.0271854  74.5493269  38.0707359  63.8305044  73.8950729  37.4002862
  64.1909981  75.3541899  37.5792122  51.2047434  44.7915697  49.2238235
  51.4480352  44.0777779  48.6343002  51.2645769  44.4098616  50.0995779
  60.1528740  58.8841295  39.4065547  59.2610121  59.2204809  39.3189144
  60.4053688  58.6400032  38.5161138  67.4841690  45.9543896  39.6430397
  67.4252319  45.0894642  40.0488186  67.2613573  45.8036661  38.7244177
  74.7751188  63.4348822  47.4814320  74.9296808  64.1936350  46.9187212
  75.5243206  62.8611326  47.3209953  58.3452559  65.0425386  57.7139282
  59.0338564  64.9067354  57.0630693  58.6047745  64.4950581  58.4549713
  66.6731691  61.7052794  53.3838081  66.6976070  60.7484007  53.3884335
  65.7423735  61.9213724  53.4399176  49.0920830  52.4767065  80.7412720
  48.6029768  51.6789484  80.9427357  49.7922230  52.4995661  81.3935852
  46.4129162  76.7377234  49.5861244  47.2375059  76.8930435  50.0467348
  46.6750956  76.5281820  48.6896944  70.1408005  65.9320545  54.3924952
  69.4757366  65.6475592  55.0193787  70.0657368  65.3130674  53.6662340
  14.2345452  43.5339642  62.0337057  13.9026928  43.2437754  61.1840630
  14.4782853  42.7254868  62.4844694  60.1112938  64.6420002  55.2969408
  59.6265650  63.8204002  55.3759670  59.8347616  65.0031853  54.4547367
  46.9947577  45.5183458  41.4183521  47.1627140  44.8141861  42.0445967
  47.6433229  46.1889982  41.6324186  50.1293945  45.1302338  40.8522558
  50.3424454  44.2019129  40.9474802  50.2376270  45.3061628  39.9176097
  66.5288877  55.3715134  32.0658588  67.3628855  54.9628258  32.2974992
  66.5923500  55.5279589  31.1236644  41.8145943  82.7135658  35.8572769
  42.1304274  83.5127449  35.4356241  41.4806700  83.0060863  36.7053080
  55.7092619  51.9556570  45.5251265  55.4280949  51.1910534  46.0276747
  55.7493639  51.6460276  44.6202755  71.9589233  46.6327238  16.5760779
  72.3969603  47.3386526  17.0514929  72.3811483  45.8336306  16.8913698
  43.3740091  70.9541368  33.2026958  43.0505228  71.6073847  33.8230634
  43.4211302  71.4195776  32.3676038  40.1158285  25.3282833  30.7798553
  39.4003344  25.7600117  31.2466574  39.8357987  25.3228259  29.8645496
  42.4730682  52.8016853  48.4364796  42.5723791  52.2212839  49.1911364
  42.9277897  53.6047649  48.6904907  51.2827015  52.3417282  40.8072805
  51.4479542  53.1522274  40.3256035  51.7249870  51.6645050  40.2954388
  65.2734947  59.3111038  28.8575792  65.1145887  58.7639999  28.0883861
  65.9507942  59.9268770  28.5777307  58.8229227  65.5649614  48.5951996
  59.6083260  65.2467012  49.0402699  58.2106018  65.7645273  49.3033409
  42.3944521  62.0850372  59.3085051  42.6076317  61.1537123  59.2500257
  42.0465565  62.3058176  58.4445286  73.0072021  72.2672749  44.6659851
  73.1270075  72.8814077  45.3903580  72.1246243  71.9185352  44.7911310
  44.3054581  45.9772921  33.0205965  43.9391232  45.1365805  33.2948804
  44.7150421  45.7955647  32.1747565  47.8967810  55.9577513  41.1872292
  47.4854803  55.2860546  41.7311859  47.1727705  56.5210962  40.9139538
  40.8652210  60.5582237  48.5778475  41.2739658  61.3592958  48.2500601
  41.5825272  60.0727654  48.9853239  46.5125227  65.6275415  60.9044790
  47.3422003  65.2607727  60.5989456  46.0753775  64.8979473  61.3435984
  75.3532934  67.7537394  38.7336254  74.6810961  67.0722961  38.7377405
  76.0754776  67.3808479  39.2392230  53.1915569  59.0067148  40.1079893
  53.5947847  58.8911867  40.9683895  53.0311060  59.9481392  40.0431299
  52.4157000  52.5559092  22.4137497  53.1306648  52.0444918  22.7925730
  51.6393661  52.0094824  22.5360775  67.9165649  57.9565048  49.5773315
  67.9870176  57.5292873  48.7236643  68.6804008  58.5317230  49.6210623
  40.3487253  62.9787874  62.7859402  39.6321392  62.3902035  62.5486517
  40.5917883  63.4039450  61.9635105  59.2218924  72.2974014  52.2650814
  59.6969700  71.9656086  51.5032101  59.5949888  71.8204260  53.0063772
  53.8407993  66.4412737  45.4865122  54.3726015  66.2549353  44.7127581
  54.2755127  65.9676075  46.1956596  71.9044113  38.7836957  30.0700164
  72.2227383  37.9263830  29.7873259  72.5621700  39.0893865  30.6946254
  62.5233936  55.8292818  41.8752050  61.7778349  56.4285517  41.8399048
  62.7003431  55.7219124  42.8097630  72.6616049  59.4206953  51.0387897
  72.9088354  60.2261734  50.5845737  72.9374075  59.5621109  51.9444227
  85.9206486  52.8430414  48.1299782  86.1599636  53.5355091  47.5139856
  85.5362797  52.1580982  47.5828552  72.8797245  63.4866667  51.1943102
  73.6072636  64.0200663  50.8743143  72.9957008  62.6399899  50.7631254
  78.1465864  39.8738623  23.5502243  77.8173542  39.7747111  22.6569104
  78.2067394  40.8203650  23.6796403  66.5912676  64.1524553  38.5014868
  66.4705467  64.6234226  37.6769590  66.8799257  64.8231745  39.1203928
  67.6221704  83.9678955  43.5814619  68.4126616  84.3790150  43.9312315
  66.9027853  84.4842243  43.9449549  77.5241899  71.7150640  49.6963692
  78.3402395  71.3622904  49.3416166  76.9722414  71.8607998  48.9280272
  90.3620911  59.3309879  20.0687480  89.6469784  59.6698189  19.5302022
  90.9041595  60.0971937  20.2567244  77.1284533  55.6076288  51.1234617
  76.3656378  55.0343561  51.1989784  76.7628288  56.4657450  50.9085369
  56.8604660  65.4406118  23.8192558  56.5617657  64.5319033  23.7837934
  57.8156519  65.3792953  23.8098836  66.5654850  74.5651102  54.9285889
  66.4068270  75.0843239  55.7169247  66.8109608  73.7001228  55.2568769
  53.5269165  49.7281885  43.9385128  54.3870020  49.9382782  44.3023014
  53.7067938  49.4617701  43.0368996  41.8211031  56.1895323  41.0961866
  41.6938066  57.1294785  41.2247515  41.0059595  55.8903217  40.6933832
  77.4070501  47.9909706  43.5521650  78.3221245  48.0756903  43.2844067
  77.2770834  48.6953735  44.1871071  73.4515190  66.4527941  48.2763815
  73.9774370  67.1868563  47.9588938  72.7586555  66.3544178  47.6233149
  65.0062418  66.5057945  58.6048985  64.2942667  66.9606161  59.0548515
  64.6030092  65.7071447  58.2646179  50.9773207  79.5217514  55.5727291
  51.9333124  79.5056677  55.6179523  50.7837534  79.6663189  54.6465206
  59.1747236  72.1699858  60.1201344  58.2453489  72.1488762  60.3482676
  59.5386696  72.8696537  60.6625748  70.3304052  80.3841400  45.2862978
  69.5535183  79.8766565  45.5211163  70.9592152  79.7311211  44.9790716
  78.4607410  59.3431187  33.2426667  78.3843279  60.2044964  33.6530638
  79.2035913  58.9321804  33.6848593  69.2166662  70.3833103  60.3419828
  69.9526691  70.9871674  60.2425623  69.6047258  69.5922422  60.7159519
  74.5570850  55.2468014  47.9411745  74.1256905  54.4450331  48.2366323
  74.1551638  55.9413147  48.4630394  75.1391220  47.0972490  46.8320370
  74.5376396  47.8415108  46.8091488  74.8307657  46.5185642  46.1347008
  86.9790840  58.3317041  40.2460575  87.0874500  58.2047081  39.3035269
  86.2332821  58.9267111  40.3233767  33.1770754  68.0826521  18.7060225
  33.4505033  67.8802776  17.8113091  33.5090160  68.9664841  18.8637912
  77.9726601  74.7446728  28.1935072  77.3320055  74.6353149  28.8962388
  77.9283762  73.9260054  27.6994896  54.5429659  61.3172293  53.6186314
  55.1628160  60.8268642  54.1585922  54.9995089  62.1322918  53.4101439
  47.3829603  46.3253164  38.8626027  47.7421188  47.1981335  39.0220594
  47.3746538  45.9086370  39.7243118  70.1668453  51.3173103  44.5299816
  69.5899105  50.9883213  45.2192879  69.6183300  51.9173288  44.0246630
  76.9527674  68.8678885  28.3225560  76.4604473  68.0471659  28.3060503
  77.8476000  68.6060905  28.5392833  71.4780235  61.2450123  26.0607219
  71.8421841  60.3805971  25.8699274  72.1121407  61.8590832  25.6905246
  44.6763468  73.1406403  47.2363329  45.4168797  73.2830715  47.8258705
  44.9056768  73.6240005  46.4426041  79.8697996  43.1950235  45.9161186
  79.9446869  42.9808569  44.9862003  80.7749653  43.2646751  46.2195110
  95.3392982  78.1466722  37.0267153  94.4331264  77.9910994  37.2929645
  95.5316830  77.4416924  36.4084768  71.2580204  53.0903292  51.2075710
  71.3157034  53.7499952  50.5163813  71.4521980  52.2634220  50.7662678
  78.6261129  52.3640347  45.7379580  79.0776777  51.8184948  46.3819361
  77.9442644  52.8114510  46.2390900  52.6469183  56.9453430  33.0214262
  53.1469011  57.3907995  33.7053967  51.7936993  56.7753792  33.4206343
  71.0274601  58.2206154  37.2535276  70.6669235  58.8474035  37.8807282
  70.2905321  57.6504898  37.0341396  61.4608383  71.8585682  57.7801704
  62.0280743  71.1182642  57.9956150  60.7777405  71.8399143  58.4504414
  74.6640205  62.1981382  54.7424078  73.8777828  62.6422262  54.4248486
  75.3751516  62.8136396  54.5644188  82.6685143  57.8096962  41.7452574
  82.9800224  58.7091684  41.6445494  83.4542561  57.3066521  41.9592524
  65.6814671  68.2766867  60.4977846  65.7229757  67.5039244  59.9344492
  65.2267742  67.9755020  61.2844038  66.6011286  64.6972275  53.4030628
  66.6590977  63.7794161  53.1375504  65.7319498  64.9756002  53.1144905
  60.7647943  53.6915350  28.1659603  60.4004240  53.3901644  28.9982128
  61.5168047  54.2291164  28.4143949  66.5928650  71.1388683  60.7808495
  66.3810539  70.2164125  60.6378555  67.5406218  71.1890602  60.6564760
  61.6633463  71.5411043  43.7446356  61.3622665  71.3472795  44.6323395
  62.3099470  70.8606815  43.5571098  54.1732454  79.6768522  52.8717756
  53.5679293  80.2035427  52.3498344  55.0319624  79.8431683  52.4829721
  90.9210777  61.4479160  36.7631769  90.6656456  61.0399151  35.9358215
  91.0747147  60.7120466  37.3557329  67.1236420  65.7261658  60.9148788
  67.2270775  66.2879705  60.1468229  66.9739532  66.3347530  61.6383743
  56.7150164  65.5868959  55.2203465  57.0651054  65.7985735  56.0857153
  56.9963408  66.3131905  54.6639442  74.6359968  68.4853935  46.7904806
  73.8536930  68.8760853  46.4011335  75.0076056  67.9466200  46.0920095
  50.3747654  61.1956167  59.5767403  50.8290911  60.3725910  59.7568989
  51.0290813  61.8728971  59.7481775  61.5770960  68.0502129  57.0640993
  60.6458855  68.2277584  56.9315720  62.0198727  68.5964537  56.4146376
  74.8639011  90.7373333  40.2144194  74.9824810  91.3818169  40.9121418
  75.4587555  90.0234604  40.4441309  74.5786285  66.4346647  43.3571625
  75.3593683  66.7425442  43.8174725  74.8177862  65.5657482  43.0346394
  55.4264879  66.3109827  43.3027029  55.3636074  65.6092072  42.6547909
  54.9295139  67.0345688  42.9210377  89.4362164  60.9552002  40.1276398
  90.3558636  60.7378817  40.2801037  88.9771843  60.1183558  40.1999283
  49.0987301  69.6994638  41.6829157  49.3989229  69.0051699  41.0963392
  48.7145948  70.3552294  41.1009836  54.1974068  63.3371592  32.2682023
  54.5273161  63.3027411  33.1660914  54.0526628  62.4211931  32.0309401
  52.4437523  68.6764050  48.1988525  51.5843391  68.5039043  47.8142881
  52.4386644  69.6152735  48.3852386  58.1816626  49.1462326  40.4626465
  57.7917719  49.7906017  41.0534143  59.0730906  49.0288067  40.7909727
  66.6323423  63.4636211  50.6727457  65.7516479  63.7702131  50.8886385
  67.0455408  64.2092896  50.2374506  57.0102978  59.0613127  64.1519594
  56.5655994  59.8951817  64.3040705  56.6317654  58.4664202  64.7992992
  53.4236908  72.9370546  43.8948298  52.8323936  73.5824060  44.2822838
  53.1643009  72.8967857  42.9743290  48.4943819  69.3519258  44.3768644
  48.7503672  69.1975260  43.4675455  48.3528376  70.2971840  44.4286442
  63.1990623  72.9701519  30.6524372  63.3444071  73.8907146  30.4340887
  62.2796726  72.8149271  30.4359865  53.8092613  57.5354815  35.2055979
  54.0231037  58.4434319  35.4203773  53.4306860  57.1817493  36.0104513
  48.8361406  59.9039507  53.3705664  48.7505770  58.9567518  53.4788370
  48.9652681  60.0268316  52.4301100  78.1598759  57.7540731  41.7793179
  78.1339788  58.2220125  42.6139402  77.3681879  57.2160625  41.7817068
  71.7780638  67.6176262  53.1093693  71.7855549  67.3303652  52.1963215
  71.1374044  67.0475435  53.5345650  66.5135050  59.8851395  56.2238169
  65.8684731  59.5479679  56.8454933  66.4469337  59.3004608  55.4688644
  72.1974325  47.4273252  21.8349457  72.7231884  47.8291321  22.5265837
  72.4781990  47.8689623  21.0334730  86.4228535  38.3947802  71.2390423
  86.9498062  37.6617551  70.9208870  86.0026741  38.0613852  72.0318460
  58.7614918  61.0288906  62.3464441  58.1772089  60.7155418  61.6560411
  58.2511568  60.9389210  63.1512403  72.4816322  68.2213449  40.0538921
  72.9112387  67.3828173  39.8849654  72.7649021  68.7849283  39.3339205
  82.3335838  59.3954706  44.8316002  82.5540066  58.5800505  45.2818584
  81.4142704  59.2923403  44.5856953  89.6785259  73.4837961  29.4700766
  90.2341938  74.2082500  29.1826034  89.0297318  73.8923597  30.0431085
  65.1528072  56.9489813  37.7386904  66.0542917  57.0420837  37.4306536
  65.1106691  57.4940729  38.5243940  63.7154150  68.7430000  49.4644499
  63.9886570  68.2832956  48.6705732  63.9482832  68.1485271  50.1776218
  58.6497545  66.3263702  52.0587540  58.2798290  67.0136642  52.6128435
  59.5643234  66.5819836  51.9385242  61.3294077  59.5814562  48.9683771
  60.7455826  58.8431931  49.1425705  61.1838531  59.7893286  48.0454254
  55.1076031  75.8140135  54.7786379  55.3734875  75.1408720  54.1522074
  55.5928612  75.6037855  55.5764866  66.6777849  58.4872913  53.8846302
  67.5879431  58.5459185  53.5941124  66.1787939  58.3410263  53.0809832
  40.9824610  49.3686628  34.0835857  41.2303543  48.9333391  34.8992276
  40.0678587  49.1208506  33.9482141  65.3536844  69.2628670  63.6587191
  64.4466257  69.3220806  63.3587599  65.7080078  70.1419735  63.5251045
  42.2427654  88.2268715  30.4176736  41.4491320  88.0864811  30.9340692
  42.1925592  89.1432476  30.1456881  59.0157843  62.0267487  52.5567627
  58.4472990  62.3894739  51.8774319  58.6415052  61.1668301  52.7483034
  78.6187506  61.7094564  34.7903657  78.1534719  62.3592710  35.3171372
  79.1619539  62.2272587  34.1961908  62.5483227  65.9918737  55.2778435
  61.9078827  65.3779984  54.9183607  62.0322657  66.5822506  55.8268213
  73.6761093  61.4212084  49.4208813  73.8302469  60.6326628  48.9006186
  73.9526272  62.1405649  48.8531685  58.8319206  78.2993937  14.9158478
  59.4866133  78.2547426  14.2189872  58.2105923  78.9640570  14.6185148
  76.3037062  82.7401543  32.4193621  75.4325294  82.5891209  32.0526576
  76.6538620  81.8628311  32.5740314  73.5932016  52.4089670  47.9218292
  74.3340731  52.0696259  47.4196482  73.3387661  51.6840792  48.4928226
  83.9661789  46.5998697  26.6793704  83.2913017  46.6533375  27.3560643
  83.7347889  45.8223724  26.1712456  46.9078970  63.5111237  26.1810184
  46.5759039  63.2488394  27.0396328  46.2228394  64.0745926  25.8212471
  53.0668783  55.5635118  41.2914562  53.3307028  56.3073206  41.8330956
  52.2251987  55.2888727  41.6552973  69.0279150  61.8264961  45.2701664
  68.3530903  62.5051451  45.2535677  69.6393919  62.1132946  45.9484529
  70.1445246  64.4779205  39.1247296  70.2174282  65.4248571  39.2439985
  70.6694460  64.2935038  38.3458328  74.4563723  50.4680300  44.7245264
  73.8102102  50.0207424  45.2710056  75.3017044  50.1728153  45.0629091
  30.6334257  63.3075237  46.4344311  31.5435266  63.0497837  46.2877417
  30.6924129  64.1122675  46.9493437  69.3850803  60.2143574  48.4046888
  68.8331032  60.7168484  49.0038967  69.9456692  60.8695173  47.9890728
  76.0404778  47.6674366  35.0045466  76.8822765  47.4742889  34.5918751
  75.6952858  46.8110180  35.2567887  68.9829969  75.6009007  57.2997427
  68.6620569  74.7085333  57.1696901  68.2094049  76.1527872  57.1848154
  59.0107632  87.2000122  55.6870174  58.8981342  87.2369957  54.7371817
  59.2237043  88.0988026  55.9381342  49.7671175  68.4646940  46.6548491
  49.1953516  68.7276030  45.9336042  50.2033138  67.6735497  46.3385344
  69.3267727  58.9328909  44.6044970  69.1061306  59.7109842  45.1164722
  69.8121500  59.2710400  43.8519716  78.1079721  53.0561590  52.1372604
  78.7844944  53.5980606  52.5433254  77.3555136  53.6407423  52.0461607
  80.0685120  34.2689729  57.6298761  80.8074093  33.7535357  57.9532814
  79.7917795  33.8169456  56.8328047  56.1724472  63.2559919  57.2108746
  56.8530655  63.0698872  56.5640688  56.3722038  64.1391039  57.5214243
  76.3647509  57.9941750  55.1862144  75.4411125  57.7464247  55.2279663
  76.4309835  58.5406494  54.4031382  63.9456797  61.7137623  54.3866730
  63.2041883  61.4916801  53.8235521  63.7044001  61.3703203  55.2469397
  63.4664154  64.6592855  44.3358231  63.2773781  64.4095659  43.4313154
  62.7869225  65.2967310  44.5553160  83.5028839  43.1140852  59.0762711
  83.4141731  42.7020073  59.9356604  82.8768349  42.6485729  58.5216618
  71.3367987  58.6502600  47.6194286  71.1471176  58.4518766  46.7024231
  70.6039715  59.1970062  47.9027367  85.0826550  74.5956612  36.3261342
  84.7423363  74.7608948  35.4468656  84.5353603  75.1322269  36.8995380
  79.3883514  61.5839005  29.2255521  78.4414053  61.6542244  29.1048217
  79.5432472  60.6497240  29.3654132  59.8528481  62.7807045  48.0164957
  60.3770828  63.5470104  48.2492638  60.4915810  62.0747328  47.9171991
  69.6093369  73.8560581  61.7345905  68.7167788  73.9613914  61.4052391
  70.1478100  73.7795401  60.9469223  49.1905737  38.6526346  19.0391982
  49.7177029  39.4484186  19.1105592  49.8319292  37.9430795  19.0014982
  61.7066860  71.4816666  53.7810707  61.9494486  71.7988443  52.9111862
  61.8015099  72.2457981  54.3497038  82.2674274  54.8739052  30.9375381
  82.0053768  55.0130367  30.0274801  82.3268700  53.9227486  31.0269284
  70.0540972  75.2169371  16.3300419  69.9229956  75.3988028  17.2606158
  69.3110752  74.6646214  16.0869396  51.6548252  37.0386028  29.1298389
  52.2566128  37.7148056  29.4410229  51.7715168  37.0329189  28.1797934
  81.5209484  99.6354580  40.7024050  82.3707199 100.0725555  40.7578039
  81.5196800  99.0204525  41.4358902  62.2230101  69.1970682  46.1622620
  61.6605902  68.4263372  46.0855246  63.0606365  68.8524675  46.4718819
  73.3831120  83.0477142  39.8021865  73.5808897  83.2327366  40.7202721
  72.8827620  82.2320080  39.8246527  77.8540802  70.8050871  15.4912734
  78.2114744  70.2982950  14.7621202  78.6223030  71.1817837  15.9204173
  92.4064636  79.5073271  36.7752481  92.5802803  78.8391495  36.1122561
  92.8329563  80.2953815  36.4386320  63.0211353  89.4068146  34.9372935
  63.7870550  89.1553020  34.4212127  63.0560875  88.8414860  35.7089210
  60.4454041 100.5767250  53.2789278  60.2705812 101.2954617  53.8864470
  60.8535480 100.9969044  52.5218964  90.5670261  76.9754457  32.2696304
  91.0879040  76.3424921  31.7753696  90.2992535  76.5021610  33.0573678
  71.7254591  87.6231384  37.0310497  71.9154882  88.3290195  36.4131093
  72.1380043  87.9027081  37.8482866  50.0616074  68.3306313  53.8737917
  50.7077646  67.8406096  54.3823099  50.2953529  69.2487144  54.0106297
  98.5212803  69.7496700  39.8196769  98.2159519  70.5414820  39.3769121
  97.7443886  69.4081259  40.2624130  82.2763348  49.2521715  48.2227325
  83.0447102  48.7279129  47.9969597  81.6954422  48.6422539  48.6774874
  75.1513195  99.5222855  37.6757693  74.6377945  99.0027523  37.0572138
  76.0061169  99.0921116  37.6980662  47.7558422  66.9598722  33.1706166
  48.0537033  67.7082872  33.6877060  47.6915073  67.2966099  32.2769165
  49.7971439  85.0488377  52.2052574  50.5615711  85.2645302  52.7394438
  49.8145151  85.6881523  51.4930773  71.1398077  65.5311346  24.8285580
  70.5366898  66.1049652  24.3561125  71.1188698  65.8519125  25.7301664
  84.4206810  71.2041759  33.7170553  83.7620449  71.0164356  33.0483365
  85.1837444  71.5052938  33.2237983  86.7883301 103.0443478  31.8448353
  86.7508125 103.1952667  32.7893162  87.6263714 103.4202385  31.5753293
  98.0221272   0.5133540  64.0747786  97.3403454  -0.1489612  63.9618540
  98.2777500   0.7484543  63.1828070  21.8916774   1.7087787  49.6127176
  21.8403387   0.8669159  49.1600990  21.1111212   1.7310734  50.1663113
  96.6369343 104.6626377  26.3778830  96.6752529 104.3595982  27.2850370
  96.8585205 105.5925751  26.4264512  53.4731197  84.1181850  32.0010972
  53.9515638  83.4569836  31.5009642  52.5540113  83.9662457  31.7811227
 108.3123779   8.4838611  42.3557615 109.0310478   8.2823282  41.7564869
 107.5208378   8.3457106  41.8355513  88.8856411 105.1995850  34.1311145
  89.2688847 106.0585785  33.9536667  89.6372128 104.6099567  34.1920066
  77.6876211  78.7043333  39.7196007  78.0512714  79.5790958  39.8566461
  78.2329607  78.3233738  39.0313411   3.7062222  95.6104755  23.7150741
   3.2958841  96.2661076  23.1511641   2.9757589  95.0866985  24.0441966
  80.0903416 105.9579659  45.9370708  79.8698092 105.0330162  46.0469151
  81.0085773 105.9547997  45.6667662  92.4526882 109.1366100  55.2520847
  92.7861500 109.5551777  56.0457087  92.3263836 108.2205772  55.4994011
  88.8948727 104.1789246  30.1933479  88.4370136 104.9390125  29.8343801
  89.4498444 104.5384407  30.8854318  83.5371113 101.9493389  63.3619261
  84.1395378 101.3794327  63.8399601  84.0712357 102.3326588  62.6662207
 117.2110367  75.5873919  37.9723406 117.1644974  74.8602200  38.5930514
 118.1467247  75.7706785  37.8878641  99.6085548 104.5385265  47.1281004
  99.7694397 104.0395737  47.9289722 100.4748917 104.8421860  46.8569899
  90.6633663  81.4199162  53.9629030  90.7471752  80.4850674  54.1506958
  91.1975479  81.8475056  54.6322680 100.0161934 109.5760155  29.3495798
  99.9394417 108.8458061  29.9636984  99.1116333 109.8156738  29.1481853
  81.1277485  95.5641079  56.7767382  82.0551968  95.7157040  56.9586611
  81.0332012  94.6117210  56.7921400  82.9721832  97.9201889  51.0427856
  83.0117798  97.7693653  50.0983715  83.4676552  97.1943951  51.4222240
  96.1434555  90.9581757  59.1071081  95.5703259  91.0685062  58.3484316
  96.9250488  91.4675617  58.8929224  79.7043514 104.8437023  55.3929377
  79.1865921 104.4292641  56.0831499  79.2734861 104.5807266  54.5796585
  83.8077736  95.7110310  54.6699047  83.2442379  95.0032234  54.9824190
  84.0551376  95.4467392  53.7837887 101.6930199  95.0386524  41.5311050
 102.1998215  94.9456406  40.7244253 102.3383617  95.2903652  42.1917200
  79.3763542  90.9377575  59.7179604  78.5173321  90.7100105  59.3623734
  79.6847057  91.6520214  59.1603136  82.5976086 100.2651215  60.5707502
  82.7330875  99.7777367  59.7581339  83.4476280 100.2392769  61.0100937
  81.7648220  90.1964188  55.6908846  82.2028732  90.1518154  54.8409700
  81.1678123  90.9406567  55.6138802  89.5904732  76.9221258  35.0234771
  88.8397026  76.6072416  35.5268741  89.3737793  77.8304100  34.8130035
  97.7952957  74.9803925  47.0294094  98.0068779  75.0528049  47.9601192
  98.3295250  74.2495203  46.7184973  62.4452782 107.0988369  59.4320488
  62.6032495 107.6491261  58.6649323  63.1628799 107.3091888  60.0295734
  91.8942165  96.1129379  63.8090324  91.3431358  96.4346600  63.0955601
  91.2746334  95.7899570  64.4632769  95.9629536 103.8607693  67.6397181
  95.0551701 104.1539860  67.7183533  95.9791946 103.3454418  66.8332386
  83.5700417 104.4162941  73.4135628  83.3559799 103.4982014  73.2476616
  82.9346371 104.9081516  72.8934097  78.9514160 112.0665455  52.0954370
  78.4132004 111.4885330  52.6362228  78.3325195 112.4701023  51.4868784
 102.2980022 112.2343540  47.1845913 101.8047333 112.1893978  46.3655043
 102.3725796 111.3236141  47.4695635  23.8930416   0.5128142  41.7986727
  23.6447358   0.4560563  42.7213621  24.7900653   0.8465756  41.8121290
 102.0784187  97.2564125  56.4564991 102.1638966  98.1916237  56.2712812
 101.3918972  96.9560623  55.8609200   0.5746606   9.8885339  41.3482618
   1.3542402  10.4353976  41.2511683   0.9148853   8.9964682  41.4168024
  81.9266224 101.7074013  32.9172516  81.5107155 101.0605907  32.3472595
  82.1074677 102.4515820  32.3430371   3.7654245   5.4520625  28.4126544
   3.6142844   6.0576731  29.1383410   3.8790354   4.5992064  28.8321304
 101.0316849 110.8228779  59.0243864 100.2035427 111.0536575  59.4452953
 100.8086014 110.7153416  58.0997753  88.0972195  79.5792294  34.4855952
  87.1563816  79.4030714  34.4802666  88.1620026  80.5337715  34.5154881
 113.7338257   7.4273074  29.2400408 114.1865635   6.6349125  29.5287752
 112.8043365   7.2229689  29.3426967  87.0355701  98.4372997  44.5084763
  86.1103344  98.3381462  44.2841005  87.1722031  97.8296566  45.2353430
  99.4382477  88.2894802  60.1646185  98.5397625  87.9606342  60.1360226
  99.5780659  88.6796570  59.3018055 114.6726513  83.8883877  44.4131088
 115.0307560  84.5790195  44.9708128 115.2782536  83.1550598  44.5212889
  56.2371206  67.8146601  32.3658180  56.4364481  67.1787977  33.0529714
  55.3030491  67.6961565  32.1934724  75.2304745  98.4795094  24.3146467
  75.6830215  97.7571487  23.8791680  75.8919144  99.1676044  24.3870711
  95.3945541  84.4728756  45.0903797  95.6485081  84.6579742  44.1862345
  94.4429970  84.3748188  45.0566101  76.8021059  95.1552200  29.4748068
  76.2916374  95.0778294  28.6687899  76.9110250  96.0979652  29.5997405
 101.8117046  98.8203907  53.3699226 101.0698318  98.3454227  53.7444353
 102.0014381  99.5090866  54.0070486 107.1691608  87.3854351  57.2566795
 106.6666126  87.7035236  58.0066776 106.5118504  87.0149231  56.6676998
 107.8038025 102.2227192  34.2088318 107.6496983 101.4950657  33.6063337
 108.6926270 102.0801067  34.5342374  77.9401922  94.8226070  56.8602419
  78.3216095  95.5733967  57.3152828  77.3075485  95.2065849  56.2531567
  72.1056223 105.2840614  53.0667448  72.4548960 105.5378342  52.2124386
  72.1005964 104.3270397  53.0487728  96.6314697 109.2366219  46.6080332
  97.3097801 108.6344624  46.9138765  96.2540054 108.8033295  45.8425188
 100.3821278 103.2570171  37.4134874  99.5569992 103.4032249  36.9508553
 100.1200676 102.9164791  38.2688165  75.9413624 100.5782986  42.4796438
  75.5255127 100.5944538  43.3416414  76.0172892 101.5000725  42.2330379
  80.5776501  99.2674828  47.5173664  79.8572254  99.5453739  48.0830479
  80.8595276  98.4289742  47.8829908  83.8962936 105.3257465  34.1061378
  83.0295372 105.6557751  33.8694286  84.4614506 105.5963135  33.3825159
 105.6620598  88.4710503  59.3147135 105.4309177  88.6085987  60.2333498
 104.9910355  88.9466858  58.8250923  69.5001268 109.9793243  80.1751328
  69.4179153 109.6062183  79.2974901  69.1169357 110.8533096  80.1006985
 102.4076653  98.0032825  41.9164944 102.1982479  97.7936840  41.0063028
 102.9734612  97.2864342  42.2032690  88.6868286 104.1618061  62.6565886
  89.6279144 104.2704010  62.5195026  88.4669495 104.8058510  63.3297110
 105.8750343 106.1954021  64.4108725 105.1021671 106.1261272  63.8504076
 106.6151047 106.1056042  63.8104963  56.2414312  98.5909081  45.3533792
  55.3297377  98.8659668  45.4502583  56.5578699  98.4900570  46.2511158
  92.1562672  83.9991093  42.3735094  91.8689632  83.0868912  42.3340654
  92.2542667  84.1791344  43.3085060  92.0318794 104.0657234  61.9701767
  91.3605595 104.2870045  61.3247347  92.4556255 104.9002457  62.1707535
 107.6842499  94.8880672  42.9002142 107.5234222  95.8297539  42.8402376
 107.2834110  94.6289921  43.7299347   4.4869772  71.8453550  55.5886889
   5.3069592  72.2016048  55.2467155   3.8541064  71.9816780  54.8836231
 101.5882206  96.4759731  37.7456212 101.0762501  97.1649456  38.1692076
 102.2391701  96.9468498  37.2252703  65.5630445 106.4505482  25.7445669
  65.5932570 106.2502861  26.6800976  66.3832951 106.0995197  25.3978777
 105.6789398  93.8411045  68.1116629 105.8328533  93.2760143  68.8687754
 105.8035660  94.7291851  68.4463501 106.6905594   3.1229746  48.1229496
 106.9641590   2.6064846  48.8809776 107.2548962   2.8211421  47.4111557
  99.6188068 109.4951725   2.8195250 100.4878235 109.3336487   2.4521574
  99.5482159 108.8781452   3.5478926  82.0908928 102.7920723  65.7209253
  82.3049164 103.7241364  65.6797934  82.5333309 102.4110317  64.9624491
  57.9330921  95.8046341  50.1504803  57.4834394  94.9763298  49.9833012
  58.2674646  95.7196903  51.0433483  73.9728117  97.6793957  45.9824038
  73.8912868  96.9089794  45.4202271  74.1932011  97.3250484  46.8438530
 106.7958546  84.1221809  11.7197442 107.2538662  84.9621010  11.6884923
 106.2746811  84.1035557  10.9170818  83.0025291  92.7273750  57.9593372
  82.3211670  92.1770573  58.3455181  82.6108646  93.0630779  57.1530294
  72.0687389 105.3053093  46.7777586  72.2765303 106.0768604  46.2507296
  71.1635780 105.4427433  47.0570898  20.9044743   3.7157053  42.8060627
  20.7719922   3.5321245  41.8760204  21.7839193   4.0906465  42.8532839
  85.9609795  79.3480301  23.6020327  85.4307556  79.6678782  22.8721070
  85.3322697  78.9271688  24.1884017  63.1161213 103.9629555  37.3145485
  63.6879778 104.6973705  37.5378275  62.5784683 104.2888737  36.5927887
 116.1288261  97.2956657  47.1820784 115.7304955  98.1073189  46.8677664
 115.9698391  97.3007011  48.1259680 103.4817886  99.0718365  24.8576093
 103.4169960 100.0212383  24.7543240 104.1230965  98.9502811  25.5577421
 118.5325813   8.9487767  60.3756046 119.1217804   8.3309031  60.8084059
 119.1110992   9.6263003  60.0255823 101.9259262  84.1207886  56.3418770
 101.3736343  83.4508896  55.9388542 102.4790192  84.4368458  55.6274319
  71.2933779 104.1746998  71.4539862  70.9175014 104.8810101  70.9285593
  71.0131884 103.3727932  71.0127783 112.9519367 101.4878178  49.7489786
 112.8953838 100.6489468  49.2914486 113.3645058 102.0775127  49.1178894
   6.7403805  10.7304025  76.7525816   7.2560704  10.2451384  76.1085176
   6.1286563  10.0843036  77.1055412  15.0441945   9.4590938  42.5907516
  14.8192072   8.8432497  41.8933630  14.2013860   9.7995311  42.8907633
  74.2354488 111.0908222  62.0081186  75.1870584 111.0797691  62.1108246
  73.9575911 111.8999672  62.4374437  14.3609774   7.9060233  35.5218029
  13.7500370   8.4726638  35.0507379  14.0927219   7.9739666  36.4381289
  70.7322025 102.5333500  48.5328293  70.7836437 103.1829166  49.2340040
  71.4274740 101.9072437  48.7348795  96.3472366  97.6542282  54.0283966
  95.5791664  97.8015804  53.4765053  96.2122536  96.7819691  54.3987703
  77.2471523  86.9515896  83.6399841  76.4731884  86.4711189  83.3461189
  77.3038387  86.7643547  84.5769787  83.2505322  96.6059589  86.6522217
  83.5843086  96.0130215  85.9789944  83.3153439  97.4760628  86.2585735
  60.5107164  89.2097569  49.1004229  60.6375933  89.5024681  48.1979513
  60.8450174  89.9299335  49.6350479 106.7750359 107.7306652  32.9068851
 106.7171288 106.9745731  32.3227668 106.4489269 108.4629631  32.3837948
  37.8361821   6.0983074  41.2347317  38.3836985   5.9141505  40.4714870
  37.2796178   6.8270093  40.9600306 109.6859646  66.6967773  51.5280581
 110.1984692  66.1401558  52.1143532 109.5898724  66.1785507  50.7290316
  90.2819061 110.7504749  55.8197832  90.7538414 110.2593040  55.1472807
  90.6149006 111.6444588  55.7414246  92.4747658  94.0926266  84.8700142
  91.5992641  94.3675137  84.5976925  92.9077721  93.8323212  84.0570164
  86.1810398 100.8765125  56.9636488  85.4060173 100.8534050  56.4023685
  86.3279819  99.9624634  57.2068405  97.1291065  70.2432823  31.9425702
  97.1919250  70.6763077  31.0912347  97.9688644  70.4231167  32.3653030
 109.8478889  94.2414474  71.2716770 109.3850803  94.8995304  71.7903042
 109.2673492  93.4804153  71.2772274 118.3882618  89.0906620  53.2154989
 118.0254269  89.8893070  52.8324223 118.9135647  89.3968582  53.9547777
  93.3003998  89.4061375  51.9512606  93.0994987  88.5532093  51.5660572
  93.5615730  89.9492645  51.2075996 110.2494621  65.7446146  48.9059877
 111.1852455  65.7767725  49.1047478 110.0374603  64.8111963  48.9016819
  98.3375454  94.9546909  39.6520877  97.5061989  95.2324486  39.2674541
  98.6478424  94.2576408  39.0740967 102.8525639  83.7921143  67.0020294
 103.7793064  83.7253952  66.7719746 102.4400902  84.1726971  66.2266207
  21.7822719  11.4271867  46.9550562  22.4649596  11.2327349  47.5972080
  21.6110277  10.5887425  46.5261984 109.0083981   5.0025761  35.4822421
 108.6341381   4.1250908  35.4036093 108.2586002   5.5913442  35.3963065
  81.5545368  85.0799179  22.9325867  81.0123158  84.5561028  22.3428011
  82.1191311  85.5885124  22.3505306  98.2492924  86.2955379  44.2346478
  98.3082199  85.4558086  43.7790012  98.2251358  86.0631752  45.1629019
  97.3919392  83.9291859  50.5928421  97.8427505  83.3738518  51.2289333
  96.9717407  84.6071053  51.1220741  79.5883846  92.7617550  57.5704241
  79.8143101  92.4846649  56.6824961  79.1148233  93.5850143  57.4512196
  88.7395954  97.7947426  37.6346493  88.1900597  98.3251953  37.0577073
  88.3479404  97.8998470  38.5017085   9.1825897  39.8184133  51.5456247
  10.1206303  39.9201059  51.3844681   8.9618909  38.9746523  51.1511707
  84.3576527 100.6750679  45.5969429  83.8614368 100.9233665  46.3769150
  84.0662193  99.7845936  45.4010820 100.9058571 109.4933128  33.8168788
 100.5113220 109.8519421  33.0219197 101.5777969 108.8899326  33.4995937
 105.4049397  75.3970480  36.0641479 105.8236217  75.1601124  35.2366233
 104.6395779  74.8247099  36.1178350  98.0993557  81.9026947  52.4112558
  98.1021786  81.2711239  51.6919947  97.7937698  81.4025116  53.1680059
 114.6672058  10.3087580  50.3412628 114.4851875  10.7614791  49.5177650
 114.7382641   9.3860596  50.0966978  17.4387479  -0.3206367  39.1003728
  17.4951649   0.5252501  39.5448112  17.1859729  -0.1033630  38.2030821
  91.3961315 111.0960865  63.3769798  92.2912884 110.7572842  63.3649349
  90.8546638 110.3514290  63.1152058  95.6967258  83.1601238  53.2447147
  95.2652359  82.8535271  52.4471903  96.5289783  82.6876545  53.2635355
 117.9540634 107.8193474  68.9543438 117.2980785 107.1797466  68.6771679
 118.7925053 107.3816490  68.8071632  19.0689550  -0.3072763  60.1029921
  19.7525011  -0.0437284  60.7190704  18.9680849   0.4456973  59.5206833
  83.8318729 100.8928680  28.9206028  84.4160366 101.6489029  28.8622642
  83.5392094 100.8860874  29.8319364  82.8419781  85.9306526  33.7866473
  81.9482231  85.6881809  33.5444808  82.7811909  86.1789608  34.7090816
  86.8052197  92.1125126  61.1324120  86.4067841  92.1123791  60.2620745
  86.8396664  93.0365181  61.3799143 110.7967281 109.1296768  66.5581465
 110.3757191 109.5428371  65.8043003 111.5235710 109.7131443  66.7761135
  74.7315645 102.4457836  68.1436682  74.5653486 102.9269028  68.9543056
  75.6091595 102.0809078  68.2573557   1.1663522 103.2789612  55.6969309
   0.3380699 102.8030968  55.6358242   1.7926781 102.7313519  55.2235699
  91.1192989  99.2871666  45.9338140  91.9237995  99.7180939  46.2224770
  91.3374805  98.9223385  45.0761843  16.4607894   7.7040964  66.0176134
  16.0780931   7.4601018  65.1748514  15.8054459   7.4404639  66.6635656
  94.0131283  98.1481552  70.4535294  93.1971073  97.6845455  70.2653551
  94.7016716  97.5263786  70.2178717  99.4295597 111.7130566  67.7644014
  98.5831451 111.8784714  68.1796837  99.2112160 111.4656734  66.8658686
  80.0336361 108.7135601  45.9166098  79.8040581 107.7975655  46.0730696
  79.1933203 109.1511631  45.7802153   5.7385200  16.7231750  52.8799391
   5.8881122  16.8114281  51.9386292   6.1987907  17.4681354  53.2664824
  91.1876202 111.5728569  50.3036022  91.1368084 110.8211613  49.7131681
  91.3682938 112.3168755  49.7291183  96.6311646 103.3936310  39.2047405
  97.0453930 104.2508221  39.1054225  96.7228603 102.9822922  38.3453059
  33.2800794   4.5317432  30.2627945  33.2037377   4.9287435  31.1304307
  32.3756576   4.3811810  29.9878716  73.1770420 111.2341309  45.0861788
  72.8018951 110.3869343  44.8458862  73.0967617 111.7650414  44.2937660
 107.5420284  89.3726730  65.7003021 107.1290207  88.5521793  65.4311275
 108.4812641  89.1926479  65.6596136   6.8042064   8.7201309  49.4668865
   6.5017229   9.5010012  49.9305439   7.7472484   8.8507479  49.3676710
  83.8449478 111.8322277  27.9376245  83.0323029 112.2265530  27.6208234
  84.5379543 112.3555565  27.5350237  84.5880222  91.3429260  63.4449673
  85.4317093  91.6775036  63.7490797  84.1248798  92.1168900  63.1244898
  81.9502068 112.5402451  48.6701155  82.6997185 111.9565582  48.5527611
  81.3866997 112.3607540  47.9174709  25.2445865  14.2355227  59.5817375
  24.7070098  14.1380453  60.3677034  26.0151672  14.7204137  59.8772335
 114.4504547   6.5025663  33.7353730 113.8738823   7.0698965  33.2235813
 113.8564777   5.9865689  34.2805028 109.6529293 111.1163330  35.1843238
 110.2245998 111.3716125  35.9083796 108.8118267 111.5256214  35.3874755
  26.3252187   3.6776647  13.0512083  25.3723049   3.6084595  12.9929221
  26.5865064   2.9345906  13.5950851 118.5677624   2.9242110  55.4798985
 118.2409286   3.6574194  56.0012627 119.3052769   2.5813729  55.9846449
 106.7996597 103.1749725  13.9160824 106.0759926 103.7005234  13.5750031
 106.4501762 102.2848511  13.9582217 104.7409821  98.7668896  56.4815426
 104.3075848  98.2066345  55.8377218 104.7127247  98.2631779  57.2949934
 109.4349480  99.6146488  41.5540218 109.5731068  99.3569374  40.6425762
 109.7091866 100.5310917  41.5880013 117.1815777  96.7147923  54.9654770
 117.5339603  97.4871159  54.5232296 116.3054657  96.9786644  55.2465963
   9.8015791 106.5916443  52.4406338   9.6147442 106.6969872  53.3734894
  10.7463932 106.7272663  52.3687840  85.8243179  96.0253048  36.1373758
  85.0930786  95.4084682  36.1693716  85.7596111  96.5161800  36.9565725
  15.7249284  13.9033985  54.2452765  15.4836941  14.7143674  53.7976503
  15.1021290  13.8348603  54.9689150  52.8274202   3.6894459  52.0230436
  53.2978344   4.5053324  51.8519592  53.4739828   3.1243402  52.4459457
  22.1950412   9.3259561  63.5926390  22.3595548   8.8724357  64.4193697
  21.6217232   8.7345642  63.1049967  10.5884111  19.8779202  58.2445955
   9.6342659  19.9543321  58.2436895  10.8033550  19.5720315  59.1257668
 115.0642395 110.2042961  52.7510786 115.4423904 109.9910545  51.8979931
 114.3308830 110.7854748  52.5494671   1.2842140  24.6743178  77.1325350
   1.4019448  25.1571274  76.3144493   0.3644437  24.8097825  77.3603630
   6.6138750   8.8912719  34.2419934   7.1527362   9.2307150  34.9565816
   6.6417623   9.5767772  33.5745072 102.0927048   2.0505668  69.6241951
 101.6023827   1.6120563  70.3195572 102.1669865   2.9581350  69.9192047
  71.3544846 108.9331150  63.0620146  71.1296797 108.5454178  63.9078188
  71.3705111 109.8758030  63.2273197  14.3673897   1.5051125  41.7180395
  14.4780529   1.4943479  40.7673168  13.9980507   0.6468527  41.9259119
 115.6521797  26.2094212  40.2052689 116.3752270  25.8116627  39.7202730
 114.8702240  25.9721804  39.7067714  99.0965557  14.7626793  74.8857784
  98.2698917  14.7579873  75.3682995  99.6191502  14.0755558  75.2992868
  29.0603232  15.5592680  32.9298735  29.2299008  16.2971580  32.3442149
  28.3649921  15.8689928  33.5102296  99.7600365  78.8671255  46.7351007
 100.0049973  79.3276739  47.5376701  98.8657856  78.5656977  46.8953562
  10.4907310   5.6365705  47.3651695  10.8911943   6.3700163  46.8983507
   9.5741898   5.6489235  47.0894289  23.1800723  10.0584888  30.3558135
  23.9085007  10.6362629  30.5834126  22.5117254  10.6443250  30.0003695
   9.6976626   8.1233478  42.4845695   9.5190108   7.6857156  41.6522264
   9.7634673   9.0510440  42.2581148  91.9577122  97.9845810  58.4408379
  92.7617359  97.4734688  58.5333061  91.5627766  97.6650906  57.6295567
 100.3643799 111.6606712  54.1772175 100.9817314 111.2907505  54.8083019
 100.8094025 112.4347878  53.8323641 105.6260777  13.5645890  42.6535892
 106.3793945  13.4145820  42.0824099 104.9734879  12.9281926  42.3614216
   4.9563658   9.6263331  69.5379496   5.6761438  10.2355051  69.3734455
   4.2126772  10.1878083  69.7568226  80.7381153 110.9871674  55.3796291
  80.4548836 110.2910614  54.7867966  81.6907024 110.8997726  55.4138517
  43.0220795   9.4141257  11.2401593  43.8649321   8.9878577  11.3954723
  43.2012939  10.0559461  10.5530047  81.5245724 106.5540409  72.5189686
  82.3092747 106.7322445  72.0005894  81.4482880 107.3072720  73.1046915
  93.1511211  99.1412735   9.8304588  92.9393482 100.0232601  10.1362109
  92.4594975  98.9330006   9.2023647  18.9323699   0.9407449  55.5763340
  18.9309192   1.8262470  55.2128553  19.5264137   0.4497807  55.0086212
   6.2357026   1.2675144  26.9361591   7.0046538   1.5462863  27.4333835
   6.3801104   1.6159479  26.0564017  95.4847240 107.9113293  43.3702421
  94.7199821 108.1605625  42.8513145  95.4275703 106.9582844  43.4385490
  74.8825925 111.9804923  53.5833979  75.3211206 112.6429275  53.0494499
  75.5939859 111.4386590  53.9248180   6.1080658 100.9541321  38.9803171
   6.3953358 100.0796604  38.7176418   6.8948913 101.3683319  39.3346858
  71.3767433 107.3575687  36.8619704  71.0584450 106.6596222  36.2894464
  71.7287922 108.0164337  36.2634826  96.0075855 100.7687759  45.8883953
  96.9393539 100.5967045  45.7526112  95.9862900 101.5528202  46.4370728
  18.7087107   5.4202133  47.1584940  19.2524195   5.0373209  46.4700174
  18.9811647   4.9690837  47.9575491 107.1790886 104.8330212  30.4309201
 107.1980667 104.4059467  29.5744824 107.6616859 104.2388248  31.0056043
   4.4642726  14.1642475  44.1054010   3.7255996  14.4386423  44.6488190
   5.1720834  14.7631347  44.3432474  28.0572367  21.5758038  40.2352762
  27.3910809  21.3612342  40.8882904  28.0031085  22.5268602  40.1414824
  17.7544320  19.3721640  58.4774876  18.3612430  19.9834156  58.8950777
  17.5125301  18.7615371  59.1737986  34.8828816  12.5664759  34.7728515
  35.5645800  12.0157146  34.3879080  35.1085925  13.4548616  34.4970632
  95.2280998  10.2844107  58.9855433  96.1840534  10.2587271  58.9441204
  95.0348854  10.5894506  59.8720217   7.2606999   5.0523746  54.2580748
   6.6097444   4.4421935  53.9114237   7.9245669   4.4917595  54.6596003
  25.2914000  19.1182637  32.8075767  26.1986017  18.8209641  32.8770566
  24.8318553  18.3896053  32.3903155  95.9647560 108.1759548  57.4129248
  95.4354000 108.9717674  57.3610449  95.5897141 107.5952435  56.7508459
  72.5777483 105.9078503  67.1863365  72.5352716 105.2889729  66.4573526
  73.0930710 105.4559040  67.8544855   7.8133637  20.6689668  58.1450796
   7.4162215  21.4320827  57.7253628   7.2303188  19.9430132  57.9230881
  20.8995032  15.5914342  27.3069978  21.5304732  14.8747873  27.3742795
  20.1324391  15.1970136  26.8919349 117.1493053   6.1550498  44.8598814
 118.0710602   6.2739748  45.0888968 116.7970181   5.6071293  45.5612421
   8.7159914  18.4818864  45.7648802   8.7727594  19.3299735  45.3246975
   9.5864356  18.0981362  45.6586075 108.9171124  13.8185322  45.2725172
 109.1282082  14.6157515  44.7866058 107.9678535  13.8540804  45.3902674
  26.0078049  14.2330217  75.5899286  26.4993548  14.2837238  74.7701502
  25.7175136  15.1307976  75.7510567  92.2075367  93.6048126  47.3219299
  92.2029781  92.8467751  46.7374706  92.4722195  93.2509804  48.1710339
  99.9837589 108.1609154  66.3061666  99.6368408 107.8996086  65.4531717
  99.3109894 107.8909397  66.9312525 114.9867916  28.5599709  70.0006914
 114.4331932  28.1016278  70.6329012 114.3763256  29.0885615  69.4867277
 106.8994141 110.7200909  70.7434273 106.4500046 109.8928547  70.9164524
 107.4525833 110.5378342  69.9838161   0.4259011 104.9854755   8.4555572
  -0.4126473 104.7866249   8.8721198   1.0506854 104.3999481   8.8833809
   2.5849852 100.8477783  68.8189936   2.3086396 100.4542446  67.9913473
   1.9268924 101.5199089  68.9961433  92.5093842  97.0077801  74.1027403
  92.2261524  96.6402435  73.2655239  93.2099915  97.6177311  73.8717937
   9.5936245  13.3031988  18.2751787  10.4478669  13.2335341  17.8489757
   9.3071651  14.1981077  18.0926633  26.3974619  13.2461429  42.7299595
  25.4587650  13.0607975  42.7569485  26.7369270  12.6647496  42.0495367
  86.0158825  94.1753197  56.5113401  85.4657078  93.8921928  55.7810116
  86.8894577  93.8505745  56.2930679 108.0650139 107.2487545  43.5467482
 107.5532436 107.4828339  44.3210363 108.9415741 107.5882339  43.7273932
  25.1796103  10.4146147  47.8029776  25.3102112   9.7301161  47.1467495
  26.0149813  10.4633605  48.2677460  29.3313599  25.7604909  51.8765593
  29.5914531  25.2354431  51.1196518  28.3744073  25.7446551  51.8616009
 105.2945900 109.5551205  40.8290148 105.3114605 108.8285351  41.4519358
 105.0259972 109.1552639  40.0018501 101.9926643  11.9144213  55.2941275
 102.8181171  11.6775239  55.7169151 102.2517014  12.4618995  54.5529079
  43.1284618   3.1116092  29.0167379  42.3325729   2.5803599  29.0404487
  43.8363552   2.4775311  28.9024210  30.1359677  10.0195611  53.8253307
  30.3429174  10.5787861  53.0765533  30.6105304  10.4138517  54.5571518
  13.4026456  97.7320099  18.2667840  13.0639243  97.1613789  17.5769472
  13.8057089  98.4622383  17.7971661  23.4641385  17.5263405  49.8814249
  23.3486485  17.4806273  48.9323139  23.6784029  16.6300035  50.1400757
  19.2141068  16.2856150  57.1434689  18.8291812  16.7946780  56.4300823
  18.4999442  16.1747932  57.7711010   3.3676404   7.9171395  33.0051112
   2.6109067   7.6289380  33.5155272   3.7421539   7.1088886  32.6548219
   8.2803017   5.3319442  42.3913145   8.8135356   4.9693561  41.6839123
   8.9164406   5.6474215  43.0332136  66.9768143 108.5254574  55.7289886
  66.1609173 108.9904594  55.9142542  66.6964245 107.6692677  55.4056549
  34.5026231   1.7094058  28.2035851  35.1013374   1.2979650  28.8268733
  34.7648263   1.3587284  27.3524070 111.2770367   5.4616702  47.2187376
 110.4391670   5.5744499  47.6676130 111.0945511   5.6954235  46.3086319
  94.2562008  85.1747227  56.8318367  95.1762295  85.1819801  56.5677786
  94.1373634  84.3282986  57.2627354  91.8767738  93.2447243  32.0576692
  91.7840195  94.1288090  32.4126792  91.1867619  92.7400780  32.4883199
  37.1319842   5.0241685  51.5879202  36.9427562   5.4950255  50.7763052
  37.6122832   5.6548923  52.1243238  87.5029945 112.4737167  63.2174015
  86.9402409 111.7882919  63.5775995  87.2655773 112.5163364  62.2910929
 102.1621323  96.5884304  59.1333485 102.4564838  97.3717594  59.5980930
 102.2979736  96.7935371  58.2082987  12.7491975  13.9180911  59.2383862
  12.0135808  14.3549860  58.8091707  12.9807162  14.4968176  59.9648190
 119.3541622 102.4500751  28.0788636 119.5026875 101.5226746  28.2635164
 118.4363174 102.4970150  27.8112936  86.7068481 106.8659306  41.4676237
  86.1108971 107.1505070  42.1605158  86.8781757 105.9445763  41.6625118
   0.7106172  22.1764970  66.6023111   1.3162911  22.0340204  65.8749247
   1.2688503  22.1895266  67.3797655  95.0349903  98.4998417  50.7809019
  94.2670918  98.6625576  50.2330971  95.1105785  97.5460720  50.8101511
 105.7217693  24.7320461  41.8697834 104.8901749  25.1908708  41.7508030
 106.3211155  25.4032707  42.1960974  90.8388805  96.6665649  44.1686583
  91.1565304  96.8329716  43.2811689  90.0107670  96.2030602  44.0436792
 109.4756699  98.3055210  25.2771831 109.0970993  98.9929008  24.7290683
 109.4291496  98.6557484  26.1667943  83.4287071 110.4716396  55.5531216
  83.5758305 109.8419476  56.2588644  83.8031197 110.0539303  54.7775173
  87.3723602 109.6241188  33.5387087  87.3746300 108.7155437  33.8399005
  86.6097641 110.0157166  33.9645481   5.7191581  34.3890142  50.5782890
   6.2644607  33.7184930  50.9897232   5.6555384  34.1173530  49.6626568
 118.0016232  16.8332601  58.8710308 117.3540497  17.1840644  58.2596207
 117.6213360  16.9855225  59.7361469  21.7103171   0.2897541  74.0703344
  21.8223834   0.4238951  73.1292248  22.1851540  -0.5205967  74.2549801
  10.9995949  11.5823293  34.2381716  11.6847718  12.2357035  34.3791151
  10.1819754  12.0770180  34.2930627   8.4303707  24.2653203  77.8383636
   7.5938398  24.1511774  78.2893848   9.0253502  24.5879340  78.5152340
  19.7999465   8.2282394  46.9902754  19.5461166   7.3053706  47.0009995
  20.5343294   8.2675534  46.3776016  88.1928921 111.0250759  81.4517307
  88.1474018 111.5664291  82.2398281  89.0810204 111.1583424  81.1205387
  12.0037282  94.7206688  37.8028512  12.0448577  93.7687016  37.7117801
  11.1969054  94.9697685  37.3520517  93.6894703  99.3174839  46.4511156
  94.3801498  99.9789143  46.4924288  94.1363525  98.5223675  46.1607409
  58.9336729  99.1844749  36.1043906  58.1322718  98.9389324  36.5666652
  58.6406994  99.4141197  35.2225375  95.3961658  88.0667782  57.4305868
  96.0571098  88.2752037  58.0908489  94.8285294  87.4232388  57.8547096
  97.3249245 106.5061283  46.1672640  97.5450611 105.6110382  45.9092236
  96.3679314 106.5253830  46.1725140 107.7446175 110.1192093  54.2701197
 108.3000374 110.5191135  53.6009264 106.9847393 110.6984043  54.3281507
   3.3797485  19.6701014  47.5196934   2.8941008  20.4943585  47.5509787
   3.8791960  19.6552396  48.3361244  14.8698986   4.1541108  59.0827370
  14.4325960   4.8297423  58.5645437  15.1403761   3.4975505  58.4408617
 112.7652931 104.0778065  36.4545012 112.5252342 103.6146259  35.6519628
 113.6239338 103.7245083  36.6872334  19.6807814   4.7206748  49.9442959
  19.5575261   5.3633118  50.6429100  19.5147955   3.8763309  50.3635406
  15.5591297   2.5743318  39.5052457  15.8260679   2.6358441  38.5880804
  15.8034551   3.4192264  39.8829889 118.7252903  24.8751712  36.6885185
 119.3816566  25.5212831  36.4278436 118.0847359  25.3751659  37.1944165
  12.5260603  34.2267752  71.0529518  11.8293202  33.5963297  71.2354994
  13.0963707  33.7791729  70.4279470  30.4053092   3.2768172  46.4855337
  30.9571862   2.6350489  46.0385466  30.1536298   3.8953021  45.7996988
  70.1949596 108.6890984  34.0777683  69.7074604 109.0814590  33.3534527
  71.0921144 109.0011024  33.9594746  85.6094074 105.5252838  68.7271786
  85.7122612 105.3016949  69.6521997  85.0221634 104.8527718  68.3820724
  81.3804531 107.7589607  37.5211000  82.0012188 107.0325947  37.5783920
  80.5201721 107.3392582  37.5195074 103.6884212  14.5551276  57.4897385
 104.2081356  14.6500909  58.2879257 103.5996151  13.6092484  57.3728657
  11.6211259  16.3207948  50.8356237  11.7788088  15.7769978  51.6074085
  11.2421846  15.7208085  50.1932430  90.2448368 104.6728706  46.5425491
  90.8397007 104.9132824  47.2528839  89.8999119 103.8173580  46.7981958
  88.1523228 106.5393162  55.6001902  87.9693222 105.7446861  55.0988865
  88.3360863 107.2041702  54.9365425  78.8646746 110.7879066  21.5628934
  78.7810802 111.4807701  22.2180176  78.5401011 110.0020790  22.0026207
   6.5273082  22.7989507  61.5475273   6.3503033  21.9137073  61.8657112
   7.4745858  22.8196788  61.4116287  93.4251881  89.6764183  42.8281164
  93.9685822  88.9152527  43.0320644  94.0515804  90.3840828  42.6762152
 111.1749840   3.4030330  16.3253379 111.8908978   4.0358710  16.2686384
 111.4210224   2.8272933  17.0493686  99.6572781 108.4600735  40.7430553
  98.8825417 108.7819004  41.2039566  99.3549824 107.6757240  40.2851772
  34.8203325  16.5590918  56.9607830  33.9101434  16.3181114  57.1331739
  34.7814894  17.0863271  56.1628199 116.9635487  27.6123762  52.7129078
 116.5750504  26.7596412  52.9082203 117.0482254  27.6242900  51.7595339
  25.7139754  27.9009223  52.5693798  26.2335181  27.5921583  51.8271065
  24.8258853  27.9840159  52.2220755  39.0443063  13.4164703  45.8440256
  39.7629786  13.5349667  45.2229786  38.4299302  14.1205549  45.6365681
  13.3928347   8.8549644  45.6576920  13.4552538   8.0190355  45.1955652
  13.1231689   9.4807291  44.9854326  95.9350109 111.4418316  76.1994410
  95.3193283 111.2162399  75.5021095  96.6961956 111.7977333  75.7410097
  18.0221009   2.8300756  22.7349854  17.6055980   2.1258533  22.2381687
  18.9575315   2.7248281  22.5614190  92.5605679 110.7775307  30.9368658
  93.1850433 110.1967335  31.3715315  93.1052971 111.3711262  30.4199958
  98.9939785  86.0742378  66.2124062  99.7990036  85.7380199  65.8185339
  98.9251423  85.6124115  67.0479918 114.7241211  99.8678875  53.0448484
 113.8664532  99.4441128  53.0124569 115.3397655  99.1828251  52.7842712
 103.5871315 106.6985226  45.6754589 103.3568573 105.7702160  45.7136536
 103.8479519 106.8433666  44.7659397 115.3651237 111.0251808  28.9948344
 116.2462330 110.9804821  29.3661523 114.8108292 111.2989044  29.7256351
 109.5560074  17.6022995  30.8394027 110.1275253  17.6408839  31.6062832
 108.6736393  17.7169573  31.1922717  32.4344254  12.2834885  35.9930634
  31.8560815  12.7193427  35.3671384  33.2960796  12.3028111  35.5766392
 105.2809906   5.4703760  33.5921717 105.7629776   5.9423059  34.2712903
 105.9607697   5.0649947  33.0538368  29.6044922  75.5366898  31.2701035
  30.0007033  75.4692841  32.1388435  28.7911940  76.0203028  31.4146495
 113.2482433 106.6336250  44.6366501 113.6616135 106.0542583  43.9965820
 113.6984825 106.4417648  45.4592752 108.2963276 102.4881458  40.9337473
 109.1935635 102.8178406  40.9837580 107.8326416 103.1352615  40.4022694
 104.4863224 103.7763023  54.9627256 104.9278927 102.9577065  54.7365618
 104.2307377 104.1513443  54.1199589  19.5041966   6.9192332  17.2499025
  19.0727925   6.7149717  18.0796015  20.3706479   6.5195459  17.3256993
   3.5439730  80.6334686  43.7934208   4.0889680  80.7526398  43.0155993
   4.0569839  81.0146046  44.5060158 117.3461246  88.1201267  24.2836785
 116.6139793  88.2234859  23.6758089 116.9636726  88.2737255  25.1476026
  49.3643951   2.9077825  45.9613132  49.8557520   2.3445305  46.5592670
  49.6891880   2.6748154  45.0915623  99.1343784  91.4755726  24.1247177
  98.3636665  92.0428085  24.1026568  99.1199207  91.0190487  23.2835245
 113.2383060  86.0253906  31.8398118 112.3203754  86.2541389  31.6938567
 113.5625172  86.7028046  32.4332929  87.0853519 111.4470196  37.3476791
  87.1247101 111.0364056  38.2114363  86.8793392 112.3642921  37.5276995
 115.1799965 106.6838074  31.8500113 115.0060654 107.6033974  32.0508480
 115.9628677 106.7027855  31.2995672 109.3343639 106.7247486  47.7395868
 108.4767246 106.3640976  47.9645729 109.6822453 106.1227417  47.0817137
 116.7586517 108.8832569  32.9400182 116.4502907 108.6616611  33.8186765
 117.6970196 108.6954975  32.9610586  93.4372616  95.9069633  51.2472248
  92.8645706  95.9492397  50.4814100  93.1018925  95.1692486  51.7566633
 117.7017689   1.1124046  63.3118820 118.1218719   1.9458306  63.0994177
 117.0293236   1.3399702  63.9539623  20.7830811  42.9520416  33.1611967
  20.1901960  43.5947800  32.7718306  20.5179667  42.1170998  32.7754283
   6.1641937   9.3072563  66.9057751   5.2673930   9.6396703  66.8672895
   6.1589283   8.6878622  67.6355410  44.8137331  10.9899628  49.9074221
  44.1827202  10.7625473  50.5903101  44.7815561  11.9454539  49.8601675
  91.1553478 111.3869762  24.2756200  91.2112236 110.4839420  24.5880842
  91.2352943 111.3166523  23.3243608  73.2371712 105.6683159  31.7595458
  74.0727568 105.5795956  32.2179699  73.1118679 104.8248863  31.3246107
  87.7922058 106.1984253  46.0981274  87.9314613 107.0279121  45.6412029
  88.6734867 105.8546638  46.2444162   8.4361291   4.1073588  35.3978968
   8.2246792   4.9626979  35.0238442   7.6476741   3.8544041  35.8780885
  28.0367708  22.3450327  29.9232411  27.5599861  23.1242275  30.2091885
  28.4827209  22.0345020  30.7112360  47.3841095  15.0610948  14.1663885
  47.2408915  15.9764457  14.4069171  47.6724672  15.0954211  13.2543015
 117.3357582 108.1623840   9.4845241 117.8260231 107.4505997   9.0731412
 116.7137814 108.4438515   8.8135862  27.0433664   5.8212209  36.5130806
  26.3176966   5.8119655  35.8889413  26.8698549   6.5794867  37.0708966
   3.7297642 110.0101948   2.6407889   3.2210311 109.2013645   2.6975435
   4.1264978 110.1048660   3.5067397  21.3917804  10.1403558  41.3542271
  20.8864427  10.0176919  40.5505991  21.1117458   9.4246674  41.9248438
  41.2644815  69.0471268  96.5186214  41.5167809  68.7621880  97.3969078
  40.3402281  68.8090372  96.4458466  36.7451382  10.2599418  76.5016031
  36.7269754   9.3029422  76.4943695  37.6761222  10.4819465  76.4870167
  55.2361155   5.7393402  34.7111869  54.7324181   6.5524280  34.6736383
  54.7977018   5.1571298  34.0906596  92.9085732  90.0900364  29.0699267
  93.0329609  91.0278511  29.2157269  93.2932472  89.9284840  28.2084417
  25.3041244   7.7582109   6.7163646  25.6695938   7.9397470   7.5822216
  25.2813244   6.8028557   6.6615105   4.4163868 112.1145439  55.0770664
   5.3010541 111.7903328  55.2458286   4.5487347 112.9682732  54.6649265
 104.2786217 111.5995312  61.5521812 104.9468136 111.7753887  60.8897400
 104.1342735 112.4450111  61.9771099  28.7091970  12.0022058  37.0872498
  29.0418649  12.8595257  37.3528934  29.3528938  11.3800359  37.4260616
  41.6738319   7.8434384  65.5316019  40.8547974   8.1824833  65.8928061
  42.3467445   8.1399959  66.1443567 114.1965961   5.1106668  26.4961576
 113.2971954   5.3234243  26.2470651 114.1136456   4.3400601  27.0578671
  97.0700836 108.5581207  12.7397418  97.8301144 107.9784489  12.6891327
  96.3171673 107.9746914  12.6451147  29.9644399  13.7497401  20.1719999
  29.3028450  14.4399095  20.2188039  29.5713949  13.0094385  20.6342769
  15.0718820   8.5119373  28.5268354  14.3662119   7.9016680  28.7409210
  15.6944835   8.4207159  29.2481375 112.7202988  99.3733883  58.1401014
 113.5682297  99.0589905  58.4537745 112.9089069 100.2308655  57.7588034
  13.7339914  22.1225476  36.1032176  14.0916860  22.6231980  36.8364525
  13.2467866  21.4091015  36.5153575  89.0554905 111.3835621  52.8157949
  89.7756290 110.7553959  52.8709030  89.4787693 112.2395611  52.8816080
  24.2410922  15.4773867  31.4549398  23.5415435  15.0071609  31.0013437
  24.7629476  15.8658767  30.7528162  34.1581273  31.0726929  50.9631968
  35.0008535  30.6651282  51.1630392  33.8929772  31.4890742  51.7832899
 104.8414898   8.8202786  22.6965857 105.1055336   8.2387573  23.4095716
 105.5438805   9.4684058  22.6435423 116.3134003 105.8061600  10.5863225
 116.5461731 106.7338181  10.6250489 115.3796005 105.7846069  10.7955372
  22.1745777  16.3759887  42.2260714  22.4743748  17.0744920  41.6443062
  22.3886991  16.6881168  43.1052542  51.4994574  22.0643282  19.5095289
  50.5906773  22.1852231  19.7847188  51.9241858  21.6504264  20.2608776
 114.3096256  76.9638681  38.5701513 113.9637947  76.9440699  37.6778269
 114.3674564  76.0430622  38.8250971  83.1339550 105.6401157  39.2499232
  83.6189365 105.6385994  40.0751638  83.3243942 104.7875500  38.8586354
  21.6163850  95.3469944  65.4831457  21.6159868  94.6146774  64.8667526
  20.7137704  95.6655598  65.4771948  94.5434475  96.1784172  30.9220624
  93.8642311  96.7617607  30.5835319  94.4451237  95.3746891  30.4115844
  50.8290720  15.4524899  38.4398365  51.1881733  15.7493746  39.2759800
  51.3700247  14.6999419  38.2005239  34.5113873   9.1418415  37.8193021
  34.3691206   8.3455902  37.3074675  33.8958883   9.0707362  38.5489178
  14.0645862  16.7047131   8.4717238  13.6197519  17.5495744   8.5392725
  14.4950116  16.7283106   7.6170838  31.8621230   2.8031906  27.5480604
  32.3015213   3.1189865  26.7584848  32.5326037   2.3002669  28.0103970
  22.1399570  32.6112103  18.5622692  21.2961411  32.5234318  18.1189871
  22.5256991  33.4034109  18.1883025  42.1527147   2.3675571  51.6153574
  42.9438925   2.8783971  51.4441538  41.7763948   2.2113293  50.7492113
  95.1452351 107.0651817  21.4651608  94.6866035 106.2544632  21.2446332
  95.6671238 106.8429947  22.2361970  40.6158972  19.1358387  38.3552599
  41.3418055  18.8901401  37.7817416  41.0122108  19.7099543  39.0106678
  13.0829227 107.6934242  13.9299750  12.8311181 108.1059933  13.1037700
  14.0400374 107.6982212  13.9181542  41.6018152  35.5153465  19.5285225
  41.9002104  36.3991690  19.7431123  41.9492579  34.9677181  20.2325225
  23.8039589   4.3963075  43.0165148  23.9404845   4.3164304  43.9605570
  24.6865416   4.3960428  42.6460028 119.1202831 102.3506165  40.7190800
 118.4545422 102.5043774  40.0487232 118.8302040 101.5559196  41.1668921
  27.4005818  29.6402121  14.8630655  27.3222971  29.3119478  15.7588017
  26.9360280  30.4770613  14.8732018  61.7468309   1.8707731  32.1348953
  61.1393499   1.6396862  32.8376031  61.2159967   1.8382221  31.3390374
  40.1670837   0.3420583  38.3501029  39.9614501   1.2723234  38.4425879
  41.0963583   0.3237728  38.1213045  34.3883014  10.1482987  28.2477021
  34.9649906   9.7034299  27.6266098  34.4612336   9.6349037  29.0522742
  -0.0901365  95.5446053  28.8246346   0.7671937  95.9469128  28.9637971
   0.0921618  94.7705460  28.2918859  26.6973591  22.7181673  58.3246088
  27.5368690  22.3983073  57.9942274  26.0422111  22.2167945  57.8391790
  36.3398910  11.7780828  49.3726301  35.4029012  11.9679070  49.3251944
  36.4057755  11.0499477  49.9904585  70.9553003  16.4338696  38.2028890
  71.0794973  15.4920626  38.3203864  70.8275414  16.5428829  37.2605371
  15.5083156  98.4262657  37.4881101  14.6384335  98.2347965  37.1375704
  16.1090219  97.9624653  36.9047737 109.9968910 110.3476238  38.5125017
 109.4353104 109.6803570  38.1180334 109.6290016 110.4847622  39.3854737
  64.5636797   1.4160956  57.6014614  64.1650105   2.2429517  57.3301554
  64.3976879   1.3677007  58.5429144 101.6337013 111.2326241  50.4607677
 101.2159157 110.8813572  51.2470865 101.0520935 110.9755230  49.7453260
  25.1140118   6.7583007  38.9927006  24.5704699   6.1157739  38.5366821
  24.6033239   6.9983882  39.7658682  15.5891812  82.7767849  49.3738031
  16.2039483  83.4556675  49.6520424  16.0736680  82.2662258  48.7250853
   4.3733940  91.8449593  45.0622177   4.4312659  92.7788925  44.8606110
   4.5850319  91.4082623  44.2371464  47.5917435  18.1878829  36.1374187
  48.4529591  17.7701294  36.1421752  47.7418375  19.0505087  36.5241742
 115.9111881  93.3801174  48.7527227 115.3697872  92.6174450  48.5491514
 115.4154873  93.8544464  49.4201946  47.7626848  11.3199520  65.2775097
  48.5410595  10.7865858  65.1166105  47.8948832  12.1036410  64.7440386
 114.4720650 104.5159340   3.8237339 114.1933727 105.3020668   4.2933643
 115.1548100 104.8227596   3.2271168 111.3987827  94.6008587  53.8343906
 111.0463142  93.7135983  53.9034891 110.7685375  95.0668240  53.2849407
  29.6644926  10.4125845  34.1256213  29.8705387  11.2323725  34.5747614
  28.9760637  10.0142002  34.6581483 106.0422611 107.8667164  81.9909859
 105.2661800 108.2697964  81.6018105 106.6523933 108.5935497  82.1161842
  34.1794825   7.8545749  59.7967768  33.3383632   8.2516247  60.0228357
  34.0803552   6.9324136  60.0334692  86.8220711  96.9665337  46.8142748
  86.4041615  97.2758102  47.6179743  86.1029816  96.6113567  46.2917852
  90.7965374 100.1887417  34.4810534  89.8482418 100.1220608  34.5929885
  91.1353874 100.2992439  35.3694224 104.7036266  85.1040649  13.8910317
 105.1333332  84.7496891  13.1125689 103.8855839  84.6115875  13.9581633
 105.8798027  94.9190903  33.9828944 106.0303593  93.9782524  33.8913965
 106.5669250  95.2146435  34.5801759   8.9043128   8.7716484  19.0437245
   9.8085576   8.4912276  18.9025295   8.4333575   7.9650843  19.2532194
  44.5007706   2.3239866  35.7223296  44.7137642   1.4319676  35.4481626
  43.6380720   2.4915959  35.3429985  32.8375077  20.8783293  29.5314312
  33.4269857  20.1301312  29.6260190  33.3842897  21.6399288  29.7243738
  32.0800042   7.8781050  45.3042650  31.6006136   8.6995316  45.1962185
  31.9079590   7.6176178  46.2091303   2.2036192 102.4467945  38.7767887
   1.4254005 102.5209618  39.3291545   2.8556883 103.0006599  39.2060614
  35.7558203   1.6200951  22.8712749  36.5851307   2.0286125  22.6231003
  35.8132720   0.7304852  22.5226688  47.5978136   6.3426954  40.3178167
  46.6970396   6.0307574  40.2310419  47.5282001   7.1274352  40.8614779
  22.0499110   8.9454383  45.0928068  22.4959326   8.1951767  44.6998644
  22.4420500   9.7074479  44.6664238  33.8875341  23.1811023  24.7826385
  32.9988718  23.3980441  25.0645041  33.9509487  23.5361052  23.8959694
  58.6702967  33.1766605  49.8407984  59.2137527  32.8682566  50.5658960
  58.2468462  32.3862743  49.5058203  31.5813684  46.4789343  20.8763480
  32.2596478  45.9438753  20.4641747  31.8345284  47.3806286  20.6786513
  50.2468443  25.7180858  46.3549137  49.9466848  25.4691029  47.2290707
  50.5138350  24.8931718  45.9493685  35.5250192  26.0570312  29.6708202
  35.0699353  25.8276606  30.4810786  34.8509741  26.0012054  28.9934897
  29.5169449  27.0190835  39.3325424  30.3800321  26.7633557  39.6579909
  29.5015550  26.7106295  38.4265351  44.9591398  10.9510958  34.0016317
  44.3795586  10.2610040  33.6790037  45.4337120  11.2477767  33.2251072
  59.7225666  29.1165543  26.1857486  60.1529837  29.1787195  27.0384550
  60.3981638  29.3712282  25.5573034  66.7990923  17.2569239  41.6453218
  66.8032980  16.3048041  41.7437124  66.6498899  17.4004769  40.7107830
  46.0312748  13.6531997  18.4612489  46.5930128  13.3272576  17.7580822
  46.0829115  14.6061051  18.3868384  56.4114237  24.9574566  45.3968239
  56.9612026  25.6815124  45.6963587  55.8180428  25.3550076  44.7595787
 101.2211037  57.4661779  96.3572311 101.9324017  57.4695921  95.7167053
 101.2884426  58.3150148  96.7944622  39.2332935  17.6393473  48.8046741
  38.5773993  16.9626451  48.9723301  39.2465711  17.7291894  47.8517914
  30.2057743  24.0198588  49.8360729  29.5685363  23.6803246  49.2076826
  30.8424997  23.3123803  49.9374914  24.8959637  15.1720452  38.3626580
  24.8629570  15.6676674  39.1808891  24.2429614  14.4811833  38.4745979
   7.8779221  12.8769553  73.0897760   8.3733976  13.5675764  72.6495790
   8.1280684  12.9524732  74.0106249  46.0394955  31.1513972  39.2506146
  45.1480961  30.8124399  39.1684628  46.0213470  31.6825438  40.0467205
  94.3967533 108.3285809  35.5213857  93.9892197 107.7825069  36.1936569
  95.3211212 108.3618069  35.7677078 105.5628014 111.8288898  48.6569977
 106.4096832 112.1715164  48.9426947 104.9743843 112.0012474  49.3920469
  32.5380349  25.1983309  49.1714907  31.6396570  24.9532628  49.3930578
  33.0640984  24.4431281  49.4344664  14.8599720  32.1386123  32.1920657
  15.4696488  31.6817284  31.6125989  15.3697610  32.3189378  32.9818964
   4.7607052  22.5066423  49.5915604   4.6500897  23.0515671  50.3706980
   5.6555617  22.6829243  49.3010664   4.1201246 100.2754784  55.6055403
   4.5957443  99.6397305  55.0709057   3.2200885 100.2346039  55.2822828
  57.7461338  31.9220018  13.8442028  57.3566818  32.7033520  14.2366958
  57.4496031  31.2014818  14.4002175  28.4574437  27.2743464  16.8260264
  28.5586762  27.3045182  15.8746731  27.9692698  26.4673758  16.9894719
  22.9841995  27.1267533  33.7518406  22.9598331  28.0780315  33.8553119
  23.7720203  26.9622946  33.2336450  20.9328651 109.1656590  34.2267227
  21.3321376 109.9962234  34.4855237  21.6752338 108.5889244  34.0464425
  38.5200381  27.0731735  44.2854929  39.1767669  26.4629650  44.6210289
  38.1771874  26.6477323  43.4995651  56.1660004  19.3083847  44.5567894
  55.5646753  19.6151769  43.8781738  56.9480467  19.8491049  44.4460964
 117.1346951 109.2850590  61.1846018 117.7761555 109.5669270  61.8367577
 117.5232410 108.5054016  60.7878637  53.5349560  21.7510128  44.5082903
  53.6095762  20.9373665  44.0096474  52.7629805  22.1847606  44.1447735
  54.7691965  22.2245812  35.4201746  53.8777637  21.9127274  35.2642035
  54.9816895  21.9124198  36.2997389  31.7784071  17.7755427  38.2735729
  32.6853180  17.9558456  38.5210299  31.3162875  17.6847255  39.1068983
  26.1184597  21.3603830  51.5686083  26.7294598  21.0034800  50.9239912
  25.4133391  20.7146096  51.6134548  31.9288921  19.8881435  32.3417783
  32.4333835  19.5837235  33.0961299  32.3790860  19.5124781  31.5851831
  44.4246578  16.8428183  16.5047407  45.1675987  17.4357009  16.6176999
  43.6708879  17.4220383  16.3926327  30.2912235  36.6793418  38.3073020
  29.4299245  36.2725687  38.2128048  30.8329511  36.2496734  37.6453733
  43.0951834  21.4326525  23.6576104  42.8409290  22.2215295  24.1364193
  42.5492907  20.7401156  24.0299320  43.7803459  29.7452140  38.8600898
  42.8979206  30.1073074  38.9403558  43.7923670  29.0064526  39.4686270
  49.0641832  52.0249605  19.4460058  49.6154070  52.7615690  19.1818213
  48.6605024  51.7238617  18.6319947  31.5599155  31.8278670  29.7809935
  31.3996315  32.7683783  29.8583078  31.8974638  31.5710902  30.6391072
  25.0788879 106.6824818  55.1817846  25.8527136 106.4974117  55.7139254
  24.9092245 105.8651257  54.7134066  55.1474142   0.1201760  44.1446495
  54.9456739  -0.1477014  43.2481146  54.2923212   0.2181379  44.5635176
  44.6593952   1.9384283  53.3862543  44.5611048   2.7919519  53.8082361
  44.3238068   2.0696054  52.4994612  32.2377801   9.4234455  24.5816207
  32.0243979   9.9046034  23.7821293  32.8913069   9.9673462  25.0212908
  19.9357283  25.7202220  45.5589437  20.5947804  25.4658985  44.9130344
  20.4259944  25.8194852  46.3750458   8.6300051 111.8630505  31.2791038
   7.7669984 112.1083164  31.6127133   9.1495895 111.6890049  32.0639443
  34.4580698  18.0285358  54.9095726  35.0307846  18.4758151  54.2865372
  33.5723472  18.2250488  54.6044350  49.3733740  34.0159154  46.2870312
  48.9668512  33.2199860  45.9442949  50.3135538  33.8671923  46.1861706
  40.5508804  33.7236238  11.0080290  40.7167768  33.5887289  11.9410431
  40.2569580  32.8695774  10.6910932  49.4240618   8.7962610  38.7314463
  49.1895533   9.6996737  38.9437747  49.3961191   8.7599480  37.7753425
  33.5264659  28.2125950  36.1173749  33.4826303  28.2637739  37.0722008
  34.1610909  28.8852453  35.8703494  19.9568212 107.2906971  49.7335529
  19.5798051 106.6510201  50.3376198  19.2604303 107.4604607  49.0991592
 113.1429482 111.8581104  35.5701470 113.2592773 112.4740028  34.8466992
 113.1424618 112.4070549  36.3542986  55.0876665  25.3887844  49.4449997
  55.4191160  26.2654424  49.2504644  55.7810354  24.9800897  49.9631166
 109.0984535  95.3994942  14.3316281 109.5512199  95.4525280  15.1733077
 108.3059597  94.8957920  14.5172882  13.3538568  15.4646814  46.9568014
  14.0140116  14.9853992  46.4560890  13.6765170  15.4461718  47.8577900
   6.5234894 111.2769222  57.5144196   6.7751825 111.2461281  56.5914202
   7.1107036 111.9263554  57.9012680  29.9086094   5.5879492  44.6674347
  30.0161266   5.8930755  43.7665653  30.1725364   6.3338983  45.2060795
  31.5876269  34.6178985  29.6932602  30.9774303  34.9013472  30.3741050
  32.2685194  35.2906322  29.6866965  39.6697426  25.2097988  27.7279544
  39.3398547  26.0620451  27.4432063  40.4757595  25.0853658  27.2268724
  36.2718630  24.3299365  38.5155773  36.9908428  23.9782572  39.0405726
  36.4435482  25.2706933  38.4739518  18.3607137  25.6861734  57.5332308
  18.6609674  24.8291183  57.8357840  17.4065149  25.6407952  57.5938797
  38.1678033   9.6315777  27.7638030  37.5763154   9.6251267  27.0112514
  38.8319135   8.9755529  27.5520968   5.4883432 106.4886284  45.0860643
   5.3134483 105.8945942  45.8159733   4.7888082 107.1401882  45.1346159
  54.0979147   2.3714842  29.5770502  54.9088049   2.8640634  29.4503403
  53.4025812   3.0077225  29.4098902  42.1902847  21.0847116   1.9019310
  41.9791222  20.1601362   1.7723162  42.6196909  21.1147499   2.7568829
  25.3939772  35.5820370  37.1566677  25.9704113  35.5125308  36.3956642
  25.0830865  34.6888041  37.3040223  41.0740995   9.4825882  41.7183161
  41.7325354   9.6554291  42.3912382  40.3502989  10.0703359  41.9348764
  23.6480522  89.1065311  41.6179705  23.0309081  89.5550919  41.0399103
  24.2899728  89.7776031  41.8499899  13.6038673  11.2207651  18.1148565
  14.2885196  11.0155070  17.4781835  13.9892471  10.9961736  18.9617765
  54.6533012  17.7306628  38.5464883  55.0959206  17.9712951  39.3603778
  54.7833061  18.4845734  37.9712057  41.2172604  17.4289167  27.5098443
  40.7924604  17.8309453  28.2675695  41.5779066  18.1666756  27.0180321
  41.1194229  13.5303760  49.7539139  41.7570066  13.1521034  49.1484213
  40.2885199  13.1202710  49.5138168  32.2151995   8.3165723  14.3561041
  31.5451097   8.2095981  15.0312090  32.5523114   7.4325234  14.2110372
 110.3229618 110.0564957  22.5654674 110.6260872 110.2557850  23.4512615
 110.9440899 110.5065155  21.9928408  31.4945269  16.9786119  13.1418848
  30.8421540  16.3536286  13.4581721  31.0957336  17.3678529  12.3636258
  70.8110428  56.2868166  95.2025032  71.5123749  56.7976856  94.7983074
  70.0049162  56.7000866  94.8933029  26.2414908  11.4561427  35.6489754
  26.5224862  10.9061778  34.9176645  27.0485163  11.8585503  35.9699321
  49.0670681  56.6424608  44.2628860  48.4470224  57.3419762  44.0568399
  48.5196590  55.8684492  44.3951225  42.0270300  15.0411916  28.6123109
  41.8909597  15.8632529  28.1412148  41.4492130  15.1025665  29.3729615
  71.5592146  23.5002661  40.6692553  71.6363573  22.6007175  40.9872007
  72.3379040  23.9417529  41.0083199  28.6357760 112.3624992  55.2613783
  28.5821199 112.5174522  56.2044287  27.9373407 111.7330265  55.0819635
  52.3074627  27.6157713  45.6393766  51.4677429  27.2153068  45.8646059
  52.2466993  28.5078406  45.9810591  23.9720798  39.6478200  32.1672463
  23.7986898  38.8421369  32.6541162  23.1141829  39.9202228  31.8416071
  35.3275585  14.9323487  19.7500455  34.5590377  14.5198798  20.1443505
  35.0723290  15.0957489  18.8420868  19.3562210  21.2004709  35.6483650
  20.2382088  21.5707874  35.6829715  18.8876355  21.7556572  35.0251222
  48.0326843  24.7603464  32.7048373  48.7976837  25.1775122  33.1010509
  47.6312637  24.2672992  33.4203792  20.3158903   2.3432131  65.3998375
  19.7825933   3.0466402  65.0296831  20.1987171   2.4264467  66.3461876
  68.9889145  33.7139106  42.9578114  68.5375690  34.0611172  43.7272024
  68.8557100  34.3783951  42.2818327  50.9171677   9.1134501  56.7226362
  50.2432203   8.6329103  57.2033787  50.4525948   9.8561174  56.3368273
  49.7081518  24.8052740  48.9513969  50.3714275  24.1278934  49.0835047
  48.8744164  24.3511581  49.0734720  33.5805249  24.4284701  41.1576319
  33.4099388  23.6689186  41.7146015  33.7708044  25.1377678  41.7715740
  48.4719324  17.7095175  40.8818054  48.9637041  16.8956816  40.7719612
  47.9523039  17.7852476  40.0815058  74.1091061  26.8989921  33.3505797
  73.6575937  27.5914788  33.8331079  74.9659586  27.2715235  33.1426048
  48.9974785  23.1522107  43.5917091  48.9720345  23.3907008  44.5183754
  48.1199980  22.8177166  43.4063005  29.1607499  20.3927326  47.0600080
  28.2380104  20.3379321  46.8114519  29.2194986  21.1884093  47.5888538
 113.8418484  85.0314522  95.9868145 113.0280018  85.3946209  96.3360882
 114.4371891  85.7795143  95.9397888  26.9920707   9.6179694  30.4600286
  27.0346236   9.9611002  31.3525987  27.7099299  10.0543106  30.0012064
  59.4457817   1.6765711  49.2811346  59.4619942   0.7205808  49.2358398
  60.2276039   1.9523154  48.8026381  33.4394145  24.4246888  19.9752605
  32.8618836  25.1501489  20.2127457  33.5404801  24.4997501  19.0263748
  20.1192904   8.3397841  12.9653203  19.6237600   8.6074996  13.7392783
  21.0020685   8.1687516  13.2934666  41.7443132  29.4270897  31.5862513
  41.3464069  28.8806987  32.2640109  42.6128817  29.0478301  31.4521670
  38.8373852  13.1358290  30.1692653  39.2398763  13.9989364  30.2655888
  39.5680237  12.5215495  30.2403975  30.7359886   6.5403801  16.1824763
  30.5899501   5.8322728  16.8097627  30.0316501   6.4418781  15.5418253
  32.5586104  26.9583464  33.9371395  32.9082346  27.7133489  33.4638858
  32.8508592  27.0851493  34.8397708  33.2017255  20.6647635  49.2735291
  33.2896328  19.9219596  49.8708105  33.1755161  20.2695990  48.4021044
 107.1181774 110.8101559  32.3100495 106.9093990 110.6937027  31.3831854
 108.0115223 111.1539173  32.3129797  25.1765776  15.5732524  48.3781052
  24.7297478  14.9409401  48.9409161  24.4689584  16.0426009  47.9362679
  24.2911601  39.2133474  14.9182713  25.1903009  39.4413614  15.1544631
  23.7873626  39.3665099  15.7176220  14.3505657  21.8287206  20.3200555
  14.2495477  20.9110403  20.5728173  15.1279092  21.8391633  19.7616112
  43.5322428  12.7320182  42.6268673  44.3077707  12.6477432  43.1815672
  43.8187075  12.4255288  41.7665005  69.5777464  38.4613180   8.4837735
  70.5031633  38.5765982   8.2680315  69.4220066  39.0716410   9.2045236
  15.7256103  44.4820452  44.3869066  16.6020060  44.5162010  44.7703075
  15.8705306  44.2043447  43.4824085  44.8246050  28.9638543  17.7852058
  45.3491211  29.3450499  18.4893382  45.4598570  28.7513518  17.1014452
 116.5438938  87.8284740  36.2201047 116.6687393  87.0861340  35.6288528
 116.6907215  88.5989761  35.6714678  22.3464489  15.7816064  14.6893215
  22.4746609  15.2184296  13.9260221  21.7771626  16.4842689  14.3756175
  51.7636299  31.7262340  33.2921505  51.2047243  32.3249531  33.7875199
  51.7907000  32.0980287  32.4105215  56.2120533   9.8548287  11.1790144
  57.0971298  10.2114296  11.2545395  55.8233929   9.9936587  12.0426691
  60.7527447  11.8288708  43.4976864  60.0472307  11.5790176  42.9009867
  61.5426016  11.8063009  42.9574585  14.3909788  21.5765047  38.7632847
  13.7303317  21.1083770  39.2738080  15.0980604  20.9418368  38.6472583
  27.6569343  15.7291305  43.0937147  26.7882013  16.1113322  43.2180309
  27.4868274  14.8107195  42.8843927  79.4852924 111.2436771  43.5320663
  78.9199638 110.5385303  43.2167625  79.8847437 111.6028118  42.7398014
  31.8262625   2.3501110  40.0228405  32.2413254   3.1372583  39.6702027
  32.1635127   1.6377088  39.4797230  12.3517668   5.3768808  22.3693681
  13.2123685   5.4408425  21.9552374  12.5264037   5.4912031  23.3035326
  46.9823790  12.2122169  44.7981644  47.4737215  12.9507637  44.4384956
  47.4831486  11.4402413  44.5345020  35.9590769   9.1343486  23.3002424
  35.9636998   9.8601967  23.9242244  35.1674366   9.2709571  22.7797842
  32.2480130  32.8728318  39.8239493  32.2191381  33.8131666  40.0004911
  32.7054930  32.5014520  40.5782843   0.5836101 109.6703911  16.6844702
   1.2236585 109.7143364  17.3948503   0.4854164 110.5771923  16.3941193
  67.6886368  11.7578149  10.9926450  67.1174717  12.0374262  11.7080605
  67.1246052  11.2285769  10.4287267  40.9575844  23.0587316  31.8680763
  40.8006811  23.9399910  31.5289664  40.2388144  22.5346136  31.5146565
   0.7655125   1.6441847  16.7714369   1.4087033   1.8906710  16.1067700
   1.2145801   1.7883365  17.6043773  47.5426435  23.3070421  49.6855736
  48.0190754  22.4768734  49.6773767  47.0642805  23.3004880  50.5146408
  25.1095176   7.4277914  46.6375303  24.1849828   7.2922701  46.4299250
  25.2289724   7.0031762  47.4870396  71.8025732  26.0086226  25.6976533
  71.4657640  26.0375881  24.8021340  71.0223675  26.0678148  26.2490177
  60.1721430  10.6363940  39.9270058  60.8818817  10.4625952  40.5453110
  59.9269438   9.7727793  39.5949244  50.8855486  12.0956862  34.2948079
  51.7902088  12.0459533  34.6035838  50.9609556  12.3224378  33.3679152
  45.0652361   0.9442881  14.5541084  44.5556259   0.2355918  14.9468899
  44.4931841   1.3031554  13.8757253  39.3338728   1.3803180  31.9330573
  38.7565422   1.0058239  32.5983953  39.6156764   2.2166280  32.3037362
  41.9591761  18.1319618  45.4288530  42.3447323  18.2326651  46.2991619
  41.2712812  18.7966156  45.3932667  19.8584199   8.6970782  36.4726567
  20.7406616   8.8083005  36.8269300  19.9350727   7.9608333  35.8657789
  12.2794223  10.3249347  43.7046099  12.5173283  11.2014461  43.4023523
  11.3323843  10.2755749  43.5745573  37.3550558  21.7948294  46.5678930
  36.4465904  21.6469216  46.8306589  37.3818898  22.7151799  46.3062286
 117.0941639  25.0934076  17.6737726 117.9445362  25.2070570  17.2492921
 116.5690327  24.6134806  17.0333564  14.3586862  97.3047256   7.8724682
  14.3710613  97.3202610   6.9154745  15.2500832  97.0585728   8.1195617
  19.3557346  28.6773396  39.3686700  20.0703454  29.2228913  39.0401340
  19.5871222  28.5034609  40.2810621  45.6971216  27.1805191  36.5675211
  44.8409462  26.8294835  36.8124008  46.2567568  26.9946384  37.3215032
  38.5699916  40.3385353  26.0534120  37.9547453  40.2692127  25.3234148
  38.3717561  41.1848974  26.4541674  11.7601860   9.4048071  39.0511918
  11.4059031  10.2686453  39.2621374  11.6505694   9.3258578  38.1035709
  35.8563924  32.0390058  30.9618092  35.3912520  32.8735828  31.0197639
  36.0739231  31.8225789  31.8684912  55.7550192  32.2335553  38.3691859
  55.6700087  33.1397772  38.0729294  55.3273678  31.7171311  37.6860642
  52.9230356  32.1913004  37.0927572  52.4844503  31.7994857  37.8479743
  53.4346581  31.4758515  36.7151237  37.4299073  46.4200926  41.3324308
  36.7634892  46.5782976  42.0010757  36.9445372  46.0566092  40.5918026
  42.7467966  21.4555955  43.9724112  42.3135662  22.2696900  44.2289066
  42.4136448  21.2735391  43.0937195  35.4658628  27.3400450  40.6963491
  36.3067722  26.9126058  40.5338812  35.5108285  28.1549597  40.1962280
  75.6042099  22.1434975  27.3160744  75.2230692  22.5589824  28.0895972
  75.8977127  21.2862849  27.6247454  64.1807604  15.8038974  70.3948879
  63.3916473  16.0293365  69.9022293  64.3838930  14.9082696  70.1250410
  62.1080589  27.1766472  20.6844926  61.9762516  27.2187757  19.7373474
  62.2829151  26.2522721  20.8610988  17.7428102  12.1268594  33.6254764
  16.8901598  11.9788027  33.2164550  17.8669000  11.3718390  34.2006087
  69.8901892  37.0420647  55.5994844  69.3695116  37.3301840  56.3492250
  69.2528868  36.9301963  54.8940992  22.2648740  14.2109883  29.7939777
  21.7873192  13.3916652  29.9239135  22.5820518  14.1629100  28.8921356
  58.0288792  12.0650160  39.0182376  57.2664738  11.9145370  39.5770979
  58.7783766  11.9794762  39.6074486  48.7279034  23.5120869  35.7352853
  48.7692165  23.5924625  36.6882086  47.7942085  23.5634947  35.5308390
  33.5611176  16.8569148  35.5921674  33.6847544  16.7217278  36.5316725
  33.3915639  17.7949774  35.5054355  65.6088114   4.8305157  28.6863971
  65.6689882   4.1978270  29.4021583  66.1062622   5.5882281  28.9940405
 116.6428089  12.3134613  24.1753721 116.8537903  12.1105027  23.2640409
 116.6467285  13.2698381  24.2148566  50.6571865  16.3636267  45.1935339
  50.8004427  16.4588809  44.2519188  51.4970732  16.5978110  45.5884790
 119.1615582 103.3570099  11.7042482 118.5648155 103.7216759  12.3578191
 118.6164570 103.2271862  10.9282053  46.1228991   6.1596298  43.3076429
  45.2632332   6.4345855  42.9888868  46.1070061   6.3608581  44.2433167
  33.5322547  24.5200992  44.0973139  33.4924173  25.4031897  43.7301683
  34.1117668  24.6015477  44.8547840  54.6010494  28.8353300  32.1093845
  54.2506981  29.7054648  31.9187331  54.7613859  28.4478760  31.2489176
  35.6927323   6.8305755  27.7361417  35.4652333   5.9790260  28.1094217
  36.3029218   7.2131670  28.3666348  53.1095314  58.3173847  23.7645245
  53.8363981  58.9379311  23.8176131  52.9667902  58.0377722  24.6687770
  35.8782101  12.0350289  17.5976086  36.5054393  11.7621362  18.2671952
  35.3270769  11.2650275  17.4576676  43.2366276   3.8602561  18.0098474
  44.1717100   4.0547380  18.0733323  43.0241013   4.0042773  17.0877182
   9.5830572 106.1148071  40.6483650   9.1088396 106.3363934  41.4497709
  10.3116465 106.7350388  40.6219292  57.9418182   7.8014559  48.1794834
  57.1485853   7.9119581  47.6552677  57.9968548   8.6014485  48.7021828
  13.6192286 103.1527233  14.6687305  13.1676590 102.4187756  15.0854230
  12.9781735 103.5109234  14.0547466  36.5902328  22.3531199  52.7438641
  36.4855981  22.4473786  53.6906481  36.6849327  21.4106441  52.6060104
  19.4105864  96.6515732  33.0876899  19.1937888  95.9894180  33.7440300
  20.3581953  96.7631626  33.1639719  18.1343091  31.4992428  44.9580479
  18.0533934  31.4494586  44.0055752  17.9832089  32.4218726  45.1633596
 105.9512901 110.7734394  26.0296869 105.8896637 109.8483562  26.2677050
 106.8733025 110.9939003  26.1620450 110.8872700 109.5368004  53.1522703
 110.4841900 110.2447510  52.6497030 110.2367878 109.3157673  53.8187933
   4.5555583 101.8749905  28.3463454   3.7132081 101.5612411  28.6753440
   5.0158739 102.1868706  29.1254926  49.5300817   9.3260801  10.4422474
  49.4281244   9.1102117   9.5152968  49.9207020   8.5424989  10.8290923
  35.9286714   1.3844647  37.6283455  36.0613441   1.0573769  38.5180879
  36.8120193   1.5561193  37.3020577  37.4889588   3.5697719  26.3999677
  38.0992413   3.1562069  27.0105028  36.8691778   2.8761542  26.1741400
 114.2824268 105.7851887  34.5225954 114.3889046 105.6888866  33.5762215
 113.5856247 105.1692486  34.7491241  18.6026561  24.4001651  14.2247474
  18.2056153  25.0598574  13.6560678  19.0504336  23.8043690  13.6241174
  38.1817484  16.0496569  45.1141214  38.3520389  16.8207502  45.6550932
  38.1603622  16.3856792  44.2180967  33.1615329  19.4055545  34.9569511
  34.0275073  19.4760036  35.3586435  32.7329493  20.2358913  35.1645327
  59.2931747  17.8512716  44.1322803  59.3249607  17.7833903  45.0865412
  59.2743635  18.7925828  43.9596176  76.3632154  32.2755694  15.8328044
  76.6204882  31.3547945  15.8798969  76.2378502  32.5361943  16.7452669
  48.6488056  27.0096278  16.6114283  49.3094206  27.3824644  16.0276389
  47.9157495  26.7920375  16.0356522  40.3038359  33.3544564  37.1521926
  41.0749292  33.3891559  37.7182698  40.5927658  32.8621960  36.3837957
  24.0081573  29.9961281  32.7974725  23.9239454  30.1393056  31.8547964
  24.8720050  29.5975423  32.9029655  88.1183910  76.8088865  96.7410278
  88.6527061  77.4544001  97.2036839  87.2200108  77.0088530  97.0040321
  45.8887291  39.6939421  23.7343621  46.6094971  40.3003883  23.5641956
  45.7384777  39.7591019  24.6774483  60.8259535  18.0882156  22.0977569
  60.9240437  17.1385300  22.0291424  61.0442924  18.4152257  21.2250447
  19.6730924  21.0986423  20.1325464  19.8937321  22.0065331  19.9245000
  18.8525414  21.1576676  20.6218767  51.0655165  14.1078901  41.4514303
  51.0296249  13.1634259  41.6028595  50.1485634  14.3812954  41.4253330
  52.0531893  22.7706313  10.3449082  52.5392818  22.5387955   9.5535821
  52.3586226  23.6508441  10.5643702  32.1885872  23.9885807  28.9012909
  33.0851841  23.8793921  29.2181826  31.8362546  24.7095513  29.4231105
  18.9897895   6.5892512  33.8482213  18.0932951   6.5488201  34.1812301
  18.9791501   6.0398918  33.0644321  24.7196364  15.6677163  34.1260409
  24.4783306  15.7208383  33.2012820  23.9252591  15.3616345  34.5636582
  95.6645775  97.3953915  46.0952091  96.2793350  97.9641628  46.5586805
  95.3551960  96.7829037  46.7625713  72.3647499  23.6886001  27.4584389
  72.7273369  24.1796660  28.1957436  72.4236727  24.2912698  26.7171216
  48.1569099   2.0622279  39.8308206  47.6139116   2.0219415  39.0435743
  48.8875055   1.4713237  39.6483541  49.0920734  12.5811148  36.3507652
  49.6609211  12.3786938  35.6080174  48.2444620  12.2055137  36.1126328
  58.4346628  20.3168416  43.4211493  57.9715490  21.1446404  43.5496235
  58.6789322  20.3201866  42.4956465  49.0681934  33.8404179  36.5860677
  49.5497179  33.4139919  37.2949576  48.9089251  33.1422734  35.9508824
  62.8594065  29.7615600  34.7571898  62.8584003  29.7013927  33.8018823
  62.1353245  30.3536248  34.9606490  67.8512955  23.5450482  65.0363636
  68.2744980  23.4520483  64.1828537  68.2270718  24.3448997  65.4041433
  56.5551424  22.2968078  43.6430073  56.3632774  23.2025719  43.8859320
  55.7156610  21.8441176  43.7241268  70.2506065  51.9875574  47.8852224
  70.5728197  52.4351978  47.1028996  70.9519577  51.3796520  48.1192970
  73.3761358  20.4826617  16.0700417  73.2628059  19.6004486  15.7163632
  72.8157282  20.5035353  16.8457603  56.1985350  21.2327814  33.0624723
  55.6896496  21.4238644  33.8503504  55.5461168  21.1728692  32.3646235
  76.9635201  40.0973463  42.5392056  76.1882734  40.6158924  42.7544594
  76.9331455  40.0051165  41.5869427  63.5476065  34.1254568  44.6543884
  63.8596916  35.0121546  44.4738245  63.5382843  33.6959910  43.7989950
  66.1800718  13.3412445  25.4741025  65.3686237  13.2775521  24.9703884
  66.8675232  13.4164643  24.8122978  59.7992516  25.4337001  32.0310092
  60.1834583  25.1640511  31.1967993  58.8992357  25.1096916  31.9960499
  38.5997891  45.0409365  29.1272616  38.2259893  45.7208538  28.5667086
  37.9462147  44.9109411  29.8144102  11.6074789  37.6319909  50.8100080
  11.7644548  36.6896820  50.7496405  12.4603188  38.0287290  50.6325436
  56.1715221  52.6978970  36.3586044  56.9825459  53.1990099  36.2728477
  55.4963017  53.2710743  35.9955883  58.4574699  24.8462033  48.5829449
  57.7290916  25.4521871  48.7188959  58.6126566  24.4609308  49.4453335
  39.0063429  35.4316950  32.7023792  39.0110707  35.8956718  31.8651605
  39.1529989  34.5150304  32.4690390  50.5948973  49.2793798  44.2515087
  50.3677797  48.7073469  43.5184097  51.5173769  49.4931507  44.1116428
  38.1485629  42.6771545  23.2998180  37.9818058  41.7362976  23.3565331
  37.4409485  43.0767345  23.8056278  49.6679544  30.0835013  31.0667276
  49.9671125  30.0126505  31.9732118  50.2562857  29.5106292  30.5748773
  54.7267437  37.2738528   1.4522707  54.5333481  37.8867102   0.7428801
  54.7471619  36.4157772   1.0285734  42.8738022  33.1096101  38.1625080
  43.4275007  33.3954763  38.8890982  43.4132910  33.2433987  37.3832226
  51.4900112  41.6467667  36.3292956  52.0447493  42.3878479  36.5728092
  50.6445074  41.8367290  36.7358279  43.5949802  22.2311115  47.8816032
  43.6203575  23.0282402  48.4109163  44.2465973  22.3780155  47.1960020
  57.6387644  22.9196548  46.6666126  58.0692005  23.2715750  47.4457836
  57.3710299  23.6934257  46.1708021  63.2168102  32.3970366  36.3051271
  63.6972713  31.7977548  35.7339430  62.5680876  32.8056860  35.7320666
  73.6100388  19.7661817  43.8741112  73.3389235  20.4575276  44.4780684
  72.8802538  19.1467941  43.8759232  48.8824177  52.5085878  30.9752083
  49.7975254  52.2286749  30.9537292  48.7703753  53.0226803  30.1755929
  67.6523066  27.1513033  49.0059233  66.7786360  27.3319793  49.3527460
  67.7006483  27.6644564  48.1993484  56.1707687  29.9677277  54.8540211
  56.8307161  29.7118926  54.2096233  55.4926920  30.4071975  54.3408823
  71.8916178  33.7856030  38.8560152  72.7969170  33.4752178  38.8381338
  71.7842674  34.1607761  39.7300601   2.2877924 109.8164558  41.0563803
   2.6748919 110.2249241  40.2820826   3.0227718 109.6998882  41.6584206
  73.3062029  26.0099816  42.1424723  73.6906481  25.4250240  42.7953529
  72.8444767  26.6723156  42.6566267  41.8077040  19.1957295  24.9775720
  40.8548832  19.2120790  25.0675273  42.0276022  18.2654917  24.9272203
  48.1853390  14.7116554  45.0664568  48.9759254  14.9829245  45.5329561
  47.4850750  15.2334845  45.4583168  72.5080395  29.6322823  47.9018641
  72.9289055  30.2312684  47.2851610  72.1523714  30.2017999  48.5840511
  59.8180485  45.8952713  25.5384421  59.0251875  45.4611683  25.2235556
  59.6838427  45.9840679  26.4820194  69.2879772  68.5471964   3.8778135
  69.3206406  68.9584208   4.7415620  70.1934671  68.5681677   3.5681632
  33.8929009  32.1967459  53.4236050  34.2052579  32.4355125  54.2963362
  33.1132483  32.7363229  53.2923365  93.6642456  21.0227728  42.5760651
  92.9747200  21.4747977  42.0897913  93.6869717  20.1436520  42.1980906
  47.3778677  32.4234247  45.0179863  47.0768595  31.6486740  45.4927397
  48.1913280  32.1453500  44.5970488  94.5486736  88.3433247  87.5316525
  93.9097404  87.6553917  87.7180386  94.4536114  88.9612579  88.2564735
  34.7906375  34.4663954  31.0525608  34.6025229  35.2803826  31.5197539
  34.3403125  34.5623302  30.2133727  50.3315258  44.3177509  43.6920071
  50.6393194  44.9958277  43.0905867  49.9678564  44.8021221  44.4331980
  60.4262257  37.5125027  38.0633211  61.1114359  37.6114750  38.7243247
  60.6407833  36.6935229  37.6166987  55.7950497  34.3661642  42.0846748
  54.9647522  34.7003603  41.7453384  55.9972000  34.9359226  42.8267908
  56.0595083  56.4717245  38.8256741  56.2942314  56.6824818  39.7293997
  55.1048470  56.5380812  38.8044691  83.9265251  21.6877794  55.9515858
  83.2805729  21.9874740  56.5912485  83.9478588  22.3797202  55.2905321
  66.4795971  21.6818023  24.5161533  66.3253117  21.7543912  23.5742617
  65.6187153  21.4849019  24.8853993  62.6428080  37.1325231  19.1497004
  62.2388554  36.7367220  19.9219656  63.0517292  37.9335833  19.4772887
  78.4632778  17.2755063  14.6568894  78.7954426  18.1353307  14.9149597
  79.2347574  16.7089295  14.6632302  70.2836657  44.9972677  29.8255563
  70.5895281  45.4256678  30.6250286  70.9648705  45.1822519  29.1790509
  62.9326868  23.2443094  44.9464369  62.1947050  23.5075498  45.4962730
  62.5304461  22.7832007  44.2103577  49.0404606  24.0177584  26.4659619
  48.5449314  23.9578199  27.2827148  48.3769464  23.9600563  25.7784677
  40.8839798  12.5238705  20.4269576  40.0769186  12.6730454  20.9195328
  41.1121178  11.6127074  20.6112576  56.0506582  14.1176510  31.1524320
  55.9829712  13.8654423  30.2315402  55.1565933  14.3496287  31.4035702
  49.7525072  59.5161724  15.7547486  50.3375435  60.2507544  15.9400928
  49.4219446  59.2508030  16.6129684 118.3102322  62.1570396  96.9287109
 118.7520504  61.3642645  96.6245270 117.9648209  61.9231653  97.7902317
  45.3693819  46.2440777  16.4566612  44.5524883  46.7429972  16.4563513
  46.0497189  46.8983936  16.2977910  82.1978474  46.0735846  38.2078862
  82.2833443  45.2668333  38.7158990  82.1830273  45.7821321  37.2962546
  28.4442282  20.8567238  35.1534629  28.9061117  20.2153349  35.6933832
  27.5539756  20.5124831  35.0814915  52.6132441  62.1303034  21.4856172
  52.0951891  62.9306936  21.5706611  52.5744390  61.7266273  22.3526645
  75.6299162  49.0887117  28.0424929  76.5133572  48.8526249  28.3253932
  75.5167437  49.9917316  28.3390999  75.3572178  29.9067664  41.8192530
  74.9781084  30.5056000  41.1758995  75.3275633  29.0492702  41.3949251
  67.7103376  45.7526064  36.8965054  67.5986814  45.2346754  36.0993147
  67.4456072  46.6377354  36.6461062  75.3001928  35.2073336  33.9853072
  75.7046509  35.3712010  34.8372412  76.0379744  35.0488520  33.3964181
  70.5928278  50.8450603  37.6789546  70.6625032  49.8999405  37.8136039
  71.2317324  51.2210083  38.2845068  92.9008293  40.4127502  23.7154484
  92.2922516  39.9299717  23.1561780  93.2675457  41.0873985  23.1439567
  42.8364134  49.9487400  39.1543365  43.6392069  49.4507456  39.3084860
  42.1840048  49.2866468  38.9258075  53.1109047   8.5406148  14.6036875
  52.5024080   9.0894920  14.1090202  52.7340031   7.6620400  14.5559323
  54.8661757  47.8669214  36.8080902  54.9379253  48.4256554  36.0342026
  54.7684050  46.9820547  36.4564085  56.9885397  26.6730428  24.5101929
  57.3318577  26.4169407  25.3662181  57.0904160  27.6245022  24.4861674
  54.4243336  26.0868669  33.4123898  53.7213421  25.6187344  32.9619551
  54.4039011  26.9675565  33.0379581  95.4248238  85.1041126  90.8813763
  96.1292934  85.5672741  90.4281235  94.7700214  85.7792282  91.0593414
  55.4902458  41.1566353  31.2400937  54.5409632  41.0741949  31.3311863
  55.8392286  40.3592968  31.6384554  54.6945000  30.7759213  47.4907637
  54.6855688  29.8592162  47.2154331  55.1583290  31.2323332  46.7887783
  81.8659306  34.4051123  17.2070777  81.4148426  33.5654020  17.1196854
  81.3680649  35.0035524  16.6500890  77.0431852  16.9242978  33.9615750
  76.2903643  16.7001045  34.5085955  77.0511389  17.8813314  33.9456511
  63.4668064  46.6108704  23.1989551  63.6034298  45.8099127  22.6929593
  64.2919445  47.0891809  23.1176996  73.3254433  48.6334324  30.4946327
  73.8699865  49.3494463  30.1674771  73.2843733  48.0122566  29.7675276
  70.5578566  54.1417503  30.4528880  71.4830875  53.9025974  30.3982568
  70.5292749  55.0549841  30.1675463  51.7590952   0.9918035  22.1641445
  51.6070604   0.1481810  21.7382121  52.5007772   0.8348502  22.7485275
  56.7334557   5.4891694  31.5082788  57.0729685   5.9485185  32.2763681
  56.4204788   4.6512944  31.8492246  36.4546609  44.9539995  30.6619406
  35.8765697  45.4052401  31.2771058  36.1984706  44.0337801  30.7235169
  72.1399689  36.4771390  24.4726872  71.2100697  36.2513161  24.4498110
  72.5862741  35.6848359  24.1738534  70.3798342  42.6141453  23.9699340
  70.4051590  43.5353184  23.7110233  69.7288609  42.2199774  23.3893347
  73.6087894  31.6207600  22.4688077  73.3631849  30.7326651  22.7280354
  73.5649490  31.6119409  21.5126538  76.4271021  30.6162906  22.5190091
  76.5197229  30.2753615  21.6293907  75.4925728  30.8034015  22.6077175
  52.2378349  46.1546326  24.2900515  51.5138531  46.3728142  23.7031269
  53.0250359  46.3666916  23.7884712  53.7049675  17.5430012  19.4108927
  52.7894306  17.2665715  19.4510090  54.1954994  16.7300820  19.2893529
  70.7594013  35.9261775  16.3570595  70.7432032  36.5504336  17.0825064
  70.6280041  36.4634037  15.5758083  27.3424125  45.7621145  50.1320219
  27.8054452  45.4177475  50.8957291  26.7577434  45.0523472  49.8662710
  48.0839825  41.0939741  24.3077660  48.4398460  40.3053713  24.7172713
  48.8177156  41.4589357  23.8131237  43.6419630  28.2204127  34.5643187
  44.4841146  28.6425662  34.7340107  43.8276005  27.2832489  34.6234226
  20.5684614  43.2694864  21.8124723  19.6633995  42.9891443  21.9484973
  21.0816741  42.7160406  22.4011517  74.3716383  36.5575719  15.9462869
  74.4700193  36.1591840  16.8110645  74.2639065  35.8153653  15.3515124
  44.3515635  34.3615174  40.0141478  45.2960300  34.3973970  40.1655626
  43.9807177  34.9468398  40.6745291  48.7286806  19.0514588  20.0411129
  48.6220217  19.4276309  20.9148121  47.9860306  19.3911469  19.5417976
  44.5314312  23.2957864  32.2886539  45.1804352  22.9192543  31.6943073
  43.8162708  22.6596141  32.2964883  55.9488297  31.3771892  19.8303401
  55.2095318  30.7730818  19.7615731  56.7219687  30.8221579  19.7282457
  44.1064739  25.4424310  22.9139185  44.8345757  25.9522510  22.5587010
  43.7525845  24.9721813  22.1590281  57.1752787  43.1596947  31.3988471
  56.5780544  42.4121952  31.3706064  57.3023796  43.3995295  30.4809380
  63.6384439  49.0913057  41.6524935  63.7791157  49.8002291  42.2800827
  64.4880009  48.6547709  41.5898752  68.0614424   7.5692105  22.6361060
  67.3813486   8.2283646  22.7747369  68.5792398   7.9091316  21.9063330
  85.5025673  30.7251191  20.3643298  86.1419296  30.9471011  19.6874452
  85.9082413  30.0075340  20.8508825  57.1391296  40.3594446  28.3723807
  56.8165779  40.0459957  29.2173290  56.4862013  40.0588369  27.7402806
  55.5684471  19.5829928  19.8821795  55.7927275  19.7812092  20.7913780
  54.8455763  18.9586473  19.9444520  85.0808430  11.5222478  66.4300776
  85.8386421  11.1782467  66.9029760  85.4320431  11.7987895  65.5836630
  40.4914951  29.6179628  29.1614985  40.6772947  29.4961786  30.0925612
  39.6109343  29.9926376  29.1399932  54.9057341  15.3663170  44.1959429
  54.3871403  15.5920863  44.9681568  55.2446938  16.2044990  43.8816357
  70.6490231  38.5500765  17.4898601  70.9143639  38.9230537  18.3305228
  71.4051199  38.6850619  16.9186068  48.8706732  45.5413246  31.8493199
  49.2742491  45.3448153  32.6947427  48.0093288  45.8948231  32.0714831
  54.6358109  47.7741766  19.1429830  55.4874229  47.4883270  19.4735646
  54.5326185  48.6627388  19.4836295  31.5357614  35.3674817  36.1477518
  32.1985912  35.6702900  35.5271101  31.7732859  34.4576979  36.3269353
  38.1302142  27.3957968  27.2606301  37.2153592  27.4822545  27.5285864
  38.3635068  28.2603955  26.9225860  32.6881456  18.0258119  51.3352013
  33.5884786  18.2509232  51.5696287  32.7775311  17.3686028  50.6450415
  43.5989141  21.5199494  51.0221767  43.6649561  21.8736434  50.1351786
  44.1531706  22.0940232  51.5508270  35.9234715  40.8480406  24.7954130
  35.0426269  41.0032511  25.1363707  35.7960010  40.7090187  23.8569808
  58.2271719  38.7831092  37.9490352  57.6926708  38.5659099  38.7128162
  59.0658379  38.3519053  38.1131530  45.8933067  21.9475222  26.4072704
  45.3453016  21.9576550  27.1920133  46.3657045  21.1164260  26.4557409
  71.6568089  45.8567333  32.3694158  71.7235661  46.8084812  32.2922897
  72.5067091  45.5842638  32.7153301  49.7034740  20.0721884  41.9256687
  49.1255188  20.6839204  41.4696217  49.4582701  19.2118752  41.5851307
  28.1413054  52.5683689  37.2871590  28.1927276  52.4352837  38.2336664
  27.2432208  52.8625727  37.1350980  43.7196589  42.9009199  29.5007086
  43.3083105  42.1483231  29.0757060  43.2634830  43.6600018  29.1374826
   8.9327228 111.8214798  26.7105818   8.2426238 111.5941620  26.0874271
   9.6979702 111.3314247  26.4097953  64.1732216  27.2432876  24.1139364
  65.0922871  27.1358895  23.8689661  63.7633228  26.4114738  23.8766527
  50.8300304   2.2214650  43.6602831  51.6774368   2.5423574  43.9687586
  51.0484028   1.5182023  43.0487537  66.0646629  17.4341822  71.1375952
  66.7160130  17.5238645  70.4419422  65.3668356  16.9088602  70.7460499
  10.4017496 111.1713505  15.5486155  10.6589854 110.5874920  14.8350561
   9.4996572 111.4171600  15.3435779  59.9367237  29.1664481  55.3784561
  60.1028681  28.9202332  56.2884045  60.7216215  28.8865709  54.9074697
  63.1760502  32.8510880  50.2977562  63.2323933  33.0183196  51.2385464
  62.8947210  33.6855507  49.9225855  41.8949795  28.2345366  21.2885427
  42.1688890  28.7246871  20.5133271  42.5276566  28.4805703  21.9633889
  69.6245098  44.4499779  34.0496612  70.2075291  44.9082661  33.4444427
  70.2096033  43.9191628  34.5901537  85.9313774  36.6964269   3.4647030
  86.0991287  37.5774169   3.7992865  86.4517593  36.1232924   4.0276897
  55.1586962  47.3395920  29.6487808  54.2319250  47.3030376  29.4121385
  55.2882242  48.2309818  29.9726224  81.8137360  14.8972559  42.5151873
  82.2754574  15.7350814  42.5482893  80.9837532  15.0633562  42.9621506
  23.3652186  13.7398469  42.2557306  23.1079268  14.6590316  42.3273706
  23.2987022  13.5446644  41.3210058  57.5850534  22.7758503   5.5000705
  57.9780006  23.0212641   6.3376832  56.6465282  22.9160261   5.6255835
  58.1789494  71.0287046  21.7688179  57.6743364  71.0949087  22.5795078
  58.2372189  71.9289351  21.4487791  54.7244453  25.3647852  39.0608597
  54.7808123  25.6570530  38.1511164  55.5997372  25.0327158  39.2604184
  59.8796654  23.0721998  34.2967010  60.6627798  22.5319076  34.1915798
  59.6982193  23.4045792  33.4175920  38.1879020  37.9232097  27.7002549
  37.3026943  37.7869797  27.3624992  38.4462070  38.7786102  27.3570395
  47.8290892  43.3670282  43.1782770  48.6721516  43.7706184  43.3846664
  48.0155325  42.4289322  43.1403065  41.1299276  41.7802095   7.1611524
  40.6630802  41.1854458   7.7481318  41.8293524  42.1490526   7.7005875
  64.7742701  35.1036930  47.8007746  65.1288462  35.8774710  47.3628521
  64.4975853  35.4207635  48.6605120  37.3090744  47.2262812  34.8899245
  36.5128112  47.3526430  35.4058957  37.5119877  48.0960989  34.5457196
  52.8510427   7.5007242  40.6725979  51.9046259   7.4251962  40.7943344
  52.9526329   8.1658900  39.9918151  79.2504930  13.3379161  32.3861456
  78.7627554  12.5153530  32.4278164  79.3222761  13.6202598  33.2979345
  65.4652071  61.1351633  20.4163504  65.4167843  62.0601606  20.1749539
  66.2744045  61.0617256  20.9223485  29.7040510   1.8442090  37.5207901
  28.7707257   1.7864476  37.7252412  29.9930978   2.6511157  37.9469204
  67.6165962  31.4366579  21.0782337  66.9697237  32.1376801  21.1579752
  67.3054218  30.9058928  20.3449607  44.7112846  53.3986330  15.9544814
  45.3805113  54.0173388  15.6619573  43.9208698  53.6595774  15.4818451
  35.0550652  58.3864784  16.7545247  35.1111674  57.6777601  16.1135852
  35.6119299  59.0778255  16.3965094  52.4873114   9.5899558  43.4923315
  52.2479105   8.6791462  43.3210278  53.3186150   9.5345283  43.9635992
  53.9673519  35.4218864  30.8379388  53.7866688  36.2669230  30.4262352
  53.6182594  35.5081344  31.7250276  53.2947874  23.2478857  37.8164673
  54.1682434  23.5787964  38.0257630  52.9214430  23.9091182  37.2336984
  55.0016785  71.4587021  21.5553021  54.6802044  71.7730379  22.4003363
  55.5723667  70.7223129  21.7750239  79.4669580  32.7480817  25.5454493
  79.4909859  31.8990278  25.1041269  80.2730560  32.7729297  26.0610247
  23.0097175  58.0795383  34.6709085  22.8218198  58.2167101  33.7424088
  22.7967548  58.9160919  35.0845051  64.4233704  45.7563210  26.8443203
  64.1699314  45.0736809  27.4656129  64.9357748  45.2966118  26.1792326
  63.5691929  26.1615443  32.1131229  64.5095873  26.2544823  31.9606328
  63.5063457  25.6090641  32.8922558  54.7289753  17.4070430  32.0018649
  54.4019365  16.5253484  32.1804476  55.5223036  17.2680390  31.4846182
  57.2902536  38.3989382  17.5126362  57.1438599  38.6274052  18.4305716
  57.8165054  39.1200805  17.1673203  52.2656012  39.1512227  53.7342691
  51.5378714  39.7164416  53.4751034  52.0277262  38.2862496  53.4003973
  80.8977127  58.4334373  34.3286633  81.8538284  58.3995676  34.3589354
  80.6301785  58.4707785  35.2469563  27.8753400  42.0623398  25.8062291
  28.4697127  42.4810600  25.1836348  27.2760344  41.5535545  25.2601480
  56.0445404  11.8763256  16.6170275  56.5314531  12.5405967  17.1047676
  56.7135000  11.2605369  16.3178158  41.8428183  19.8025644  18.3416140
  42.3231268  19.1751790  17.8013170  41.4586878  19.2724907  19.0399694
  60.2632761  14.0242314  22.8885961  59.5253563  13.5821450  23.3084393
  60.8959818  14.1570890  23.5944748  39.8812747  35.2537084  22.4321032
  40.8253098  35.2988839  22.5837159  39.7911501  34.7266865  21.6381526
  46.3696146  53.6372995  31.8592024  47.1415615  53.1529045  31.5664577
  45.6564045  53.3024979  31.3156319  69.7116089  23.2959223  28.1237364
  70.6560087  23.2968140  27.9677248  69.3766069  24.0007043  27.5694013
  76.1063862  53.3456469  24.7280025  75.2228642  53.0188227  24.5582819
  76.6838264  52.6548958  24.4029617  18.1015122  42.5403166  22.3545909
  17.5997531  42.0225763  21.7249775  17.5772333  42.5177050  23.1551242
  54.3524694  51.0469484  23.2812095  54.0465307  50.5372381  24.0314293
  55.2505493  51.2895393  23.5066724  54.7074652  43.5213757  22.9572654
  55.0626755  44.2655420  23.4433484  55.3972864  43.2903862  22.3351550
  66.6179991  36.8345690  12.4958575  66.2648010  37.7199817  12.4091017
  67.2233105  36.7449784  11.7597854  44.7461271  63.6652231  29.6752310
  45.0558090  63.2568502  30.4836607  43.8434553  63.9200974  29.8661757
  70.3452873  47.4038315  24.1604543  69.8893356  48.2429218  24.2257810
  71.2370634  47.5924301  24.4526744  50.4048443  43.3949327  27.4098229
  49.7649384  44.0337706  27.7238822  50.3600264  43.4601259  26.4558983
  54.0815830  44.8006964  15.2343130  54.5626545  45.6232738  15.3246903
  53.5399055  44.9244118  14.4548810  48.2544613  31.4896941  35.3488088
  47.5032234  31.8254972  34.8598146  47.8681517  31.0030198  36.0769176
  55.1114750  28.5592484  26.7344284  55.9821749  28.6617184  27.1186304
  55.2785301  28.3320022  25.8197236 102.8175735  45.5079412  22.2020149
 103.4485626  46.2005520  22.3978877 103.2426453  44.7046804  22.5025439
  53.1173849  43.4655809  28.8259768  52.4489450  43.4953737  28.1414819
  53.9473677  43.5263252  28.3530378  93.6804485  15.2756822  36.7149115
  94.2928505  16.0064042  36.6298079  93.4400558  15.2713120  37.6414227
  63.5110712  19.7071898   1.1846001  64.3683672  19.2889273   1.1050443
  63.3621740  19.7706842   2.1280141  49.7363901  40.3836584  53.1265545
  49.4931602  40.4680157  54.0484858  48.9017439  40.3805923  52.6579571
  27.0601892  18.9759743  39.3579054  27.6224160  19.6826780  39.0405655
  27.6682496  18.3257663  39.7096491  43.9814091  25.3742552  34.8548961
  43.2445240  25.1131654  34.3025732  43.5776806  25.6533384  35.6766915
  59.5576859  13.0525553  34.5040727  59.3735600  13.2417130  35.4241538
  59.8982191  13.8757133  34.1538143  59.1298962  29.9053645  30.1094246
  58.5157824  30.1251435  30.8099890  59.9181652  29.6107721  30.5655885
  28.6131167   3.7893185  58.8602543  28.9967918   3.8015723  57.9834032
  28.4855127   4.7124633  59.0787792  79.8798990  48.2304716  42.8261375
  80.5211830  48.5335302  43.4689045  80.1033497  48.7025023  42.0239639
  62.7482843  40.9602165  43.6814594  62.2356701  40.1954460  43.9433336
  63.2671356  41.1774206  44.4559574  40.1957750  53.3570766  37.7244520
  40.7079649  52.7973509  37.1408415  39.2989349  53.2870817  37.3973250
  37.4409842  68.8027906  37.1027732  38.1079817  68.9135504  37.7803254
  37.2676969  69.6906471  36.7898583  73.1320143  53.0413198  12.5044048
  72.7039719  52.2911501  12.9170251  72.6141548  53.2093906  11.7171264
  65.9198475  52.3312378  42.9340458  66.7537498  51.9166088  43.1552267
  66.1653376  53.1723785  42.5487614  62.0098877  52.1191216  36.9779015
  61.7860508  52.1498060  37.9080558  61.3062191  51.6073179  36.5789795
  79.2288494  56.0434771   6.8808126  78.3042526  56.2409973   7.0302474
  79.2365789  55.1264286   6.6066021  55.6886244  41.2507105   9.9876618
  55.9301949  42.0685530  10.4224133  56.5167618  40.7828617   9.8802704
  63.3019924  46.9660711  39.7720361  63.3048964  47.3969173  38.9172864
  63.9634943  47.4362946  40.2795219  68.7486124  61.2014198  29.1040587
  68.8725185  60.3830576  29.5848513  68.1582594  60.9707642  28.3867598
  90.0738811  25.6498790  21.1092877  89.4816399  25.2246881  21.7295265
  90.7450008  26.0552645  21.6583753  58.6050606  41.1679506  36.8406820
  59.5077610  41.2453461  37.1495080  58.2603216  40.4010773  37.2981715
  64.5057678  59.6156979  41.8332911  65.3903055  59.2811966  41.9813824
  64.1739035  59.0985775  41.0993385  60.5995369  46.5583992  40.2986622
  61.5509272  46.6347170  40.2261066  60.3099489  47.4276876  40.5756235
  52.0531893  62.5236320  11.8853343  51.4423561  62.1029806  12.4904490
  52.1817541  61.8798685  11.1887205  84.8435020  24.4618154  36.5236115
  84.1190338  24.5751595  35.9083605  84.8922062  23.5163260  36.6647053
  70.6660461  30.9659290  44.9586868  70.0841999  31.0615420  44.2046642
  70.4363775  30.1150036  45.3320599  63.0641508  34.4980860  29.4806266
  63.0116129  35.2875328  30.0193715  62.3052645  33.9775038  29.7439075
  84.3007565  42.2921610  37.4191952  84.8285675  42.9369354  36.9481230
  84.7867680  42.1293592  38.2275987  63.4033632  63.7811327  31.8219423
  62.6045561  63.5528708  31.3465166  63.5933733  63.0094337  32.3554301
  74.8734760  58.0747128  37.9595947  75.3385878  58.5865498  38.6213517
  74.3567085  58.7200689  37.4772048  77.7290726  33.1185651  10.4783547
  77.2460032  32.4527645   9.9888778  78.1597567  32.6331329  11.1819863
  69.4051504  60.4129744  24.2581606  69.3300343  59.8034430  24.9923706
  70.1880598  60.9278870  24.4534731  75.2269030  38.5933280  34.0285206
  75.9187603  37.9522204  34.1914630  75.6792307  39.3386173  33.6333275
  50.9052229  27.6273990  39.8127198  50.6654882  28.5313129  40.0169134
  50.2934265  27.0963383  40.3225374  75.0805283  51.6505527  28.9316988
  75.8832598  52.0046949  28.5490298  74.7090387  52.3805094  29.4270682
  86.4782810  29.1878152  48.9475584  86.7893887  30.0307655  48.6175871
  86.5768814  29.2513251  49.8975468  84.7196484  49.1082191  30.2754641
  83.9220715  49.5453501  29.9770999  85.2586651  49.8127222  30.6351471
  75.9872770  55.1965714  31.4583111  76.2578630  55.9484100  31.9853377
  76.1611176  55.4621029  30.5552554  64.3491316  37.6294780  33.2219696
  63.7438917  38.3444118  33.4189057  64.3474340  37.0896292  34.0124083
  69.5721054  48.9249659  27.6683259  69.8884392  48.0225325  27.7104855
  69.4856310  49.1914606  28.5836053  67.5008011  42.3320341  15.8032036
  67.1383142  41.5160036  16.1480594  68.4247971  42.3076534  16.0519397
  64.6591091  62.8634501  27.9420495  65.1377439  63.1198692  28.7303305
  64.1654158  62.0862770  28.2037830  79.1323757  36.2284088  22.2566533
  78.2367754  36.4854074  22.4759412  79.5972347  36.2424445  23.0932760
  73.6526537  53.8066053  30.1953959  74.3472052  54.3419790  30.5790782
  73.2885838  53.3204794  30.9352374  79.5226526  44.4104528  49.0918779
  79.5427132  43.9453030  49.9282217  79.3172121  43.7340593  48.4464931
  59.0456009  34.3414450  27.6682281  58.4029722  34.0379882  28.3094573
  58.5218477  34.6142983  26.9149256  54.0679264  49.4714355  41.1892033
  54.6241140  49.2912006  40.4313087  54.5462847  50.1362133  41.6846561
  52.3256540  56.9313431  37.5109339  52.0321465  57.1774817  38.3881474
  51.6239643  57.2281981  36.9315076  88.0777454  31.6907978  10.4917884
  87.2442055  31.7832708  10.9531987  88.6143970  32.4123621  10.8197737
  61.2043095  41.8479443  32.9641533  62.1325636  42.0667982  33.0458546
  60.9335136  42.2559834  32.1417165  69.3852568  60.6660986  18.8905251
  69.8703861  61.4905500  18.8565469  69.7625732  60.1370335  18.1877089
  87.2398758  46.4061594  25.3612471  86.8638611  46.9497633  24.6689010
  86.9960785  46.8501854  26.1734247  88.9299583  24.7849941  30.3705025
  89.7353458  24.4909883  29.9448752  89.1425037  25.6539369  30.7110858
  74.8504782  35.5835581  27.2779870  75.0170326  35.0237560  28.0363488
  74.5417595  34.9826336  26.5998912  66.3758421  49.6601820  25.7507491
  65.7112217  49.0845346  25.3724098  66.4332056  49.3898869  26.6672015
  79.6951342  52.6086283  36.1479926  80.4407120  52.4591684  35.5666041
  79.0785408  51.9092464  35.9314013  52.1939373  30.7174063   3.7328941
  51.9193697  30.9114599   4.6291018  52.6076937  31.5252662   3.4289208
  69.8642111  54.0465450  24.9156070  70.1411676  53.3799744  24.2869473
  70.0404310  53.6563015  25.7716966  74.9855947   8.1277245  29.5641613
  74.5429611   8.6763465  28.9166141  75.4590750   8.7472075  30.1194000
  64.9416113  58.5411978  20.3913331  65.1066303  59.4787502  20.4913378
  65.6603050  58.1198883  20.8627200 106.9410896  50.2742052  23.7965679
 107.8152466  50.3644705  23.4171653 107.0641232  49.6910000  24.5455456
  60.6436682  55.4850912  33.4239531  60.6807518  55.8987665  32.5615549
  61.1447620  56.0702610  33.9920354  45.1177216  18.8522053  32.6564598
  44.7960663  18.0127430  32.3277164  44.8623657  19.4857514  31.9859052
  67.1341419  27.5689149  17.6786351  67.4228811  27.2855783  16.8111217
  66.1801338  27.6098013  17.6120245   5.4241759 100.0348186  87.8140450
   6.0041255 100.7841206  87.9498386   4.6071079 100.4188824  87.4960423
  81.1969185  41.6362095  23.5436130  81.8857288  41.8985605  22.9329205
  81.5800285  40.9133959  24.0406108  65.5394793  42.3866034  37.5716686
  65.3022432  43.2344580  37.9472971  66.4219189  42.5169325  37.2244763
  67.1193790  48.7827206  32.6047564  66.3386631  49.3225813  32.7283335
  67.3753881  48.5255289  33.4905005  80.5929852  54.9644041  25.6169248
  81.3554764  54.7814322  25.0679564  79.8422241  54.7491026  25.0635386
  82.6961899  47.2262430  43.2691717  82.1762657  46.8324089  43.9697456
  82.1588612  47.1210623  42.4840260  63.0575705  60.8967733  50.5259943
  63.8786459  60.5243254  50.2045155  62.3841619  60.2855968  50.2272987
  69.6593237  39.2199206  23.5146999  69.5139933  38.3871007  23.0657840
  68.9350796  39.7761893  23.2278776  53.7709713  11.8754435  21.4504838
  54.1973352  11.0334671  21.6102386  53.1111574  11.9445312  22.1404862
  87.5006962  48.0704117  42.0544958  86.9710255  48.4620237  41.3600063
  86.8616962  47.7464342  42.6892805  81.2202358  64.4710112  24.3939304
  82.0232487  64.7431850  23.9497304  80.6651020  64.1255713  23.6948347
  63.0393457  62.6632738  48.4365129  62.9823828  61.9469690  49.0688848
  63.5800600  62.3146391  47.7277708  60.8363295  24.4454503  46.7503691
  60.3477144  24.8335814  46.0245275  60.2852011  24.5968723  47.5181961
  73.6589718  43.6023664  37.2963309  73.1498337  44.0584278  37.9664207
  73.6520576  42.6859474  37.5726533  94.8868465  50.7907724  30.8639669
  94.7074986  51.6928720  31.1290765  94.2724228  50.6245708  30.1490641
  45.5929518  29.5770144  21.5909076  45.6756973  30.2880526  20.9554434
  44.8448467  29.8264980  22.1334243  82.4142551  60.6101465  36.5059566
  83.0765438  61.2997341  36.4604640  81.8486214  60.7711029  35.7507157
  57.4877977  43.7106466  34.5710158  57.9865408  44.3249083  34.0323400
  56.9403076  43.2344723  33.9467216  63.4911394  44.5899963  44.6842766
  62.7125025  44.9888515  44.2958498  63.1486940  44.0039730  45.3592110
  45.0605440  45.2430773  30.4092717  44.7618341  44.5524311  29.8176575
  45.6998014  45.7377481  29.8965502  61.4702368  39.9955130  37.9178643
  62.3964691  39.7616291  37.9780531  61.0212612  39.1617584  37.7782083
  71.1291933  38.4219122  51.4269066  71.7823315  38.6378145  50.7613039
  71.6221571  38.3970714  52.2470284  76.3725662  54.4589233  37.9945016
  76.7677164  55.3301096  37.9610443  75.4328632  54.6248817  38.0696750
  71.9358253  45.0148439  23.1012988  71.7977428  45.7785797  22.5410557
  72.7342987  45.2168036  23.5890293  65.5075455  42.4732590  43.1428814
  64.7424269  42.8275537  43.5959816  65.9971571  42.0123291  43.8240957
  77.7390242  66.6724539   7.9599339  78.2445621  66.6058636   8.7700140
  76.8260145  66.6799402   8.2473111  77.5514269  42.9868078  34.7705483
  77.9444218  43.0712223  33.9018369  77.0279026  42.1870661  34.7199082
  72.6339912  45.2709103  28.7661910  73.5425997  45.0801563  28.9991665
  72.4423170  44.6751785  28.0419016  78.5088968  37.8255963  34.8890567
  78.1635427  37.2573948  35.5776119  78.8429213  38.5916424  35.3557777
  52.0502949  50.1210690  36.0525942  52.5461721  49.5684338  35.4485035
  51.8705368  50.9186888  35.5548739  64.1129684  35.8883262  35.2350569
  64.1471434  36.2298346  36.1286092  63.3183956  35.3550458  35.2126908
  41.5810394  30.9502840  25.5989647  41.5580416  31.0851431  26.5463376
  40.6604290  30.8986950  25.3419662  45.6535292  36.7570066  31.5816140
  46.3318777  36.9426060  30.9322834  44.8323059  36.8147182  31.0932565
  42.0643091  46.0277700  38.2301712  42.5851536  46.7429352  38.5955334
  42.6438093  45.6109476  37.5924683  63.7075758  69.3385172  27.6373816
  63.0809832  69.1670942  26.9343686  64.2885590  68.5778236  27.6311517
  59.7641945  40.7706738  29.0976024  58.8120794  40.7532263  29.0006614
  60.0921106  40.9318924  28.2128906  87.1465206  65.4551744  32.2069216
  87.8274727  65.3024244  32.8620577  86.3377190  65.5253696  32.7140188
  89.5807934  46.4053822  37.6526785  90.1624966  47.1644592  37.6933193
  89.8997688  45.8989048  36.9057107  67.7857924  48.4098148  35.3340816
  67.6176500  49.1651249  35.8975220  68.7262058  48.2526064  35.4185677
  59.4891930  62.7954960   2.5523597  59.3174219  62.5350285   1.6474393
  59.0450191  63.6380434   2.6475081  82.0629311  42.0267820  11.8593049
  81.3650513  41.8852139  12.4989581  82.7745724  41.4570713  12.1512294
  83.3821201  28.7906814  32.2618532  83.1189346  27.8727484  32.1957874
  84.0361977  28.9025545  31.5720010  39.3847895  70.0853586  25.1387548
  38.4483457  70.2166367  25.2873230  39.4495130  69.1968155  24.7887135
  50.7160282  39.1904521  33.0160093  50.0659180  39.6701479  32.5027037
  50.6755447  38.2958698  32.6779008  70.9670830  29.9336696  14.8826694
  70.3326368  29.7305703  14.1953111  71.7268753  30.2779484  14.4131804
  69.6487951  43.8009977  40.1766014  69.9755287  43.1400585  40.7870340
  69.4039488  44.5405340  40.7328081  64.1574478  42.4355984  23.8378882
  64.8376322  42.5397444  24.5032716  63.3460045  42.6757479  24.2852354
  44.3984842  61.7713833  48.5943890  44.3863773  62.6559925  48.9598322
  43.6366463  61.7408657  48.0156755  64.7663164  66.9745350  27.7038860
  64.2377949  66.3492727  27.2079539  64.7470665  66.6448689  28.6023188
  71.9072723  48.5230637  32.8045559  72.6227283  48.6243725  32.1767902
  71.3263083  49.2627907  32.6270175  47.1251535  29.9196458  37.2640610
  46.9089365  30.3150558  38.1085348  46.4474773  29.2572165  37.1292400
 100.2465534  45.5417681  21.1770034 101.0556984  45.3169680  21.6363263
 100.2173138  46.4983034  21.1975265  54.0986013  32.2164536  16.4173830
  53.1582022  32.1067190  16.5582192  54.2086744  33.1532335  16.2544143
  68.8069391  48.8096094  30.3894353  69.1776323  47.9692411  30.6588769
  68.0425739  48.9261675  30.9536958  97.4103451  55.0824261  37.3703742
  97.7701855  55.3974676  36.5412211  97.9863834  54.3607998  37.6226854
  68.0490398  31.7717671  28.1575322  68.2813931  31.8131614  27.2298813
  67.2604465  32.3092866  28.2311368  49.3722677  58.4440279  49.0729475
  49.5852041  58.8592196  48.2371807  49.5061874  59.1331005  49.7236967
  66.6979313  32.5772238  39.1302347  66.8750334  33.3561873  39.6575713
  67.4301052  31.9897509  39.3173814  71.8107748  64.0588522  45.2446604
  72.0839024  64.2392683  44.3451691  71.8911791  64.9008179  45.6928301
  51.4939737  24.3623805  27.5168085  50.6556988  24.0661979  27.1621132
  51.7853355  25.0410175  26.9078827  64.6729422  62.1032238  23.1760025
  65.4022789  61.4835405  23.1588602  64.8381758  62.6881170  22.4365258
  64.2577934   5.4363757  35.4800558  64.3407202   5.0094604  34.6273541
  64.8390675   4.9383456  36.0547900  64.1929388  40.0175571  38.3179998
  64.6318388  40.8057880  37.9981709  64.8980141  39.4811940  38.6805081
  54.4557428  70.7568455   2.7811664  55.2973509  70.9634638   2.3746741
  54.5353079  71.0851622   3.6767733  79.4771719  36.5208006  15.7336223
  79.3587399  36.0182595  14.9276102  78.7494564  36.2504053  16.2935781
  37.7516651  23.4822297  21.4462233  37.6487947  23.6775851  22.3776126
  37.3764420  22.6078248  21.3420343  63.0191708  53.3425236  34.7388911
  63.0014181  54.2830610  34.9158192  62.8057241  52.9366827  35.5791092
  47.0801115  53.3947563  28.2312179  46.4276981  52.7969885  28.5962629
  47.7848291  52.8231001  27.9265594  71.8080282  37.9366899  43.5819340
  71.8123722  38.4103632  42.7501631  72.4160194  38.4237623  44.1381168
  71.2867022  39.8258972  20.1985073  71.0484314  40.6614017  19.7967720
  72.0281649  40.0359488  20.7662630  91.3458824  32.2395563  22.5949764
  90.4408360  32.0025682  22.3926020  91.5805435  31.6791582  23.3346510
  81.8772984  36.6597843  29.5371008  81.3911533  35.8358169  29.5683432
  81.2014103  37.3373985  29.5530105  66.2097549  12.1487439  34.7196746
  65.5894566  12.6900601  34.2313695  66.2769842  11.3417995  34.2092323
  74.7934723  61.3968468  43.2027245  74.8716402  60.5684471  42.7295685
  74.2385149  61.1914968  43.9551067  51.4240503  48.0158234  13.7869060
  51.8840981  48.6224890  14.3670309  52.0240927  47.8849888  13.0526960
  72.7976036  48.8167715  46.4455652  72.7165461  49.2866802  47.2755337
  71.9646692  48.3550262  46.3494205  82.1651554  50.4542971  13.7897027
  82.9563141  50.5523920  14.3194985  82.1783066  51.2066174  13.1980312
  47.7802134  67.3855782  19.5663214  47.3125553  67.9100609  18.9163613
  47.4485731  67.6966000  20.4086471  78.4163475  48.7024164  28.9212298
  78.8313341  49.4908381  28.5713553  78.4133291  48.8339615  29.8693442
  45.9276104  47.7361584   5.5956614  45.9620142  48.0190611   6.5094531
  45.0553179  47.3549366   5.4956347  99.2224312  77.6265669  20.5563521
  99.8880386  78.0123901  21.1258602  98.8799000  78.3655214  20.0535107
  80.0518703  59.5447683  40.4812145  80.4550743  59.9293137  41.2595367
  79.2381191  59.1549921  40.8007908  54.7310638  62.5940275  34.6739411
  54.7453642  61.9928074  35.4186344  55.4223204  63.2280731  34.8646975
  63.9206123  41.2937450  46.1669445  64.0420103  40.7817221  46.9665241
  63.3006144  41.9799709  46.4137840  77.6131105  28.2093835  14.9921656
  77.2943401  28.6242342  15.7937372  78.3976936  28.7065411  14.7608626
  75.3211737  43.1837320  24.1891646  75.9162331  42.4491978  24.0388560
  74.5687532  42.7950191  24.6352530  61.9092846  52.0720720  14.8777294
  61.2144661  52.7301979  14.8958814  61.6384172  51.4199305  15.5239296
  84.8408604  39.8274493  36.3539147  84.6895885  40.2406502  35.5038476
  84.7008801  40.5292225  36.9896436  78.7014437  46.5328455  33.8006520
  79.0631771  46.1482477  34.5990658  79.3153715  46.2771797  33.1122041
  89.1899967  56.5086031  18.3384275  88.9165974  55.9177828  17.6367033
  89.8893833  57.0342350  17.9500961  70.4883671  65.8898211  36.5009928
  69.6644402  66.1844444  36.8890357  70.2709198  65.7076550  35.5867910
  86.2714577  36.3970065  54.7704029  87.2220325  36.3923836  54.6580887
  86.1375999  36.7072725  55.6659746  76.2459993  33.5856581  24.9992561
  77.1100044  33.3233404  24.6815801  76.1206627  33.0767918  25.8002400
  75.6183290  51.9580412  33.8535357  76.0390663  52.0235825  32.9962635
  75.5385733  52.8643084  34.1511083  87.8005314  20.5367446  37.1305299
  88.3340359  21.2534428  37.4739647  87.2316265  20.2908087  37.8599763
  98.7102413  67.8756285  31.2310815  98.6874294  68.7772703  30.9105349
  98.5107231  67.3426819  30.4614139  80.8576870  60.6764507  57.3188734
  81.2574005  61.1386871  56.5821218  79.9933386  60.4180098  56.9989634
  34.3606710  49.7540474  13.8650298  33.5530710  49.2612791  13.7194538
  34.8378229  49.2439461  14.5195174  55.2856350  49.1741753  32.6440048
  55.5837917  49.5510817  33.4718180  55.9208298  48.4842062  32.4524260
  39.0645790  53.9313364  30.2557421  39.6419835  53.1899071  30.4377127
  39.5703816  54.4894934  29.6651030  59.3380213  34.3763828  16.4339721
  59.1740227  35.0260043  17.1175873  60.2284241  34.5620799  16.1357546
  66.9644880  36.3103390  26.7620277  67.5812769  37.0076704  26.9845867
  66.2246227  36.4471316  27.3537350  69.9060154  34.8181677  23.6960959
  69.8595285  34.5916104  22.7672553  68.9922619  34.9072528  23.9669228
  77.0013380  61.8919563  31.9002104  76.1077309  61.9761276  32.2328043
  76.8967295  61.5228367  31.0232615  86.0225773  33.8893723  15.3654206
  86.4362240  34.5835018  15.8785570  85.2897549  34.3207002  14.9259090
  97.1688843  47.6683617  45.2958775  97.7763081  48.3792734  45.5005169
  96.9533443  47.2852707  46.1461782  67.3536110  63.6483192  29.6458983
  67.5830460  64.4408941  29.1607046  67.9439497  62.9777765  29.3022227
  57.2290754  57.5105190  36.6335177  57.7871561  58.1410456  37.0887232
  56.6649008  57.1517372  37.3185110  82.0370770  44.6452284  32.4632740
  82.1802807  43.7228680  32.2511959  81.3324261  44.9193525  31.8762875
  85.0041103  53.7142849  31.6752625  84.1832829  53.2733917  31.4559650
  85.4324150  53.8567257  30.8311701  83.3887577  78.0905581  28.7166142
  82.9730797  77.9230213  27.8708148  82.7074623  77.8976488  29.3607092
  81.9666862  29.4076872  59.2499638  81.2758350  29.9252248  59.6636200
  82.3682880  28.9239144  59.9717093  55.1267338  65.0273037  47.3794889
  55.3679800  65.7550955  47.9525042  55.9457302  64.5526457  47.2374487
  72.5910282  26.7804074  20.3279853  71.8399048  26.4435649  19.8395348
  72.6760244  26.1881018  21.0751009  63.6419392  37.7352524  27.0765042
  63.5838652  36.9096684  26.5955997  64.1996241  37.5357151  27.8284407
  98.6246586  34.1462374  59.0410423  99.1600227  34.7988820  58.5897350
  99.1522789  33.8837457  59.7953272  85.5558872  64.7189522   0.3871996
  85.6715202  65.5116272   0.9111564  85.2699852  64.0560055   1.0156856
  44.4475746  42.4469852  25.1755500  45.2863026  42.0323086  25.3775454
  44.0386772  42.5887108  26.0293365 106.9351864  38.1597424  15.8859575
 106.6529751  38.2620478  14.9770451 106.1763763  38.4281564  16.4040160
  65.9314203  50.8743811  11.8284631  65.0007725  50.6749058  11.9301271
  65.9925270  51.8171263  11.9825244  47.3998499  38.7968040  39.9781966
  47.4837732  39.1643310  39.0983582  48.2284021  38.3413649  40.1275539
  61.4957762  56.1713171  30.4570675  61.7086458  57.0104170  30.8655190
  62.3432207  55.7445192  30.3309226  68.8548040  56.1552858  39.8174524
  69.0552378  55.4978848  39.1512084  68.0586910  55.8330297  40.2400446
  45.0121975  25.9186411  31.4836168  45.9261656  26.1578846  31.3298130
  45.0578642  25.1599956  32.0655155  63.1691790  66.5023041  36.5738535
  62.8574610  65.6809664  36.9539452  63.3872986  66.2798119  35.6687832
  82.5621986  64.5754910  17.6190901  83.0405521  63.8964081  17.1434188
  82.6918602  64.3578529  18.5421574 102.6730633  45.6004620  34.2441773
 103.5448074  45.2913618  33.9976954 102.2481632  45.8075619  33.4118319
  79.4307852  39.1192651  25.7403111  78.9688826  39.0154338  24.9083853
  78.7474966  39.3627143  26.3648772  73.3788443  61.0055494  45.8746004
  73.8538647  61.6966057  46.3361549  72.4568605  61.2453270  45.9677696
  76.7069340  72.1565008  47.3335552  76.5726662  71.5912724  46.5728188
  75.9762812  72.7742052  47.3049212  68.6838531  38.3832145  27.8412867
  68.5949993  38.8526607  28.6707163  69.0986824  39.0136671  27.2524905
  62.4316311  53.5834217  40.3395605  62.9467630  53.8255739  39.5699930
  62.6415300  54.2544413  40.9891081  73.6786222  48.9156675  35.9294915
  74.5633364  48.7619829  35.5979919  73.1135702  48.8035393  35.1650453
  73.5255289  56.9630051   7.6130539  74.0426493  56.6871166   8.3698273
  73.9937925  57.7228069   7.2671270  84.7709370  56.4618540  32.7020836
  84.7732544  55.5681896  32.3591638  84.9126816  57.0138645  31.9330430
  79.5568895  67.2631121  28.1876016  80.0527477  67.2435904  27.3690796
  80.1160622  66.8080854  28.8172889  93.4236336  62.8081799  35.8075905
  94.0198708  62.6300859  36.5349269  92.5655460  62.5298309  36.1276555
  64.8111391  72.5027180  26.4810705  65.0235415  73.1406069  25.7997346
  64.0615606  72.0203352  26.1322594  91.3822460  58.7605762  37.8369379
  91.4498806  59.1280174  38.7182117  90.8208179  57.9922247  37.9402423
  91.8638802  82.7223301  21.6902137  90.9954643  83.0476093  21.4529991
  91.7718220  82.4339962  22.5983024  93.4372616  51.3024950  39.5464468
  93.1725216  52.2153950  39.6594167  92.7500725  50.7981825  39.9819517
  93.4600830  75.1780939  16.8563318  92.8245354  74.4820499  16.6895306
  93.1801987  75.5641413  17.6863062  85.8300972  64.7937250  43.7901640
  86.1831665  64.5760584  44.6528339  84.9239540  65.0510645  43.9601946
  78.8863182  58.6813021  51.8029356  78.9920378  59.5757627  52.1269560
  77.9693031  58.6311150  51.5331221  80.6680489  78.0524683  30.4158211
  80.8347511  77.9058313  31.3469172  80.0301266  78.7658358  30.3961563
  82.3392105  59.1363430  38.8659358  81.6045094  59.2702675  39.4647002
  82.1802902  59.7519207  38.1503654  81.4984894  52.0534897  18.7439978
  82.1021080  52.0263243  18.0016124  80.7886600  51.4605665  18.4973669
  89.1827679  63.5746098  19.4079304  89.2510128  62.8104877  18.8354897
  88.5230827  64.1284752  18.9904571  61.1737442  46.0849857  43.2446957
  61.5004063  46.9839287  43.2068777  60.8410978  45.9137630  42.3636389
  73.1698895  59.1314125  10.0107718  73.0055189  58.2953024   9.5747268
  74.0466022  59.0388012  10.3836346  64.3278360  60.4937029  59.8360443
  64.1031408  60.0434113  60.6502771  64.1986275  61.4216757  60.0320101
  70.5985641  64.4623137  51.9285679  70.3681278  64.9661875  51.1480284
  71.4527750  64.0816927  51.7243910  81.8236637  61.9167089  54.9649239
  80.9171009  62.2214603  55.0037336  82.3086739  62.6543283  54.5949125
  55.9894848  67.2332478  21.6137648  55.9728909  68.0602980  22.0953703
  56.6436911  66.7037010  22.0696473  94.2945671  62.5104904  24.5266771
  93.7650490  63.0614519  23.9502430  94.8774910  62.0351934  23.9346266
  94.0803432  54.9241734  54.3179941  94.5413685  55.7324362  54.5424700
  94.2387295  54.3434763  55.0622654  75.7778931  56.2546444  41.3821697
  76.1150360  55.3754425  41.5541267  74.8639822  56.1163092  41.1334467
  64.4251919  70.5569315  17.4943709  64.6533060  70.0874281  16.6920245
  64.8107100  70.0327873  18.1964254  82.4862671  72.5384903  36.2636018
  83.3105087  72.9916239  36.4411330  82.1056271  73.0141687  35.5253077
  71.2003088  59.5539236  42.7204514  71.1183119  58.8647413  42.0612574
  71.8703318  59.2307138  43.3228111  94.4166088  65.0246572  34.7763872
  93.6962700  65.4002762  34.2701817  94.0164948  64.3052292  35.2648234
  74.9723864  53.7656927  51.5048742  74.3397760  53.1718969  51.9091606
  75.2479267  53.3148241  50.7067394  84.0181923  60.2764797  47.0882320
  83.3404064  60.7772398  47.5421810  83.6658478  60.1388264  46.2089539
  79.3373251  71.0197878  34.1770887  78.7689304  70.4618692  33.6461592
  80.2168083  70.8609200  33.8343000  64.2781544  44.1965532  39.3955183
  63.7892103  44.9991226  39.5773077  63.6191130  43.5029507  39.4239688
  87.9880810  66.6296482  24.5421505  88.6480427  67.2570801  24.8371267
  88.2121849  65.8161068  24.9939823  82.5182343  60.1253605  32.3526597
  83.2029343  59.7598028  32.9128289  81.7139053  60.0266504  32.8621101
  79.7739172  44.8006248  30.9637356  79.6780586  45.5099106  30.3281617
  80.0245476  44.0406418  30.4385281 107.3615837  85.0051022  47.9510975
 106.4409256  84.8666954  48.1735182 107.3495102  85.2586937  47.0281792
  62.2936201  50.1272297  34.3146062  62.0995760  50.8237314  33.6873412
  61.8238974  49.3641233  33.9780641  66.8450451  44.6076632  25.1061535
  67.4462175  45.0311184  25.7189417  66.6996431  43.7369967  25.4763269
  95.5367470  28.8484716  27.7052617  95.5290031  28.0120921  27.2398138
  95.9871292  29.4489574  27.1112919  77.4266577  27.2758412  42.3773479
  76.8860006  27.7815270  42.9841471  78.0367756  26.7992926  42.9402781
  61.6867971  62.7202654  58.8311195  60.9948111  62.5367403  59.4664955
  62.4205732  63.0335617  59.3599415  80.9804058  73.9257812  34.3543983
  80.1683998  74.2159414  34.7699594  80.7353878  73.7514830  33.4456539
  71.3063431  53.7100410  34.1636443  70.7718134  52.9628372  34.4323325
  71.5554857  54.1339493  34.9848986  81.4911079  45.0660324  58.0530119
  80.7295704  44.6918297  58.4960365  82.2256756  44.8737955  58.6358309
  73.1346273  56.2364626  40.8178329  72.5136566  56.8775988  41.1636257
  72.7258825  55.3887463  40.9925795  69.7205782  61.9850826  42.5332499
  69.5525551  62.1357965  43.4634590  70.1725197  61.1417627  42.5050592
  67.2238588  67.9754257  27.1029282  67.2436094  68.2112169  26.1754322
  66.3753796  67.5491238  27.2236681  76.4513159  33.8557863  40.8197021
  76.2463188  34.7585940  40.5765152  77.3931503  33.7751412  40.6691170
  81.6288948  56.6331244  28.7087989  82.4786949  57.0208502  28.4996367
  81.0549068  56.9157887  27.9968500  54.6164560  55.5377388  49.2817497
  53.8723755  55.8814430  48.7873411  54.2721462  54.7619867  49.7243500
  87.7989197  69.8642302  40.6340551  86.8961143  69.9390268  40.9432077
  87.8798676  70.5434942  39.9645162  72.5647020  62.2960758  35.8087373
  71.6319466  62.1238804  35.9373975  72.6149607  63.2392740  35.6535602
  64.8068619  56.4598560  22.4918175  63.9424419  56.0624790  22.3864293
  65.4209948  55.7432699  22.3318911  94.5022297  68.6921978  19.7194946
  94.5217514  67.7794409  19.4318771  93.6256027  68.8092518  20.0856233
  94.6996212  29.4133067  36.0583639  94.3972301  30.1420617  35.5164194
  95.6332016  29.3389845  35.8605337  89.7870350  66.7928362  32.2339821
  88.9523792  66.8787575  31.7733192  89.9653530  67.6703405  32.5722408
  49.5173073  71.3417387  39.2346048  49.4180918  70.4280806  38.9669871
  48.6532402  71.5903187  39.5629692  74.2873764  45.2911234  33.0711579
  74.6457529  45.1678228  33.9501309  74.5635986  44.5120859  32.5884247
  54.5120525  59.9691582  43.5373878  54.9781418  60.6388140  44.0379381
  53.6626625  60.3645420  43.3413219  76.9241238  66.4923906  32.4920368
  76.4733267  65.9554386  33.1437230  76.2302017  67.0165920  32.0921397
  95.2834606  52.2485638  47.8275919  94.8143482  52.5557947  48.6033297
  96.1431789  52.6652050  47.8869438  98.6596870  58.0172539  37.5947905
  98.0924129  57.2862053  37.8397393  98.0797386  58.7787342  37.5883698
  86.4341640  71.3907385  31.5275455  86.8205643  70.5835056  31.8670964
  85.6880379  71.0975742  31.0044932  59.4890881  62.3261833  60.1708555
  58.8906860  63.0731535  60.1571941  59.5593786  62.0925045  61.0964298
  81.8554497  63.8601685  59.7967768  82.2036171  64.4196844  60.4909992
  81.2119007  63.3048344  60.2368641 100.3126431  47.6017523  28.8507891
 100.1968002  47.7041388  27.9061580 100.3388405  48.4974432  29.1873598
 105.5490017  44.7246552  47.4019766 104.6881676  44.3096876  47.3471260
 106.0629177  44.3019772  46.7138910  66.4064980  42.1352053  26.0895944
  65.9090948  41.3450909  25.8785415  66.4653206  42.1331358  27.0449829
  75.4690790  40.9221745  38.4652615  76.1418247  40.3273058  38.7965918
  75.4851913  41.6631699  39.0709853  93.8586521  75.6374979  13.3493125
  93.9833069  76.3358879  13.9919174  93.9672852  74.8290300  13.8501239
  70.6448746  47.7521706  35.2453351  70.4274797  46.8794870  34.9176240
  71.0808992  48.1824589  34.5098329  71.9350624  54.0204477  36.9667602
  72.3730135  53.1709433  36.9141102  72.5556850  54.5814514  37.4318767
  72.8198671  45.2470970  47.2809696  73.4556770  45.2067089  46.5665817
  72.0458317  45.6524324  46.8900776  63.5861397  51.9003963  18.8130021
  62.8121996  51.9462919  19.3743730  64.0557241  52.7165127  18.9852846
  54.3539762  52.8826809  31.5747547  54.8731041  53.6539936  31.3471079
  54.5116711  52.2678471  30.8582735  99.8181152  52.6096630  25.2074933
 100.5950260  52.1341991  25.5017161  99.3171692  52.7683830  26.0075498
  96.4955044  74.6758890  35.4317737  97.0556736  75.4254627  35.2303195
  96.7604065  74.0034103  34.8042059  80.8387852  63.8385439  38.5812140
  81.6388988  63.8591051  39.1062117  81.1255741  64.0718937  37.6983047
  80.0453854  36.2887931  36.5592432  79.8773146  36.6979003  35.7103539
  80.2917385  35.3885889  36.3467002  67.7086782  73.1612587  43.2747984
  67.1691084  72.6563454  42.6663876  67.0784998  73.6013699  43.8452435
  80.8653545  49.0825415  53.9715767  80.5729961  48.9821768  54.8774910
  81.3085461  49.9308109  53.9555120  57.6010942  85.3633690  21.2647462
  56.9075394  85.0275803  21.8325996  58.4093285  85.0183392  21.6441345
  88.8574219  53.6850595  20.4869676  89.6089554  53.8092852  19.9073076
  89.1058636  54.1264725  21.2991691  63.0012989  60.5903339  56.8042707
  63.0104446  61.3618565  57.3707533  63.5272408  59.9425554  57.2733068
  68.3410358  70.2888727  27.9997778  67.7374077  70.7978678  28.5408807
  67.9387522  69.4221973  27.9425693  83.5272312  65.6466675  45.1614904
  82.6931572  66.0728788  44.9642611  83.9262199  66.2001991  45.8327961
  86.9735718  43.6796093  24.9266052  86.8901348  44.6133947  25.1197600
  86.0712242  43.3665705  24.8632360  64.2771387  64.7174311  51.6043997
  63.4810972  64.2175579  51.7851543  64.0151596  65.6318760  51.7111492
  63.3161592  62.0916128  45.6519938  63.2174158  62.7720690  44.9860668
  64.0888786  61.5979862  45.3772926  81.7939472  71.9594622  29.8978233
  82.1314716  71.0649300  29.8517966  81.0805416  71.9138193  30.5343771
  83.2442856  41.6737986  55.0148582  83.8766956  42.2332287  55.4657793
  83.5824490  40.7861948  55.1333714  86.8778896  64.0902710  46.2621117
  87.3816204  64.6906710  46.8116617  86.6654205  63.3575487  46.8402147
  65.7302856  67.2745085  43.5485125  66.0613346  67.9806566  44.1034842
  65.4891109  66.5806198  44.1621780  94.6410275  53.5780907  27.5641727
  93.8150978  53.0945015  27.5498819  95.0871754  53.3139753  26.7595434
  81.4187813  49.3689203  30.1036811  81.2638474  49.5844936  31.0233307
  80.6072426  49.6152973  29.6599174  68.6220837  53.0462074  41.8068075
  67.8560543  53.2789898  41.2821722  68.6018896  52.0901537  41.8490791
  89.7011566  67.7872133  17.9723227  90.4589462  67.2040749  17.9282522
  90.0763607  68.6580420  18.1031644  75.9207916  75.5261326  41.4946842
  75.7044268  76.3553572  41.9210625  75.1922035  74.9459648  41.7155886
  69.7171688  81.1190510  26.5396214  69.7367048  81.7754841  27.2360039
  69.1181421  81.4805889  25.8864093  96.0060215  49.4341040  17.6713598
  96.8721485  49.1328144  17.3969579  96.1809349  50.2006721  18.2172656
  65.0218678  60.1955414  34.6308732  65.6683588  59.9699068  35.2997279
  65.4227638  59.9182749  33.8070774  89.3958282  77.4660921   3.5897067
  88.5663795  77.8234768   3.9067581  89.5732403  76.7238188   4.1674471
  79.2061853  50.2862072  40.9996891  78.6509466  50.8622313  41.5251780
  78.8230991  50.3186321  40.1230907  79.5914125  62.8663969  32.4433470
  78.7556839  62.4175215  32.3156881  79.6242380  63.5158062  31.7409062
  63.2159567  75.3600025  56.0604239  63.3092928  75.3403759  57.0128632
  64.0636253  75.6714106  55.7430649  97.2282600  60.6254339  42.9262114
  96.9074249  61.3821936  43.4167385  97.6397610  61.0013628  42.1480227
  76.5208864  75.3569031  38.7220359  77.4194813  75.0325394  38.6624718
  76.3581944  75.4404640  39.6616006  80.7888126  60.1420641  24.3476629
  80.2524090  60.3365040  25.1162267  81.1206341  59.2580414  24.5046043
  79.6149254  54.3425369  32.5629210  79.0318680  54.4664335  33.3118725
  80.4183578  53.9854479  32.9413557 113.6641312  78.2775784  33.6157489
 113.5931110  77.6940155  32.8603363 114.5376682  78.6616182  33.5404420
  77.2651243  50.3466368  51.8495607  78.0249929  49.9087000  51.4660883
  77.5913143  51.2080097  52.1100664  96.4716816  33.4948826  50.6115532
  96.8577766  34.3602037  50.4759598  96.9543648  32.9213119  50.0163460
  95.7284164  57.8937721   5.9547216  95.9326553  57.7196121   5.0359255
  95.8819103  58.8326550   6.0603982  72.6032543  50.7255697  42.6643991
  73.3160400  50.4821157  43.2550716  71.8174076  50.6895256  43.2097197
  80.8636761  83.2771015  36.6758609  80.5836582  82.8764343  35.8528852
  80.6167507  84.1979218  36.5901470  82.5311661  43.4614086  21.5675187
  81.6380596  43.8052559  21.5866327  82.5752449  42.9542160  20.7569361
  67.3750162  62.7269983  56.6346598  67.0177937  62.6244593  57.5167656
  67.1058464  61.9326210  56.1734152  56.9521427  57.3334217  45.1425505
  56.4105177  56.5737438  44.9286175  56.9357920  57.8700304  44.3500757
  80.3165531  68.2628012  39.4491053  80.5117416  69.0497828  39.9578261
  81.1696815  67.8537273  39.3039560  78.1774950  52.1127319  42.9721308
  78.4296274  51.9759941  43.8853455  78.6087656  52.9305983  42.7244711
  63.9983082  64.3048191  56.6655445  63.4549522  64.8381901  56.0854530
  64.3051720  63.5862446  56.1126280 101.8018436  49.3936920  41.9194841
 101.8867302  49.3683958  40.9663916 100.8843613  49.1760492  42.0840883
  78.4408569  63.7006378  44.6192789  77.7635384  64.3714285  44.5325947
  78.1319761  62.9765987  44.0746832  82.4065781  52.2796965  34.6097183
  83.2514000  51.9442177  34.3097830  82.6233387  53.0772686  35.0925493
  78.2878637  49.9642706  22.0250320  78.4912062  50.8988857  21.9878626
  79.1028070  49.5531321  22.3132467  76.1947107  40.6204987  35.8534026
  77.0869827  40.3113556  36.0099864  75.7544184  40.5186844  36.6972089
  64.8739910  73.6376429  43.6478710  65.1402950  73.7611198  44.5589495
  63.9451361  73.8685846  43.6364317  95.2196503  40.4595089  43.8740301
  94.4008064  40.8764696  44.1421080  95.5713272  41.0363054  43.1959009
  63.4215832  55.5645418  44.3629313  62.9203320  55.9214020  45.0961590
  64.3194914  55.5108690  44.6902084  84.3300152  43.3138084  24.5318031
  83.7912178  44.1042709  24.5650625  83.9878273  42.8219414  23.7853408
  79.3743849  55.3661633  49.2316103  78.8202477  54.9880695  49.9144030
  79.9678659  54.6568918  48.9847422  78.8507652  74.5372057  38.1746364
  78.9127207  74.6001291  37.2215199  79.7578096  74.4528961  38.4685707
  89.7543240  45.6694508  17.3090100  90.3029537  45.0060892  16.8904603
  89.5880127  46.3124323  16.6196990  77.4169445  44.7463560  27.7187085
  76.6926861  44.8441935  28.3368564  77.4437428  43.8088083  27.5276160
  70.4295635  51.7198277  23.6451030  69.9667835  51.3259649  22.9055500
  70.2090025  51.1613464  24.3905473  88.0206776  46.3331127  59.0758228
  87.3959255  46.2620497  59.7975302  87.6424122  45.7981253  58.3780241
  73.8591290  30.4172039  18.2576573  73.8740253  29.9540305  19.0952015
  72.9579163  30.3245163  17.9486990 101.0257244  79.2496204  29.0105844
 100.3144646  79.4182825  29.6285605 100.9923363  78.3050966  28.8589501
  69.5162392  77.5202656   9.9154848  68.6824179  77.9899216   9.9353236
  70.1628160  78.1682158  10.1953566  55.6182003  71.4000988  43.6664343
  55.4650164  70.6018019  44.1718960  54.7753286  71.8536901  43.6738062
  82.6297569  36.6462994  26.8576312  82.4962521  36.4774728  27.7903199
  83.5703564  36.8032813  26.7748785  83.3377075  64.2458105  39.6532583
  83.9128971  64.4924688  38.9290023  83.8522911  63.6227274  40.1662827
  56.4940214  76.6691399  32.7798796  57.1120644  76.7427731  32.0526743
  57.0435572  76.6821432  33.5635066  90.9971333  51.2268400  25.9553599
  90.2812386  50.6679916  25.6530070  90.5718327  51.8835545  26.5067911
  78.2370090  68.3114624  47.4095869  78.4344292  68.4491014  46.4831400
  78.8612413  68.8698435  47.8730297  63.8843393  72.7438164  13.1454599
  64.7818995  72.4114323  13.1571031  63.9504099  73.6248732  13.5137141
  71.4357853  66.4203930  46.4818382  70.4837465  66.3241959  46.5063238
  71.5821552  67.2308636  45.9940386  99.6359348  64.4149733  40.4290771
  99.2410088  65.0836945  39.8695469 100.0450802  64.9085188  41.1398888
  61.9158125  79.1400480  37.1992350  61.7020464  79.4119740  38.0917525
  62.6878595  78.5827351  37.2970772  79.1941452  39.9126315  36.1973405
  79.2058516  40.5159330  36.9403887  79.8321438  40.2763605  35.5834270
  74.3976641  26.0808253  52.3471689  73.7974882  25.7623649  51.6729212
  73.8443947  26.5908241  52.9387999  94.6303749  51.7384672  22.0944524
  94.3975258  50.8574104  22.3872852  93.9273262  51.9847107  21.4933610
  65.3248262  64.0699339  11.1290348  64.5971012  63.5571480  10.7773268
  65.6334686  63.5636282  11.8804514  71.0537815  30.6644249  25.4061413
  70.9904432  31.5144229  24.9705648  71.3649511  30.0686550  24.7246242
  80.1019478  54.9512148  44.4050789  79.9170828  55.0601768  43.4722424
  79.6484423  54.1435337  44.6463728  70.8577538  55.1282835  44.6775198
  71.4927721  55.7734108  44.3664074  71.0887051  54.9884558  45.5958605
  66.0975742  53.4638023  12.5071657  66.1938095  54.3938160  12.7122211
  65.1679659  53.3580589  12.3049760  69.4654226  93.0561352  28.2341146
  68.5715628  93.3781815  28.1177831  69.4837379  92.2241974  27.7610540
  98.9748573  57.4005222  20.3367043  99.7529221  57.9411697  20.4728580
  98.4762383  57.4895144  21.1489177  74.5693064  44.6563482  44.7826958
  75.2201939  43.9547062  44.7661448  73.7559462  44.2351341  44.5047522
  86.0008717  52.4430656  42.2002506  86.1799717  52.6202822  41.2768078
  85.7975006  51.5081835  42.2296619  93.4771347  82.9292774  18.5948241
  94.4248772  82.9406357  18.7286139  93.2346439  82.0069790  18.6772597
  61.0500336  57.7976894  44.4112206  61.9599819  58.0188560  44.2129374
  60.6503344  57.6389217  43.5560799  70.2948189  75.0189495  10.0039363
  69.8781967  75.8789825  10.0586665  71.0738611  75.0946999  10.5549276
  78.6934090  61.2204838  52.1573591  79.2157841  61.9447851  52.5019455
  78.8343477  61.2524748  51.2111330  68.3817053  31.6590261  46.8581390
  69.1900587  31.6504979  46.3455820  67.8431177  32.3337865  46.4447975
  78.1315708  69.0940714   4.9495846  77.6998663  69.6223974   5.6209540
  78.9180326  68.7572718   5.3788573  85.9392071  33.5228801  30.6988335
  85.3560448  33.2711148  31.4149117  85.5543995  34.3258739  30.3476143
  73.1323147  57.2597456  49.2158365  72.5782013  57.7278042  48.5912514
  73.1617975  57.8299856  49.9840736  69.1943932  62.1176243  10.1776719
  69.3308878  61.3012886   9.6968466  68.8035536  62.7109337   9.5362186
  50.0236511  27.9698372  27.7162457  50.9006548  28.0401540  28.0932784
  50.0975180  28.3879852  26.8583822  61.4720154  58.5255194  31.9713807
  62.4045801  58.7043524  32.0921183  61.1043024  59.3591452  31.6779709
  90.5450153  57.7964449  32.8380060  91.3931847  58.0650377  32.4848962
  89.9289894  58.4481239  32.5032640  65.3383112  47.1536207  16.4798772
  65.2942467  46.5905857  17.2527182  65.9336710  46.6976643  15.8850002
  62.8239346  67.6820469  59.6249819  62.2235107  67.9667950  60.3139257
  62.3389769  67.8220654  58.8116884  80.9267139  66.6435385  17.8717744
  81.2023449  66.7190218  18.7853158  81.3396645  65.8371449  17.5628483
  82.0090675  59.4899130  53.6095095  82.9132652  59.2116642  53.7552357
  81.9855022  60.3969431  53.9144135  77.2549677  71.8781137  35.5889249
  77.1944761  71.0342598  36.0366702  77.9851532  71.7737579  34.9788666
  81.3035965  61.3258696  21.9093490  81.3121700  60.8522272  22.7411079
  82.2074413  61.6177177  21.7905831  63.1577635  49.5814228  21.4291501
  63.8792562  50.1857328  21.6037607  62.5720358  49.6846437  22.1791506
  73.6569691  65.6525612  40.1525116  73.9408970  65.2740908  40.9846067
  73.3601284  64.9025488  39.6371460  84.1481400  53.7827349  75.6973076
  83.8406944  53.6659718  76.5962362  83.4013939  53.5306120  75.1541281
  67.9570961  65.3695154  55.6700516  67.3104477  65.3072357  54.9670553
  67.6413822  64.7634220  56.3402748 101.6677952  41.5739822  32.9737854
 102.1095276  41.4506674  32.1336055 100.7998657  41.9043303  32.7418470
 101.8438530  39.7074938  43.8795280 101.4699173  40.2700949  43.2013798
 101.4134312  38.8618803  43.7533951  78.6679459  68.5584116  32.7102542
  79.5440149  68.2117033  32.5413632  78.1666327  67.8031635  33.0176973
  61.1769629  72.6764536  18.2216394  60.7840490  71.8061924  18.2886934
  61.1351109  72.8869104  17.2888005  79.2995644  63.6828327  26.3516092
  79.6006346  63.9866590  27.2079253  79.9908924  63.9501953  25.7459569
 105.4706192  60.6318521  18.0140460 104.5613575  60.3467798  17.9234338
 105.8437347  60.5240679  17.1391761  89.3432808  68.0796003  38.5435772
  89.9074459  68.8527489  38.5575557  89.5582104  67.6116514  39.3504620
 102.0648575  46.8072033  31.5118766 102.3564911  47.6344681  31.1287069
 102.3733711  46.1382341  30.9007025  56.8045664  54.7404146  31.6073775
  56.7102957  55.3189468  32.3641086  57.2466230  53.9647198  31.9525170
  82.1849537  45.0573874  24.4586849  81.4238930  45.0748110  25.0389552
  81.8149757  44.9599266  23.5812736  92.3072338  74.8069906  40.3974199
  91.5402985  74.3159008  40.6921577  92.4289513  75.4835272  41.0635376
  57.1401596  60.8626986  36.7577672  57.9113817  60.6742573  36.2230349
  57.2419119  61.7804909  37.0098257  55.6852007  59.6729803  55.6441069
  55.0340223  59.2694664  56.2180138  56.4738846  59.1449690  55.7682514
  85.5579662  50.3381348  35.8637881  85.9719086  50.4086304  36.7239714
  84.9784660  49.5799351  35.9382725  79.4213438  63.7316990  52.3027945
  80.0533962  64.0115881  52.9649162  79.6489525  64.2400980  51.5243626
  78.0217695  58.5895777  22.6173425  77.8774738  59.5288467  22.5025272
  78.9679813  58.4794044  22.5236797 100.1142788  44.2952299  25.0151610
 100.9577656  44.7261620  25.1532197  99.8258018  44.0465307  25.8933187
 100.3177452  78.8359833  36.4117312  99.4869041  78.6775923  36.8598986
 100.4652882  79.7770071  36.5062737  86.6264725  67.5418472  39.0288043
  86.6634560  67.7502060  39.9623203  87.5257206  67.6573610  38.7218118
  77.3264933  88.5117626   6.7466462  77.3574924  88.7610340   5.8229923
  76.4886379  88.0594158   6.8446636  84.3898964  67.3102188  30.1612949
  84.6382332  66.4809418  30.5697751  83.6199188  67.0965242  29.6343207
 111.5698433  78.0446196  17.7514100 111.8692684  77.4396801  18.4300995
 112.3136997  78.6293840  17.6066530  90.5480862  80.6509876  41.6295052
  90.8803940  80.7427406  40.7365417  90.1778030  79.7687578  41.6577911
 108.5473156  69.2982149   4.6082342 108.1762028  69.8058367   5.3299183
 108.7026310  69.9422979   3.9173928  87.8007507  74.0969181  31.5302825
  87.6146317  74.4543266  32.3985291  87.3678303  73.2432318  31.5248466
  99.0297985  76.5359402  12.4525094  98.3285713  76.9264603  11.9309664
  99.6044540  76.1213350  11.8090022 118.7936974  70.6376171  43.4436941
 118.9984703  71.1589336  42.6674700 118.0445957  70.1023102  43.1819105
 112.6277828  76.1185360  44.2843819 113.1551170  76.5551853  44.9533272
 111.7224216  76.2821388  44.5485640  70.0229883  71.2025785  19.2187202
  69.5491314  71.9406128  19.6021199  70.9447813  71.4540863  19.2758715
 103.1765556  89.8617172  40.2333689 104.0313435  89.9565220  39.8131609
 102.7631283  89.1312885  39.7731757  70.0242901  65.3961992  33.8471627
  70.5223894  65.0763226  33.0949616  69.4628477  66.0832357  33.4880018
  85.8968830  62.4312258  49.9241400  85.0319958  62.6405478  50.2768230
  86.3786697  63.2573080  49.9652910  96.2871265  52.7855110  12.4690902
  97.0235157  52.3392248  12.8871632  96.0851669  53.5149288  13.0550909
  97.1056938  64.1422653  31.5677595  97.1441555  64.1472912  32.5241733
  96.5570545  63.3875704  31.3540792  71.7228460  80.1409721  38.1132126
  71.6961098  79.2334127  38.4162855  71.6881514  80.6624126  38.9151669
  76.5111065  73.5135508  32.2825551  76.0621977  73.6661577  33.1140757
  76.6631222  72.5687170  32.2623134  87.9232788  57.5829172  37.5293088
  88.7599754  57.1419668  37.6767278  87.7791691  57.5138807  36.5855408
  92.1589565  69.2819071  29.1840696  91.5458775  69.7263479  29.7695971
  91.6265583  69.0222788  28.4321523  85.5458355  57.8440666  30.5164266
  85.3809452  58.7711668  30.3445911  86.4984608  57.7786016  30.5832648
  82.1947479  80.2635002  15.7875562  83.1496811  80.2146912  15.8319247
  81.8919659  79.6084499  16.4164150 101.9484234  79.7874546  45.4698277
 101.3190937  79.1919756  45.8767462 102.7975559  79.5100355  45.8136940
  73.1700325  80.3813648  35.5581546  73.9166307  80.9794807  35.5910134
  72.8546047  80.3421879  36.4610386  96.3165474  89.0057182  39.6611214
  95.5709457  89.4432926  39.2502284  97.0150089  89.0593719  39.0088081
  94.8940945  58.5401821  34.6296477  94.0023708  58.2118654  34.7448349
  95.3588200  57.8242588  34.1963840  90.7492065  55.1344919  34.4740367
  91.3566494  54.7416782  35.1008892  91.1529160  55.9705210  34.2409968
   6.2378794  79.7250843  44.8460150   5.9836924  80.3207588  45.5508518
   7.0771146  80.0652885  44.5358896  86.4788342  54.6973372  34.4824481
  86.7419624  53.9438438  35.0108910  85.6094742  54.4677973  34.1541839
  90.7891369  83.4931469  34.5257974  91.1524296  84.0499115  35.2144623
  91.5556335  83.1296730  34.0824032  91.7633247  78.2710981  23.9089298
  92.2865105  79.0164804  24.2037368  91.4949322  77.8325748  24.7163296
  76.3369703  67.9950857  14.1957295  75.4352331  68.0544853  13.8801706
  76.2773323  68.1940413  15.1301229  71.8892670  82.2425365  23.0968380
  72.4193239  81.7567062  23.7286949  72.0170975  83.1612492  23.3331609
  78.0003214  86.8102551  39.6189952  77.9240322  85.8564091  39.6435237
  77.5496674  87.0659542  38.8141632  85.4841328  70.5285883  36.1327744
  86.3108826  70.1507902  35.8328056  85.0349426  70.7905436  35.3291273
  89.3216991  62.3050356  22.2889090  89.8068523  62.9297113  22.8280139
  88.9313984  62.8385925  21.5966511  96.3520050  83.1593609  41.3913345
  97.1357918  83.6744595  41.5826416  96.0339737  82.8794193  42.2496605
  88.6707211  88.3815670  33.8617349  88.4572220  89.0351868  34.5276427
  89.0958405  88.8804150  33.1641221  55.6806660  73.1171989  11.6572320
  54.7338438  72.9855919  11.6078770  56.0523272  72.2546625  11.4724839
  63.3413839  51.7615318  42.6740217  64.2468500  52.0367908  42.5305128
  63.0394936  52.3022556  43.4038973  83.1958389  71.8339777  21.3526487
  84.1499043  71.7567587  21.3582635  82.9020405  71.1309338  20.7733035
  89.8880386  54.1527033  26.8930840  89.0771770  54.6455431  26.7672610
  90.5289364  54.6011114  26.3413429  94.5975971  87.7929306  25.9156418
  94.2341995  88.6170101  25.5915070  95.4377556  88.0377674  26.3034844
  70.7701588  73.3046246   7.4883479  70.1246071  73.5609722   8.1469679
  71.2888336  72.6221371   7.9142797  84.8125839  77.9848433   9.4406950
  84.9111080  78.0797863  10.3880656  85.1382160  78.8104343   9.0820932
  86.3605213  73.1870508  24.4096804  86.3079262  73.6059523  25.2687407
  86.9363213  73.7571335  23.9000773  80.5366135  92.6298237  11.3927484
  79.7253418  92.5379276  11.8923688  80.9060192  91.7470360  11.3713443
  89.5454121  67.9531002  41.2536955  89.1256523  67.2571325  41.7593241
  88.8521194  68.5976887  41.1119604 102.4503326  51.1105061  10.1048338
 102.7060318  51.8226242   9.5185399 101.5075016  51.2250900  10.2238488
  77.6189375  61.7174721  22.5431395  76.9993258  61.4701653  23.2295465
  77.0845938  62.1679735  21.8891072  79.3248463  81.6690540  29.5833945
  78.8504410  80.8786964  29.8412919  78.6409092  82.3238468  29.4430041
  68.8282061  54.7468996  14.6177864  68.1425285  54.6024895  15.2698791
  69.1470194  55.6314135  14.7973192  98.3673000  76.5205956  34.6257615
  97.9471016  77.2928619  34.2472601  99.3035126  76.7173243  34.5935202
  96.2935066  57.8409529  50.2428770  96.6744041  57.5207758  49.4251728
  95.7106590  58.5509491  49.9737501  66.2971306  53.3773518  38.2961869
  66.1043072  52.5124073  38.6580205  67.0282173  53.2285643  37.6965094
  86.7349052  92.1804619  30.1912713  86.9039345  92.9440689  29.6393919
  87.0230770  92.4473190  31.0641837  56.9171047  83.6266613  29.2006111
  56.9542122  83.0908108  28.4083223  56.3161993  83.1573009  29.7792745
 100.5155945  75.0788736  19.8262954 100.0481415  75.8793068  19.5874822
 100.7336426  75.1956749  20.7509828  82.6658249  69.6745014  19.6512294
  83.1837177  70.1505947  19.0021110  81.7568970  69.8436689  19.4033110
  95.0938606  70.8159828  25.7382941  94.2401409  71.0272646  26.1161232
  95.7056332  71.3989782  26.1878300  97.3257351  74.0404940   6.1685205
  96.9823837  73.8977575   7.0505428  97.1035480  73.2402658   5.6925994
  58.3471060  87.5597477  16.7585504  58.0439901  87.2356415  17.6066709
  57.5942516  87.4508095  16.1775374  96.3441944  66.5011740  55.2193403
  96.5614891  65.7831001  55.8138037  95.3924179  66.4566708  55.1278162
 102.3445606  75.2755451  47.7515221 103.2208538  75.6520796  47.8325796
 102.4977112  74.3429995  47.5994444 105.8930206  74.6488905  23.5064697
 106.7345142  74.3445349  23.1666255 105.4690456  75.0668621  22.7569532
 113.3983326  79.7297621  50.2372265 113.4262943  80.5371189  49.7237873
 112.6805305  79.8641920  50.8560324  72.2525120  86.5074253  19.7110903
  72.7916622  86.6386604  20.4910398  72.6209354  85.7289124  19.2934632
  85.9622765  71.0675573  22.1754909  85.9628582  70.1440001  21.9239569
  86.8862247  71.2807751  22.3062229  96.3399029  84.1152573   4.2791605
  95.4677486  83.7623119   4.4552574  96.1963940  85.0519180   4.1438434
  91.2234497  98.6010551  41.8839598  90.8571529  99.4566250  41.6602182
  92.1343517  98.6471367  41.5935087  78.5475206  74.6467972  35.5157089
  77.9630852  75.2392101  35.0427270  78.0677700  73.8195372  35.5570793
  63.2320881  56.2697935  35.6828642  63.5507536  56.4830303  34.8058152
  63.9910221  56.3995409  36.2515616  86.2426567  88.2962990  23.0174112
  85.7957458  87.6116371  23.5151553  87.1739483  88.1104088  23.1372929
  84.3958378  68.6667204  37.8281069  84.8594284  69.0256119  37.0714617
  84.9967575  68.0157185  38.1905007  84.0740013  57.4705172  27.9715800
  84.5618439  57.0889616  28.7014174  84.3635559  56.9755602  27.2051525
  79.9118090  67.9821491  15.3767550  80.0456047  68.9254045  15.4694629
  79.7655296  67.6720095  16.2704265  92.8163910  69.5923853  50.4209566
  92.8689098  70.1219893  49.6253490  92.1963024  68.8960218  50.2046442
  86.3385582  87.2752762  38.8279462  86.6463280  87.8473091  39.5310020
  85.4105473  87.1390820  39.0189195 101.7183399  72.0977592  40.6407166
 101.1917782  72.0763636  39.8416495 102.2078609  72.9182959  40.5830765
  87.5284100  54.1354990  37.7750015  87.7060604  54.2246723  36.8386674
  88.3914471  54.0201712  38.1726146 104.7063065  85.9837723  38.2122397
 104.1258430  86.4189243  37.5877929 105.4755878  85.7425880  37.6962161
  61.6331196  82.2006226  40.2508831  61.6066074  82.2690678  41.2052631
  62.5208616  81.8997574  40.0569010  81.1019325  69.5088530  32.0206594
  81.3583374  69.2457485  31.1367702  80.5753231  70.2978230  31.8924236
  85.2680016  79.8396635  33.8434553  84.6961117  79.1204834  34.1117024
  84.7982788  80.6306267  34.1079688  86.2038994  76.2415934  32.8237557
  86.1682796  77.0283604  33.3677745  85.3236103  75.8701801  32.8818345
 107.9115105  63.7138557  33.6762977 107.8433990  63.0806351  32.9617190
 107.1231079  64.2507696  33.5964942  77.5232792  75.2166033  13.8289487
  77.9642200  75.5876970  13.0646896  77.4545479  75.9469128  14.4438887
  91.6817379  95.0582981  27.8065181  91.9061279  95.3542519  26.9243097
  90.7351780  94.9187183  27.7788067  66.5259552  80.0021458  27.5089526
  67.1309090  79.6238279  28.1470275  66.0920191  80.7121658  27.9820323
  92.6869392  90.2182102  47.7869034  93.1990910  90.4140663  48.5714960
  93.1619835  90.6499481  47.0768499  76.1533451  77.0162725  30.1410770
  76.0013103  77.5442600  29.3572760  75.7220364  76.1821747  29.9553704
  73.1928825  69.2649746   6.0180706  73.1000853  70.2171946   6.0479343
  72.7393913  68.9554262   6.8021369  66.8441582  60.6935406  27.3449183
  67.0836067  61.3747215  26.7165160  67.0834732  59.8738480  26.9124079
  80.3623199  80.1968956  22.2256351  79.9029016  80.3743744  21.4048672
  79.7921753  80.5609989  22.9028296 102.2313499  62.1431541  35.5194545
 102.5726986  61.8544197  36.3658261 103.0041790  62.2053862  34.9581218
  93.9806271  95.7511806  36.9976211  93.6245346  94.9868584  36.5445828
  94.1786003  96.3736343  36.2979150 107.6105118  79.1236353  35.3746510
 107.3929310  79.3519402  34.4708991 106.8165874  78.7115288  35.7153606
  81.1845493  66.0511398  32.8888631  81.8593884  66.7113590  33.0467677
  80.5298328  66.2105131  33.5686994  77.6125479  98.5222626  44.8509264
  76.7935848  98.8236332  45.2442503  77.9023218  99.2561817  44.3090534
  69.9911356  67.5623798  40.2249670  70.8881903  67.8948593  40.1936007
  69.5364666  68.1559515  40.8226109  77.1785736  66.3017654  44.8863983
  77.6818275  67.1152782  44.9205685  76.9156218  66.1445284  45.7932425
 115.1672077  70.3769922  34.1086292 114.9667549  69.7156954  34.7709990
 116.1110878  70.2987766  33.9700699  71.6390276  80.9960747  40.7326651
  70.7307673  80.8710575  41.0077429  72.1219826  81.1192799  41.5498590
  87.4137211  66.1558867  27.4936748  87.1385002  65.3458309  27.9229760
  88.2719803  65.9507561  27.1228051 109.1858482  48.8041353  44.8454905
 108.9793110  48.3897209  45.6832457 109.0634155  48.1097364  44.1981459
  98.7569427  76.4480400  30.8168912  98.0399323  75.9797716  31.2444973
  98.3320522  77.1801186  30.3699589  87.2597790  88.9881706  28.4225416
  86.7623043  88.1808758  28.2920766  86.6672421  89.5580673  28.9128017
 101.2854576  51.7880821  15.7152021 101.4933968  50.9443951  16.1166859
 102.0630074  52.3247004  15.8691037  98.5158253  77.9269600  24.2095900
  98.7499809  78.6705875  23.6542344  99.3209267  77.7193356  24.6838570
  54.7246313  85.3317928  42.6077986  55.0533247  84.9020863  43.3974457
  54.1681385  84.6738529  42.1910715  76.5772247  86.5937138  33.4345102
  77.3867846  86.5789890  32.9239893  76.7451906  86.0009003  34.1670346
  97.8741360  83.9632702  32.8385758  98.2788467  84.8162556  32.9962802
  97.3427391  83.8024616  33.6183119  92.5865650  84.3804359  36.2723613
  93.0908585  83.6781788  36.6831565  92.3227596  84.9432659  37.0002770
  75.8397245  92.8462029  25.2152538  76.4183426  92.2038746  25.6261706
  76.2976503  93.1037712  24.4151306  92.3787212  78.6704826  12.1331573
  93.0786419  78.7155342  11.4817703  91.8117523  79.4137239  11.9273007
  97.3244572  77.7880001  47.6959515  96.6248703  77.5870943  48.3176041
  97.3739147  77.0153475  47.1331120   1.8231414  52.4537039  49.9545240
   0.9758503  52.8990412  49.9555111   1.6074252  51.5287542  49.8354816
 100.1442051  78.4116793  56.8492317  99.7808456  77.6071310  57.2192383
 100.9826946  78.5239029  57.2970724  86.3185787  68.4842205  26.2408733
  85.6956577  68.3942938  25.5196810  86.4587593  67.5889826  26.5493107
  90.6235409  70.7816124  38.1283641  90.8131599  71.7169285  38.0544519
  90.0230885  70.6010675  37.4051166  82.1564579  65.3599262  36.1745310
  81.4968204  65.4847860  35.4922414  82.7162075  64.6587086  35.8410573
  81.7222595  69.2211199  29.1987419  81.9932842  69.3267155  28.2868075
  81.5544701  68.2833338  29.2916870  66.1452913  63.2856178  25.3353596
  65.7992077  63.2520437  26.2271714  65.3687239  63.2645941  24.7761345
  80.1477146  57.6630688  45.7573271  81.0056877  57.4603891  46.1302233
  79.8528576  56.8377829  45.3723669  74.0597725  72.0077944  38.1729245
  73.8559198  72.7115726  37.5569868  74.9568129  72.1879816  38.4541321
  92.1625423  88.5854340  21.7002249  91.2169361  88.4884071  21.5877533
  92.2694778  89.4523621  22.0916700  77.5444698  87.9750061  23.6145186
  77.9429102  87.8057766  24.4682407  77.7162838  88.9021015  23.4495568
  83.7131977  67.2298956  16.8555677  83.7610245  67.9161072  16.1899424
  82.8759480  66.7956781  16.6921949  77.9183578  81.4616776  21.0304904
  77.2760630  82.1650314  20.9357214  77.6315784  80.7904148  20.4112959
  78.9319324  60.9325171  12.3714614  79.6340609  61.1128521  12.9965425
  78.3047199  61.6433144  12.5041521 110.1775646  78.7805748  11.3545227
 110.5607510  78.3551359  12.1215963 110.5535507  78.3131790  10.6085944
  90.2639580  92.5458431  35.6419754  90.4289436  93.4748459  35.8031034
  89.4881725  92.3459721  36.1658502 117.3747253  68.5367012  40.0177670
 117.5903130  68.1752491  40.8774757 116.9602776  69.3781137  40.2087879
  74.3991661  65.4090548  18.0922222  74.6605873  65.6129646  18.9901710
  74.5521212  66.2205172  17.6081073  73.7290812  55.6944418  38.1760716
  74.2222500  56.4938784  37.9919124  73.4318161  55.7992458  39.0798855
  93.7133789  82.8138447   4.9286607  93.9288521  82.7115345   5.8556646
  92.8359032  82.4408436   4.8441425  79.0658903  68.4306192  44.8114491
  78.7630224  68.9664745  44.0783978  79.9188805  68.0998373  44.5299816
  73.9071369  47.5625467  38.2795024  74.7156286  47.5135326  38.7895703
  74.0933752  48.2070780  37.5967693  74.5238876  90.8555031  31.1031961
  74.4361210  91.7556572  30.7897496  73.6695242  90.4585171  30.9337926
  92.6412487  48.2986403   9.7906721  93.3759308  47.9853678   9.2631060
  92.7420712  47.8516483  10.6310689  77.8685999  67.4301815  40.0554752
  78.8169241  67.4910641  39.9405718  77.6614189  68.1072617  40.6995821
  71.8540049  77.0454502  38.2256365  71.1253452  76.8834400  37.6264334
  71.8839359  76.2672949  38.7822413 104.0523148  78.5447454  25.4936075
 103.5938358  77.7471733  25.2292109 103.3579159  79.1330528  25.7901502
  87.8594303  43.6297417  39.3508434  88.6696625  43.2221603  39.0448356
  88.1154537  44.5198965  39.5923018 105.5607605  66.8738985  39.3257165
 104.8397923  66.5225172  39.8481774 106.3034248  66.3053751  39.5293784
  90.5874157  87.4640751  19.4579160  91.2623024  87.9381752  18.9721382
  91.0176659  86.6567898  19.7397137  76.7481327  57.1611118  33.1990576
  77.2913408  57.9282808  33.0184841  76.9875002  56.9022465  34.0889597
  93.3266163  49.0296936  37.2396803  93.1080151  49.6967268  36.5889049
  94.0718079  48.5621452  36.8624234  74.4233084  88.4274101  19.3449271
  74.1986609  89.1381741  19.9454188  74.1668224  87.6309872  19.8098505
  93.7093544  82.1652126  37.1191835  94.4878292  81.6551876  36.8953824
  93.5801029  82.0070934  38.0543423  55.4224253  67.2889519  36.8249941
  56.3000584  67.6651382  36.8919015  54.9244404  67.9312372  36.3193178
  77.1517944  84.1626835   8.0822575  76.4050102  83.7496758   7.6487094
  77.9159737  83.7081432   7.7277702 101.8739414  83.4391403  20.9771276
 101.4477730  83.6631298  20.1498175 101.9615173  84.2749214  21.4354181
 103.6462402  89.0984535  22.9014564 103.2931137  88.7161064  22.0981264
 104.5159435  88.7085915  22.9900932  68.0826759  65.2658129  48.9877129
  68.6541557  66.0299921  48.9124107  67.4743891  65.3483343  48.2532692
  80.6958199  86.4321327  24.9887276  80.7859135  86.1291218  24.0852356
  81.4601517  86.0728359  25.4391980 115.3375721  70.2892542  40.1344919
 115.3908730  71.1261845  40.5959463 114.5548248  69.8688412  40.4905844
  78.5645676  87.8594112  19.7719252  79.1954613  88.3222198  20.3233004
  78.3564806  87.0639229  20.2619410  96.7077827  88.2213020  15.8611441
  97.0775890  87.9915810  15.0086737  97.4003887  88.7181473  16.2966537
  99.7686958  86.8417072  23.5986853  99.6275139  86.8245411  22.6521111
  99.0573883  86.3105106  23.9566088  67.4561739  87.4985981  35.2337122
  67.7254009  87.4860382  34.3152404  67.8003311  88.3248806  35.5728984
 102.1516609  81.8551445  35.4914498 101.7703629  81.7162228  36.3583684
 102.8369045  81.1904335  35.4218674  95.1529884 106.0148335  55.6978321
  95.5140591 105.2187729  56.0878944  95.5300522 106.0429668  54.8184729
  99.1578960  73.1769466  26.1036301  99.8543072  73.2013273  26.7598653
  99.5551491  73.5541582  25.3186870  23.6045647   3.1907630  26.4147854
  24.4968510   2.9397807  26.1758971  23.1727266   2.3640753  26.6300416
  90.6790066 108.7831211  39.8190713  90.6068516 109.7375774  39.8141623
  90.1617527 108.4999371  39.0650868 105.1904964  98.7556362   5.7020378
 105.7879829  99.3861485   6.1041451 104.5526505  99.2947388   5.2343339
  96.2410069  67.0235062  38.4439301  96.5656662  67.2509527  37.5726700
  95.5752182  67.6851034  38.6316895  98.1664371  92.8472900  35.7720566
  97.4888325  92.5845051  36.3949704  98.8794041  93.1773663  36.3188314
  99.9606419  92.3613644  44.0397739 100.2275372  91.4627838  44.2335415
 100.3629780  92.5533485  43.1927204   8.6060953  86.6885471  47.2674227
   8.0901879  87.3758316  46.8458652   8.1420606  86.5080833  48.0849457
  33.5826683   3.5200998  43.2876158  34.5094013   3.2805291  43.2880354
  33.5063004   4.1804522  42.5988960  83.6960602  98.0779076  38.1082821
  84.1863060  97.2882175  38.3369660  82.8203869  97.9277515  38.4644723
 106.8342876 106.2066269  41.2504196 107.1329689 106.7709923  40.5373144
 107.2925186 106.5352440  42.0239067 101.1491013  70.5112934  54.6133661
 101.2302876  70.3350115  55.5506849 100.5580044  69.8304701  54.2919302
  91.4281940  83.1913853  26.4438987  91.7579842  83.8594532  25.8429313
  90.5311298  83.4642124  26.6364074  95.1115227  88.9611244  45.8700466
  95.3542233  88.4626293  45.0897646  95.0234699  88.3013916  46.5579605
 103.5396099 108.1753731  32.6334286 103.5198689 107.7391243  33.4852123
 104.0878963 107.6112747  32.0880771 100.1804543  53.4168816  47.4386883
 100.9648514  52.8698587  47.4800968 100.4914665  54.2562866  47.0997095
  92.0413780  73.2318068  38.1246376  92.8652096  73.2715034  37.6388812
  92.2102547  73.7308550  38.9238000  74.9203682 102.6332855  16.7819679
  75.1948977 103.2595062  16.1121035  74.3076706 103.1228352  17.3307645
 118.6455822   4.6534345  53.0012560 119.0705395   3.9392495  52.5262976
 118.3272743   4.2484894  53.8080549 100.9744644  96.9134808  17.5185549
 101.5219402  96.5968990  16.8000293 101.3833618  97.7363777  17.7866209
   7.3367828  71.8540287  50.2056313   7.0661324  72.4486542  49.5060587
   6.8014735  71.0713100  50.0751495   5.7029611  95.2117157  38.3789301
   5.0816572  95.9384155  38.3328557   5.4045963  94.6883011  39.1227365
 106.7602634  78.1886721  44.9915171 106.0203552  78.2156372  45.5981874
 106.4063168  77.7832127  44.1999626 116.7210484 108.1439781  57.3375750
 116.5652180 109.0761566  57.4892092 117.6117039 108.1035805  56.9892645
 105.3779411  99.2905331  31.4708686 105.3674030  99.0885639  30.5352783
 105.0960255  98.4796143  31.8941474  86.5609550 109.5713043  39.8012638
  86.7628956 108.7207317  40.1911020  85.7435036 109.4281483  39.3242931
 119.3508053 106.2911606  25.6787205 118.8611889 106.8300152  26.3001204
 118.7000465 105.6874657  25.3205228  91.4260292  99.6337795  36.9574142
  90.7286930  99.1077995  37.3489642  91.8486881 100.0630379  37.7012682
  77.6539516  90.6612873  26.3053727  77.9391861  91.2327576  27.0183158
  78.0267048  89.8061943  26.5200901 116.8937206  86.9673443  41.2122011
 117.3769855  86.4612770  41.8653297 116.1605072  87.3460770  41.6971684
 104.2699242  81.4922428  20.0982237 104.9343586  81.6711426  20.7636189
 103.6439037  82.2110653  20.1855302 110.4060173 101.0926437  34.9661565
 110.8168030 100.2463627  34.7892523 111.0663605 101.7372417  34.7118545
 106.8287563  89.9914265  13.1696033 107.2807598  89.9927139  12.3258483
 106.2339783  90.7400131  13.1238306 109.7291470  94.3230724  45.5199337
 109.7015381  93.3750629  45.3905487 110.5960274  94.5822906  45.2075863
  83.1085491  89.5649338  38.2714009  82.5083542  90.1231861  37.7770829
  83.8315678  90.1443672  38.5116816 106.7532063  69.5949602  51.0663843
 105.9806252  69.8600435  51.5654564 107.4499989  69.5311451  51.7195654
  98.1189537 111.6135883  46.2038422  98.9818192 111.4020157  45.8475542
  97.6597309 110.7742596  46.2335539   5.4346156  77.6203871  49.4120169
   5.7363319  76.7766428  49.7486067   4.4929856  77.6239634  49.5839262
 103.7932873  90.8844376  32.4677372 104.6724319  90.8436203  32.8441191
 103.2489395  91.2425327  33.1689405  87.1653938  98.9115810  24.0469551
  86.2952232  99.1193771  24.3873334  87.7692032  99.2892170  24.6865153
 113.2584763  99.0112400  66.2441492 114.0737057  98.8164520  66.7064190
 113.2507706  98.4026623  65.5053616 102.7666378  80.7416534  57.4802351
 102.7679157  81.4089012  58.1665325 102.9480171  79.9229527  57.9418182
 102.1458626  88.5210705  53.6774158 101.2087154  88.5250378  53.8722658
 102.5447941  88.0817509  54.4284725  87.3638344  94.3647671  28.6004972
  87.4768734  94.9740410  29.3300414  86.6266060  94.7198772  28.1039000
 115.5612564 109.6465206  50.2760029 116.0097694 110.4876232  50.1888037
 115.1732159 109.4915867  49.4148064 101.4533615  86.5878296  33.8299417
 100.5214596  86.6716576  33.6280441 101.6408253  85.6564140  33.7134671
  88.7367249  72.0463896  21.8997765  88.8389015  72.7353001  22.5564313
  89.6274471  71.8703985  21.5966797  68.0168295  77.9348326  34.8364329
  68.7556744  78.4673452  35.1310039  67.2427607  78.4261322  35.1115274
  17.7319527   1.8477874  34.3984604  17.2711790   2.3808208  33.7505436
  18.4714627   1.4742334  33.9190722 110.4627514  74.6934319  46.9180536
 110.2138138  75.5777693  46.6493368 110.3187561  74.1568089  46.1386108
  78.6081457 105.8574772  27.1377826  78.8474607 106.6065121  27.6835990
  79.1266823 105.1320839  27.4858594  82.1450996  91.8906975  47.0466089
  82.5082684  92.7761555  47.0639753  82.5587082  91.4476109  47.7874422
  89.7644043  96.4564133  30.9001064  89.6994114  96.7093754  31.8209839
  88.8847160  96.5977383  30.5502367  94.9111176  97.8710175  34.3096876
  94.6125031  96.9750786  34.1536140  95.7302570  97.9393291  33.8191891
  77.7620125  83.8098621  30.0141740  77.4708414  83.7136745  30.9209275
  77.1565962  84.4466782  29.6344829  12.4196076   7.2418177  26.1565495
  11.8287861   7.9382497  25.8699417  12.0354223   6.9227618  26.9731498
 104.4908237  89.4404507  44.2176723 103.7027264  89.0669918  43.8231277
 104.2091656  89.7329617  45.0844717 110.6960964  85.4706287  27.3952675
 110.6498814  84.6359062  27.8614688 110.4389858  86.1232758  28.0465579
 115.5467224  93.8484955  25.6693268 115.2887535  94.5935345  26.2120891
 114.7310925  93.5531998  25.2646184 115.9859848  76.2686777  35.4392433
 116.3515568  76.0646152  36.3000298 116.3443851  75.5952692  34.8610544
 112.7883434  95.7510567  39.0348935 112.2346592  95.0324726  39.3403339
 112.6584435  96.4449596  39.6813107 104.5822811  78.9585114  46.6428661
 104.7482395  79.4126558  47.4689674 104.5033360  78.0366087  46.8880177
 103.9596367  91.2412167  29.8039079 103.1162167  91.1497974  29.3605924
 103.7374496  91.2900925  30.7336807  70.7909584  69.5312548  26.9631982
  70.7734442  68.5833693  27.0952630  69.9796581  69.8438835  27.3635530
  87.4070740  86.2392807   6.6033351  87.3798084  85.3621387   6.9855648
  87.5393486  86.0886765   5.6673580  98.6136055  89.7663307  36.2810230
  99.5547295  89.8536491  36.1297154  98.2089901  90.2087593  35.5348468
   5.8035356 105.6442165  24.7122598   5.0926453 105.8478451  25.3200459
   6.6003406 105.8757973  25.1894450 113.7745667  96.5454197  30.1234913
 113.4645176  97.2658634  29.5747995 113.0655384  96.3989449  30.7496381
  98.8918591  59.3216658  47.5437927  99.1614723  59.7163677  46.7144823
  99.4670391  59.7202063  48.1969118 113.3386517 101.6191006  25.0160050
 112.7164459 102.0724010  25.5848718 113.0152321 101.7814827  24.1298532
  82.3197937 101.9951153  19.9496353  81.5899277 101.4643002  20.2686119
  83.0217171 101.3647270  19.7879434  81.2762165  92.1201515  29.1285825
  80.6279850  92.4419594  28.5021091  81.2143898  91.1668205  29.0687966
  82.9494381 109.3349648  23.1181002  83.0670071 109.9224567  22.3715997
  82.3649597 108.6497593  22.7939034 114.6407318  73.4359264  64.1617727
 115.5743217  73.3091974  64.3308353 114.5666409  74.3546486  63.9035320
   1.8526688  97.1306610  21.9695950   1.1028435  96.8696499  22.5042629
   1.7914699  98.0846500  21.9206810  18.3057117  88.4144592  17.5360894
  17.8942299  87.7399445  18.0764151  18.8159406  87.9257488  16.8902826
 105.3536892  64.3407202  50.1945925 104.9429703  65.1872349  50.0186443
 106.1290646  64.3294573  49.6334410  79.6947527  63.6206102  22.3831463
  80.2908611  63.0652237  21.8807220  79.0746164  63.0088615  22.7799177
 108.2994652  70.5180216  28.4880590 108.2359219  70.1615715  29.3741393
 109.2394638  70.5529785  28.3107972  66.1098337  81.8770218  42.9624796
  66.3445234  81.3948059  42.1696186  66.5435600  82.7246666  42.8644848
  98.0714035  95.2105999  47.3397350  97.3499584  94.5984268  47.4846029
  98.1875229  95.6478691  48.1832647  92.3144245  78.8049746  33.7647986
  93.1796932  78.6798239  33.3750844  91.7375755  78.2361555  33.2549810
 119.3575287  94.3104553  35.8873963 118.5487175  94.8223019  35.8782983
 119.2783070  93.7510872  36.6600919  97.8118706  82.1242332  45.5730104
  97.5787926  82.9297066  46.0346556  98.7161446  82.2627068  45.2913380
 109.2399883 101.7614174  68.0139685 110.1282501 101.5885830  67.7019501
 108.6781597 101.5424728  67.2705650  86.9270229 107.2873020  34.8575950
  87.4159050 106.5030766  34.6081400  86.4161968 107.0183277  35.6211019
  98.9148521  92.8345776  50.8967590  98.2226562  92.6568127  50.2599716
  99.6621799  93.1121349  50.3669548 103.0152988  93.9258385  58.5987902
 102.8587818  94.7798443  59.0017796 103.5737991  93.4644985  59.2244673
 117.7159119  75.6228018  19.2751467 118.2812977  75.0015736  19.7341096
 118.2301807  76.4290380  19.2334032  97.6216507  95.6256104  35.0235200
  96.9348335  95.4769516  34.3735886  98.0721664  94.7838879  35.0927138
  91.9792938  83.0938816  55.5030918  92.3577881  82.9355812  56.3679123
  92.3354626  83.9416599  55.2372932 106.2205791  83.8802242  19.4260848
 106.4556217  82.9526234  19.4493306 106.1509418  84.1328049  20.3467298
  92.7231026 108.6477852  49.3898010  92.7890968 107.6998901  49.2741680
  93.5840988 108.9805031  49.1363764  94.7096825  85.3549862  42.4698019
  93.8327789  84.9745846  42.5204754  95.1593208  84.8326683  41.8055534
  86.9091129  76.3902330   5.7915819  86.6698074  75.4907608   5.5681717
  86.2240219  76.9265127   5.3924829  63.1084442 110.1948833  19.3881094
  62.8499889 110.9292603  18.8312304  63.9535141 110.4570389  19.7533023
 106.3818073  87.4191856  42.5103140 105.5466270  87.5407314  42.9618931
 106.2473583  87.8125286  41.6480875  52.5514221  84.7741604  50.2054691
  52.6522160  85.4842758  49.5715761  52.0557499  84.1029549  49.7364092
  95.4108906  95.2664280  33.3060956  95.5706215  95.4368591  32.3778343
  95.0298500  94.3885708  33.3263302  88.3524418 102.2116661  40.0471497
  88.4061623 101.3038158  40.3457117  88.5251045 102.1651649  39.1067982
  97.4744511  89.6912098  53.7606192  96.7356396  90.2651405  53.5581446
  97.0719051  88.8508987  53.9798641 113.9136505  81.4599609  47.8859568
 113.1314182  81.1296177  47.4441290 114.6409512  81.0187721  47.4470711
  97.5341797  84.5520210  28.5555816  97.6774883  84.8926640  27.6725984
  97.6552105  85.3101063  29.1273236  93.3089733  79.3846607  45.3351545
  94.1362190  79.3992996  45.8164978  93.2153511  78.4765530  45.0473881
  90.2225208  56.3960886  38.3931971  89.9878979  55.4686880  38.3597875
  91.0354996  56.4194345  38.8979340  82.1286583  91.5535069  36.6347337
  82.6900864  92.0408726  37.2376442  81.4994621  92.2010612  36.3169217
 109.5644951 111.9340038  32.3025799 110.0520897 112.7501774  32.4136400
 109.6979332 111.4615726  33.1243062  89.1437912 105.0193596  39.5682883
  89.9508762 104.8437691  40.0520325  88.6876869 104.1780186  39.5499325
  90.9172916  79.8930693  17.0004678  90.5190849  79.3414307  16.3271487
  91.8579674  79.7414923  16.9088280 105.9402275  59.8381376  51.1498737
 105.5334949  60.5672598  51.6180420 105.7392025  59.0691185  51.6831923
  10.9643674  90.2642918  14.5559371  11.2661314  89.4901276  14.0807164
  11.0582972  90.0302315  15.4793131 119.2626858   4.8155022  43.1851435
 118.6204147   4.2377290  43.5973358 119.5924568   5.3572094  43.9021111
  86.6868591  96.0537052  33.4447503  86.2401676  96.2977219  34.2554045
  86.0148525  96.1331367  32.7677464  95.2527809  94.0308189  59.8742914
  94.9284840  93.4662724  60.5759668  95.9492111  94.5448112  60.2829838
  80.2398491  85.8760071  36.8776107  80.2376080  86.5486240  36.1965752
  80.5820560  86.3211918  37.6528072  96.4997673  93.4173870  49.0434980
  96.5426731  94.1640472  49.6409035  95.7723808  93.6222172  48.4559727
  85.8596992  96.4155865  10.6403065  86.6732407  96.7421913  11.0246384
  85.1734352  96.9448948  11.0466385 107.3975658  75.2976227  45.3407288
 108.1791019  75.8202839  45.5203342 107.1685219  74.9110317  46.1859083
  84.8333931 100.7973289  38.5210299  84.3078041 100.0889587  38.1492686
  84.6488190 100.7652760  39.4597197 100.4183674  89.2687893  44.1738844
 101.0393143  88.6025810  43.8792372 100.3415394  89.1242027  45.1169777
  61.4760971  71.3639688  22.4873543  61.1994076  72.1038151  21.9467115
  60.9576607  71.4451933  23.2878900  15.3448689  21.3765025  33.8986111
  14.9087214  21.4036441  34.7502398  14.9944139  20.5929971  33.4748983
  91.4443493  88.6492348  41.0275078  91.0104942  89.3862343  41.4574242
  92.3737144  88.8780689  41.0398340  14.5937514   2.3757541  60.9545422
  15.3514266   1.8883675  60.6310987  14.5538342   3.1534636  60.3979349
  99.2161751  76.3408709  44.8275089  99.2877960  75.6096697  45.4410648
  99.1597271  77.1168089  45.3851557 105.9363079 106.9510078  35.4730892
 106.0330200 106.0268974  35.7030725 106.2858963 107.0144844  34.5842767
  91.8101978  74.7089291  25.1109123  92.7527332  74.8466253  25.0166488
  91.4358425  75.5895472  25.0862408  79.9720907  83.7339401  21.3262129
  79.6256161  82.8548431  21.4790773  79.8966408  83.8599968  20.3803539
   0.5537133  99.1883659  28.8030219   1.0347240  99.2362309  27.9768443
   1.1859922  98.8337612  29.4280934  92.3947620  77.3477840  49.2664385
  91.6427517  77.9111767  49.0839624  92.2675323  76.5873098  48.6992264
 105.1879692  81.5985680  33.7695527 104.8553181  80.8074570  34.1934800
 106.0414219  81.7475891  34.1765380  78.3204269  96.8461990  21.7741561
  78.1930304  97.6669598  21.2983823  78.9763355  97.0543766  22.4395037
 102.2935486  91.7590141  23.4629226 101.3432980  91.6485691  23.4956169
 102.6261425  90.8980942  23.2091093   0.9804776  85.0786114   5.6330127
   0.5665576  84.9930954   6.4918435   1.7787313  85.5795193   5.8006656
  82.2229958  95.6064034   7.1483707  81.6756916  96.2568951   6.7084157
  81.9726181  95.6668282   8.0702674  99.5059776  79.6955633  49.3559027
 100.0867367  79.0324879  49.7290993  98.7092590  79.6404934  49.8835754
  82.3258400 111.3502884  43.8314676  82.4710178 112.2787476  44.0134859
  81.3816071 111.2783718  43.6919022  74.9208641  72.9741240  21.2182140
  74.9025440  73.2245398  22.1418953  75.7702303  72.5482321  21.1023211
  81.8651581  79.5953798  35.1332045  81.8665218  79.4022131  36.0707092
  81.9687748  78.7417889  34.7126341  94.9399185  74.7979450  51.8177223
  94.9932003  75.6030321  52.3327303  94.0131187  74.5597601  51.8407917
  95.9660530  82.7036095  34.9854922  95.9675694  81.8284798  35.3732705
  96.1055565  83.2939339  35.7259631  94.5519352  92.5358868  33.3146048
  93.6568928  92.5473309  32.9754972  95.1024246  92.4606228  32.5351620
 100.6770897  74.5905638  24.3238544 100.7695389  74.9112988  23.4267402
 100.9410000  75.3302574  24.8710608 105.9064102  77.7728891  37.0963740
 105.9021378  76.9095564  36.6830063 105.5650330  77.6183987  37.9771829
  69.6753025 103.2438278  34.0394950  69.0019464 102.5676918  34.1147900
  70.3137016 102.8788757  33.4267187   7.4606508  65.0636387  41.8058968
   6.6721320  64.6547508  42.1626663   8.0938220  65.0289154  42.5229168
  85.0747395 104.9998379  18.7647367  84.8492432 104.4349480  18.0256307
  84.6081066 105.8176136  18.5922730 100.0817776  89.4060326  16.2311411
 100.8918476  89.6934414  15.8099401  99.7851086  88.6667442  15.7004178
  68.1550598 100.7878208  26.1134219  68.3960104 100.6504059  25.1972938
  67.5187731 100.0974560  26.2998748  96.0688972  81.6813850  49.3282413
  96.4546490  80.8780575  49.6776533  96.8002605  82.2970295  49.2800903
 110.9210014  92.7746296  48.4644127 111.0424995  93.1693268  47.6008797
 111.4995384  92.0120525  48.4627533  92.4642563  91.5883636  15.7607162
  91.7683029  91.1258888  16.2276173  93.1702137  90.9462833  15.6860006
  97.2027111 109.8062134  28.8091373  96.8182564 110.6781673  28.8992524
  96.4709949 109.2058945  28.9520812 101.9064140 105.3505993  36.7891073
 101.3887596 104.5486641  36.7171645 102.5138474 105.1798153  37.5088906
 102.1283913 109.3188572  36.7172480 101.1830997 109.4579601  36.7747808
 102.2863483 109.1264629  35.7929850 102.0655918 108.9055443  44.0569878
 101.9031143 108.7630177  43.1245089 102.9353428 108.5354042  44.2078733
  42.0613480  10.0511086  20.7654238  42.1728230  10.1602185  19.8210204
  41.3496923   9.4166988  20.8508825  14.5629978   7.2240335  63.9519119
  14.0261674   6.8408316  64.6456003  14.1930425   6.8736988  63.1415844
  67.8490734  79.6127653  24.4783640  67.8841448  79.6053362  25.4348922
  66.9477940  79.8618221  24.2736650  92.2447300  81.7945766  46.0864210
  92.2491741  81.8094921  47.0434952  92.4857426  80.8963776  45.8597565
  89.4781113  73.2565784  37.0213342  89.0973473  72.9638195  36.1933589
  90.4024601  73.4039211  36.8210483 103.4133530  73.4922028  20.8015490
 103.8204002  73.6904621  19.9582016 103.6493301  72.5805235  20.9729695
  25.8803082   4.3909442  29.0670800  26.7784381   4.4900262  28.7512040
  25.3450227   4.3995136  28.2735872 106.5761757 108.2572365  45.6066179
 105.9257984 107.5640392  45.7193899 106.0957336 108.9702892  45.1859570
  95.5502319 102.6394081  41.6879177  95.9720039 101.9756889  42.2336531
  96.0217476 102.6002789  40.8558321  94.4940948 107.3501682  31.8403983
  95.3434753 107.6192951  32.1901941  94.3287563 106.4974308  32.2425628
  11.7813468  94.8914623  52.6223660  12.4798596  94.2392635  52.5680447
  11.4133966  94.7759342  53.4984350  17.2005904   0.4390988  21.1267972
  16.6239929  -0.2200509  21.5131760  17.8045058  -0.0624267  20.5790830
  85.6018448 107.8349495  27.9331923  86.3308716 107.7079296  27.3260593
  85.1004505 108.5585403  27.5573564 106.8982601  80.6373405  27.0356536
 106.0731888  81.0890293  26.8582892 107.5644112  81.3218021  26.9725013
  44.5870209   4.8257759  45.6295347  45.1943779   4.0943974  45.7410383
  44.2999744   5.0363350  46.5180779  25.7774520   5.1730448  32.2601223
  25.6543708   5.2412713  33.2069206  25.0674057   4.6020442  31.9668245
 104.0349388 109.2272758  51.7330551 103.8252926 108.6446095  51.0031366
 103.1849957 109.4532108  52.1109104  87.6879025  94.0337849  36.4084744
  87.6563931  93.8037872  37.3370981  86.9499779  94.6306896  36.2843919
  76.4149714  81.7249489  42.1415043  77.0372248  82.2432804  42.6517630
  75.5586767  82.0881748  42.3674679  80.7758713  93.9629555  38.1387448
  80.3505898  93.1908607  38.5118842  80.3990078  94.0440464  37.2625971
  97.4229336  82.6977634  56.2807226  97.2311592  82.3132706  55.4253769
  97.7732563  81.9715881  56.7966413  94.7616959  71.9593000  46.3895845
  95.4388905  72.0880556  45.7254648  95.2417278  71.9207716  47.2168159
  94.3343639  77.0846319  53.3944893  93.4071350  77.3107052  53.4677792
  94.7832775  77.9284573  53.3429146  70.1597929  80.1629925  22.7312088
  69.4683838  80.0799179  23.3879328  70.5822134  80.9980297  22.9324746
  57.4441814  88.6296654  34.2489552  57.0553398  87.8417397  33.8692236
  58.3345890  88.3681679  34.4835234  80.5509472  72.9651451  21.1021042
  81.4432907  72.6624250  21.2703395  80.6503010  73.8901091  20.8767033
 109.2039299  98.9196396  27.9746938 109.0849781  99.8305511  28.2436037
 108.3360672  98.5269070  28.0685973  99.8811436  90.8920765  58.5562372
  99.6979713  91.8306828  58.5974979 100.8331299  90.8301640  58.6344385
  96.8509960  99.6469498  16.9026637  97.0715523  98.7771130  16.5695441
  96.5212250 100.1195908  16.1384034  78.7913752 111.3305187  39.4377613
  79.2864943 111.9230747  40.0034142  79.2025661 110.4759693  39.5677304
  93.2415104  96.5909576  39.7303104  93.6376095  96.6659546  38.8621449
  93.3448792  97.4605942  40.1166677 101.0875797  67.8293610  46.7401171
 100.2268314  68.2378197  46.6478729 100.9923840  67.2356892  47.4849129
 113.9502716 100.4584217  39.3682551 114.5236492  99.7195148  39.1645932
 113.5657597 100.7023811  38.5263109 111.7424679  82.5638866  35.4329753
 112.5737572  82.1861458  35.7202005 111.0905361  81.8948078  35.6416845
   4.6498662  99.2318821  22.1496201   4.9090257  98.5804558  21.4979196
   5.1703936 100.0058937  21.9347143 101.8836784 102.5371552  44.0864897
 102.2697163 101.7476845  43.7070847 100.9567165 102.4863720  43.8532352
  95.1428509  86.4253902  47.1107674  95.0237370  85.6904316  46.5091991
  95.1645947  86.0231018  47.9790545  93.5287952 103.7713432  39.4264007
  93.5800266 104.6739769  39.7408199  94.2953491 103.3416653  39.8058724
  95.8485413  87.3864651  43.7756824  95.4672527  86.8408108  43.0878544
  96.6311073  86.9101429  44.0530491  88.8769436  98.2169342  27.6847053
  88.2895088  98.2393551  26.9292903  88.3611107  97.8036499  28.3770537
  84.8436737  96.5663910  30.2840066  84.2953110  97.0602608  30.8936143
  84.8068047  95.6652927  30.6047940  91.9021034  79.3451738   8.6888450
  92.3395443  78.6496019   8.1978756  92.6169491  79.8665619   9.0540475
 107.8997898  93.5545063  55.6567001 107.7787304  94.1324902  54.9033689
 107.7420521  92.6755619  55.3120184  83.0642414  81.2709999  26.7513442
  83.8705540  81.2873173  27.2669315  83.1875515  80.5476093  26.1367440
 112.3964214 106.5876198  36.9296193 112.7879333 107.0388126  36.1817026
 112.4399662 105.6596088  36.6991115  95.7284164  92.9815388  37.6500344
  95.5428791  93.0418968  38.5871387  95.1160812  93.5954666  37.2446060
  77.0961905  69.1342592  42.0735455  76.2846756  69.2984533  42.5538683
  77.6344204  69.9078560  42.2411442 118.2816029 100.9516716  48.0070782
 118.7255383 100.1316071  47.7910900 118.3635139 101.4839935  47.2157764
  42.5878525  18.1055212  36.7198896  42.4448872  17.2936654  36.2333894
  43.5068703  18.3211195  36.5612793 106.3688087 106.4754486  57.4144030
 105.5285072 106.4743328  56.9560099 107.0067215 106.2260532  56.7457533
  87.5952435 108.3666325  50.2390766  88.3798027 108.2259846  49.7090530
  87.0428181 107.6067829  50.0555372  24.9724603   0.1041804  44.7976351
  24.2328596   0.7081611  44.7310686  25.7295609   0.6688400  44.9531746
 110.7347584 104.0117645  51.6428423 111.5127277 103.4763432  51.7988205
 111.0598278 104.9120808  51.6421843  11.7015505   2.5822851  34.8543000
  11.4634681   2.3173468  35.7427573  10.9804571   2.2675204  34.3091607
  50.7832146  14.1565645  32.3419762  50.2823496  14.8525560  32.7673697
  50.4216909  14.1078866  31.4570117 114.0660667 106.1126900  26.8773127
 114.5938778 105.5209351  27.4134660 114.3410301 106.9891739  27.1464014
  93.5780621 109.1873455  42.0561457  93.8570023 109.8110199  41.3857365
  92.6583385 109.4006062  42.2138357 116.0698605  74.6633720  56.6721010
 115.4749107  74.4174433  55.9637403 115.4984093  75.0215054  57.3513794
  84.3986511 100.2466297  52.2139692  83.8858223  99.6661282  51.6516113
  84.9254513  99.6553230  52.7516222   5.4752851  16.2879813  71.6111135
   6.3467848  15.9068191  71.7180443   4.8979595  15.7091010  72.1089363
 113.8785458  80.4844284  70.2609444 112.9616165  80.3695393  70.0114250
 114.1992569  81.1764240  69.6825647  84.4048023 108.5831070  37.9871106
  83.9999676 108.6162090  37.1203637  84.6973133 107.6764774  38.0803633
 112.0617580 112.3327827  38.6183858 112.7179718 111.6433907  38.7201500
 111.2264729 111.8661499  38.5905385  26.3769269   1.5263607  42.3834705
  26.6718054   1.0890014  41.5847206  27.1294141   1.4806873  42.9733038
  10.3214836 100.4842281  35.9909225  10.0275064 101.1551857  36.6070652
   9.6708733 100.5020046  35.2890515  34.6902227  18.2801330  24.0045476
  33.8367081  18.6148882  23.7294412  35.3067017  18.9734221  23.7688875
 109.7242260  90.7266045  79.9510098 110.3774834  90.0596142  80.1622295
 110.2138805  91.5490818  79.9484110  35.6102610   1.4193429  14.7474992
  35.9482765   1.2486099  15.6266057  36.3403177   1.8321818  14.2861831
  86.9271660 109.8830509  24.9564052  86.0124207 109.8763180  25.2382493
  87.4263287 109.9931049  25.7656932 113.9000511 105.9770203  47.3591042
 113.1324959 106.4628506  47.6608944 114.3355560 105.6937790  48.1630564
  57.2201824   4.5244280  40.1566172  56.9574308   3.6399949  39.9017239
  57.6634789   4.8746443  39.3839145   6.2276405  95.9231949  56.6472578
   7.1488976  96.1825943  56.6624260   5.8979148  96.2591362  55.8137989
   4.4619906   0.5264597  58.9127445   5.1240480   0.1382970  58.3406973
   4.1354522   1.2814686  58.4232903 107.2241592  95.6461143  49.4850779
 107.8275776  96.3769341  49.6193171 107.1646500  95.5562496  48.5339642
  95.9803391 110.1997375  31.6398644  96.8143368 110.6639385  31.5677881
  96.2261772 109.2912292  31.8142200  86.9737148 102.8670692  34.7054672
  87.5830460 103.5811138  34.5181346  87.1091938 102.6737499  35.6331015
 100.1671886  96.4188576  54.6259785 100.4321575  95.5929184  54.2211962
  99.2956829  96.2430191  54.9806499  17.7277279  26.3392997  31.7580914
  17.0768547  26.3293600  32.4598742  18.5692155  26.3805437  32.2124362
  78.2775164  90.4216862  22.3183131  78.4603882  90.3979397  21.3790441
  77.3258114  90.5070400  22.3749447  98.2345676  93.6198425  57.8869343
  98.2038879  92.8903961  57.2679043  98.1159019  94.3994999  57.3444510
 113.1111145  83.7262535  26.4850783 113.0158997  84.6218872  26.8091297
 112.5866508  83.1970882  27.0860386  96.7562294  77.5291586  28.1966805
  96.7496872  78.4567356  27.9604816  96.4975452  77.0758533  27.3942924
 118.7170029  85.6326008  20.6382108 117.7654648  85.5333900  20.6070209
 119.0518665  84.7359848  20.6245613  91.7964840  80.3025532  29.4361782
  91.6312885  80.9728146  30.0992632  91.2087917  79.5841599  29.6701860
  98.6097908  87.0562935  40.4606533  99.1530037  87.8190613  40.2622890
  97.7205372  87.3308086  40.2368164 115.2966022 112.5357819  40.1145554
 114.3585682 112.3592091  40.1862621 115.7140446 111.7951298  40.5543470
  14.6259153  82.2870255  18.0142975  15.4197192  82.8189564  18.0704784
  14.9008858  81.4155865  18.2992971  97.5225735  99.3407631  21.0779262
  97.5007343  98.9361477  21.9451308  98.3545208  99.8135853  21.0551167
  94.5482254  90.9466076  49.5982742  95.4817104  91.1558151  49.5654964
  94.1139030  91.7976761  49.6556282  98.0569267  94.7185612  44.6252918
  98.4660149  93.8768673  44.8263597  98.0516148  95.1876831  45.4596376
 108.1203079  88.3942127  38.4668374 108.5933781  89.1736126  38.7583470
 107.6476860  88.0962372  39.2440557  27.5163579   8.5586917  47.5522137
  27.5164580   7.6015234  47.5444841  26.9462514   8.8040358  46.8235064
 110.2827072  91.7827225  54.4161844 109.6020222  91.7970085  53.7433577
 109.8280525  91.5037537  55.2109718 114.8949814 102.4748898  36.6001463
 114.4718361 101.6194248  36.6733098 115.2560711 102.4884701  35.7137704
 109.9184513 102.7044868  49.3810797 110.2299881 103.1831646  50.1492262
 109.2404747 102.1207142  49.7213650 103.6429977 108.0569077  38.8973165
 103.0985641 108.2030201  38.1237006 103.7171745 107.1047592  38.9616323
  44.5436573   5.2951270  28.5599494  43.9722586   4.5590866  28.7789965
  45.0036621   5.0141007  27.7689695  12.2218287 101.5582752  40.2500820
  12.8310442 102.2739220  40.4315758  12.4430919 101.2745094  39.3630910
  77.2588491 106.7076206  30.8015609  78.1469917 106.3566780  30.7361722
  76.8240547 106.1416912  31.4394569 105.4018879  90.5528831   9.7305793
 105.2657223  90.4862976  10.6757021 105.3097725  89.6551514   9.4114882
  22.3022604   3.7951213  33.0885196  22.9843593   3.1263089  33.1490660
  22.5775170   4.3527576  32.3608470  21.8490648  11.8034434  59.0839148
  21.2415910  12.5371838  59.1778898  22.1924996  11.6623306  59.9661684
   4.6203470  94.6010494  35.1257920   3.8674277  94.4590569  34.5520473
   5.2116114  93.8743973  34.9293041 115.5534458  79.1264391  36.0091352
 116.0153294  79.5161629  35.2668333 115.3383446  78.2400656  35.7187796
 102.5719261 107.5884533  41.2464714 101.7015457 107.1925545  41.2026453
 102.6491356 108.0878067  40.4335070  27.5365090 104.3062401  69.3459749
  28.3558416 103.8853550  69.6063280  27.3700213 103.9798546  68.4616804
  97.3548889  97.7195263  60.2837229  96.9287109  97.0913792  60.8668518
  98.2732868  97.4500179  60.2714682   8.1272233 111.6765213  36.3831210
   7.2841853 111.5838337  35.9393573   8.7095809 112.0419121  35.7171011
  24.6041179  30.4656076  41.0969210  23.9966559  31.1979103  40.9922457
  24.3076158  30.0200224  41.8905020  81.5170765 106.1774254  33.1386614
  81.6199684 106.4753628  32.2348475  81.1135769 106.9184399  33.5906577
  84.2536640 100.5086136  41.1148071  84.7189045 101.0737228  41.7316055
  84.3491364  99.6280861  41.4778280  95.7416344  92.8741264  16.7286813
  95.0525093  93.0860710  16.0990679  95.3821564  92.1512604  17.2429466
  67.8605652 106.5684414  23.9825797  67.5348711 106.9301891  23.1583881
  68.6632681 107.0591545  24.1589236  95.7458878 105.0067425  42.9743576
  96.6693020 105.1686764  43.1675482  95.7514763 104.2355633  42.4073648
 118.1885624  75.1552391  50.7529926 117.3068523  74.9149609  50.4682302
 118.1649399  75.0668526  51.7058086  97.7249527  67.0913839  43.0022240
  96.8764305  67.3115063  42.6177835  97.5083637  66.6263199  43.8103294
 102.4150467  87.4182415  43.3628225 102.6227474  87.2290230  42.4477863
 102.5264072  86.5803051  43.8119221  92.8005600  95.2928734  24.8186612
  92.9105282  96.1772537  25.1679564  92.6503849  95.4221821  23.8821983
   5.3867722 111.7018795  43.9047098   4.6834454 112.3486900  43.9613581
   5.8010572 111.8720055  43.0587435  12.8130960 100.3693771  37.6308417
  12.5719666  99.5818424  38.1185627  12.1609545 100.4277420  36.9326019
   0.9288786  96.5363598  32.1081567   1.6260451  96.0310173  32.5262666
   1.0942373  96.4420223  31.1700797  37.8171611   4.5957860  31.3829803
  37.1206498   5.2518857  31.4082122  38.2913160   4.7808912  30.5723333
  90.8706856  95.1361084  19.5857704  91.5228748  95.7614136  19.2697358
  90.9448147  94.3908691  18.9896572 105.6394100  86.6044521  19.4572580
 106.3252640  86.8871593  18.8523483 105.6880569  85.6485748  19.4446731
  92.3436832 108.2774544  27.9286504  91.7306805 108.7891293  28.4565282
  92.1473885 108.5261059  27.0253921  39.3975043  24.3499875  43.0515766
  39.0931654  24.6718836  42.2030497  39.1310668  23.4307742  43.0686140
   5.7285398   1.3208757  41.7628098   6.3168973   1.5159462  42.4922037
   6.3090909   1.0413659  41.0549498   9.6824855   6.9686478  49.5684719
   9.8988491   6.2766910  48.9434814   9.4154322   6.5014625  50.3600883
   6.1648107 104.8692894  42.8839350   5.8255184 105.2672195  43.6856604
   6.7423356 105.5356884  42.5116253  25.0001788   1.8156080  47.8586435
  24.2369342   1.2620957  47.6933813  25.7033992   1.1991532  48.0628443
  87.9252720  99.5497322  40.9304380  88.2201481  98.6390877  40.9271431
  86.9707203  99.4922447  40.9721613  99.5823193 106.4121342  21.5312409
  99.5869350 107.3421192  21.3046432 100.2884007 106.3179016  22.1706200
   5.6226712  91.9448280  39.2231178   5.5462515  92.7755737  39.6924281
   6.4680213  91.5906811  39.4991541   9.2625278   6.7198724  31.6178393
   9.3094522   7.6676601  31.4924264   8.8695765   6.3904840  30.8095527
   7.3543745  85.0647354  45.4659939   7.0531571  84.4019222  46.0874271
   7.9969805  85.5778790  45.9558678  10.8823204  76.1516380  57.7855062
  10.2279162  76.8391562  57.9092073  11.7172480  76.5781975  57.9783058
 100.8312130  85.0199509  39.8014331 100.3004360  85.0285912  39.0049219
 101.3708591  85.8080006  39.7382092  12.0932770  90.8313942  60.3859234
  12.7867270  91.4186954  60.0852013  11.4010072  90.9232140  59.7312784
 105.8558941  96.4381790  31.0902524 106.7882919  96.3170910  31.2697053
 105.4168224  95.8265209  31.6812849 108.8737679 108.1990147  34.6023870
 108.1489754 108.0696011  33.9907002 108.4929180 108.7024307  35.3219461
 100.4869747  96.8104267  21.6407633  99.9933052  96.2129593  22.2025037
 101.3509083  96.8644524  22.0493484 117.1472263   9.3938476  45.3179121
 116.8783665   9.8704952  44.5325756 116.7368317   8.5337424  45.2283049
 101.0674381  99.0044022  30.2886510 101.7359257  98.3424664  30.1120090
 100.7099724  98.7618065  31.1428142 111.4006710  30.3581476   8.8540804
 111.4915180  29.4766331   8.4922683 110.7221127  30.2733898   9.5238614
 118.2105350  97.4145031  44.2767811 117.5370598  97.0051003  43.7335920
 118.0853271  97.0295906  45.1441908 104.1374207 101.8930817  52.2893572
 104.8026562 101.7057228  52.9516220 103.3750534 102.1822357  52.7907658
   5.3181177   5.3293371  22.5988030   5.7582873   4.6312723  22.1138406
   5.1029211   4.9348959  23.4439898 105.5638123 103.3245468  50.3310442
 105.9017372 103.9457512  50.9761477 104.8732853 102.8502369  50.7941103
 113.3979607  86.9140053  26.1611390 113.3259869  87.8517151  25.9829497
 112.5283718  86.6617775  26.4716482 106.0798836  87.5306797  21.9319892
 106.7904472  87.1070862  22.4135494 105.9521008  86.9796753  21.1597824
  99.4070530 103.3517551  53.7995720  99.2437840 104.1233635  53.2571745
  98.9824390 103.5512829  54.6339130   2.3208143  99.3765926  26.7504358
   3.2566726  99.5291233  26.6195273   2.2068110  98.4391022  26.5944171
 107.8940201  79.9940825  32.3612642 108.6481571  80.1204109  31.7854524
 107.2748756  79.4860363  31.8370700 112.4914551 104.6241570  29.4262838
 111.7775822 104.8999119  30.0012493 113.0969524 105.3655052  29.4237781
 108.0559826  91.8302536  47.9442072 108.9574051  92.1047211  48.1125402
 107.5862217  92.0432281  48.7505627  43.3211470  10.3917956  60.1024151
  42.3711729  10.3948283  59.9850512  43.5217857   9.5074868  60.4089642
 108.0166054 100.2745342  23.8702583 108.5112286 101.0809994  24.0158272
 107.1002769 100.5511951  23.8762498  67.7913332  18.6494195  30.9206176
  68.2879448  18.0461967  30.3676891  68.3601236  19.4138300  31.0121679
  37.3070383   3.2521993   2.2389625  38.2085967   2.9315257   2.2146276
  37.2895837   3.8620916   2.9764980  36.9835997  20.9450078  28.9292121
  37.0295787  21.7254734  29.4814706  36.5357089  21.2389421  28.1359720
  33.7615037   3.0340496  21.5893984  34.3334794   2.5391427  22.1760345
  33.1202745   3.4441742  22.1697927  46.1990356   9.8469394  17.0517266
  46.3107395  10.3705251  16.2582469  47.0347500   9.9274510  17.5114346
  73.2249308  24.7768927  22.1850395  72.6783228  24.4323301  22.8912473
  74.0906477  24.4023371  22.3477268  31.4699554  21.8665648  20.8091259
  31.8518591  22.5673199  21.3376355  32.2195530  21.4558220  20.3782821
  95.1152897  72.1651220  96.3393974  94.6910667  71.4474773  96.8097878
  95.4591942  71.7595959  95.5434704  76.9018221  41.8638086  27.8143620
  76.1492729  41.4011288  27.4458051  77.4045515  41.1840820  28.2632113
  57.7811289   3.0109635  33.0596209  58.0134153   3.1529048  32.1419454
  56.8242264   3.0321813  33.0705142  50.9425020   7.7333498  20.5976033
  51.1966801   7.9480892  19.7000992  50.9645605   8.5712862  21.0597801
  32.5753379  99.8914337  41.8912458  32.1253204 100.7357502  41.9201088
  31.9071746  99.2550659  42.1458721  63.4625196   8.6189449  33.0611563
  62.7936649   9.0685809  33.5775781  64.2830324   8.8056087  33.5173941
  49.9702930  35.7892847  17.4486458  50.6306696  35.1865149  17.1068788
  49.8088360  36.4003396  16.7297733  79.2758846  61.2297297  93.0935955
  80.1297188  60.8369064  93.2749748  79.0354586  61.6677427  93.9100361
  22.9035234 110.9467888  35.2859759  22.6721859 111.8587875  35.1099730
  22.5589585 110.7772160  36.1627603  11.8679881  92.8194332  20.9176540
  11.4770532  93.1315804  20.1015878  12.6092589  93.4060955  21.0678864
  58.3285618  34.6188784  38.3701944  57.3745823  34.6973062  38.3685660
  58.6133003  35.1742148  39.0959740  61.0747242   3.3357659  51.2295723
  60.4055071   2.6553294  51.1561441  61.3456392   3.5036471  50.3269958
  61.2488937  27.7366257  28.0197716  61.4259672  27.3136759  28.8600039
  62.1148109  27.8911877  27.6422358  54.1360569  21.8232989  22.1445918
  54.4999027  22.1743393  21.3318062  54.8879337  21.4435387  22.5992227
  52.4974346  22.4099803  29.0567636  52.1590471  23.1282330  28.5221243
  53.3276749  22.1739316  28.6429858  55.0276184   9.5990366  22.5679636
  54.7169161   8.6938608  22.5867534  55.9259892   9.5507330  22.8948092
  82.5704861  10.0255048  19.4718683  83.4698486   9.7955221  19.7052956
  82.6587772  10.7901835  18.9029205  14.2937040  90.9470844  22.9253793
  14.7587109  91.2943172  23.6865830  13.4828651  90.5863762  23.2840681
  23.8231611  11.9470239  20.6186652  24.4477868  11.9685900  19.8936772
  24.0796709  11.1816716  21.1331272  55.4744720  12.6487160  47.6785183
  55.7965660  13.5316455  47.4970770  56.1216211  12.0701015  47.2752428
  60.5643654  40.8554220  22.8770947  60.9485245  41.6106272  22.4317622
  61.3147688  40.3816414  23.2357764  47.9297256  13.6492169  16.4726651
  48.0668640  13.0492020  15.7395852  47.6809740  14.4769752  16.0613596
  55.1120186   9.5377558   3.0844927  55.3519440   8.6236101   2.9328170
  55.5991220  10.0264680   2.4210757  74.9003553  18.5394454  25.3563333
  74.0747929  18.9714599  25.1371527  74.7150135  17.6053822  25.2593541
   5.2058405 102.4705601  11.9488215   5.8665115 103.1067467  11.6749358
   4.3793869 102.9519463  11.9104862  37.2999573  24.5093584  27.9722285
  36.8977714  25.1302290  28.5796785  38.2299781  24.7357273  27.9791975
  27.2944283  32.6375794  29.4949460  27.7554321  32.2741389  30.2509999
  27.9818249  33.0466127  28.9691973  79.1823864  28.6458373  21.1730123
  79.3607903  29.4100189  21.7211270  79.5613194  28.8674688  20.3224087
  50.3905821   9.3472177  25.1880002  49.4708872   9.4476748  25.4335666
  50.4776335   9.8466802  24.3760943  26.8223691 110.9697151  53.0790710
  27.1776962 111.0659218  52.1954918  26.3339138 111.7789173  53.2302189
  41.8835592  15.1738214  22.0880127  41.9211483  15.9363639  21.5106511
  40.9520769  14.9602199  22.1423411  69.5313740   4.8213166  22.1748519
  69.6594620   3.8931656  21.9789934  68.8366032   4.8335263  22.8331661
   9.9931741 107.0351410  21.6246510   9.1356283 106.6111946  21.6580701
  10.3646755 106.8930912  22.4953055  60.4562378  28.3198857  15.7942462
  59.5350409  28.2172084  15.5553174  60.4594946  29.0300393  16.4360428
  92.1123409  73.5469723  83.4669304  92.0460415  74.5015574  83.4914970
  93.0032444  73.3610535  83.7635040  27.1987534 111.6761589  10.5435753
  27.1072268 111.1144638   9.7739267  28.1434727 111.7355919  10.6857336
 114.4651508 109.1221523   8.3192539 113.7556267 109.1168690   7.6767761
 115.2378845 108.8487053   7.8249568  44.4290304 102.8937531  18.5379958
  44.6849728 103.2959938  17.7079809  45.2577925 102.7027130  18.9771879
  72.6984787  18.1045175  11.8164110  72.0023394  18.2743466  12.4510574
  72.3324537  17.4414313  11.2311137  55.8824348   7.7141488  56.9305420
  56.5299273   8.3853382  57.1461678  55.0880718   8.2058513  56.7221069
  47.6661110  29.6934605  40.9410954  48.5811520  29.9743652  40.9355068
  47.2354221  30.2676678  40.3078318  53.3711624   6.3568711   8.1464833
  54.0780020   6.7535210   8.6556751  53.5392904   6.6350430   7.2461581
  39.9263453  18.5042298  21.7131114  39.5985198  19.1251242  21.0625339
  40.8223629  18.3157253  21.4341021 116.3474751 108.2480145  19.1260326
 116.3510609 109.0778923  18.6490321 115.6525707 108.3486843  19.7765720
  49.8673582  26.1890316  24.1298175  49.8553228  27.1108222  24.3874812
  49.4336557  25.7330465  24.8510742  82.0463943  18.0398917  25.1115942
  82.3197079  17.9374969  24.1999769  82.0097256  17.1461964  25.4524684
  69.2262459  25.3757501  31.5105867  69.3864441  26.1964154  31.0446715
  69.5578241  25.5335188  32.3945546  29.3836427 106.0567188   3.8536441
  28.5228014 106.1994457   3.4601828  29.8786974 105.5866432   3.1826851
  61.3227034   0.9609253  12.2399616  61.5708256   1.3450107  13.0808806
  62.1361303   0.9424419  11.7357588  62.8415728  22.2434020  37.4112940
  63.3407021  21.7815614  36.7376423  62.6018620  23.0755544  37.0035052
  59.7089863   9.8443234  36.9391727  59.2242765  10.2653253  37.6491356
  59.0321112   9.4603300  36.3818383  63.8644028  23.8777924  40.6204271
  64.0397549  22.9805660  40.9041023  64.5257330  24.4044781  41.0692835
   2.8884163 104.2841053  17.3180950   3.3201849 104.3270588  16.4648879
   3.4728649 103.7496090  17.8556538  48.3439541   8.1701511  23.0510831
  49.0901756   8.6339223  22.6712155  47.5962305   8.4437263  22.5197673
  84.2692089  62.5168657  92.0349216  83.3168411  62.5521803  92.1243382
  84.4415474  61.6598272  91.6450310  75.5549622  50.3671503  41.3836098
  75.6561565  51.1223173  40.8041954  74.9524450  50.6666613  42.0644188
  67.8289318  24.4715524  23.1750441  67.6048946  24.3488050  24.0975261
  67.0469284  24.1915298  22.6993418  27.3008800 111.3557625  18.1286490
  27.8939652 110.6063747  18.1824589  27.6148319 111.9585609  18.8026667
  17.9624569 101.8383598  32.0822811  18.2326806 101.2072754  32.7493262
  17.0609474 101.5941811  31.8727827  53.8259554   6.1691886  19.3167770
  54.5684147   6.7731464  19.3018818  53.1814146   6.5675116  18.7318492
  62.7626467  10.9715021  52.4401045  63.3583355  10.5365598  51.8300104
  63.2591152  11.7225468  52.7651978  52.1881866  21.2157726  33.0316186
  52.9661369  20.6697369  33.1450748  51.8627501  20.9908700  32.1599865
  52.9073477  21.2950945  24.5766497  53.7176895  21.0630965  25.0302458
  53.1848478  21.5127325  23.6867833  37.2332525  26.1795926  20.0949025
  37.8277326  26.7436767  19.6002984  37.6853442  25.3371453  20.1410246
  38.5448623  30.1300168  23.4747481  39.0919471  29.4619155  23.0617452
  38.2040334  30.6458187  22.7439833  68.0530930  13.4999931  36.0779333
  68.9215374  13.1093097  35.9809399  67.4879551  12.9701650  35.5156755
  58.8658524  20.3742719  46.5952063  58.0082941  20.0209928  46.8318892
  58.6690807  21.1303926  46.0422182  64.5019054  19.5239449  10.4962361
  63.7346840  19.2863381  11.0169542  65.1830816  18.9151037  10.7817829
  56.7472458  24.1978359  51.4221001  57.6667643  23.9320636  51.4314032
  56.5560627  24.4308114  52.3306131  29.3486071  16.4336181  56.1973333
  28.4411955  16.7356932  56.1575127  29.4546270  15.8902037  55.4165077
  66.8834400  24.4244981  29.4593072  67.8322077  24.5368958  29.5179725
  66.7151737  24.2920709  28.5263658  46.2050152  12.0458889  31.9280672
  46.3325262  12.9095662  32.3205400  46.8830156  11.9861829  31.2550282
   7.0690370  98.3426189  38.5535479   7.2451192  97.8712940  39.3678427
   6.6957384  97.6818275  37.9702497   6.4347607  88.2162666  32.9318547
   6.8814862  87.4470615  32.5783134   5.8122605  88.4665775  32.2491574
  61.1415005  27.6213169  41.8139267  60.9557056  26.6833878  41.8586922
  60.5327225  27.9548860  41.1548710  11.6927767 108.7811089  25.0295424
  11.6812360 109.6965885  25.3088188  11.1915648 108.3193207  25.7016826
  47.3688316  26.0258365  30.3282619  47.6394510  25.4599094  31.0512590
  47.5459194  25.5103660  29.5413947  42.3858690   1.1607629  22.1749520
  43.3116150   1.4037263  22.1610594  41.9882917   1.6926074  21.4855289
  47.2155762   0.8701824   1.0282980  48.1288719   1.1034261   0.8618204
  46.7211580   1.6553310   0.7930829  49.3719673  16.2746596  33.3246350
  49.0029907  16.6983950  34.0995765  50.1472759  16.7948174  33.1135225
  52.5559807   4.6287221  29.2947245  52.6048422   5.3088427  28.6229515
  51.6481733   4.3267387  29.2642307  88.9397430  66.4807415  93.6712551
  89.4061184  67.2149849  93.2717419  88.9307022  66.6832542  94.6067429
  42.0879173  12.2843468  25.8770752  41.4318752  12.9018557  26.2003803
  41.5924072  11.6704583  25.3350043  62.2201777  19.4405389   7.3359239
  61.4473391  19.6194208   6.8002415  61.9977951  18.6446357   7.8189528
 111.4531326 111.5447140  45.3972387 111.0697937 111.3158035  44.5505476
 112.1269512 110.8805561  45.5425024  61.8404961  30.8924174  38.4912014
  62.7030754  30.8386922  38.9026642  62.0076370  31.2865973  37.6350951
  93.4137535  63.4456062  96.0517406  93.6930752  64.2464209  95.6079960
  92.5178719  63.6286402  96.3347912  34.5696592   6.4780611  14.0387833
  34.1252542   6.0416096  14.7655892  34.2582583   6.0202038  13.2579958
  36.4154077  15.5672705  27.0858002  36.1521411  14.6768320  26.8533373
  37.3653531  15.5745327  26.9683886  21.5129209  99.4609165  64.9520493
  21.2909937  99.2536545  65.8598042  21.1021543 100.3107643  64.7931051
  27.6703334 104.7081947  24.7281408  28.1279087 103.9073849  24.9841905
  28.3417773 105.3894711  24.7635794  51.8825436  13.8472307  22.9099035
  51.6197634  14.7615707  22.8042579  51.3856173  13.3763754  22.2408819
  55.0559711  31.8362260  41.0113335  55.3919554  32.6480269  41.3912344
  55.2391577  31.9160724  40.0752258  74.0697861  31.8310761  29.5064950
  73.9442492  31.0992551  28.9024162  73.9546490  31.4467406  30.3755522
  19.2247355 110.4809284  23.3447218  19.1120219 110.5782032  22.3991728
  20.1681924 110.5641365  23.4832811  86.0063934  78.0610275  86.1392212
  86.5896034  77.9504538  86.8901443  85.1979733  77.6177549  86.3965130
  26.4883065 103.5126495  56.1628437  27.1904230 103.0278015  55.7290411
  25.6858349 103.1911373  55.7518721   7.9336381 111.9289207  11.1135244
   7.1004164 112.3984146  11.0741782   8.4280795 112.3756886  11.8006623
  46.0870123   3.6668047  41.5025568  46.7761087   3.0612987  41.2291670
  46.5567493   4.4034123  41.8936968  42.2074223   5.6085968  32.8270984
  42.8283548   6.2147796  33.2311034  41.7952728   6.1177379  32.1291447
  31.0625958   3.1634456  35.5123138  31.9399023   2.7950451  35.6164598
  30.5378342   2.7255449  36.1824608  94.1561508  84.1905022  88.5357380
  94.6763706  84.2192364  89.3387222  94.7980404  84.0517616  87.8393364
  55.6469107  19.2969167  14.0892982  55.5446863  18.3866644  13.8114083
  56.0019970  19.2381251  14.9762535  46.6496420  29.5807385  31.1874771
  47.0404196  29.3528318  32.0310307  47.3170424  29.3454123  30.5429411
  26.4564276  27.0254374  36.1024666  25.6516290  27.4317884  36.4240432
  26.3335514  26.0900092  36.2640524  43.9604092  13.0197394  22.7718925
  44.7086382  13.6153984  22.8115368  43.1957340  13.5955048  22.7701235
  61.3165808   6.1764419  51.9522953  61.8617487   6.4711314  51.2227917
  61.1764288   5.2443969  51.7853212  31.1038876  24.0102720  46.1270857
  30.8877730  24.8604774  46.5100670  31.7412019  24.2113185  45.4417801
  69.3142986  21.0658503  24.1911173  68.5202408  21.3405609  24.6496415
  69.0298653  20.3432679  23.6314726  21.9208741  88.3728313  22.3326635
  21.8851137  89.2074776  22.7999067  21.8372726  88.6113930  21.4094472
  53.8093376   6.4727128  27.8446746  53.8662815   7.0631289  28.5959387
  53.2865095   6.9523758  27.2021723  37.1515727  26.6615367  10.1452887
  36.9070888  27.4820256   9.7172040  38.1004500  26.6059017  10.0322855
  10.6130207 111.9174194   5.9768152   9.7504359 111.6837978   5.6338841
  10.5292904 111.8161392   6.9249523  40.5384779  21.3307285  13.6436749
  39.6745992  21.6201425  13.3501077  40.3831863  20.9532642  14.5094895
  54.1991997   7.0092183  23.4713316  53.5473919   6.5234947  22.9659128
  54.9598789   6.4289701  23.5015726  61.5155363  20.4943895  45.5808306
  61.3418102  20.9171152  44.7397852  60.7742453  20.7445860  46.1322975
  61.7794037  20.6429887  17.5633717  62.6536894  20.9120488  17.2814834
  61.5451765  19.9297905  16.9694698  58.3523464   4.1908249  18.0398905
  57.4705410   4.0461713  17.6967776  58.2125187   4.5711321  18.9070964
   6.7234862  99.8232746  28.3574152   6.6006380  99.0037632  27.8783178
   5.9622478 100.3541470  28.1230569  73.4449673  29.1559362  24.3525243
  73.5963249  29.0771008  25.2943897  73.8547850  28.3761883  23.9779902
  72.3386717  31.2858367  54.4410801  72.6335716  31.2278485  55.3498697
  71.3901234  31.3978839  54.5037603  48.2724094  31.8643999   6.1719424
  47.4557924  32.0364738   5.7031572  48.9467239  32.2903585   5.6427038
  63.5034466  14.3807650  20.9845853  63.0886078  13.5205126  21.0486507
  62.7806377  15.0022793  21.0711741  46.2538433   3.3145294  32.5187039
  45.3069687   3.3931023  32.6348233  46.4117575   3.6199260  31.6253805
  39.6267867  15.5714536  13.5678041  40.5011940  15.4339635  13.9321363
  39.7612715  15.5831099  12.6201701  58.5539150  55.7246065  40.4070663
  57.7974319  55.9473991  40.9495831  58.2586956  55.8785009  39.5096254
  64.8202848  21.9814992  31.9970059  64.8830557  21.3043880  32.6706624
  64.4591951  21.5285039  31.2350082  67.4854708  25.4040241   6.6827601
  67.5946951  26.1723709   7.2430664  68.3788347  25.1267838   6.4796180
  11.9990933 102.8934002  18.6807501  12.4469590 102.3133850  19.2965651
  12.6757956 103.5065842  18.3938527  75.9242725  30.6057167  13.1930709
  75.8593559  29.6521044  13.1416869  75.4211664  30.8383274  13.9734602
  95.5837250  45.6337118  19.3621576  95.3068352  45.9202814  20.2324677
  96.5369225  45.5707169  19.4227374  93.4896755  60.4855585  92.9622841
  92.7188206  59.9197388  93.0055428  93.2133293  61.2259388  92.4221897
  99.7280312  85.6124973  88.9323425 100.0097561  85.1166058  89.7010803
  99.8310852  85.0018787  88.2024479  63.6079311  17.0247793   4.7707102
  63.3910370  16.8890667   5.6930834  63.9250422  16.1726904   4.4713506
  32.7495599  96.6679573  14.8662949  32.4213552  97.3705101  15.4274857
  31.9615650  96.2254143  14.5509434  93.2351780  21.9944143   1.6785578
  92.8155708  22.6309943   2.2572871  93.4786510  22.4998403   0.9029929
  12.6921988 106.7391109  81.0601807  11.9991922 106.3745022  81.6106701
  12.6157832 107.6863384  81.1748886  53.6974192  38.6553073  29.8424578
  53.4233284  39.5273352  30.1264906  54.4617319  38.8131475  29.2882538
  75.7130051  23.7082958  22.9167271  76.4920998  24.0694118  22.4938321
  76.0287619  22.9301596  23.3761072  99.3181801  52.0701456  88.2025909
  98.8519955  52.8703737  88.4445477  99.9958992  52.3627090  87.5932312
  80.9643173  52.3331070  22.7812409  80.0899887  52.6755857  22.5955081
  80.8581448  51.8307304  23.5890627 104.5954323  86.9783115  93.5959911
 104.0352249  87.7295303  93.7910652 105.1654148  86.8995380  94.3609428
  73.8813686   9.5030147  27.5273323  74.0095377   9.3382359  26.5931749
  73.9444780  10.4542255  27.6136255  78.5552025  25.8497977   8.1125200
  79.3869114  26.1417198   8.4857130  78.7652254  25.0242996   7.6758575
  78.5129642  25.1898623  33.3886051  78.9974070  24.6680689  32.7488542
  78.6657572  24.7474051  34.2235398  49.3609095  56.6136122  15.7276392
  49.9800205  56.2237358  15.1104462  49.5161963  57.5556898  15.6597579
  58.6391401  28.1506395   9.3887383  59.0700054  27.4995208   9.9424845
  57.7592611  28.2332397   9.7564667  61.1848116  25.2224588  15.4166234
  60.7901716  26.0804367  15.5727279  60.6122589  24.6082807  15.8761907
  61.4984703  33.0024648  23.9165711  62.4487925  33.0513811  24.0201139
  61.1821842  32.6766658  24.7592163  84.8187351   5.0011647  14.2029893
  85.3639221   4.7344720  14.9431801  84.0153217   4.4901255  14.3008852
  41.7503023  15.4530525  44.5273685  42.1277142  15.2972007  45.3931046
  41.4237833  16.3519788  44.5667219  72.6464844   5.5870938  25.4338026
  71.8810415   5.9265566  24.9700260  72.3146009   5.3442693  26.2981653
  61.1002350  46.4946365  30.3648233  61.8664074  46.1884546  30.8500743
  61.3565683  46.4271593  29.4450569  39.2476535  36.9741631  20.2334237
  39.2214274  37.5467348  19.4668043  39.5864868  36.1432362  19.9002850
  77.5463152  33.3653545  13.7432563  77.1344852  32.7563190  13.1303096
  77.1542358  33.1541705  14.5905519  65.5071259   9.6764302  43.4086227
  65.5652332   8.9545971  44.0345716  65.4603529   9.2487794  42.5535440
  63.1277704   9.5689857  48.3232021  62.8133488   9.8843735  47.4759102
  62.3729134   9.1237766  48.7081814  52.6250219  27.9615140  17.0598793
  51.9766903  27.7382302  17.7277422  53.3948851  27.4413514  17.2900462
  91.4721298  30.1187158  24.2763138  90.6979561  29.5592761  24.3388391
  91.8891144  30.0474524  25.1349640  52.3005104  60.6214046   6.8353593
  51.8849134  61.1001110   6.1181784  52.5114584  59.7657824   6.4616710
  90.7835007  32.3782635  29.6188140  91.1596870  32.8755617  28.8925815
  90.0718021  32.9298568  29.9435544  74.3301773  38.0871272  26.1977148
  74.5065069  37.2712994  26.6662931  73.6263227  37.8657818  25.5879402
  65.1419687  24.6017933  18.0010653  64.8763084  24.8021626  17.1035635
  65.9814310  24.1514802  17.9074955  49.2135382  28.7374640   7.8847146
  48.7720728  27.9010248   7.7373695  50.0841999  28.4963131   8.2009852
  32.8103304  16.0644400  18.8145232  32.7310848  15.3983140  18.1317139
  32.0536661  16.6353214  18.6811686  59.7502613  22.8529119  16.2486136
  59.7833681  21.9802022  16.6404223  59.7547817  22.6921511  15.3050208
  63.2129622  64.9729395  26.5709043  63.3057117  64.8237514  25.6299639
  63.8233471  64.3547297  26.9727421  72.2444296   8.6073697  21.6665387
  71.6143608   8.1092739  22.1872544  72.1064520   8.3040929  20.7692003
  84.2296028  47.3805189  47.6518488  85.0310993  47.5798130  47.1679926
  83.7628746  46.7567968  47.0956469  57.8841019  58.7211895  16.9941378
  57.2240114  58.9803505  17.6370573  57.4492979  58.8279343  16.1480987
  59.0964651  21.8041801  13.7879241  58.5503674  22.4469686  13.3353424
  58.8971758  20.9737754  13.3555532  92.9849339  36.5628004  27.1438694
  93.4537983  37.3791027  26.9705176  92.7999687  36.2038851  26.2759972
  85.5176830  71.0948515  95.9677410  84.8875237  71.2606144  95.2665615
  85.8944321  71.9537210  96.1591530  61.7855024  29.0404654  23.9053631
  62.1483231  28.1779528  23.7037134  61.0664940  29.1493344  23.2829404
  79.6202993  46.2990427  28.6525035  79.2560768  47.1807623  28.7308812
  78.8745356  45.7530975  28.4034920  44.9748087   0.4926080   8.4694624
  45.3455639   1.3412818   8.7113833  44.5497227   0.1804662   9.2682743
   1.9047496 106.9047165  23.4812975   2.3091191 107.7404022  23.7143946
   1.2965527 106.7247105  24.1981840  10.2925086 109.5496750  11.5024948
   9.4147444 109.8308277  11.2442005  10.1942933 108.6211109  11.7131174
  56.1674595  15.3926992  16.2839866  55.9920979  14.7646916  15.5832112
  57.0021248  15.7942259  16.0424435  80.8150578  69.4982767  97.3486900
  81.2687588  69.2525196  96.5424728  80.2433586  68.7542915  97.5381184
  51.1931944  43.6038828   3.3564100  50.9946346  43.5927629   2.4200973
  51.8784666  44.2658710   3.4480798  67.0679379  36.7070556  20.3527284
  67.9560995  37.0217824  20.5211020  67.1766996  35.7764339  20.1569176
  41.0168123  23.0272245  10.7624459  40.6439018  23.5054803  11.5030134
  41.2513494  23.7077498  10.1314878  55.3225327  15.4920447  19.0273488
  56.1563730  15.7384598  19.4276273  55.5431366  15.2933884  18.1173468
  67.3893499   4.7562295  19.0076160  66.8559933   4.1055983  19.4641685
  68.2469082   4.3410563  18.9156187 103.1200695  63.3715773  82.4152660
 102.3241234  63.8123894  82.7125549 103.8321590  63.9418411  82.7050209
  39.2012215  18.7976730  46.3840246  38.4833002  19.1518879  45.8592844
  39.6276259  19.5687318  46.7580318  61.9431925  20.4836202  32.9670882
  62.8914881  20.3697515  33.0303049  61.8180656  21.0205030  32.1845698
  86.4884377  28.4408665  26.0845685  86.9069672  28.9260960  25.3735018
  85.7960510  27.9376698  25.6560659  76.7944813  10.1477242  23.3048773
  76.8174219   9.5526874  22.5554514  76.6526604   9.5766658  24.0598679
  67.2313261   9.8965961  20.7461786  66.4202309   9.9578685  21.2507558
  67.2883701  10.7318175  20.2820826  18.6303222 112.2292614  12.1622956
  19.2836773 112.7508450  12.6284683  19.0082145 111.3506508  12.1239090
  88.8491917   6.6963875  37.9306984  88.7456799   7.5761217  37.5679517
  89.2749119   6.8347472  38.7767792  76.6772604  53.6782265   5.0547373
  76.1644840  53.0417681   4.5565286  76.0603046  54.0355539   5.6934226
  73.9089918  35.6156588   0.9997291  73.9375162  35.5808854   0.0435863
  73.9666462  36.5482998   1.2073062  77.9053545  16.6382086  45.3632784
  77.1517515  17.1127093  45.0123310  77.7374029  15.7228088  45.1395226
  47.7069855  41.2146616  14.8577297  47.6843262  40.8004856  15.7203877
  48.0556870  40.5387068  14.2765915 113.5768795  85.2734661  93.3890629
 114.5005035  85.5106068  93.3059597 113.5324955  84.7628689  94.1974926
  43.1883669  44.4530296  42.9272175  43.4684896  45.3284693  42.6600742
  42.6475811  44.6009350  43.7030458  44.6236944  20.8229709  30.7432103
  43.8794327  21.0415483  31.3040376  44.2529678  20.2640629  30.0602651
 113.0817127  92.8608608  95.8382797 113.1400299  93.7677670  95.5377007
 112.1426105  92.6777935  95.8664703  61.4935637  23.2252169  18.9186478
  61.8353796  23.8171339  18.2485509  61.4384127  22.3752713  18.4818625
  65.0259590  30.3328609  27.9601932  65.3924942  31.1551166  27.6349568
  65.6016636  30.0833273  28.6830521  12.4209356 109.5458126  53.4924936
  11.8899846 110.3369904  53.4010315  13.2689071 109.8612404  53.8050413
  88.7360382  84.6823120  89.6530056  88.5418987  85.6149578  89.7463608
  88.1211758  84.3751907  88.9867878  71.4416552  37.6939201   2.4416012
  72.2827578  38.1285787   2.3007043  71.5828466  37.1427727   3.2113624
  54.0831089  25.2862573  16.5102136  54.9121857  24.8736405  16.2681031
  53.4925413  24.5532751  16.6839957  62.5363445  17.7315223  14.6432054
  62.6619434  16.9461465  14.1106248  62.8658485  18.4458971  14.0979278
  40.0501013  12.9383349  10.8216214  40.8688259  12.9994595  11.3137460
  39.5402908  12.2747326  11.2863326  79.8938465  48.2083082  23.5077739
  80.7433510  48.1954956  23.0668426  80.0098133  48.8218069  24.2333078
  43.5494423  38.9044929   5.3858036  42.6603651  38.6850524   5.6644082
  43.4671545  39.7675371   4.9800774  54.8325872  34.9297714  16.3672733
  55.3480339  35.1521897  17.1425653  55.3883600  35.1817083  15.6297910
  65.5907440   6.9054008  18.2200801  66.0934305   6.1381716  18.4937549
  64.7636080   6.8321216  18.6962187  45.6113195  31.3687873  19.6822000
  44.8248816  31.9127584  19.7250581  46.3110828  31.9776273  19.4458032
  57.4839878  26.6055965  35.8052158  57.1902657  25.8231568  35.3385806
  56.9624567  27.3165536  35.4326868  55.9842205  29.2805767   7.4399841
  56.1989975  28.5283709   6.8883598  56.8330050  29.6165657   7.7279145
  48.3852959  33.8356090  12.5233948  47.8818178  33.1430531  12.0954847
  49.0884876  34.0369248  11.9059634  72.8703642  54.5070934  27.5448704
  72.8437233  53.6538649  27.1118307  72.7303553  54.3100929  28.4710574
 107.3418045  23.6571980  20.5693102 107.5525093  22.7422643  20.7556772
 107.1988487  24.0502357  21.4303088  40.9396505  29.7351146  14.1525483
  40.9195185  29.7654271  15.1090562  41.1341715  28.8209486  13.9459264
  58.2727861  28.1677294  13.7889361  57.3184776  28.1004477  13.8206136
  58.5218239  27.6747799  13.0071354  54.5676804  37.2483563  18.8743544
  54.2914867  36.9481397  19.7402763  55.0855541  38.0345559  19.0473497
  71.8017149  37.1251297  19.9936652  71.6581726  38.0599785  19.8463905
  72.6052141  37.0849729  20.5123210  72.4514961  15.5349028  24.0441132
  72.6746082  15.9974504  23.2363367  73.2767248  15.4833949  24.5263720
  70.1109505  97.4655533  95.1376629  70.9444380  97.5197124  94.6701145
  70.0222683  96.5393925  95.3626251  68.1340456  23.1094337  41.5655708
  68.3509302  23.0801415  40.6337261  67.9102564  22.2057128  41.7879200
  74.2120838  45.7702875  24.6388316  74.6871710  45.0431538  24.2365861
  74.6464300  45.9032774  25.4813790 104.0789223  93.1690788  93.2294178
 103.8267326  94.0839958  93.3541393 104.9734116  93.2111549  92.8912640
  58.6218023  10.3529739  33.7850142  59.0368366  11.1649179  34.0760899
  57.8637266  10.6405115  33.2762194  66.3875675  26.6884780  31.5723825
  66.3568020  26.8918991  30.6375527  67.0541811  27.2785282  31.9240856
  49.9659443  36.6763377  45.1884604  49.6839571  36.4312863  44.3071747
  49.4483519  36.1186862  45.7692814  76.6801310  37.3711038  29.3412685
  77.1955490  36.7458487  28.8317299  75.9623337  37.6204348  28.7591743
  33.6730814  17.5372767  10.3206336  33.2804751  17.9501486  11.0898077
  34.5583844  17.3037481  10.5998051  59.0525198  30.4935455   4.2354694
  58.2100487  30.7424283   3.8552967  59.0063858  29.5409513   4.3171230
  61.0807705  48.0033350  32.8296638  60.9380341  47.6383877  31.9563532
  60.9197521  47.2709370  33.4245610  67.2291565  22.6519370   2.8724837
  66.7957449  23.2823062   3.4478283  68.1472349  22.9227757   2.8688604
  61.6453981  15.7838213  42.8273678  61.6381741  16.7304301  42.6855516
  62.2064972  15.6606162  43.5930157  93.0303669  36.9646859  44.9914742
  92.9677868  36.2937880  45.6713343  93.6526012  36.6067195  44.3582916
  75.1051378  33.8572311  43.5893393  74.2500973  33.4427023  43.7046528
  75.2878523  33.7730956  42.6535130  67.4252510  21.6541672  38.8094187
  67.7193260  20.9840703  39.4264460  68.1727839  21.7877722  38.2266855
  74.3742990  23.9782095  34.4816589  74.8800611  24.7856140  34.5740485
  73.4824228  24.2249274  34.7264433  90.9025478  95.9513760  91.3307285
  90.9330654  95.1588535  90.7948112  90.6914616  96.6507626  90.7122326
  69.4756842  33.4383702  26.3149238  69.6871424  34.2374682  26.7975831
  69.7059107  33.6385512  25.4076433  66.6023874  19.8650205  14.0219069
  67.4481964  20.2827621  13.8596308  66.3825369  20.1104593  14.9206030
  55.6167364  37.4290633  38.9476132  55.9181166  37.7553606  38.0997133
  55.9318542  38.0758882  39.5789218  61.9476509  14.1230679  24.9452472
  62.1501541  14.7088706  25.6746697  62.6058578  13.4306037  25.0043321
  76.7058754  33.9014077  46.0398436  76.0353994  33.9432836  45.3579760
  76.9813728  32.9847550  46.0488749  46.1981821  11.5255964  15.0455785
  46.6369009  11.3629377  14.2105329  45.6636572  12.3037982  14.8877120
  77.6123381  19.2681003  11.6600704  77.0911598  19.9457073  11.2294257
  77.2239017  19.1844475  12.5309050  65.9587574  33.3745432  28.3082914
  66.0303068  34.1960669  27.8222752  65.1187658  33.4375811  28.7629032
  83.2217407  19.4468534  27.0874476  82.7115726  20.1877904  26.7603803
  83.0084133  18.7279487  26.4925528  70.4500771  42.4807072  29.1796350
  70.4648066  42.1027184  30.0589180  70.2897692  43.4135008  29.3225718
  44.1897821  16.7950106  13.2146370  44.2595434  15.9810328  13.7134409
  43.6069250  16.5803981  12.4863172  73.4979248  71.9055033  80.5818748
  73.4655142  72.6315117  81.2048531  73.4497643  71.1200047  81.1267662
   0.6823046 111.3925457  94.6304035   0.4513252 112.0461559  95.2904606
   1.0584202 110.6688023  95.1313591  66.1602116  24.2424250  33.1205583
  66.8385172  24.7107673  32.6339483  66.1625099  23.3612227  32.7467823
  57.0388412  18.2385862  22.5492644  56.4267349  17.7709746  23.1175041
  57.8688478  17.7743351  22.6578474  32.9173875 103.7675381  22.0454288
  33.5210943 103.1628418  22.4768305  32.0710993 103.5966301  22.4587250
 110.3074741  92.7278233  93.9329338 110.9837055  92.0533657  93.8692474
 109.5080662  92.2461510  94.1454697  61.7645264  79.3601418  93.0821896
  62.5978470  79.0873289  92.6982880  61.3138103  78.5401106  93.2837677
  80.8052444  29.4628453  27.4639463  81.2506866  30.3022194  27.3487425
  80.5983353  29.1773796  26.5740418  80.0443935  20.3028250  10.3503132
  79.6378422  21.0462356   9.9050194  79.3132257  19.8389602  10.7583058
  77.5020504  23.7211442   3.2690886  76.8593121  24.4223928   3.3757132
  77.3191595  23.3583617   2.4023873  82.3066521  32.1560240  25.9705734
  82.6033401  32.8577948  25.3911567  83.0783558  31.6027308  26.0912704
  95.7758999  87.0462704  95.1669407  95.7630920  86.0986900  95.0321865
  96.3260651  87.3814583  94.4589901  60.2368212  17.4597645  30.6622791
  59.8277998  16.7912388  30.1127291  59.5290136  18.0729687  30.8603144
  40.0467682  17.9574883  11.6590524  40.2508068  17.5754178  10.8054590
  39.2842007  18.5128212  11.4967847  75.7570601   5.1804256  34.5562482
  76.2829638   5.3985012  35.3257298  74.8532248   5.1987249  34.8708510
  87.8331757  22.2399616  10.0336230  88.3112335  21.4287519   9.8615098
  88.4964848  22.9270840   9.9695355  88.7472820  11.6907239  26.2178087
  88.4992504  11.8285275  27.1319914  87.9624081  11.9189334  25.7196856
  56.3626242  28.1113839  38.1624937  55.4594469  27.9891133  38.4549761
  56.5712881  27.3073435  37.6868773  61.8122435  41.2816286  17.3324466
  60.9225988  40.9290552  17.3538589  61.6938782  42.2313833  17.3463893
  66.9025946  27.3280072  23.3459282  67.1168756  27.9379296  22.6400161
  67.1823072  26.4735818  23.0173683  70.2571535  27.4737811  29.7534800
  70.8684826  28.1993794  29.8800397  69.4847202  27.8776121  29.3578744
  58.0673838   9.7453600  17.2008300  57.4472952   9.1900206  17.6733959
  58.8080883   9.8406380  17.7995896  54.2327642  33.7153339  22.8975821
  53.4106207  33.5635066  22.4314713  53.9661741  33.9118028  23.7956691
  56.7362213  45.2115774  28.9384174  56.0098886  45.7589054  29.2369223
  57.4738121  45.8161449  28.8566089  55.3205538  27.0303583  18.2842493
  54.9836063  26.1961532  17.9574442  56.2383223  27.0409203  18.0125558
 105.3457832  34.8866987  11.0606551 105.3563309  35.5769014  11.7237830
 104.4869709  34.4751120  11.1569834  73.0093861  18.8352704  31.0894775
  73.2774115  18.1537151  31.7058182  73.0892181  18.4245193  30.2285790
  98.1194592 104.3731594  84.0192986  98.6004925 105.0853539  83.5978508
  97.2101974 104.5071316  83.7518692  17.1743381  99.4705963  30.2611518
  16.5689218  98.8421822  30.6545925  17.9962778  99.3395329  30.7338738
  75.0857925  29.5539570  16.2546694  74.4687223  28.8385057  16.1010814
  74.7592115  29.9867249  17.0435226  67.8839540  20.4007912  18.4448111
  67.6543713  20.4014540  19.3740702  68.6202860  19.7925913  18.3804512
  66.7679119  22.1386409   6.8965518  65.8360147  21.9407058   6.9894260
  66.7935610  22.9113007   6.3321304  58.2565165  39.8678303  22.7026701
  58.3733273  38.9999199  22.3162508  59.1327095  40.1202488  22.9938841
  90.2995777  99.1016865  67.4670219  90.6582737  99.8790932  67.8950596
  90.6959820  99.1035938  66.5957642  32.4713445 111.5021229  37.2392988
  32.8511858 111.2081146  36.4113426  31.8148661 112.1505642  36.9847608
  19.0716672 110.5351448   9.1997093  18.2095456 110.8799362   9.4323057
  19.5525169 110.5143833  10.0271058  63.7580585  23.9588070  27.2990990
  63.9397001  24.4780660  28.0824280  64.1396475  23.1011796  27.4864507
  62.4058008  59.2238522  35.3016353  62.5136566  58.2731724  35.3300452
  63.0391169  59.5172834  34.6466208  42.4250698  16.4247811  25.0797844
  42.3133087  15.7865870  25.7843757  41.9471359  16.0505855  24.3396592
  59.0110874  12.3304784  14.7890353  58.9193535  13.2057333  15.1655269
  58.8757801  11.7367029  15.5275178  71.6769934  27.9393172   4.1418761
  71.8202019  27.0009923   4.0182918  72.3913288  28.3561373   3.6599851
  63.9756441  21.9203591   7.9627562  63.4592199  21.2231970   7.5584042
  64.2324400  21.5653849   8.8138032  94.3816757  99.5878315  96.1720371
  94.5799255  98.9916706  95.4498768  94.1032124 100.3977013  95.7444954
  49.2440033  16.5637267  23.8665628  49.9002504  16.2906599  23.2254696
  49.6921492  17.2159183  24.4051194  58.2845688   0.3603183  25.0850606
  58.9295387   0.0163582  25.7030702  58.1522751  -0.3497631  24.4569564
  74.8148966   1.9220045  23.2663250  75.7135773   1.7993908  22.9604340
  74.8210859   2.7803451  23.6899328  68.2010269  30.2454543   7.0820856
  68.8155317  30.5782533   7.7361977  67.3714638  30.1636052   7.5525695
  92.2110748  42.2567844  11.6852927  92.8578281  41.9526291  12.3220229
  91.7996025  43.0126810  12.1042693  50.5384064  34.9931717  34.4686437
  50.0320053  34.6130395  35.1864791  49.9617720  34.9270988  33.7074852
  45.4550028   5.7080281   7.7404261  45.5170584   5.1831156   6.9423991
  46.2248230   6.2762702   7.7138072  55.2169132  40.5021524  35.3327703
  55.4873991  41.2952280  35.7954836  54.3483782  40.7102108  34.9884081
  59.6379900  19.9045837  34.4369721  59.1960382  20.1990533  33.6406064
  60.5699968  20.0133181  34.2478323  94.7735786  79.9436188  91.1726856
  94.7217751  80.8993053  91.1579895  95.3881264  79.7479153  91.8799782
  63.5644436  14.0874720  44.9024582  64.1683626  14.7749114  45.1834106
  63.9860868  13.6962569  44.1373396  54.6623135  50.4769945  30.2731800
  53.9338017  50.1449442  29.7485423  54.6045876  49.9927378  31.0968256
  66.1380625  15.0650299  22.4062371  65.5103111  14.5502388  21.8991303
  65.7354546  15.9304559  22.4781799  93.1217766  36.5267467  39.4981241
  93.3265972  37.4064422  39.8150063  93.0951500  36.6155148  38.5454202
  43.3807325  22.5693464  17.4789536  43.2081461  22.2042036  18.3467758
  44.2288065  22.2025132  17.2290874  44.9016714  19.1713834  50.1379776
  45.7943630  19.5168352  50.1373720  44.3629980  19.9002755  50.4458380
  68.8311529  41.9578505  37.3487139  69.5125818  42.3812914  36.8266106
  68.3772802  41.3848543  36.7307305  89.5970345  14.9534750  40.6390476
  88.7049103  14.6159637  40.5588150  89.7946262  14.8883510  41.5733624
  96.0271835  88.5932541  83.1840897  95.6113148  87.7966785  83.5138607
  95.7887363  88.6219501  82.2575092  70.7791615  22.7433801  11.3864195
  70.0020075  23.2888031  11.2648594  71.5142298  23.3486843  11.2888908
  50.1677704  24.2721057  30.9604788  50.4014540  23.6264300  30.2936006
  49.2656946  24.0563750  31.1970329  57.3316908  93.8284206  32.3620033
  57.7244234  93.0842590  32.8183007  57.5584269  94.5864677  32.9006958
  50.3977776  48.0231047   6.1311275  49.6687078  47.4570894   6.3847286
  50.4936934  48.6325169   6.8630069  -0.1478502  59.3391752  95.1760101
  -0.2483579  59.1251469  94.2484760   0.7982997  59.3376827  95.3210068
  53.1938791  54.6911764  11.6608298  52.5572777  55.3160954  12.0078814
  52.6990128  53.8786030  11.5556526  70.4566336   5.3796905  16.9111431
  71.0990238   4.9470329  16.3486719  70.4821062   4.8836520  17.7293897
  59.5553160  19.0997267  12.9114842  59.0490532  18.3489776  12.6011574
  60.3186703  19.1287565  12.3346984  44.0947247  49.8838186  14.2438030
  43.3859921  50.3589106  13.8099563  44.8718882  50.0843143  13.7222195
  80.8403111  75.4363966  93.3126736  80.9234238  74.6719646  92.7426147
  79.9792051  75.7984638  93.1037712  51.4214563  33.6437583   2.2110970
  51.1299562  33.5833192   1.3013679  51.2864828  34.5619845   2.4453521
  54.1933870  31.7872095  25.7488728  53.4195900  31.4972067  25.2657914
  54.2431402  32.7279067  25.5790377  69.9053717  28.7054181  40.1090384
  69.3427372  28.2145834  40.7080030  70.6905270  28.1650376  40.0209808
  94.7088718  73.9897728  88.6558342  95.0372219  74.3135166  89.4946480
  93.7561989  74.0194941  88.7439632  40.4930401  44.2061710  19.9126768
  41.0198641  44.8083305  20.4381204  41.1049700  43.8541222  19.2662728
  51.1381578  11.5286160  31.0872149  51.9490433  12.0370495  31.1010385
  50.4484844  12.1809685  30.9646440  39.3528581  22.2848940   4.8997122
  39.8914671  23.0229807   5.1849455  38.9784694  22.5696492   4.0660575
  34.7757959   9.0150887  13.6712825  33.9078355   9.3534768  13.8912129
  34.6842146   8.0641276  13.7305856 118.0943394  25.4226494  24.9860978
 118.3228111  25.7681775  24.1231728 117.9657650  26.2003446  25.5291343
 111.1912251  46.1662579   9.7636610 111.0675907  46.6293764  10.5921924
 110.3226185  45.8276892   9.5465833  83.0508804  63.4908247  13.7153339
  83.3659649  63.5045052  12.8115845  82.6231861  64.3390751  13.8327408
  90.8609867  48.7035799  38.7199616  91.5728092  48.9282465  38.1207371
  91.1448288  49.0452766  39.5678449  91.6849422  50.9795904  30.1586318
  92.0318222  50.1863337  29.7503972  91.6723919  51.6262484  29.4530058
  70.4166746  49.6397448   2.7709299  70.6427813  50.4189301   2.2630183
  70.7998514  48.9135885   2.2788891  74.0949440  67.5154829  25.2607465
  73.3243608  67.9813910  25.5853462  73.9148569  67.3729563  24.3315077
  59.5055389  51.4173746   8.5253811  59.0167618  52.1268272   8.9425242
  58.8973522  51.0535002   7.8820038  93.5073566  40.1735544  16.2873614
  92.8699493  40.4500866  15.6289780  93.5944653  39.2295933  16.1547685
  87.4321270  31.6123915  14.3950689  88.3092403  31.7145157  14.7644961
  86.9367981  32.3525095  14.7459304  30.0417542 100.1294708  96.5470886
  29.9089742 100.7435417  97.2692490  30.9573627  99.8616695  96.6256809
 104.6387768  77.6810265  78.4522009 104.8186779  77.4420118  77.5429487
 103.7198925  77.9491615  78.4520483  86.7309284  50.6235790  31.7250681
  86.9042397  51.5082550  32.0468426  87.3848152  50.4855871  31.0397816
  67.1985912  44.8426723  14.9262881  68.1319571  45.0218248  14.8124254
  67.1676874  43.9629316  15.3022265  77.7035475  53.8728189  17.0385051
  78.2806301  53.9867401  17.7936399  76.8352079  53.7396002  17.4185967
  63.9294052   9.2230284  10.6899297  62.9780340   9.1660041  10.6012201
  64.1325760   8.6748010  11.4478219  12.3416114  97.1982479  89.2669392
  12.1805215  96.3092232  88.9508629  11.7414403  97.3023605  90.0053120
  57.5077343  51.9445705  10.6573570  56.8692827  51.2776709  10.4046571
  57.1564388  52.7600861  10.2999258 103.4709740  89.2833328  94.9916077
 102.6589394  89.7900963  94.9865913 104.1308117  89.8848248  94.6465588
  87.7210140  47.5352001  30.3174138  88.3686256  47.7577305  29.6485949
  86.9501877  47.2586966  29.8218250  85.1041126  24.2951846  47.6315594
  85.3366280  25.1861644  47.8929377  84.2813206  24.3931818  47.1523380
  76.4737892  40.1929522  11.1983085  75.8521175  40.1593351  11.9253755
  76.1620092  40.9126949  10.6496763  27.7586865  45.4458475   7.5179446
  27.8529716  45.9054947   8.3522505  28.4152341  44.7501469   7.5522387
 102.1852207  51.4050579  48.5043859 102.9143143  51.0876942  49.0372372
 101.6140366  51.8574572  49.1251278  82.0713520  30.9005737  12.7720666
  82.7689838  31.4449978  12.4071836  81.7866230  31.3698792  13.5562325
  44.9823713   4.9679151  96.4824581  45.1599264   4.0470421  96.6740322
  44.4625759   4.9494880  95.6789017  69.2396307  39.7279453  14.9592936
  69.7036695  39.7921729  15.7940245  68.3161688  39.6640038  15.2029276
  85.3909779  64.2116737  87.9733276  85.3804398  64.2237759  88.9303970
  86.2920094  63.9815235  87.7466106  55.9033775  43.9929438  11.3226914
  55.4825735  44.6669436  10.7889485  56.8386745  44.1863346  11.2590504
  54.3475580   8.0093813  30.1871181  53.6924362   8.5793668  29.7844267
  54.5535994   8.4327549  31.0205054 100.0492191  50.3240156   8.2438082
  99.4073868  50.6123590   7.5948536  99.7270107  50.6776476   9.0728796
  68.3743525  51.9441843  30.1955128  68.9976835  52.6661921  30.1155043
  68.7498236  51.3771439  30.8691001  70.5823851  44.4559050  13.3481395
  70.7696915  44.7271633  12.4494910  70.3363514  45.2651596  13.7962508
   4.3272632  58.2662106  84.1931343   4.6047309  58.0899143  85.0921154
   4.8514682  57.6692152  83.6592484  62.1627378  49.7331524   6.9445992
  61.6522360  49.3054914   7.6321489  62.7816725  49.0632820   6.6540456
  84.1945934  31.8830442  35.4637122  83.6208439  32.4634743  34.9635673
  83.6063766  31.2235188  35.8314919  86.3166523  40.2364016  19.7209084
  85.6832695  39.5657825  19.4653201  87.0329666  39.7473884  20.1258707
  96.5924168  38.1622577  43.6266708  96.1856365  38.9646602  43.9536428
  95.8720779  37.6736498  43.2284117  72.5555277  42.2737360  22.2339439
  72.5255108  43.2300472  22.2622108  71.9692087  41.9948101  22.9372644
  70.5268192  59.5237017  16.2595427  71.4509535  59.5974970  16.4977813
  70.4108334  60.1567936  15.5510378  80.2539921  48.8222837  15.4664159
  79.5458698  48.6373758  14.8494816  80.8830643  49.3376207  14.9615180
  74.4267321  56.4971399  22.5052333  73.6529541  56.0020971  22.2360992
  74.4584560  56.3936138  23.4562898  82.6505661  43.6786699  40.0148106
  82.3665428  43.0333757  40.6622362  83.5904598  43.7745094  40.1685476
 105.3411770  57.7584362   9.3008894 104.4707298  57.4367905   9.5355970
 105.4703903  57.4637079   8.3994073  71.2100029  56.6859961  26.8951154
  71.6639662  55.8655167  26.7028666  71.6681623  57.3420048  26.3697791
 110.5532551  88.0906868  87.5464249 110.2539635  87.7969551  86.6859627
 109.8263741  88.6115360  87.8878880  64.1998625  30.1547265  24.5263195
  64.5839500  29.6256280  23.8271999  63.2550669  30.0778365  24.3933821
  81.1501026  54.4487238  10.3110182  80.9974861  54.5849323   9.3759310
  81.5477085  53.5796690  10.3647113  67.3162842  52.7487278  26.9932127
  67.8082848  52.7750683  27.8138685  67.9647350  52.5042152  26.3329411
  72.1618652  35.4232287  32.2020149  71.2418985  35.2679515  32.4159956
  72.6479864  34.9535632  32.8797555  56.7164660  37.4489737  29.7484541
  56.5233517  36.9628978  30.5501223  57.6713657  37.5130463  29.7313523
  47.3666668  50.0718403  18.1843483  47.1070337  50.9496260  17.9045033
  46.5698338  49.6934509  18.5559869  80.3137207  58.4610796   6.5218812
  80.5755615  58.7941790   7.3802042  79.9914360  57.5767994   6.6962647
  89.1429043  29.7254682  29.5745468  88.5109901  29.6703887  30.2914023
  89.6815681  30.4873466  29.7881103  83.6949062  34.6441436  31.7946911
  82.9696941  35.2048779  32.0701432  83.9246750  34.9614739  30.9213424
  71.2352419  64.1704369  12.1172488  70.5592394  64.8453712  12.1782422
  70.7968855  63.4295273  11.6987634  65.0376081  51.1590624   5.3710163
  64.0995741  51.0609293   5.5344117  65.1063395  51.2569952   4.4213235
  87.4016094  25.7484913  14.6202350  87.8267288  26.2538600  13.9273310
  87.3455238  26.3547301  15.3588545  86.0600662  59.6716166  97.5059319
  86.0158443  59.2727232  96.6369343  86.4917660  60.5136061  97.3612881
  64.9495125  18.5734642   7.8219700  65.2219439  17.6813149   8.0366457
  64.4368935  18.8561404   8.5792994   3.1691115 111.9944687  91.2445450
   3.7795060 111.9127412  90.5117512   3.5914939 112.6133330  91.8402195
  75.1007318  27.4063134  19.3857300  74.6219921  27.1149063  18.6097646
  74.4187450  27.6049376  20.0273490 109.4603348  90.8052444  86.7349625
 110.2606201  91.1614990  86.3491440 108.8482761  91.5411854  86.7391586
  99.3635178  70.1071167  29.7548294  98.8386440  70.4889679  29.0513158
  99.9743748  70.8014345  30.0018191  61.0775137   7.4119449  14.6071923
  60.4238892   8.0973786  14.4686759  61.9149113   7.8756231  14.6053088
  17.9218745  76.4811563  74.8701954  18.2287478  77.2451019  75.3585148
  17.6486552  76.8324947  74.0227604  74.0797615  28.8932991   3.4562644
  74.5825100  29.5132399   3.9846116  74.7338867  28.2827330   3.1163248
  93.1270885  44.8910570  28.5083032  92.6958656  44.2644978  29.0894270
  93.5832977  45.4906130  29.0987563  78.5796070  37.1337509  38.6381459
  77.8219938  36.7351985  38.2098746  79.2702341  37.1078110  37.9758835
  23.1643414   7.1638805  84.2110634  23.0003619   6.9247746  83.2988358
  22.3105955   7.0847154  84.6366024 102.0262146  41.9231844  10.7295036
 102.8825760  41.7311096  11.1115956 101.8981743  42.8586626  10.8867216
  73.6927414  22.3924112  19.0791643  74.5053339  22.6012874  18.6184037
  73.6338234  23.0509233  19.7713506  67.6425505  55.9944630  26.8972874
  67.2883987  55.5677938  26.1170554  68.3951712  55.4567432  27.1435595
 107.3303413  49.1383076  13.7843025 107.6393032  49.4484329  12.9330695
 106.3852024  49.2885494  13.7653196 101.3361073  66.1209059   7.7879435
 102.2261810  65.7736731   7.7292615 101.1602592  66.4775515   6.9172460
  79.1909313  44.5920753  25.4342151  78.6326742  45.1412868  25.9846258
  78.7686491  44.6061802  24.5753145  81.6954422  13.3279252   6.3134497
  81.5015984  13.9987636   6.9681501  82.0129585  13.8180733   5.5550522
 118.7537098  90.7080078  94.4681835 118.5501575  90.5165386  93.5526848
 118.7700653  89.8509884  94.8941994  61.9856596  16.4296877  17.0525372
  62.2188425  17.0380628  16.3512969  62.8168631  16.0307038  17.3097253
  14.7293854  14.6513152  78.8366318  14.4133306  15.5532336  78.8903475
  14.0808809  14.1409850  79.3216419  51.5441179  63.8387823  26.0473847
  52.2376442  64.0769815  26.6626191  50.7735586  64.3130016  26.3597655
  80.7199001  57.8799582  22.2715926  81.5584564  58.0433655  21.8399143
  80.7578278  56.9583893  22.5275207  31.6240168 106.0531712  54.9607277
  30.8762407 105.5472565  55.2787018  31.7603517 106.7248154  55.6289625
  92.4369431  45.2363968  14.0650094  91.9637871  44.9102449  14.8305011
  93.3541298  45.2506399  14.3385053  89.4832706  43.1251049  27.5257730
  89.8775291  43.4260082  26.7070866  89.0237713  42.3196363  27.2884774
  61.1933517  20.3963494  27.0500970  62.1131372  20.1319385  27.0322776
  60.9647846  20.5302978  26.1302900 112.9372787 109.6582127  93.1715298
 112.7824020 110.5012703  92.7454948 112.3106098 109.6366215  93.8947487
  69.0770483   4.1135550  28.3631516  68.9001942   4.6487585  27.5895166
  68.4477615   3.3945563  28.3059406  81.5075970  48.0017757  18.2400405
  82.2365570  48.4726954  18.6438727  81.7490196  47.9333496  17.3163188
  77.2178316  45.6562853  51.2188435  76.5360451  46.1335754  50.7459927
  77.6332378  45.1090527  50.5523539  90.6484032  43.6749983  25.0096202
  91.5710640  43.8064814  25.2279115  90.3672981  44.5131874  24.6426749
  89.9109650  35.0940895  19.9229610  89.1998100  35.4450798  20.4589581
  89.9757385  35.6997418  19.1845691  85.1089287  31.2924147  16.4838076
  85.7064342  31.0187006  15.7878900  85.4038525  32.1717191  16.7206120
  58.4397173  69.4662905  33.7118196  57.6890850  68.9542913  33.4107566
  59.2020082  68.9472723  33.4553695  52.3540354  54.3357944   2.3471449
  52.9046440  55.0731087   2.6106381  51.4856052  54.7182608   2.2215468
  52.1709919  24.5708418  33.1324863  51.5557575  24.8343682  33.8167930
  51.7477226  23.8273120  32.7032542  81.1703300  56.4977026  19.1687036
  81.7879295  56.0807610  19.7695088  81.7161465  56.8272829  18.4547722
  75.2569962  34.6474123  11.6690934  74.7148895  34.1844702  11.0303140
  76.0910559  34.1778350  11.6604781  90.9596539  32.2151875  26.4016867
  90.0519657  32.0848036  26.6761732  91.4411068  31.5010381  26.8193221
  63.4315968  57.1671438  15.8642042  63.5651445  56.2465191  15.6387055
  63.3782339  57.1743441  16.8198884  68.9142227  28.7485409  21.8499470
  69.0938663  28.6073899  20.9204102  68.5541487  29.6344137  21.8924761
  58.2389116  37.6318479   9.9362087  57.6369810  37.3278594   9.2568678
  58.8576937  36.9102049  10.0483298  88.6070633  30.9425640   7.8931558
  88.6687469  31.8492174   7.5924808  88.0448246  30.9844804   8.6666965
  52.4328089  51.7565155  12.2048688  52.9955149  51.4566469  12.9187834
  51.5881824  51.9277859  12.6214075  56.4584684  36.2715149   8.5084105
  56.0629463  35.5287337   8.9645594  57.1069288  35.8768153   7.9253650
 110.1621628  50.9340000  12.9569101 110.2755928  50.2097178  13.5723662
 110.1007462  51.7119408  13.5112226  45.1718521  22.2930861  19.7426844
  45.2944469  23.1052756  19.2512047  44.4142389  22.4637771  20.3022504
 105.8415794  36.0877061  28.2851124 105.5167294  36.4342165  27.4540710
 106.2383747  35.2474236  28.0555153  78.2284307  54.8668861  24.2480373
  77.5584078  54.2382193  24.5165133  78.2149935  54.8373461  23.2913876
  80.0955868  29.8954248   4.8102123  80.5539417  30.6852198   4.5232129
  79.4587564  29.7227454   4.1167724  76.6591597  24.3724585  11.0598826
  75.9880257  24.7207642  10.4729450  76.8001699  25.0681186  11.7020702
  91.5920353  39.0036845   5.8472496  92.4525356  38.7220430   5.5366665
  91.6700268  39.9531317   5.9405184  86.5114594  63.3147144  13.3434689
  86.1870193  63.7674665  14.1219211  87.1686840  63.9071274  12.9783165
  78.7670469  44.5608473   9.5429200  78.9893150  44.0498114   8.7646681
  78.4517097  45.3965044   9.1987193  91.6229725  38.1848478   2.3004189
  90.9374332  38.5171151   1.7208835  91.5047932  37.2350168   2.2912407
  63.0696821  35.9051561   1.9001265  62.7244806  36.7766571   1.7063388
  63.7899637  35.7895899   1.2803935  79.5688438  32.1385622  32.8114510
  80.4049683  31.9683337  33.2452083  78.9612150  32.3247027  33.5272479
  95.1973152  28.0982471  17.8949165  95.5820084  27.3942614  18.4170699
  95.7394123  28.1356573  17.1069014  63.0516720  15.3927588  13.3457923
  62.6152658  14.5515919  13.2108104  63.9591980  15.1625323  13.5448503
  62.9339790  30.3549075   4.4637069  62.1554756  30.4029489   5.0185567
  63.4492445  29.6389961   4.8354626 113.6452484   9.8987395  39.7525430
 114.5768642   9.9591827  39.5411563 113.2288265  10.5500424  39.1880751
  99.8305035  65.3111410   9.9163646  98.9456654  65.6088972   9.7050935
 100.3258705  65.4392862   9.1074055  71.8166399  41.4857674   3.2084051
  70.9003162  41.3286448   3.4361988  72.1038342  42.1610451   3.8230190
  62.0396471  47.3196888  27.9615712  61.9468975  47.7825546  27.1288729
  62.9342413  47.5107098  28.2434320  82.8838158  31.6213655   7.6985043
  82.9424095  32.5759578   7.7379000  82.3678589  31.3811088   8.4681076
  81.7576313  36.3263655  19.4763792  82.3479462  36.1818933  20.2158976
  82.3241901  36.2847185  18.7059820  80.5343628  41.4150524  18.5132194
  79.6705103  41.3218212  18.1115913  80.6301689  40.6346512  19.0591383
  83.9243317  39.8394895  15.9155655  82.9978752  39.7909570  16.1512458
  84.1210079  38.9816093  15.5392766  67.9144096  40.9479427  22.4858284
  67.0146179  40.6358862  22.3897433  67.8842735  41.8592215  22.1944594
  71.5027142  34.0651560  13.9863932  71.4004850  34.2794704  14.9136746
  70.9498119  34.7003722  13.5313857  67.2947073  42.1249485   3.5241875
  68.1017160  41.8538094   3.0866277  66.5949202  41.7455959   2.9925662
  66.0611200  68.2819748   1.5691668  65.5575037  68.4613276   2.3631671
  66.7158794  68.9795160   1.5381587  78.1528616  32.2864246  35.1855826
  77.8950357  31.3743949  35.0515628  77.4579859  32.6539826  35.7317305
  92.4244785  46.8651342  24.1207623  91.4893150  46.6640234  24.0852952
  92.8334332  46.0514736  24.4156241  72.0976686  39.5138383   8.2943630
  72.9971886  39.2023897   8.1938910  72.1823502  40.4619074   8.3954704
  83.6855221  47.3786879  20.5276942  83.3400154  46.7979431  19.8497641
  84.4146824  46.8916082  20.9115100  73.9114285  20.9266043  49.3411827
  73.4899950  20.4046655  48.6583900  74.0300894  20.3170919  50.0696373
  66.9498777  33.5565424  16.7901552  66.3056755  34.1255116  16.3688326
  66.9083214  32.7390814  16.2939084  90.1522350  33.6393213  12.8554332
  91.1023712  33.5285139  12.8898478  89.8419380  33.3095455  13.6987579
  87.2509575  35.9123540  16.3356400  86.8717480  36.7901182  16.2913799
  88.1676579  36.0589576  16.5688717  86.3875103  40.4482746  28.3342242
  85.9564400  40.9867048  28.9979243  85.7011414  40.2630138  27.6932883
 109.6040440  33.3969164  21.4488173 109.5041656  32.8965855  20.6389260
 110.1398277  32.8376555  22.0113111  81.0372925  59.4196939  30.1174474
  80.8602428  58.5339165  30.4341149  81.8185711  59.6940279  30.5976391
  67.2609901  13.0205655   4.1019201  67.3627901  12.9087245   3.1567425
  67.4931622  13.9354134   4.2612323  63.1988955  74.0377283   5.5790424
  62.8308487  73.9127398   6.4537716  63.9017057  74.6754837   5.7037884
  89.8239517  43.9990187   2.1317236  89.0511417  43.7133121   1.6445133
  89.7373486  43.5775900   2.9867843 114.9354172 110.0881958  84.5678520
 115.1917171 109.8143101  83.6872101 114.4641304 109.3355370  84.9250984
  73.1203222  41.3139534  46.0441589  72.9296684  41.8489408  45.2736568
  73.4123611  41.9415903  46.7052317  61.9585419  39.1539311  34.2148376
  62.1848345  39.9458170  33.7270451  61.2079716  39.4092894  34.7511888
 116.5775394  45.5905819  86.0331345 116.9477940  44.7849226  85.6725025
 117.3065472  46.2108850  86.0315323  63.1560326  36.8665147  38.6186886
  63.8204288  37.4189639  39.0305257  63.1333065  36.0764074  39.1585469
 101.5716076  39.8709249  26.5843725 101.2897205  38.9835501  26.3622499
 101.7552948  39.8359489  27.5231314  57.3089838  13.3376992  18.4376979
  57.2605515  13.1957078  19.3830681  58.2070780  13.6317337  18.2853651
  96.1366367  23.5076404   7.9122543  96.8997669  22.9987478   8.1859106
  96.0164452  24.1526842   8.6091787  56.4290333  69.2937040  23.4304547
  57.3732615  69.2294312  23.5737729  56.1686087  70.0852203  23.9015341
 107.4911697  80.1854524  96.9884073 107.5981577  79.8540362  97.8800067
 107.8940113  81.0535845  97.0056257  69.0000057  56.5014982  36.2746000
  69.1568041  55.5598783  36.3453221  68.0946589  56.5714693  35.9718084
  93.5848141  16.8272614   6.1486769  93.3655167  16.1499465   5.5088466
  94.2114162  17.3911893   5.6952560  63.9418888  58.8523102  31.3333416
  64.0601015  59.0688467  30.4084802  64.7697783  59.0999889  31.7450333
  88.6712265  50.6402588  29.7639608  89.5364475  51.0448074  29.8268771
  88.6806488  50.1842785  28.9224005  91.4930916  32.5949430  59.9434662
  90.7319641  32.2740912  60.4271746  91.3571739  33.5405016  59.8828316
  98.9961243  35.1248097  49.1750479  98.8732910  35.4275656  50.0747585
  99.5833206  34.3729544  49.2533970  61.8988943  69.3699217  16.8134463
  62.5006533  70.0911617  16.9976509  61.2537146  69.4100523  17.5193977
  74.2972469  13.7576878  14.3185449  74.1918993  13.0490339  13.6837661
  74.2456865  14.5575595  13.7953055  55.3490591  19.9755836  24.4339108
  56.1603737  20.4520583  24.2579222  55.5626917  19.0615058  24.2466831
  27.8115964  13.9501572  90.8478546  28.2845855  13.4412420  90.1894379
  27.4986458  14.7213995  90.3751183  92.5737476  52.3335886  20.0128794
  92.2133827  51.9022369  19.2380857  92.0755100  53.1474972  20.0873828
  92.4137306  43.0295992   1.2065693  91.5570736  43.3738375   1.4592732
  92.4999428  42.2148228   1.7014842 103.1968880  30.8411026  15.7775426
 104.0112495  30.9475636  16.2691891 102.7333736  31.6696525  15.8995819
  63.6314249   4.7537565  24.9017358  63.2771873   3.8771871  25.0513196
  62.9517269   5.2044642  24.4006300  61.0598278  65.8400440   9.7073191
  60.3543425  65.5746365   9.1173404  61.7376661  66.1888599   9.1284430
  62.6088953  17.9031456  29.1927814  63.1525850  17.2039199  29.5557094
  61.7603016  17.7939510  29.6219611 109.5381069  24.8651528  11.6042447
 110.0809765  25.4621387  12.1191633 110.1639843  24.2795992  11.1780488
  77.9108715  29.4536757   6.5860689  77.1026564  29.1109991   6.2045008
  78.5979223  29.1778731   5.9793329  63.9347410  26.7701817  14.3448460
  63.5434914  26.3095140  13.6025941  63.9015722  27.6943183  14.0976512
  69.4335747  39.0447521   1.5951537  69.0928793  39.2653418   2.4620442
  70.1459694  38.4290600   1.7673367  84.9824047  36.1835599   0.9795019
  85.3992748  36.3952351   1.8147528  85.3037643  35.3073978   0.7666707
  91.2455750   9.7202390  18.2114089  92.1109390  10.0850058  18.0261230
  90.9884167  10.1230741  19.0407610  84.8001003  71.1258554   8.3194852
  85.4603767  70.9750986   8.9959079  84.8038387  72.0740080   8.1882244
  32.8635502 107.1436501   6.2676352  31.9494629 107.4083424   6.1645883
  32.9455280 106.3529873   5.7343876  84.9502754  27.5199270  15.3666115
  85.5388546  27.6547146  14.6238875  84.1558647  28.0000520  15.1328838
  95.1067257  43.3734035  15.6804657  94.8066521  44.2736435  15.5549347
  95.1169777  43.2545853  16.6302073  81.6915894  13.0487549  19.3508935
  82.5744152  13.0963242  18.9840198  81.2325382  12.4234521  18.7900913
 114.5971584  33.0366492  22.6878095 115.0210953  33.0514646  21.8297362
 114.3802452  32.1155572  22.8319216  60.7545471  34.7734118  13.0810559
  59.8827553  34.8185849  12.6884151  61.2996101  35.3230143  12.5179601
   5.8963245 104.2272377  80.6455803   6.3055623 104.8753738  80.0722790
   5.6637865 103.5046101  80.0625229  60.5009604  19.3356550  15.5764914
  60.1973915  19.6609449  14.7289860  61.1361694  18.6538136  15.3577721
  84.8869514  22.3309374  26.6335034  84.2148590  22.8130150  27.1152973
  84.5810318  22.3353267  25.7265162  78.5600615  12.5561500   3.6065915
  78.3748341  12.9488015   4.4596726  78.7589550  13.3004034   3.0384719
  72.9787636  58.3768940  44.2024755  73.0113602  57.4250555  44.1066933
  73.4945202  58.5563040  44.9886322  87.9059982  34.9562550   4.4120178
  87.9679203  34.2658854   3.7518749  88.8151836  35.1828456   4.6076334
  47.6590061  39.2196774  16.7145538  48.2735634  38.5818529  17.0775044
  47.3454571  39.7095966  17.4747515  25.3862047 109.9717999  22.7114010
  24.8785090 110.5852509  22.1802139  26.2951040 110.2476120  22.5928187
 117.6975155  86.2674427  90.8490753 117.2307682  86.9579220  90.3783035
 118.4955502  86.6907024  91.1656475 101.9236755  33.0779719  36.8105531
 101.2112236  32.6977110  37.3244071 101.6129112  33.0407286  35.9059691
  65.6862164  47.8265142  37.6466441  65.5291414  48.7317181  37.9152870
  65.0422382  47.6662159  36.9568419  65.5689764  45.8388090  18.6743438
  65.5619764  46.4591551  19.4032860  65.5713129  44.9778175  19.0925741
  76.7115736  32.0422173  27.4024701  77.5703382  31.9015026  27.8011608
  76.3210821  31.1693001  27.3604417 105.8841419   8.4002471  25.7242227
 105.9753227   7.4868107  25.9954262 106.7838383   8.7152445  25.6373286
  80.8315468  38.9729309  20.3549719  79.9645901  38.8260770  20.7331944
  81.1239815  38.1034780  20.0815392  93.8148975  37.6477885  15.2822244
  93.3667183  36.8508124  15.5654204  94.7325230  37.3891115  15.1969075
  79.0015650  56.8053770  15.6999409  78.7983179  55.9386253  16.0515976
  79.2365313  57.3263264  16.4678168  95.6980133  42.3016977   8.8686925
  95.7037544  43.1662321   8.4578681  96.4808559  41.8692207   8.5275841
  89.1068172  41.7675972  15.9743440  88.4730911  41.0534525  16.0423386
  88.7685490  42.4446011  16.5604115  89.4333839  20.2205658  24.6916032
  89.1941166  20.7885742  23.9592457  89.0189171  19.3817592  24.4894934
  94.1678715  31.3844347  28.4526300  94.7505856  30.6495023  28.2614446
  94.2334270  31.9487643  27.6822615  74.6364784  48.8585377  20.4964590
  75.3692961  49.4222403  20.2485704  74.3153095  48.5046434  19.6670973
  68.9941216  37.0901513   6.0786951  68.9749336  37.7012157   6.8152171
  68.4293413  36.3673997   6.3523471  96.4748001  48.3370304  14.4328833
  95.8231068  48.9702368  14.7338200  97.2903347  48.6166668  14.8487568
  44.5561314  32.8856039  22.9608941  45.5056620  32.8555059  23.0780220
  44.2152214  33.1136107  23.8257790  85.8317947  44.2965460  16.3761306
  86.0950279  44.0442944  15.4910815  86.4877892  43.8937807  16.9450641
  51.4896488  38.0884171  10.3775537  52.4350786  38.1690550  10.5036008
  51.2566280  38.8365841   9.8278475  62.6287317  54.9170828  21.5140176
  61.6969585  55.0837469  21.3717103  62.6892471  53.9673042  21.6164327
  65.5155993  72.4923468  29.1593504  64.7538233  72.9062414  29.5650816
  65.2537346  72.3477983  28.2500863  79.4302607  35.5038428   7.3350924
  78.7916803  36.2168336   7.3252571  79.4358969  35.1998639   8.2427251
  75.0964403  43.5695648  31.0245585  75.9837437  43.7800789  30.7336855
  74.6372128  43.3117342  30.2252674  97.7776337  42.1943188  23.9780498
  98.5601330  41.7480946  23.6543155  98.0973625  42.7572680  24.6830988
  69.2895937  51.4624166  21.1515594  69.1022062  51.6930771  20.2416611
  69.3624020  50.5080032  21.1465859  93.8842773  49.3715811  23.7773967
  94.6821404  48.8442898  23.8175392  93.1833839  48.7637472  24.0130186
  95.0251293  40.9376240  35.2255535  94.8131275  41.2097311  34.3326664
  95.9177303  41.2532330  35.3665733  80.8395672  25.0939798  53.9133596
  80.2939034  24.6942496  53.2360888  80.9572887  25.9985018  53.6231613
  87.5768757  71.6376829  16.6887856  87.1533966  72.4910450  16.5956438
  87.0669174  71.1896181  17.3636293  69.5356846  68.7714863  12.0591629
  69.2837858  68.7435818  12.9822016  68.8421822  69.2783785  11.6368556
 102.1812248  58.4316969  23.3441186 101.5472794  58.9198208  23.8695598
 102.7498913  58.0082989  23.9872193  82.3006439  68.2061672  33.9088726
  81.8056679  68.7148571  33.2666349  82.0613861  68.5885715  34.7531223
   6.7069489   2.2971527  96.5419102   7.6477236   2.2416461  96.7095184
   6.5280545   3.2360035  96.4891148  82.9542828  60.8945227  18.3134437
  82.1650314  60.9604025  18.8510048  82.6495361  61.0533667  17.4200618
  86.3935852  70.7151031  18.7602830  86.4692783  69.7687340  18.6382663
  85.4825211  70.8509302  19.0205550  75.0721216  45.1472235  14.1672111
  75.4003143  44.3257856  14.5329487  75.0195742  45.7393551  14.9174416
  88.6613941  35.2508712  27.4078059  88.5027409  34.4304681  27.8747106
  88.1660366  35.1626801  26.5935087  95.5784035  44.9775839  32.6027036
  95.2821732  45.5920506  31.9312072  94.8103046  44.8399973  33.1570673
  92.7235889  27.5758886  19.7556174  92.1613407  27.9333234  19.0683436
  93.3635616  27.0401025  19.2869961  62.7011728  59.0407991  21.9149947
  62.3423052  59.5542145  21.1912179  63.4556341  58.5888958  21.5371084
 112.9096985  91.3466167  53.3300638 112.1504021  91.5288162  53.8837051
 113.3724976  92.1827221  53.2755184  22.3170042  95.2438641  82.5613022
  21.9141173  96.0386181  82.2116280  23.0546188  95.5591011  83.0835819
  93.4303856  26.4727807   3.6321771  93.7951756  27.0906425   4.2657435
  92.5220108  26.3536787   3.9094877  34.3890166  27.2706437  95.9281063
  34.4031620  27.3424745  94.9737072  33.9772201  26.4235091  96.0984612
  54.5096254  43.7773466   8.6278284  54.1181040  43.0042267   9.0343136
  55.0078821  43.4320736   7.8870440  67.0872021  60.7937336  22.7966857
  67.1303701  59.8379374  22.7680087  67.8941202  61.0567617  23.2393217
  96.0442066  56.6210222  33.1802011  96.8917942  56.3717699  33.5485721
  96.2099457  56.7186069  32.2425222 117.2676373  49.2553997  21.0504007
 117.2697639  50.1736879  21.3205385 117.6151180  48.7824821  21.8065977
  47.5564861  25.6374693  96.6446495  48.3858871  25.9635377  96.2953568
  47.0671463  26.4269280  96.8760204  91.1237717  63.9377975  38.1518126
  91.9138718  63.8629341  38.6869454  91.0989952  63.1253433  37.6463079
  99.7853184  60.5279684  45.4018831  99.3223095  60.8572006  44.6315145
  99.9311733  61.3037062  45.9433460 100.7809830  51.9829416  38.4832406
 101.0627556  51.0958815  38.7067604 101.5170288  52.5393677  38.7379003
 101.5357971  42.4029207  30.1154613 102.1235847  42.4235010  29.3602729
 100.7148170  42.0519161  29.7704697  33.5630870 111.5360546  97.0168972
  34.0357494 110.8942890  96.4868355  32.6403046 111.3787746  96.8169785
  98.1528378  22.7253342  47.1501541  98.1976414  22.9508162  48.0793381
  98.8349724  23.2579994  46.7412663  93.9535809   4.7952190  44.0879917
  93.8242435   5.6639296  44.4685745  94.8377228   4.5453218  44.3564606
 104.0247059  53.0475760   5.9499127 104.6204567  53.7019587   5.5850911
 104.5478535  52.5865316   6.6056472  79.3451214  66.5761566  10.3359485
  79.0316439  66.7303419  11.2271225  80.2111530  66.9832039  10.3128982
  85.6177235  67.8103685  18.8762712  85.4684830  67.9563856  19.8104215
  84.8261070  67.3651934  18.5739613  47.5017023  10.2514517  83.0114555
  47.7305841   9.8738050  83.8607121  48.2423162  10.0342119  82.4453068
  99.4794559  64.2872238  19.2706585  99.4500923  65.0650072  18.7135041
 100.4109764  64.0789890  19.3423688  83.2768059  43.7044001  27.4429989
  83.9038658  43.5651970  26.7333150  82.4615097  43.3197975  27.1211147
  70.5492020  65.8285332   8.2914162  70.1290941  65.3275776   7.5922841
  69.8270321  66.1033201   8.8563937 101.0132694  59.1946268   8.6614984
 100.8558941  60.1166916   8.8646328 100.2617741  58.9351702   8.1284124
  77.3013496  52.7189589  27.4051857  77.3895788  53.6349106  27.6687813
  77.2818995  52.7458382  26.4485598  68.4740543  67.4584579  -0.0545657
  67.9009581  66.9933319  -0.6640334  68.3662224  66.9955397   0.7762834
  85.4525471  50.0231218  20.6451321  84.5252419  50.0662851  20.8785009
  85.8104515  49.3393612  21.2113595  61.7520714  73.1075907  15.5255961
  60.8971739  72.6875067  15.6200051  61.5943670  73.8405228  14.9304736
  75.5365705  46.0296631  29.2167449  75.3272009  46.9069862  28.8962889
  75.9241867  46.1760283  30.0796270  31.7089868  17.6970243  82.1759319
  30.7859087  17.8339136  81.9628143  31.6949868  17.1439850  82.9570770
  88.5479164  64.5885515  34.5848131  88.7298775  65.0424528  35.4076719
  88.1331539  63.7678528  34.8506308  88.1729698  48.8132572  23.5416460
  88.9799976  49.2993832  23.3724809  87.9769611  48.3782721  22.7118254
  78.2091188  71.6942501  20.4877234  77.8061819  72.0861053  19.7129202
  79.0115309  72.1987104  20.6214547  92.9169083  68.3301973  24.6531272
  93.4200859  67.5485277  24.8812604  93.5591888  68.9230585  24.2629552
  70.7499838  51.3027143  32.5970936  70.1148701  51.6900158  33.1994724
  71.5391541  51.8330288  32.7075887 107.8093147  75.5057907  12.9890871
 107.0746231  75.7761574  13.5398734 108.2802773  74.8613358  13.5173941
 101.3366890  66.2906694  28.4641409 101.9024944  66.9273901  28.9008188
 101.4823532  66.4416647  27.5302172  72.9121494  37.5964451   5.9018713
  72.5055265  36.7309189   5.8600259  72.1857548  38.2083416   5.7828343
  63.4288025  57.1922588  18.6444104  63.7854958  56.3345861  18.8755023
  63.9809799  57.8161764  19.1156435  97.8950691  56.9024277   9.4485503
  97.0633507  57.3716164   9.3827462  97.8493786  56.4510059  10.2913809
  97.2422695  48.5956669   6.7442244  97.8184605  48.0464315   7.2758043
  97.1000099  48.0896187   5.9442830  71.6637754  57.8692198  12.1058750
  72.3482895  57.8187084  12.7730513  72.0289612  58.4412909  11.4308882
 104.5272255  19.0141034  32.9521608 104.0434933  18.3985281  33.5028815
 105.4395485  18.7333143  33.0233669 118.7340355  47.9909706  12.8955412
 119.3468857  48.7258148  12.8700876 117.8687954  48.4000874  12.8810489
  93.5357285  29.3470144  31.6662359  92.7276516  29.8555756  31.5983391
  93.4015560  28.6044073  31.0773659  76.6588879  61.1450863   2.8148034
  76.4536333  60.2504539   2.5432652  75.8943367  61.4237881   3.3188045
  13.5751045  13.7476313  31.2498784  13.9501667  14.0643907  30.4281569
  12.9401803  13.0829501  30.9828544  94.5386410  26.9651580  23.3995771
  95.0663185  26.2591267  23.0263495  95.1470661  27.6990747  23.4857130
 103.6524487  42.3623371  34.6968126 102.9539108  42.1465778  34.0789819
 103.2201004  42.3797941  35.5506253  84.7222137  51.6594934  14.2920256
  85.4585075  51.6470051  14.9035335  85.0926304  51.3516855  13.4648168
 112.2026443  90.5247402  93.1741619 112.2027969  90.0700855  94.0164948
 112.7864170  90.0051785  92.6214409  86.1585426  65.6440687   7.5787717
  86.1439896  65.5046654   6.6318887  85.3542233  65.2318048   7.8939521
 102.6924610  53.5847521  13.6428189 102.9085636  54.4137144  14.0698409
 101.7986774  53.7062216  13.3224571  78.0629110  60.9576464  15.8021724
  77.4557972  61.2645435  16.4755619  77.9078722  61.5384102  15.0572503
  83.6229897  54.5741558   8.4356010  84.0225792  54.7361994   7.5810218
  83.4702492  55.4468632   8.7979364  96.4398384  73.9616346  21.0628366
  96.5685558  74.2167997  20.1492977  96.7071152  74.7306395  21.5662503
  93.8050842  70.2973127  22.9002786  94.6489811  70.7442808  22.8347206
  93.2668972  70.8792257  23.4369016 118.6426067  52.2610521  46.7685843
 119.1348457  51.4546776  46.6146708 119.2921066  52.9586411  46.6805792
  93.8559818  60.3327227  15.7923150  93.0695534  60.7368803  16.1589420
  93.6076164  60.0917768  14.8998499  96.0614014  21.9048214   3.7696335
  95.8410454  21.2403107   4.4223976  95.9187603  22.7381063   4.2185459
  51.6263437  72.1525478  17.3876739  52.0640516  72.9074478  17.7810812
  52.3212099  71.6901588  16.9190705 105.6735706  12.9269493   6.5589648
 106.3460636  12.6551235   5.9343886 105.5949306  13.8721550   6.4299929
  42.0231962  72.4147749   1.9469576  41.9750261  73.3626270   1.8225101
  42.9346991  72.1940756   1.7554216  80.4320145  41.2965250  14.1683698
  79.9213839  42.1003103  14.2653978  79.7819757  40.6221533  13.9711237
  91.4857197  72.8106451  16.3489449  91.0464573  72.2718287  17.0069373
  92.2440338  72.2913408  16.0815144  85.3232574  44.4636822  40.2934217
  85.5216408  44.4949913  41.2293148  86.0208130  43.9259672  39.9185824
  90.9016609  21.5157700  10.0276458  91.1425304  20.8242273  10.6440771
  91.3765526  22.2875476  10.3359902  79.2993212  51.1101580  28.0206156
  80.0146198  51.7263651  28.1783175  78.5749626  51.6568470  27.7162004
  92.1842384  57.5962257  35.2919841  92.0029354  57.8623152  36.1934042
  91.4156151  57.8825378  34.7985482  61.4417505  35.8024383  27.1547031
  60.6759310  35.3122973  27.4538994  62.0432138  35.7848454  27.8991246
  95.3182125  30.5077577  15.1302302  95.4574585  30.9604955  14.2984414
  94.9448395  29.6617961  14.8828995  24.0077281  24.4679618  92.5169945
  23.5317850  24.4880319  93.3472347  23.3227491  24.4517875  91.8485832
  73.8292885  54.5243597  15.1087475  74.2237234  54.7214174  14.2591488
  72.9403496  54.2376566  14.8993969  66.2349367  29.9615335   1.2299725
  65.4229164  29.4699597   1.3533281  66.6273069  29.9986601   2.1022671
  77.3836040  52.8339720  31.4771438  78.2685471  53.1972265  31.5111041
  76.8162870  53.5959101  31.3595223 105.3599262  45.0293398  25.8909750
 105.0272942  45.8624363  25.5570030 105.6634903  45.2302456  26.7762542
 101.1808300  30.6985188  33.0288196 100.7822609  30.1088595  33.6688733
 101.3876629  30.1367664  32.2818995  82.0049381  57.9688740  16.9318628
  82.3254871  57.5675583  16.1241341  81.5939140  58.7850666  16.6470551
 101.6939068  70.6203604   1.0244895 102.2664833  69.8900318   0.7899538
 100.9038448  70.2041721   1.3692014 109.2848778  76.1367226  21.6264725
 108.6804008  76.6780043  22.1342564 109.7155476  75.5830812  22.2778153
  97.7107048  68.0931234  18.6637878  97.5089455  67.5935173  19.4549382
  96.8769264  68.4902859  18.4121788  93.4651184  66.3795805  19.0373695
  92.6914501  66.1542797  19.5540106  93.7000275  65.5662251  18.5907090
  40.6992006  21.5913630  95.2614784  40.9962702  22.4756622  95.4759502
  39.7568893  21.6828895  95.1203823  73.2537460  48.3587408   7.9359460
  72.4107027  48.7990236   7.8279942  73.1555033  47.8467464   8.7387168
 111.9289017  41.4347839  32.3445988 111.6656971  42.2450018  32.7810621
 111.1488152  41.1570787  31.8644142  79.1339684  43.6712837  14.2618668
  78.5022163  43.6725378  14.9809766  79.6632195  44.4556141  14.4066429
  73.3885717  84.4164944  14.9145317  73.9145374  84.1988468  15.6840920
  73.4132814  83.6255169  14.3760347 100.0416183  61.4774036  21.5535927
  99.1718006  61.7865944  21.8067026 100.4912663  62.2605944  21.2363124
  92.0882797  61.2742043  28.2946301  92.2727489  61.8189478  29.0597796
  91.8385029  61.8968821  27.6119041  79.0402555  54.3422604  41.8030500
  78.8573742  54.0917158  40.8975029  78.6625385  55.2174377  41.8903685
  85.5691147  37.9162788  31.4284253  86.4392853  38.3112550  31.3734865
  85.7016277  37.1141648  31.9336820  84.3568230  71.9250202  15.1811504
  84.3031979  72.3109150  14.3068278  85.0814152  72.3869658  15.6028092
 101.5164471  62.1232986  31.5156341 101.1651134  62.8125429  30.9519482
 101.2372208  61.3078594  31.0993123  96.6801739  41.6444445  32.0919704
  95.9363842  41.2804985  31.6118169  96.3454723  42.4565458  32.4723673
  92.1603680  76.0018015  36.0323858  92.4410725  75.9890747  36.9474125
  91.2042141  76.0146904  36.0753369  99.7971153  40.4617739  24.4922066
  99.2667961  40.7082939  25.2499843 100.6977558  40.6429625  24.7610092
  80.6878662  70.6684971  15.3968132  80.9998798  71.5069818  15.7371378
  80.9028435  70.6935215  14.4644022  74.4984770  50.9312105  25.0276971
  74.1460657  51.5441370  24.3824387  75.0562525  50.3425360  24.5191908
  96.6042328  60.6181574   5.9194440  96.3393116  61.0443449   5.1043278
  97.4888134  60.9447622   6.0839778  69.9908066  67.4879980  30.0693846
  69.1732216  67.9093456  30.3344226  70.6053972  67.6932573  30.7739282
   5.6812316  40.3324938  19.5667803   5.1699311  39.6914268  20.0605798
   5.0351799  40.9679937  19.2585790  98.2693100  44.7968960  19.1100228
  98.7688255  44.9403286  18.3061934  98.8390636  45.1216984  19.8072445
  94.9128628  46.0848093  15.5683279  94.4718266  46.4690685  16.3259947
  95.6709194  46.6501951  15.4202652  92.2681999  63.2596064  22.6717281
  92.7081680  63.7019920  21.9458151  92.0773697  62.3831034  22.3377347
  76.7377329  62.7486944  12.3961973  76.7127037  63.3181334  11.6272080
  75.8365107  62.4422264  12.4967253  84.5228672  46.3162088  30.7155347
  84.6413898  47.2499084  30.5412126  83.6482525  46.1190891  30.3802156
  69.3546391  49.5566797  18.0207253  69.2163801  48.9081001  17.3304629
  69.0979910  50.3884983  17.6226807  71.9307375  73.2218933   1.5845406
  72.0793247  74.0506887   2.0397921  72.1270275  72.5509310   2.2383849
  80.6522083  55.7088518   3.3402243  81.0725117  55.8442211   4.1894928
  80.0267029  56.4294863   3.2649678  81.2201214  73.5470104  38.6474347
  81.7596054  73.6134768  39.4353247  81.8037891  73.1709814  37.9885244
  73.2615662  57.8087807  30.3051496  73.4462643  57.7045584  31.2385607
  73.7416553  58.5974264  30.0525951  97.1938419  49.2539215  60.9575510
  96.5771770  48.7820911  60.3977919  97.2110939  50.1416111  60.5998659
  79.3027258  54.7573137  12.1825695  79.9774218  54.7443295  11.5037131
  79.4064903  55.6089067  12.6071298  99.1185188  54.8552942   8.1186473
  98.7069607  54.6463299   7.2800881  98.6497498  55.6299686   8.4290713
  89.6570683  69.1801548  24.2335320  90.1098347  69.9924564  24.0068150
  89.7172546  68.6437416  23.4430480 103.5944462  55.9718704  15.0206006
 104.5086861  55.7015896  15.1062977 103.4408092  56.5397978  15.7756424
 114.3060207  52.1437550  55.0417376 113.4521675  52.2167158  55.4681826
 114.8190403  52.8640461  55.4080915  75.5485487  46.4991093  16.3900983
  75.2402306  47.3768425  16.1648011  75.7146502  46.5380192  17.3319733
  61.4335442  31.1998105  21.7044401  61.7471075  30.4405880  22.1958613
  61.2590456  31.8623662  22.3728728 103.0377293  73.8438749  36.4458132
 102.3349190  74.0385342  35.8258128 103.1294823  72.8916597  36.4126110
  85.9095478  28.4678936  33.1771231  85.7812500  28.3949065  32.2313738
  85.0420380  28.6813760  33.5207462  99.5162392  47.6803064  25.9580469
  99.6095181  46.7881823  25.6239104 100.2402782  48.1625509  25.5587530
  76.9706869  43.2369566  44.7693253  77.6936960  43.7229729  45.1659155
  77.2770119  42.3304605  44.7437000  76.9613981  55.3772116  28.5951900
  76.5801573  56.1098862  28.1113720  77.8258753  55.6900978  28.8616776
  71.7553186  30.2048993   6.1067832  71.5348911  29.8804641   5.2336371
  71.3414431  31.0667253   6.1536086   1.6775800  44.9892569  43.3947945
   2.0172510  44.3141222  43.9822006   1.2935375  44.5016336  42.6661205
  80.8742332  60.4222679  16.1985600  80.6225491  61.0604906  16.8660629
  80.0572968  60.2158499  15.7444274  97.3194981  50.1048517  22.1246672
  96.9337177  49.3159676  21.7437911  96.8316746  50.2419424  22.9367423
  85.7784653  50.1394749  25.2778602  86.1601830  50.5626535  24.5088077
  85.4360676  49.3084097  24.9487185   7.2468519  61.8617296  10.0007939
   7.3775065  61.2181282  10.6971717   6.5467572  62.4277115  10.3260112
   8.2550687  80.6810284  94.7492027   8.4012920  80.1579762  93.9609909
   8.0457884  80.0387955  95.4274178  79.1267633  47.5417709  37.5124621
  79.7580385  48.2463074  37.3663378  79.6609783  46.7921638  37.7750301
  89.0102768  48.4417725   5.5894530  88.6233807  47.5790644   5.7387263
  89.4973755  48.6279583   6.3921350  98.0413628  62.0076323  18.1742144
  98.4809208  61.2130451  17.8714633  98.7543678  62.6124811  18.3792007
  35.8235765  10.9739685  94.2842484  35.6047034  10.3212631  94.9493027
  35.3305578  11.7529643  94.5417976  51.0823059  59.1323185  20.9602451
  51.6535521  58.5286331  21.4350820  50.5204630  59.5118761  21.6358948
  98.0578136  71.0098886   8.7552518  98.4938812  70.2091026   9.0464860
  97.1243191  70.8015680   8.7929702  63.5322714  50.7431221  39.6314025
  63.4132624  50.0454760  40.2758884  63.0201912  51.4756441  39.9740601
 104.4763947  54.4913721  18.9084327 105.2120495  55.0217915  18.6023355
 104.7845173  54.1048241  19.7281098  83.9571571  66.0861874  26.6005206
  84.1851521  65.5620289  27.3683119  84.6688080  65.9254742  25.9808779
  97.3546410  51.0318804  28.2300091  96.4251423  51.1415720  28.4306216
  97.3665237  50.5105209  27.4273419  90.8655071  62.3335457  45.8802748
  91.6633511  61.9047785  46.1898565  91.1762047  63.1090450  45.4130602
  67.7829552  34.8415756   7.3957485  67.4456167  34.3773556   6.6296321
  67.1442032  34.6613169   8.0854827  58.7715006  78.7627268   7.8508830
  59.6233416  78.8449907   7.4221265  58.1744528  78.5024166   7.1494514
  99.4825268  71.2683439  33.2988000 100.4279804  71.3110352  33.1554770
  99.3863583  70.7871485  34.1206479  81.6886139  66.6103935  30.0436521
  81.7322159  65.6743240  29.8484373  81.7221069  66.6576147  30.9990978
  74.4386292  34.3479824   3.8064191  74.3526316  33.4082365   3.9667815
  74.1774702  34.4598627   2.8923562  84.2267704  61.1534500  44.0293646
  83.6655521  60.4536724  44.3634033  85.1117802  60.8932590  44.2848635
 106.8659210  52.1622658  17.2414017 106.7930412  52.2508144  16.2910974
 106.9215965  51.2183809  17.3904324  84.5429325  72.7493620  12.4494922
  84.4983196  73.6984730  12.3336065  83.6873150  72.4322844  12.1603310
  93.1368065  55.9684372  16.8208325  93.9002419  55.7723045  17.3639083
  92.5764847  55.1972628  16.9078374  72.5403166  42.0204210   8.9981055
  73.4615564  41.7847538   8.8885182  72.4741697  42.9035616   8.6348945
  66.8463421  40.1840448   6.4459872  66.8742847  40.7509089   5.6751984
  67.4365568  40.6026030   7.0726395  72.3761606  40.7089710  28.2684970
  71.9629145  40.0142384  28.7811422  71.7133045  41.3978481  28.2205057
  97.0333958  18.2298505  17.6210165  97.0069408  17.6873839  18.4092176
  97.7565384  17.8704524  17.1070755  67.1675348  75.5066919   3.9937890
  67.7354813  74.9361897   3.4759158  66.3042927  75.4153299   3.5904276
 115.2470493  56.4789200  10.1622224 115.9735489  55.8733559  10.0148249
 115.3091431  57.1071386   9.4426924  92.2569370  36.2661433  33.7149644
  93.1538200  36.5568066  33.8803816  92.0036793  36.7172003  32.9095840
  99.9127483  75.0983143  14.5959306 100.7863045  75.4474831  14.7725987
  99.5247459  75.7226419  13.9828265  51.9592190   5.7103336  83.9282417
  52.5846672   6.2816876  83.4825897  51.5837240   5.1749253  83.2292652
  88.2473469  60.4122639  18.6772120  87.3796177  60.5749559  19.0470958
  88.0787563  60.1800537  17.7640355  92.4989605  58.0419302  10.9947491
  92.1548748  58.3563948  10.1587164  92.3738766  57.0934439  10.9636950
  79.2219973  22.9760957   7.3751134  79.6705008  23.5273218   6.7338449
  78.5063934  22.5717473   6.8845570  85.3702259  35.9881306   8.2752812
  86.2901306  35.9791589   8.0108607  84.9755287  36.6809320   7.7456808
  80.4470158  38.9734077  30.3192639  81.2148571  38.8983011  30.8858490
  79.7159958  38.6883616  30.8675194   9.6557271  33.8719344  14.5237899
   9.2754817  34.5503569  13.9657688   8.9047551  33.3597040  14.8236108
  83.9853764  53.0465937  27.9502416  84.6860695  53.0985212  28.6002946
  84.4395638  53.0507278  27.1076655  92.3618126  55.6243420   5.6317806
  92.8601551  55.3450012   6.3998026  92.1823597  56.5516710   5.7869887
 105.0028038 100.5154896  94.7249794 104.7309685 101.4250374  94.8476982
 105.9576988 100.5405235  94.7864628  89.4972706  64.2925692  40.4669666
  89.0048695  63.4758711  40.5492830  90.0920486  64.1406584  39.7325301
  89.7651196  45.5779123   5.1508850  90.4896832  45.3061771   4.5875114
  88.9880562  45.1962709   4.7425163  89.2338657  46.6048670  19.7019267
  90.1512241  46.7552805  19.9300945  89.2510605  46.3908100  18.7691271
  95.5042171  44.4693518  41.6744995  95.9398079  45.2528000  41.3387775
  94.6118164  44.7560453  41.8685627  65.1294947  52.7999115  32.5996161
  64.3893719  52.8846455  33.2006693  65.5187988  53.6740017  32.5743318
  66.8733931  62.2317743  47.8853989  66.6481400  62.8072262  48.6163902
  66.7941189  62.7873564  47.1099758  86.2930489  51.0744047  18.2292485
  86.0758877  50.6352711  19.0515828  85.4726505  51.0787487  17.7361286
  82.3263454  58.0600643   1.4577255  82.0546818  58.1905603   2.3662424
  81.5058327  57.9727888   0.9725702  89.5438766  63.2882023  47.9764891
  89.8555088  63.0953217  47.0922327  88.7380409  62.7788782  48.0628586
  56.4394331  62.6004362  50.6496668  56.4828587  63.1128931  51.4569664
  56.6590881  63.2243824  49.9577999  75.3804350  64.5966196  34.3239522
  74.6037054  64.7786379  34.8529124  75.0437212  64.1391134  33.5535336
  92.8835869  55.2815485   1.5474276  93.3517456  54.7585821   0.8966139
  93.5249901  55.4292250   2.2424267  91.8389416  49.6260023  15.3422606
  92.7373695  49.7538948  15.0377774  91.4691162  48.9852762  14.7348630
  92.2797012  39.5067191   9.5562780  92.5101852  38.9636588   8.8024920
  93.1160641  39.6896434   9.9843729 118.3341217  41.7944574   5.9903377
 118.4097767  42.1934891   6.8571043 118.5099411  40.8652449   6.1382717
  86.2379742  49.1951036   7.1874988  85.9720802  50.0733948   6.9152266
  86.3692665  48.7195349   6.3672358 105.3259659  79.3106079  18.4852886
 105.9197235  79.7284126  17.8614891 104.8607731  80.0385189  18.8975608
  91.1607265  66.7830658  10.8332193  91.4616871  66.9369078  11.7287552
  90.9356213  65.8529329  10.8126521 104.3486404  42.6730585  21.1360860
 104.1903687  43.0095148  22.0181179 105.2929688  42.7659607  21.0101748
 113.9910698  29.1250086   7.5279742 113.4306526  28.7466240   6.8504852
 114.0539360  28.4421229   8.1957668  69.4548082  59.6270847   8.9479095
  70.1763535  59.0331268   8.7409699  68.7291336  59.0492535   9.1840076
  93.1983948  59.7887802  25.6587481  92.8348446  59.5631075  24.8025131
  93.3669662  60.7295942  25.6069613  83.4573746  57.7457666  21.2815428
  83.0830097  56.8775749  21.1321044  83.9227009  57.9488516  20.4700899
  21.8616700  85.0889397  97.4539757  21.8011045  85.6735516  96.6984653
  21.5411019  84.2466831  97.1313953  76.5171337  62.2705078  29.0732718
  75.8565807  62.5319099  28.4317374  77.0671749  63.0465221  29.1804767
  86.8990993  42.8117561  13.2930923  86.8992901  41.9094801  13.6126626
  86.3863087  42.7796936  12.4854720 102.3658657  82.4333954  45.5256414
 102.8273392  82.6665306  44.7200823 102.1339130  81.5118694  45.4106665
  85.3106403  58.8241196  13.6702836  85.5948925  59.5822191  13.1596839
  85.1064396  59.1805744  14.5348489  19.8929477 101.5859127  91.4753437
  19.0481877 101.9703293  91.2411785  20.3435445 102.2761440  91.9619465
  82.0582771  48.2468367  51.3668394  82.0085907  47.3154068  51.1518908
  81.3188744  48.3964539  51.9560146 104.3903732  68.4620476  18.3886659
 105.0871849  68.8226366  17.8403413 103.8131046  69.2056179  18.5621738
  76.9334984  42.0482016  19.6776974  77.1847105  42.1795702  18.7634385
  77.1378851  42.8804016  20.1041961 113.0312634  72.8007746  18.2953298
 113.5104561  73.5788488  18.5802841 112.8998947  72.2936344  19.0964460
  97.1813965  72.8427553  33.2330513  96.3667488  72.5131083  33.6124229
  97.7584648  72.0795870  33.2047677  97.0128250  98.0998802  23.5411763
  96.1241055  97.9517460  23.2179666  96.9747543  98.9590645  23.9614129
  86.1642742  74.1025352  16.1228180  85.2760983  74.3758392  15.8932972
  86.6951656  74.3544054  15.3672111  48.9218092  20.8753896  94.8633385
  47.9769373  21.0063505  94.7840023  49.2345381  21.6570473  95.3188038
  73.2196522  52.7658606  32.4566245  73.9471245  52.2288513  32.7706933
  72.8755379  53.1872272  33.2441950  85.2608681  74.6671534  26.9735813
  84.9365520  75.4622984  26.5507412  85.5477238  74.9564362  27.8397560
  63.5643625   1.1044304  90.3825665  64.2373562   0.6975064  90.9282112
  63.0257463   1.6020186  90.9978199 118.4485912  55.3403711  21.7689967
 119.1979885  55.2337694  21.1830997 118.5199165  56.2400961  22.0878124
  68.4462547  17.6652801  95.8983803  69.3385029  17.3278034  95.8194256
  67.8916168  16.8858194  95.8659458  96.9335556  50.7772064  51.2500286
  96.0919857  50.4598570  51.5775728  96.7058468  51.3383865  50.5087709
  98.6104488  84.0214729  25.0217509  98.3309937  83.6283684  24.1949415
  97.8972149  84.6144676  25.2581620  83.3715439  93.1919003  10.5316365
  82.6379204  92.7318192  10.1237702  83.9769650  92.4966049  10.7890630
 106.7200279  54.6108580   7.8002048 106.1665821  54.8886204   7.0702863
 106.1333752  54.1131210   8.3697039 111.7560291  71.9902277   1.0626303
 112.2809792  71.2368011   0.7924267 110.8973122  71.6217709   1.2701727
 103.3987045  87.9640007  31.7059016 102.8518581  87.6184368  32.4114299
 103.5230637  88.8864613  31.9291568  87.7943802  77.1557331  20.8419466
  86.9445229  76.8044901  21.1076593  88.3584404  76.3861322  20.7659292
 104.5205975  59.6977901  35.4304790 105.4133320  59.3545818  35.4688001
 103.9647484  58.9186144  35.4185915 118.7886620  42.7628899  31.2811041
 119.4820786  42.1060944  31.2176609 117.9876900  42.2541475  31.4070296
  63.4231091  82.6009941  13.4958601  63.9683485  83.3403683  13.7646747
  63.2499552  82.1236134  14.3072534  71.9024229  84.1267490   6.0560572
  72.3263645  83.6757851   6.7862189  71.3919687  84.8234272   6.4687335
 106.4311886  60.7035828  39.1795278 106.3624096  59.8416662  38.7689185
 105.5530930  60.8783484  39.5181131 109.5132542  51.4870358  43.9475346
 109.0954781  50.6296873  44.0290260 109.1308689  52.0079041  44.6537256
  68.8355207  66.6425323  19.4009352  69.0112972  67.3352242  20.0377345
  69.6689510  66.1798239  19.3141830 111.3490582  74.3661261  36.5410566
 112.2890472  74.5337772  36.6084719 111.0219193  75.0620556  35.9710622
  75.5529547  43.0672693  40.2202368  74.6657372  43.4248781  40.2548647
  76.0539627  43.6102390  40.8288479  93.9191246  59.2587709  28.9570212
  93.5851192  59.7877789  28.2325768  94.4026279  58.5498476  28.5328913
  27.3548651   6.2265050  24.1281533  26.7213154   6.9078547  24.3531179
  27.7661395   6.5385789  23.3221173 112.3497963 110.7270050  30.9837508
 113.1342506 111.0113621  31.4527845 111.8742561 110.1888275  31.6165733
   5.6068057 102.6854801  25.8556461   6.3347101 103.1876755  26.2219620
   5.0531870 102.4815750  26.6094112  99.4520187  87.1357155  21.0195851
  98.6196995  86.7287350  20.7791042  99.9157333  87.2415257  20.1889157
  61.6317797   4.1116765  35.3666091  62.0738125   4.8452458  34.9391580
  60.7151127   4.1992542  35.1053095 107.3377419  57.8280783  30.9541869
 107.3819923  57.5890017  30.0283813 108.2521725  57.9197407  31.2218547
  94.4152164  65.5228662  15.6304538  94.9484253  64.7341490  15.7296717
  95.0077820  66.2417793  15.8501482  95.4692650  85.8252716  11.1325896
  96.1439323  85.6751919  10.4703689  95.3017521  86.7669392  11.0947227
 102.2250366  97.3430443  34.7662354 102.4210548  96.9391727  33.9208364
 101.2704372  97.4113655  34.7834468  55.3912401  26.3190961  93.2306004
  56.0802269  25.6709290  93.0842972  55.5012846  26.5836310  94.1439152
  70.3051996  72.1768856  44.0164042  69.4712782  72.6380873  43.9264202
  70.0967360  71.4057589  44.5438004  76.1482096  84.8931026   4.1386968
  76.0504675  85.3365040   4.9813583  75.2511501  84.7142792   3.8566777
 107.2485065  57.5355530   4.6051946 106.7928791  58.3628178   4.4493824
 107.8861427  57.7385139   5.2896339  92.8001881  58.4883308   6.2044477
  93.6826134  58.1252909   6.2802511  92.8692722  59.1425991   5.5091846
 111.3772774  64.7163820  20.5083346 111.4004421  64.8806143  21.4510560
 111.1119366  63.7999249  20.4313207  97.5647068  85.7155132  20.1133752
  97.3964214  86.1965370  19.3031120  97.1822643  84.8510838  19.9625695
 104.3965721  54.5693970  27.0442343 103.8165092  53.8081360  27.0286226
 104.2581558  54.9583101  27.9078412  71.2294817  68.3998299  24.1510177
  70.9687090  69.2155695  24.5785666  70.4311943  67.8718901  24.1351771
  90.2444935  76.8346071  25.6316853  89.8768520  76.4248800  26.4147544
  89.5023727  77.2811508  25.2241468 102.9609489  76.0504007  12.9999149
 103.1425762  75.1109076  12.9756117 102.1713448  76.1555147  12.4691629
  98.2666492  51.8487358  43.0101728  99.0139484  52.4364376  43.1214190
  98.3429241  51.2249756  43.7322092  80.2415085  70.4461336  18.3922803
  80.4385281  70.0217819  17.5572109  79.4088459  70.0613737  18.6658883
  81.9737625  74.1108561   1.7945637  81.8073463  74.8071289   2.4299684
  81.1812305  73.5744381   1.8139918 110.1498222  77.1795797  14.1596174
 110.0356579  76.8918276  15.0653768 109.6903038  76.5205812  13.6392295
  99.9183655 102.1008301  20.6392622 100.1321983 101.7519093  19.7739506
  99.8879147 101.3308811  21.2071466   4.2913982  50.2080488  19.5569253
   3.7582862  50.9999323  19.6272612   4.4120255  49.9193954  20.4615569
  51.8090010  20.5008125  95.5701637  50.9785175  20.8962655  95.3053188
  52.1012449  20.0173116  94.7974777  73.0099726  69.1935682  19.6844268
  73.2380295  68.5146904  20.3195190  72.9794025  70.0010347  20.1975513
  51.0547781  25.2004075  86.0864067  50.7212353  24.7795463  86.8787766
  50.3746843  25.8291411  85.8447361  94.4775105  63.7274933  20.8973217
  94.4264030  63.3101034  20.0374341  95.3337669  64.1552687  20.9054065
  95.0195599  50.9117746   4.9620467  95.0109100  51.8641901   4.8668459
  95.7792759  50.6271791   4.4540408  81.8009567  71.4944506   5.8664131
  82.6938629  71.7363453   5.6205863  81.6273117  71.9967127   6.6625357
  80.0954151  74.1037750   9.9471277  80.2987862  75.0251198   9.7858942
  79.2357874  73.9745665   9.5464092  85.9983635  71.1029577  10.5669367
  85.6511593  71.8643427  11.0316658  86.2475967  70.4921627  11.2605119
   2.7110657  82.9383945  49.0532780   3.6526245  82.7682686  49.0808010
   2.4560332  83.0231476  49.9719763  97.7521992  48.1238794  35.2139616
  97.7569103  48.8047934  35.8866906  98.6734867  47.8878260  35.1056457
  88.5674000  54.8665190  13.7912226  87.8700352  54.2134857  13.7323844
  88.1516075  55.6858015  13.5226595  85.7346344  60.7767200  12.1108711
  85.2887249  61.0942698  11.3256586  86.2808895  61.5115881  12.3898220
  88.1615829  30.9198594  31.9745159  88.3223915  31.5482497  31.2706017
  87.3654842  31.2367105  32.4012017   0.8092246  70.6730843  40.1357508
   0.5258767  69.7601271  40.1852465   1.4142263  70.7762575  40.8702993
  88.1621361  62.6057911  28.1647682  87.8705978  61.6942167  28.1483269
  87.9681492  62.9032993  29.0536380  88.3290958  74.3845654  26.2661862
  87.8706646  74.8286676  25.5528569  88.0893707  74.8793888  27.0497108
  80.4961586  68.8310719   6.0326725  80.8771515  68.5022259   6.8468797
  81.0275364  69.5958519   5.8113331  97.1790600  53.2847404  33.3384585
  96.2981510  53.0539179  33.0435967  97.3609543  52.6727581  34.0516400
  81.0491085  46.1201382  15.4673576  80.8399582  47.0529890  15.4197204
  80.2927399  45.7270241  15.9027839  99.8601151  92.6398659  38.6375213
 100.7600498  92.4787140  38.9210415  99.3233585  92.1247482  39.2398381
 111.6900826  71.6211510  23.2941079 111.8400669  70.6971550  23.4940481
 112.1147442  72.0931911  24.0104008  87.7297115  75.5912256  36.3813400
  88.1497765  74.8006964  36.7202306  86.7927933  75.3984165  36.4164019
  91.2777138  65.1226282  20.3648376  91.0333538  65.3007650  21.2730145
  90.5640793  64.5818329  20.0264549  97.3745918  85.6226349   8.5919046
  98.2752228  85.5565739   8.2745057  97.1689129  86.5558243   8.5363650
  57.3148870   5.0940275  87.8915596  57.6237345   4.4104823  87.2969055
  57.2418451   4.6578920  88.7404823 103.6790657  92.7466583  45.6986427
 103.8693142  91.8359566  45.9237289 104.0449715  93.2539272  46.4232302
 107.1481228  71.9642878  39.3236303 107.7014065  71.2584925  39.6582389
 107.6811981  72.3881054  38.6509895  90.4489708  81.4829159  38.3611822
  91.3676739  81.5037823  38.0932522  90.1782703  82.4010468  38.3601499
  87.4484921  33.6508751  20.9248495  86.8772221  33.5856247  20.1595879
  88.1536674  33.0273438  20.7511830  91.2075233  85.7314110  40.5958319
  91.5998554  85.0997353  41.1985683  91.2778091  86.5711784  41.0497999
  96.7037487  83.2541561  17.2292864  97.4268246  83.0079269  17.8061473
  96.5632439  82.4836063  16.6790700  95.0326061  74.7724152  26.8744493
  94.8221493  75.5313444  27.4184823  94.6026421  74.0375423  27.3118567
  82.3741055  63.8725615  20.1334405  82.4940968  64.6007681  20.7429910
  82.9415607  63.1803226  20.4726124  82.3325062  15.0856376  97.2672844
  82.6597309  14.4449151  96.6359138  81.7031097  15.6099474  96.7721272
 105.1706219  51.5812302  25.7214427 104.4416714  50.9770298  25.5806875
 105.3248024  51.9747353  24.8625970   4.1278765  89.0951538   0.9137986
   3.5278076  88.3504581   0.9535370   3.7270510  89.7561169   1.4783303
 106.2944984  40.7489586  22.5647378 107.0094585  40.8857584  23.1863070
 106.0271168  41.6318035  22.3091435  11.6445160  73.1266975  34.7933125
  10.8769107  72.6931143  34.4204593  11.6654956  73.9839983  34.3680692
 118.5858631  77.5482798  33.1901240 119.1611767  77.4183750  32.4362206
 118.3638191  76.6626120  33.4773874  76.1550808  85.8515549  28.7680984
  75.6434345  86.3537979  29.4022942  76.1284781  86.3773823  27.9687095
  78.2224131  94.8634148  20.0182772  78.3807611  95.5111027  20.7050538
  78.3146620  95.3533363  19.2011499  95.1332951  52.0476818   8.0958569
  94.6008396  51.8017864   8.8523328  95.3067493  51.2207365   7.6460773
   0.8350059  85.2134609  37.7658200   0.7865401  84.4759560  38.3740735
   0.0788679  85.7568932  37.9875612  47.1153593  10.6982315  87.0115662
  46.2118292  10.3829861  87.0337582  47.5403070  10.1604927  86.3433743
   1.0066195  75.2863741  38.3379388   1.3109395  75.8425951  39.0550447
   1.5345159  75.5548620  37.5859594  94.2949867  75.2100992  23.7911367
  95.0566959  74.6381521  23.8855052  94.4583130  75.6949711  22.9821491
 105.0878143  47.1356201  22.2124958 104.5813847  47.4907637  21.4819956
 105.9996128  47.3093462  21.9786787 100.2717876  99.7405720  21.9568443
 100.8196640  99.6982098  22.7405930 100.4310513  98.9101982  21.5081120
  91.8293571  53.2077456  28.6120582  92.0231438  53.9569712  29.1753864
  91.1281300  53.5150766  28.0375528  85.8035755  84.9663830  26.9859576
  86.3509560  85.4551125  26.3713455  85.7040024  85.5523682  27.7362514
  38.4979177   4.0786058  85.2053833  39.3985891   4.2099097  84.9091053
  38.5656905   3.4135613  85.8904839  83.1110287  32.1113443  39.2235637
  83.2913971  31.2344480  38.8848138  83.8306808  32.6486969  38.8925242
  41.1958122  31.7426157  95.8226013  40.2472067  31.8701863  95.8327389
  41.3826561  31.4044428  94.9468327  41.6521645  24.5383143  96.5269852
  40.7800961  24.7034717  96.8853855  42.0687389  23.9610958  97.1669197
 100.6494236  56.5542412   4.6082300 101.3440800  56.2991905   5.2153808
 100.8819771  57.4424696   4.3376833 105.2097321  73.0603456  25.4485154
 105.8611012  72.4230862  25.1555085 105.3842163  73.8405037  24.9220729
 109.8326111  89.7799015  20.8844590 108.8771057  89.7365379  20.9211349
 110.0202274  90.2416992  20.0672817  36.7488551 107.1026802  91.0978031
  37.2776055 106.4653301  90.6177616  36.4105701 106.6157627  91.8492603
 101.9216156  75.1953220  42.8307581 102.0693493  74.9684668  41.9126415
 101.6839314  76.1223745  42.8131533  64.5325851  16.3878679  88.2298374
  63.6054754  16.4132130  87.9930782  64.8762512  15.6216764  87.7704048
  99.9486351  72.6684618  38.3466482  99.9870872  73.4917402  37.8598523
  99.0131283  72.5018454  38.4619308  92.3508644  82.1504211  11.0927415
  93.0216789  81.4703274  11.0318136  92.5807095  82.6436996  11.8801939
 107.7174377  68.8378429  13.3192182 107.6843739  69.0048838  12.3772860
 107.2041893  69.5469999  13.7063873 104.5515156  77.4347925  43.0280256
 103.6106014  77.2642946  42.9851151 104.6168423  78.3686590  43.2276535
  87.4465275  92.8354073  15.1681781  87.9466820  93.2766724  14.4816267
  87.8534889  91.9723415  15.2438581  56.9564247  12.4431491  79.8765421
  57.2188759  12.2976577  80.7854843  57.5444078  11.8869579  79.3655062
  85.4752254  80.0809669   6.4593041  84.9533463  80.6341934   7.0405257
  85.8982563  79.4517708   7.0435876  85.5344868  86.8733883  29.2318392
  86.0736179  86.5056610  29.9320841  85.0181675  87.5559998  29.6604300
  56.5742826  13.2533598  93.4631062  56.9594288  12.4286544  93.1668758
  55.8925056  12.9908085  94.0815544  63.8041878  44.3428564  21.6549659
  64.1585445  43.9048100  22.4287748  64.4372129  44.1544342  20.9621406
  20.8184266   3.3342406  19.2841625  20.2223015   3.2293993  18.5426271
  20.2511072   3.2993793  20.0543356  89.9357986  56.5104294  47.9281616
  90.1815510  56.9735527  47.1273184  90.7185078  56.5503645  48.4777164
  87.5807667  53.4635448  44.2568779  87.0421696  52.7571106  43.9003801
  87.0378685  53.8573503  44.9398232  99.2521763  68.8233519  10.0166535
 100.1609325  68.5227489  10.0231957  98.7374973  68.0337095  10.1833594
  97.7663040  52.6668358  18.3191109  98.0169296  52.8883934  19.2159581
  96.8289280  52.4802876  18.3715189 110.5785656  65.9312916  46.2358093
 110.7209969  66.4159489  47.0488644 109.8557854  65.3362513  46.4351559
  98.7003803  84.5312691  41.7007923  98.6495781  85.4869747  41.7179298
  98.9608097  84.3213081  40.8039522 118.1291103  94.4184875  38.7823391
 117.6544380  94.6386147  37.9808068 117.8274250  95.0618076  39.4237113
  68.7904406  66.4390850  46.3762283  68.7101650  65.7734489  45.6930637
  68.3477354  67.2072268  46.0154009  96.6952324  76.7410851   4.8792231
  96.6045475  75.8906555   5.3090823  96.4905739  77.3783636   5.5634910
  73.3171940  24.2102003  92.0330238  73.9842844  23.5501409  92.2215462
  73.7478399  25.0451493  92.2164249  59.3729925  67.3596954  18.2948613
  59.6089983  67.9400206  19.0185738  58.5522079  66.9526672  18.5721242
   3.4829107  81.3260078   4.5029500   4.2382765  80.8341599   4.8250401
   2.7857053  80.6741428   4.4308123 114.1442204  59.8609972  33.3362889
 114.9649715  59.5312691  32.9703999 114.0140629  60.7072353  32.9083014
  38.7795394  24.7521075  97.0421643  37.9794162  25.1040896  97.4322132
  38.6056083  23.8161667  96.9421967  16.6438508  43.5203695  14.8638475
  17.0682406  44.0838528  15.5108511  15.7090616  43.5990429  15.0541449
  83.4289932  64.4294214   8.1082517  82.9814625  63.6298466   7.8314286
  83.4606457  64.3678999   9.0629476 109.3737507 105.6397247  93.9045811
 109.4644451 106.5814781  94.0498161 109.4400311 105.5362988  92.9552937
  99.5410538  70.3994703  14.7929227  99.0970612  70.5643845  15.6247342
 100.1056004  69.6465445  14.9679101   2.9264498  81.0270309  18.3892190
   2.4659996  80.5549622  17.6954103   3.8128668  81.1482334  18.0489159
 104.9320221  39.6616101  10.9670448 105.5481434  39.0175343  10.6180644
 105.0256062  40.4196739  10.3901446   1.7382553  84.1198826  45.2857876
   1.8402360  84.6749878  44.5126915   2.3760456  84.4620705  45.9121752
 106.3676262  89.7582912  30.0064373 106.4854622  88.9720726  30.5395460
 105.4224110  89.9093246  30.0080705  86.5044117  73.0894995  19.8537970
  86.2718964  72.2833967  19.3929684  87.0623779  72.8002310  20.5757666
  66.7303896  29.4794869  92.8159142  67.6294374  29.1544580  92.8638458
  66.7908096  30.2736664  92.2850037 100.8292961  86.7514610  26.8868160
 101.1737823  86.8013096  27.7784848 101.5370750  87.0882702  26.3374233
 112.0506001  43.5032845  28.4622717 112.9140854  43.2345390  28.7759566
 111.6174126  43.8662481  29.2348242   5.2274472  73.7566328  23.7561607
   5.9514493  73.8392019  24.3768358   5.6221116  73.9354229  22.9026365
  84.2267227 109.7265339  25.8764935  83.6911297 109.5656681  26.6533446
  83.6097622 110.0601673  25.2251172  73.9495754  89.1771126  16.5630925
  73.1376505  88.8580990  16.9570911  74.6198082  89.0075970  17.2251213
  76.3546991  50.7189322   1.5895849  76.8127632  50.2530289   0.8900537
  76.7099237  50.3476858   2.3971868 102.2934914  54.8707151  44.5039988
 102.7832890  54.2823601  45.0786114 101.8697643  55.4890251  45.0992918
  84.6574497  59.6388388  39.8988461  83.8515186  59.2366982  39.5748258
  84.6066380  60.5481529  39.6042299 109.3107700  86.7979145  42.6980686
 108.3963966  86.9561100  42.4632454 109.8017502  87.0070362  41.9034433
  83.5503578  42.2791767  31.4609361  84.2118645  42.7948618  30.9997439
  83.9310932  42.1183252  32.3242998   2.8636685  69.3397617  37.5209498
   2.7651495  69.3432617  38.4730601   3.8073239  69.2667437  37.3780704
  98.7885284  58.3829498   7.0676982  98.5825157  58.2027102   6.1504728
  98.2218456  57.7902031   7.5614095 106.3318634  81.6135025  22.0195103
 106.8464565  81.0295391  21.4623642 106.0528088  81.0625076  22.7507806
 106.1758041  64.7832727  31.0740304 106.2156200  65.2984524  31.8797827
 105.3814983  64.2569780  31.1652565  15.6949902  58.8552713  31.2754989
  16.4063275  58.8237381  31.9152141  15.4442132  59.7784090  31.2414765
  85.0885582  71.9094467  27.0196962  86.0172081  71.7147398  26.8934512
  85.0571537  72.8583908  27.1411395  83.5405159  86.3737583  21.5812540
  84.2942715  86.7608738  21.1360264  83.7788391  86.3836479  22.5082564
  17.2747624 111.8988323  96.8366432  17.9500663 112.3540211  96.3336563
  16.4901268 112.4355316  96.7247009  63.3500624  45.9383297  31.6676998
  63.8776350  46.5049267  31.1047888  63.7452936  46.0272932  32.5349426
  97.5988579  61.2458897  35.2209449  98.4258461  61.0302114  34.7898865
  97.8534698  61.7767525  35.9756565  84.9635887  61.8372107   9.6366692
  84.6802521  61.7819548   8.7240368  84.2381096  62.2698593  10.0869179
 105.5037308  80.7481384   5.7233077 104.7188187  80.6957436   6.2686491
 105.3473091  81.4984131   5.1498586 101.3743591  48.5097265  24.2398095
 101.1127663  47.9311466  23.5235381 102.3254490  48.5787201  24.1567993
  94.0735054  53.3453226  49.7846889  94.2514515  52.6391077  50.4058361
  94.4396400  54.1266584  50.1990461  98.1822872  79.7691965  18.7549210
  98.0310059  80.1045322  19.6386039  98.6823273  80.4593563  18.3191812
 110.0331688  70.7111979  13.5650694 109.4461823  70.0693941  13.1653571
 110.4878998  71.1134195  12.8250229  95.2144718  70.5944586  17.6646328
  95.1283169  70.0466347  18.4448254  95.9717369  71.1513233  17.8454113
  87.3387146  53.1464005   1.8707870  86.7567539  53.5255289   2.5294393
  88.2168007  53.2551050   2.2359817 116.8785381  57.0213938  17.8992558
 116.0516262  57.2052860  18.3449471 116.8664932  57.5887632  17.1284258
  87.4167442  68.4064865  16.5453589  88.2686424  68.2682467  16.9593585
  86.7881298  68.0234432  17.1572018  94.6334267  55.9377003  28.8421011
  93.7228107  56.1877918  28.6857224  94.7742653  55.1793528  28.2752609
 116.9549084  63.4456253  48.1820250 116.7928410  63.0602217  49.0430880
 117.8434277  63.7968779  48.2402229  95.9779930  77.6569176  18.3581543
  96.7953587  78.1347084  18.2171845  95.5123901  78.1687403  19.0195775
  89.3748188  54.3999100  42.5794554  88.8575172  55.0969553  42.1760321
  88.7778759  53.9904451  43.2057333 100.4471684  68.4966469  43.4984922
  99.6846199  68.0315876  43.1542826 100.0849438  69.2867088  43.8995266
 100.5515575  59.6355152  25.0196600  99.6491814  59.9349022  25.1306868
 101.0856342  60.4015589  25.2298284 104.7972679  61.2813520  29.6252203
 104.4590187  62.0445347  30.0935912 104.9107933  60.6152105  30.3031540
 104.3657970  63.0717278  23.7563562 104.4339848  62.5483704  22.9578090
 104.6287346  63.9523458  23.4887648  79.8602629  84.2453671  18.4793389
  79.3409252  84.6161842  17.7658868  80.6096172  84.8352051  18.5617733
 105.1767731  55.9399557   1.9210225 105.9582424  55.3927755   1.9992492
 104.4661522  55.3915787   2.2535025 101.8313408  47.7984047  14.1180420
 101.0011768  47.5067902  13.7411880 102.3793030  47.0136118  14.1265988
  83.1132507  20.6019616  22.3101306  83.5163975  19.7976422  21.9833636
  82.3216534  20.3072858  22.7604413  91.1487389  68.6168337  26.8454814
  92.0530033  68.5714483  26.5348816  90.6379700  68.8322020  26.0651159
  65.4339218  83.0562019  39.7426558  66.2008572  83.1857967  40.3005552
  64.7463083  83.5785675  40.1556301 109.8141479 106.4074135  23.4327364
 109.1322994 106.6874313  24.0433979 109.8722458 107.1194553  22.7956724
  73.1146002  61.2548828  40.4412985  73.1477594  61.7302084  41.2714767
  73.8195992  60.6106424  40.5058479  72.4444342   5.4416966  93.8974762
  73.3615637   5.1939976  94.0147305  72.2314787   5.9494346  94.6804714
 105.5373192  77.9742050  28.1500053 104.8365116  78.1398439  27.5194001
 106.1802959  78.6625767  27.9798222  85.0041294  59.8886967   2.2379419
  85.3883839  59.0122843   2.2597803  85.0392914  60.1883364   3.1463525
  85.7628155  81.7248917  27.0913625  85.9202003  81.2926960  27.9308105
  86.0394573  82.6303005  27.2325420 113.8830948  74.9137068   9.2874461
 114.6610928  74.3617344   9.3667454 114.0748024  75.4933405   8.5502148
 108.8593578  70.0303888  16.9705129 109.2036915  70.8173847  17.3927772
 109.5944309  69.6916771  16.4594531  82.1499062  82.2212696  18.3102286
  82.1569157  81.8601513  17.4237895  81.4225292  82.8434944  18.3096218
  91.6226482  58.5680485   8.5160911  91.2665749  59.4564009   8.4995395
  92.3692036  58.5980654   7.9177725  82.4862766  96.1813736  33.2626462
  82.7577400  95.2760029  33.1115389  81.5296650  96.1477470  33.2627678
 107.7612305  78.5431671   5.5098897 107.7363586  79.3247461   6.0619271
 107.0464325  78.6680174   4.8856214 104.9052620  83.5841846  30.4113102
 104.0065956  83.2750988  30.5257463 104.9283981  84.4266701  30.8650804
 100.2527618  69.0239668  17.4182165  99.4291782  68.7776613  17.8392708
 100.3753567  68.3694267  16.7306268 101.3429928  77.2132826  25.6792951
 101.0035038  78.0928516  25.8446264 101.8678093  77.0096779  26.4534664
  87.6893425  67.3716593   2.5094834  87.8103352  67.1227646   3.4258038
  88.5388088  67.2037601   2.1015111  88.4795666  83.4600353  27.9403138
  88.6307144  84.2706871  28.4263468  88.4770298  82.7761650  28.6100435
  57.8093338  65.0989866   3.1501561  57.9561901  65.5770922   3.9662939
  57.1410799  65.6080198   2.6912948  97.3065376  32.0666289  16.8925834
  96.6240978  31.6525912  16.3642967  97.9857635  32.3055601  16.2618756
 113.4728813  65.6441307  36.6826892 114.1399288  65.9146595  37.3136353
 113.2773018  64.7364521  36.9152832  26.0142326  14.4785166  20.8412910
  26.4820099  13.7388968  21.2290764  25.4562998  14.0841377  20.1709104
  93.3849525  69.6668768  13.1795573  92.5719738  70.0567770  12.8581941
  94.0619659  70.0096416  12.5961220  92.1724606  60.7301378  40.0784922
  93.1232452  60.8318710  40.1220608  91.8352413  61.6259575  40.0835419
  89.1890335 111.2751579  19.9952221  90.1253700 111.2901497  20.1934123
  88.7658882 111.1609936  20.8461905  89.1209412  84.4835854  32.2745132
  89.7249603  83.7811470  32.0337415  88.8307762  84.2575359  33.1582236
 110.6109142  84.8406601  44.1028690 111.2195015  84.4492912  43.4762192
 110.1016808  85.4640198  43.5848570  97.9002285  67.1416807   5.5414742
  97.0346260  67.5289583   5.6717861  97.8669643  66.7722607   4.6590602
 102.8263378 105.1099873  23.5656214 103.1222534 104.7815132  22.7166414
 103.2532692 105.9620476  23.6548018  18.4137976  93.3961105  11.4736187
  18.2334435  93.6052513  10.5571246  18.2215405  92.4613953  11.5482998
   4.9225053  97.1604919  20.0938010   5.3159040  96.2898922  20.0344372
   5.1056814  97.5644398  19.2455661 100.7863998  82.3944950  26.1101079
 100.1180935  82.9720688  25.7413268 101.5605640  82.9503250  26.1993527
  95.6599617  64.6805048  12.6730859  95.1452923  65.0002003  13.4141314
  96.2252712  65.4165506  12.4387896  85.2457142 101.8233776  43.3614159
  84.9251556 101.3045692  44.0991926  86.0215950 102.2691822  43.7012768
   1.1405743 101.1364746  32.6085949   0.8359389 101.6669178  33.3448434
   0.9145329 100.2384090  32.8506994 115.6770992  79.5874262   8.0905479
 115.0996780  79.5608711   7.3275882 115.4601479  78.7956762   8.5827851
   8.1828505  94.5281696   1.6908334   7.4928272  93.9272976   1.9719912
   8.0841887  95.2901363   2.2617127   9.1114122   5.5237442  11.3679230
   9.3792695   6.1953694  10.7407033   8.1789970   5.3931212  11.1953795
  99.6815681  89.1080856  38.9975095  99.1882706  89.8360538  39.3756104
  99.5536137  89.1969776  38.0530763 104.1648674  76.8951654  10.3968310
 104.1556740  76.9825840  11.3499856 105.0150013  77.2465992  10.1322687
 108.6508369  86.9410324  23.5806513 109.3479538  87.5453854  23.3256888
 108.1993294  87.3852539  24.2983174  75.2631903 108.9787292  45.4296684
  75.7338953 108.1517982  45.3254509  75.8448362 109.6353436  45.0465536
   5.4375070  97.7835083  17.4879682   5.2100259  96.9464779  17.0831573
   5.6214410  98.3644295  16.7497766 101.2449360  89.7286034  35.4888034
 101.7944908  88.9792538  35.7183456 101.8370914  90.4797935  35.5246234
  41.1730051  19.2980325  96.3169289  41.5972948  19.4128704  97.1672440
  41.1135674  20.1831651  95.9574318   1.2259464  78.5187197  45.5840826
   1.9936523  78.7098598  46.1228991   0.5568875  78.2417917  46.2101030
 109.8399353  72.2605848  41.0724974 109.8017597  72.3044348  40.1170635
 109.3290997  73.0144262  41.3674593   4.6859145 100.5661774   8.7350464
   3.9842662 100.3217506   8.1315750   4.6357512  99.9166584   9.4363534
  73.5257196  47.1930599  13.0257988  74.4556522  47.3338318  12.8479314
  73.4616709  46.2632704  13.2440150  87.8039646  93.0159760  38.8480401
  87.2248554  92.5227642  39.4290781  88.6693573  92.9376984  39.2495346
  98.3006287 102.0873928  35.1452923  99.0501308 102.4998951  34.7159529
  97.7041245 101.8698883  34.4289827  96.6724110  98.3852291  38.9682460
  96.6276550  97.4720669  38.6847496  97.1794224  98.8235950  38.2848716
 110.4621696  86.8626785  40.0754786 111.0489368  86.1069870  40.0460100
 110.2608490  87.0455265  39.1577268   1.1806859  72.9520750  33.6064696
   2.0994738  73.1948471  33.4919167   1.1338609  72.6053524  34.4974351
 107.6623631  72.6374769  32.8011298 107.8682327  72.2553921  33.6542773
 107.4170113  73.5418081  32.9966187  94.4055367  74.7062731   7.7467608
  94.9416542  74.4431448   8.4948081  93.9070034  73.9208651   7.5213033
 115.6423950  61.1548281  14.3364298 114.8449802  61.6013193  14.0518212
 115.7625484  61.4344406  15.2439606  91.9129562  70.0296736  20.6726646
  91.5430164  70.7771778  20.2029705  92.5385857  70.4171991  21.2847471
  66.9523573  19.4792151  93.5332680  67.6181984  19.6405578  92.8647900
  67.4346685  19.0899265  94.2626858  83.6557770  86.1491489   7.8199828
  83.3185577  87.0305920   7.6600522  83.9479828  86.1662006   8.7313330
 106.1685848  66.1790180  33.5640740 106.6712856  66.9867468  33.4587169
 106.2829590  65.9441185  34.4849277 102.0441914  96.8106365  48.8281202
 101.3464642  97.1881771  48.2925129 101.6236305  96.6135311  49.6650839
  21.4041829 104.1062260   6.9458681  21.0455990 104.9848747   7.0708996
  22.3521757 104.2234039   7.0075804 106.5340424  80.8026314  40.2468395
 107.0542336  80.6945610  39.4506311 105.7489681  80.2769852  40.0932074
  96.8850803 105.6370449  35.3070235  96.3784981 104.8398972  35.4624367
  97.2292137 105.5330086  34.4199038 114.9559593  95.2077866  28.0783582
 115.2273178  94.3385601  28.3733940 114.3723679  95.5235195  28.7682533
 107.0516968  97.5627708  15.9375596 107.9393959  97.8546715  16.1449778
 106.5444851  98.3713055  15.8651721  95.7003975  79.9320316  30.0354481
  96.5813732  79.5578957  30.0237799  95.8397865  80.8686638  30.1751614
 114.3351364  76.4170647  21.1951566 114.7489834  77.2734499  21.3026786
 114.0874386  76.1576319  22.0826101 111.7430496  91.0146618  31.8126607
 112.5388622  90.5383205  31.5759706 111.6988373  90.9481144  32.7665210
 102.4897099  83.6895752  12.0002317 103.2392979  83.1632519  11.7221153
 102.6365185  84.5461941  11.5991414  99.8531723 102.3230267  31.0193872
  99.2774105 103.0233097  30.7122564  99.6198845 101.5673447  30.4801750
 111.7096901  92.9321003  38.9590621 112.6243210  92.6898766  39.1040325
 111.2533855  92.6242638  39.7421622  75.4641438   3.0195516  82.8903198
  74.5740604   2.9358476  83.2323360  75.6186867   3.9634642  82.8532028
  59.9201775  77.6737452  19.2928648  60.4807949  77.2925901  19.9686325
  60.3970718  78.4483337  18.9948606  97.1770477  78.9880610  34.1882920
  96.4013767  79.1065836  33.6400938  97.7088165  79.7664642  34.0223622
  84.0805531 102.9758549  16.6163385  84.5568371 102.8886509  15.7906389
  84.5366573 102.3885918  17.2191048   9.0622407  86.7453861  32.9604149
   9.2630798  87.6116848  33.3145499   9.6404952  86.1511612  33.4387016
  88.3195686  89.5520306  36.2881899  88.5903168  89.2438030  37.1530151
  87.6455688  90.2075577  36.4677358 111.0830212 106.4871502  41.2735033
 110.5335903 107.0105839  41.8569183 111.8381691 107.0460796  41.0902405
  92.2803020  86.0401535  13.9610755  92.2356606  86.9590950  13.6969101
  92.4401951  86.0696030  14.9043667  95.1995850 102.5954151  22.4045777
  96.0416985 102.7911663  21.9937754  95.3215218 102.8301811  23.3244944
 116.2073803  92.7577019  19.1700065 116.5112114  93.6138344  19.4716072
 115.6338120  92.4467373  19.8704040  41.0220623   1.0103110  29.0306830
  40.2211142   1.5336649  29.0021420  40.7923889   0.1963131  28.5824752
  94.6852589  78.7613964  32.5952673  94.9953842  79.4380379  31.9934273
  94.9968052  77.9405832  32.2139072  95.2209187  76.3684225  31.1428523
  95.9453487  75.8790922  30.7529974  94.7386169  76.7193651  30.3942156
 106.3568306  55.4283285  15.0801206 106.9209576  55.0310373  15.7435584
 106.6929722  56.3192034  14.9822164   6.3389665  77.5867033  35.7692981
   6.0105401  78.1366158  36.4806104   5.5556911  77.1769905  35.4020882
  77.1059561  85.0729465  42.1653271  77.1934366  85.0964642  41.2124252
  77.5358343  84.2581654  42.4252796 106.3267803  88.3044434  36.4520621
 106.9566536  88.5225105  37.1390343 106.5047359  87.3866653  36.2465048
  72.7092600  84.0834808  18.4310329  71.8237495  83.7742138  18.6219919
  73.2807255  83.3835602  18.7469041  44.8735952   1.6295743  96.7106438
  44.6176243   0.7449923  96.4494514  44.3597174   1.8046618  97.4990082
  70.5019474  71.1659241  39.3860221  69.5609140  71.0701895  39.5327306
  70.8983231  70.9628725  40.2333021 107.0087433  85.6546783  36.1549067
 107.8297424  86.1467838  36.1491561 107.1870136  84.8850822  35.6143785
  57.5278759  28.2477212  92.5501442  58.1745052  28.4838176  91.8850517
  56.8127298  27.8458357  92.0569038 103.2914352  94.4388676   7.5999248
 103.6039829  95.0255775   6.9112271 102.9660130  93.6706543   7.1306771
 111.7596817  89.9929047  34.3208933 111.0165882  89.5089722  33.9605451
 111.5015125  90.1931190  35.2206135 111.3144588  69.3282223   6.9343972
 110.7394123  70.0025940   6.5727687 111.6009903  69.6837187   7.7756786
  28.7651563  68.4041262  23.9684439  28.3822203  67.8016901  24.6061444
  29.6505022  68.5665655  24.2940378 109.0684223  99.3925858  16.7383313
 109.5199871 100.2256203  16.8738854 109.1689110  98.9277363  17.5690186
 107.2067738  73.0907774  28.0315161 107.5256157  72.2187424  27.7988648
 106.5846539  73.3111715  27.3382449  60.7909441  27.7730918  96.7219067
  60.0733519  27.7186751  97.3530388  60.6083918  28.5671711  96.2195587
  66.2942505   8.1100523  92.6783276  66.2100077   8.5746640  93.5109615
  67.2340059   7.9537374  92.5852871   2.7086285  91.3524532  27.2829843
   3.3967498  91.1608028  27.9201579   2.2997928  90.5044937  27.1096492
  85.6971645  87.5859165  20.3919792  86.2800598  87.9870415  19.7473454
  85.9331322  88.0030537  21.2205625 113.7170124  45.5305052  19.2926478
 113.8780117  46.1374140  18.5701728 113.4761143  46.0929394  20.0287628
  76.5663958  65.1965237  29.8078823  76.0457325  65.3866768  29.0275073
  76.0619497  64.5313215  30.2761436 113.0809116  90.0261211  23.5847831
 113.1309032  90.0430298  24.5405269 113.8442612  89.5160007  23.3140087
  92.2329140  74.3948698  51.6523457  92.0106602  74.1690874  50.7490969
  92.1765995  73.5657167  52.1272850  88.5044956  82.2559643   5.9307528
  88.2936287  81.3347149   5.7789040  87.6860142  82.6404476   6.2445879
 101.8202209  73.2528067  12.4772131 101.6897106  72.8862143  13.3517468
 101.4632130  72.5913763  11.8845201 116.2445450  84.9664593  54.5302010
 115.4491520  84.6027374  54.1412401 116.5677643  85.5877590  53.8777065
 104.3626308  88.0804825  48.7732935 104.3473244  88.1537056  49.7275686
 103.8959694  87.2655201  48.5880995 107.1895218 106.1964321  21.4617825
 107.4258709 105.3654957  21.0495758 107.8847313 106.8000126  21.1998749
 107.3309422  82.5921535  31.4673352 106.4847755  82.4877548  31.0322094
 107.4970627  81.7422199  31.8750834 114.9442482 111.0540867  31.8977189
 114.9797058 111.8151665  32.4771500 115.7126427 110.5354977  32.1361995
  92.3083496  86.4156246  26.2298512  92.4025536  86.3521004  27.1802855
  93.1249428  86.8184090  25.9346151 112.7586555  69.1600513  56.5549898
 113.4263229  68.5791397  56.1903048 112.6523018  68.8647747  57.4592781
 116.8325615  88.2312965  15.5381477 117.5870037  88.1511879  14.9545121
 116.1181831  88.5163689  14.9683845  86.5159988  83.4070492  36.5845132
  86.9266605  84.1908360  36.9495773  86.0162640  83.7263393  35.8331490
 100.8887005  72.6066971  14.8559344 100.4239368  73.4204102  15.0511217
 100.2032566  71.9389629  14.8329401   4.8677316  71.3565111  41.5951777
   5.0217837  70.9394121  42.4428415   4.4513550  70.6763983  41.0657358
   8.2362717  76.5901327  31.6230273   8.6710882  75.7457733  31.5037537
   7.3775345  76.4769840  31.2155986   2.8921932  70.9161377  30.1113176
   2.7718776  70.1457500  29.5561028   2.1351045  70.9098768  30.6969857
  99.8741055  74.2104626  35.5994201 100.3647995  75.0313091  35.6401730
  99.3272209  74.2968512  34.8185945  80.1376343  13.8916051  86.3443184
  79.6740627  13.8916171  87.1817780  80.9952354  13.5169458  86.5452766
  84.5524216  95.8802223   5.9631181  83.6157990  95.9159374   6.1572653
  84.9574089  96.4284706   6.6351581  96.8102074  71.3240099  19.7275734
  97.5574112  71.3390160  20.3256440  96.1414909  70.8209705  20.1923299
 105.7426071  69.2294836   4.7420791 106.3603306  69.5471144   4.0834814
 104.9258995  69.6883583   4.5454669 103.9488220  79.4818926  35.2271819
 103.9432049  78.8986063  35.9861135 103.2359505  79.1622210  34.6741390
   6.4664233   0.9617136   5.3563136   6.4865935   1.0883456   4.4077414
   5.5518192   1.1076604   5.5980396  89.5922184  98.1938744  14.6756399
  88.6495304  98.3582878  14.6989107  89.8324394  98.3069515  13.7559986
  96.1024189  71.8116808  22.7079630  96.0143185  72.2842693  23.5356855
  96.2465382  72.4967575  22.0551777 104.2997169 101.1319828  19.0762413
 104.5006657 101.6553116  19.8521125 105.1107883 101.1360455  18.5679412
  66.7391396 108.2680035  31.7275310  67.0306492 107.4881840  32.1999073
  66.2546587 107.9258060  30.9762597 101.4194489  94.3584728  66.7066145
 102.2137451  93.8243294  66.7102623 101.4485168  94.8365784  67.5353527
   0.6099615  68.2175922  27.3154759  -0.0910936  68.8199568  27.0666575
   1.3266981  68.4232330  26.7152834 114.9287605  98.8061523   5.8797514
 115.6768990  99.2367458   5.4661089 115.3170300  98.2393742   6.5462673
 108.0947685  95.7951450  35.5029869 108.3299065  95.8858490  34.5795631
 108.9332581  95.7060719  35.9560227  91.0523319  99.8971558  12.1360183
  90.3233242 100.5120659  12.0544040  91.7895412 100.4363346  12.4224603
  98.0138111  66.5559483   8.0331004  97.3299026  67.2050810   8.1978011
  98.3700371  66.7951727   7.1774697 116.3466740  73.7086201  40.1084900
 115.4621696  73.5200024  40.4220152 116.9144726  73.4894800  40.8472824
 105.2562237  74.9044132  29.7246146 105.8364964  75.5777836  30.0797009
 105.8467770  74.2142487  29.4226956   1.0734458 103.9830208  43.6355495
   1.6317889 104.7598553  43.6674929   1.4790606 103.4236050  42.9731655
  99.8690128 104.4807148  29.0248585 100.2315807 104.6297836  28.1516147
 100.6307411 104.2838860  29.5700669  97.5012016  94.1541672  42.0312977
  97.7273846  94.7021389  41.2797594  97.7111149  94.6941566  42.7932549
 114.1117764 106.7084122  53.3338976 114.2887592 107.2079659  54.1309881
 113.7902069 105.8631229  53.6474371 104.3893623  88.7637234  51.4511919
 105.2824211  88.4192944  51.4567280 104.0022755  88.4387493  52.2640800
   4.6121252  71.4500141  33.8685369   5.4630870  71.1190462  34.1558647
   4.2264408  70.7246208  33.3773279  58.3573580   5.1500672  24.8181629
  57.4576187   5.2622163  24.5113635  58.2901573   5.1776856  25.7726002
 103.4348583  77.4036551  85.8255005 102.8992844  76.9475079  85.1764011
 103.1188107  77.0780325  86.6683006  85.0976849   7.6597345   9.5550102
  84.9361515   7.5780201  10.4949355  84.6840668   8.4880489   9.3120205
  36.0279202  25.7844281  34.6889496  36.3143206  26.6771603  34.4959807
  35.2797985  25.8944845  35.2758336  13.0496645  90.3155041  20.4723811
  13.6631584  90.2757454  21.2060547  12.6114023  91.1606121  20.5721712
  35.0258613  79.0584469   9.6412349  34.8206353  79.8811674  10.0853610
  35.8539319  79.2286968   9.1922963  52.3683929   3.0671683  15.0084221
  51.9600630   3.3349389  15.8317077  52.8500032   2.2696835  15.2281952
  67.7583361   9.2149311  47.9862976  67.6209879   9.8074239  47.2471619
  68.2286882   8.4700358  47.6119566  68.7491894  48.2503319   7.5828916
  68.3372736  48.3138180   8.4445918  68.1439924  48.7014675   6.9942963
  67.9311991  33.8812280  19.4975567  67.6709366  34.4502234  18.7731671
  68.3791256  33.1474137  19.0767145  69.0261984  14.9634767   7.7282494
  69.5241880  15.2467120   6.9614273  68.8614273  15.7693076   8.2178605
  71.3937330  15.5660105  15.3821087  71.8241787  15.0138915  16.0348809
  71.3593340  15.0231886  14.5944583  57.3413515 102.7797985   8.8736200
  57.1587563 102.1501446   8.1761777  57.4491549 103.6155415   8.4195954
  58.8329649  32.2105956  17.9903686  58.0811596  31.8940282  17.4895597
  59.1467571  32.9689360  17.4977362  69.5915413  19.0639830  22.6127410
  70.5209398  19.1020525  22.3869085  69.5350027  18.3799505  23.2799244
 108.2565594  88.8387489  89.1377640 107.8433609  89.6401310  88.8163853
 108.8742161  89.1386127  89.8047161 107.8589113  90.5941781  97.3683777
 107.2509439  89.9835142  96.9516045 107.3837621  91.4247068  97.3946701
 109.3065453  58.5519743  81.1370468 110.2115726  58.3885384  81.4024639
 109.3656635  59.2828035  80.5217171  67.6801825  18.4905672  36.4335537
  67.5097370  19.1001213  35.7154846  67.8000832  17.6431119  36.0049796
  32.4976730  92.5198555  16.9573784  32.7262378  93.3716679  17.3294008
  32.6523781  92.6194572  16.0180283 106.8773270 101.2984562  17.6596153
 107.0693874 102.0708466  17.1278572 107.3699665 100.5918121  17.2422671
  79.3643379  32.0998645   7.2584069  78.9719057  32.6043034   7.9709858
  80.0468636  31.5788293   7.6813954 101.4244556  65.1691437  92.5933743
 101.8828964  65.5405235  91.8396187 100.6253433  65.6906796  92.6684666
  28.9900160 109.4202805  18.3273673  29.5286584 110.0084019  18.8567090
  28.5910273 108.8248539  18.9618075  46.4327145 100.8570671   7.0549536
  45.7427597 101.2784100   6.5424466  46.3359308 101.2235737   7.9338944
  69.1726160  20.6689048   7.2411978  68.4046745  21.2101626   7.0580626
  69.1715670  20.5658317   8.1928319  73.2776308  31.8460584  14.2492700
  73.9207268  32.1528077  14.8884606  72.5077343  32.3938465  14.4023073
  99.8227215  83.8758755  87.0461369  99.2606163  84.2653084  86.3763523
  99.5532036  82.9580593  87.0809746  52.4635601  42.0978832  22.6201010
  53.2654428  42.5895166  22.7976274  52.6204252  41.6817808  21.7724657
  58.3057451 101.7077351  17.6781130  57.9670477 101.4241123  18.5272753
  58.9597130 101.0475540  17.4484777  89.7526264  64.4452381  88.1512356
  89.3651295  63.9865685  87.4057865  89.5130730  65.3624868  88.0189228
  58.1430101   6.9131702   2.1361411  57.6731586   6.8325561   2.9661828
  58.2623243   6.0108387   1.8398398 117.5682259  78.5355854  95.4351139
 117.1465588  77.7582932  95.8015060 118.4525585  78.5233688  95.8012199
  88.7665653  33.5174084  17.8305709  88.0544376  34.1518927  17.9113758
  89.5451069  33.9929819  18.1203032 115.0578308  81.9837379  83.6136627
 114.9937534  82.2479630  84.5314407 115.1723003  81.0339355  83.6452961
  69.1386938  11.4746475  32.6995683  68.6682510  10.7856369  32.2303343
  68.5671234  12.2399473  32.6374459  52.1359396  31.0215974  23.9451766
  52.5000429  30.2523422  23.5071063  52.1172571  31.6969371  23.2670927
  75.8506870  11.0720372  30.3631258  76.3496017  11.4171731  29.6227217
  76.4554691  10.4731977  30.8011484 109.1700840  88.5613155  94.2010593
 109.9274635  88.1730461  93.7630367 108.4247112  88.0463123  93.8921547
  31.1196899  54.8869896  86.6938114  31.9083858  55.3158617  86.3617611
  31.4453888  54.2288685  87.3078442  95.0495911   2.7513418   3.8653454
  95.8728695   2.8386238   3.3849120  94.4468403   3.3449265   3.4174854
 111.0831070  68.5148811  88.8527870 110.9324360  68.1184340  89.7109032
 111.7758942  67.9827929  88.4614372  60.3590870  32.1196437  26.6032410
  60.0976038  32.9472494  27.0068884  59.5621204  31.7954159  26.1837697
  21.3135815  76.9387245  92.9972172  21.3294792  76.2058973  93.6128044
  21.6776562  76.5797329  92.1880245  81.3213253  27.8795171   6.4958632
  81.9401932  27.4267054   5.9229791  81.2307739  28.7506557   6.1096686
  77.1805716  14.3981779   5.2452445  77.8370857  15.0867569   5.1400036
  76.4550304  14.6711624   4.6837223  11.7318285  92.5662041  10.3342938
  11.5424144  93.3488750   9.8168153  11.1016965  92.5967503  11.0541773
  86.1451530   4.3374690  16.5995610  85.6624985   4.0149906  17.3606670
  86.8764019   4.8308730  16.9711185  69.6205473  29.1548443  12.6686049
  69.7535801  28.4824514  12.0004559  69.6343279  29.9801493  12.1839285
  61.6809225  23.5452104   3.9919803  61.8181753  22.6112461   4.1504163
  60.7320261  23.6365509   3.9054382   6.5934676  85.5932713  87.3697186
   7.5491470  85.5885983  87.4234486   6.3960260  86.2142849  86.6685867
  50.2572107 107.9604626   7.7582794  50.2072668 108.6519527   8.4182632
  49.3539906 107.6600838   7.6572716  81.1883450  17.5591588  20.8496499
  81.0721016  16.8004084  21.4215040  81.1537933  18.3116865  21.4401937
  67.3203230   1.7577273  17.3199522  68.2216930   1.7795464  17.6413357
  67.1951962   0.8578525  17.0186210  55.4734850   8.7949169  15.8704329
  56.2603331   8.8527519  15.3284419  54.7590542   8.6795193  15.2439272
  83.0333042  37.9895282   0.9914414  82.4196053  37.5224805   1.5584312
  83.8462448  37.4880695   1.0539296  97.8074265   9.3703395  30.9987807
  97.9397011   8.6932081  30.3352833  98.3872795  10.0836444  30.7319474
  63.4202051  24.9596214  20.1857185  62.9229355  24.1790605  19.9414372
  64.0707064  25.0565767  19.4902456  87.1826267  10.2080774  13.1718326
  87.1923351   9.5976216  12.4346209  87.9071331  10.8082354  12.9953873
 107.4254894  72.0926952  91.0130119 108.2449055  71.6144371  90.8862972
 107.2159481  72.4424982  90.1470089  82.3060513  24.7602034  11.3977718
  82.7532578  24.1513777  10.8099222  82.9451656  24.9406052  12.0871353
  66.1487150  24.5954108   4.2973021  66.6802645  25.0139332   4.9744493
  65.2564764  24.8928285   4.4753027  88.1537533  14.6006393  16.9626570
  88.5060596  13.8384688  16.5030813  88.7425041  14.7246861  17.7071154
 108.4938049  91.6462517  82.7344704 108.1416035  91.3742447  81.8870068
 107.7923393  91.4563847  83.3574677  92.8877068  67.8456831  80.4748917
  91.9829082  67.5546122  80.3615856  92.8614902  68.7852621  80.2939606
  63.9097977  14.4939709   3.4881112  63.9910650  13.8326240   2.8009075
  64.5437574  14.2269170   4.1537017  61.7158365  28.7731361   0.7685356
  61.2724447  29.5943499   0.9812482  61.3102913  28.1256390   1.3451758
  49.7662640  53.5077381  16.5806377  48.8798046  53.1622076  16.6856754
  49.9070597  54.0466595  17.3590791  61.9533730  33.8146138  19.7401416
  61.5806770  33.3663154  20.4993224  61.2140465  34.2817974  19.3510807
  47.1143293  23.4592414  28.7493300  47.4316740  22.6972961  29.2340612
  46.4365005  23.8351417  29.3110085 103.3796024  82.2842121  95.3740597
 103.2064438  83.1887627  95.1132107 104.1472816  82.0300388  94.8619175
  72.1490431  21.7561603   8.6214435  71.9317389  20.8730650   8.3228582
  72.3710346  21.6484427   9.5462930  40.1060915  32.5974607  20.7669687
  39.3613005  32.1083045  21.1166120  40.8668566  32.2285700  21.2157273
  69.7828627  25.5630231  13.6114001  69.3558931  25.1435614  12.8644204
  70.7153749  25.3895879  13.4826887  53.4228134   1.3502683  50.5306196
  54.3547058   1.4017968  50.3181314  53.2230663   2.1931338  50.9379387
  53.5483217  29.0434837  22.5481558  53.4756994  28.9578366  21.5975666
  53.4208727  28.1544304  22.8791714 100.8372593  21.0703135  16.6677189
 100.1757908  20.6246042  17.1968997 101.0666180  20.4369187  15.9876919
  81.7548084  24.0783763  16.1928666  81.1238861  23.8379622  15.5143619
  81.8901920  25.0181961  16.0718656  11.7363989  87.8591061  82.3585224
  11.9595683  88.0094624  81.4399242  11.0723734  88.5199547  82.5549507
  68.1260538   5.4896235  15.5559146  67.4285269   4.8498333  15.4132366
  68.6778498   5.0956821  16.2316084  91.6769409   3.8966197   2.1623954
  91.6991711   4.6219239   1.5381584  92.0605564   4.2569032   2.9619357
 110.1959896  43.1864023   2.8130162 110.0270462  43.2080030   3.7549406
 110.0910091  42.2660351   2.5718999  27.3822570  98.2129002  16.1818552
  27.0540333  98.9755535  15.7055557  27.1006894  98.3554840  17.0855272
  37.8184915  11.9008839   7.1549547  37.2985506  12.5363719   7.6469374
  37.8389597  12.2474527   6.2629324   0.7248168  77.8817749  96.6223526
   1.4448985  78.1853056  96.0695553   1.1552121  77.4746990  97.3742104
  46.8618870  18.0509293  23.6892986  47.5238705  17.3653746  23.5997105
  47.1232796  18.5354185  24.4723535  38.2664895  15.6727266   4.3238401
  38.1052899  15.4662073   3.4031904  38.8702869  16.4151025   4.3006110
  53.0617428  35.6471682  33.6129928  53.5981894  35.4818177  34.3883085
  52.1669626  35.4592085  33.8963151  10.2485442  94.9562168  90.6178188
  11.0013378  94.4212055  90.8694172  10.1039958  94.7473431  89.6949387
  61.5961313  38.0084753   1.4072300  62.0847321  38.8223696   1.2844598
  61.1096811  38.1415415   2.2207978  43.1010246  23.9544821  24.9249172
  43.1722212  24.5077181  25.7027936  43.3476830  24.5282531  24.1995382
  81.9019699  27.1378756   2.4585073  81.2618256  27.5943613   1.9125488
  82.6287746  27.7550983   2.5423083  82.4464893   9.7355145  13.8557494
  82.9792786   9.8691887  13.0718470  82.1052742   8.8458538  13.7645948
  89.7575951  15.9699500   8.7685066  89.9704742  16.3014519   7.8961420
  90.3723621  16.4161694   9.3508953  62.4872875   9.0843982  40.9437323
  62.3631954   8.3788288  41.5785599  63.3228159   8.8831699  40.5222654
  65.3615046  10.8820426   4.0676239  65.2776766  10.5349159   4.9557158
  66.1066103  11.4811301   4.1139701  26.0237241 110.8027935  34.3611598
  26.4739060 110.6775379  35.1965523  25.1530504 110.4301357  34.5000482
  77.7273226  34.7811794   5.1967901  78.2157278  35.2237368   5.8909339
  77.2020674  35.4731560   4.7949100  38.0550694  91.0977077  22.9217625
  38.4546089  90.5769539  23.6184764  37.6473141  91.8343353  23.3771205
  70.1651001   4.9893373   6.8501085  70.0287437   5.4782903   7.6616287
  69.7185659   5.5073929   6.1804372  77.1464968  64.8699331  93.4328079
  76.5656471  65.3296328  94.0390491  77.7839518  64.4324350  93.9971542
 118.9521694  32.6910233  92.3330116 118.0902386  33.1060338  92.3658085
 118.7696457  31.7765951  92.1168232   0.6089765  81.7643166  86.0300446
   1.1466930  82.5552273  85.9906769   1.2140749  81.0769272  86.3085842
  51.5447569  24.6302485  22.7543306  50.9986305  25.1317096  23.3597350
  51.2397432  23.7277937  22.8480053  97.4194908  13.9808559  24.9165177
  97.9388428  13.5948908  24.2111540  97.2220612  14.8664486  24.6115947
   5.0117511  82.8276348  91.4804745   5.5953628  82.6430607  92.2163868
   5.2019709  82.1375465  90.8450031  51.0491180  17.0356679  19.4492030
  50.5486298  17.8134203  19.2025423  50.7996607  16.3753307  18.8027084
  85.8256626  18.5083020  29.8496723  85.6400490  19.2528725  29.2774868
  85.0146103  18.3752549  30.3403091  75.6634140  34.9069118   7.4498391
  75.3572702  34.1049027   7.8732646  75.2203321  34.9139619   6.6013932
  68.4669065  46.3683319  18.1540024  68.5770988  46.7600870  17.2876215
  67.6025438  45.9582472  18.1232548  82.8223515   7.7166253   4.8781317
  81.9267368   7.6816916   4.5421541  83.3697414   7.4973816   4.1241223
  88.0637264  18.6016119  14.9271655  88.5380173  18.5880566  15.7584870
  87.3120880  19.1716301  15.0895083  50.0540209  29.9343657  17.5747526
  50.5159044  29.3276334  18.1533468  50.1229668  29.5369196  16.7067003
   1.4098357  86.9615650  88.8338661   2.0533675  87.0081425  88.1268024
   1.6127339  86.1442661  89.2889404  84.3885803  24.1757631  51.8773603
  84.2383385  23.9770651  52.8015804  84.2874908  25.1256990  51.8170929
 108.2716274  67.8351259  26.6841269 108.1436729  68.5353041  27.3241305
 109.1696930  67.5380087  26.8305159  77.7019739  43.0102205  11.8021405
  78.1295300  43.2544994  12.6229668  78.1959724  43.4754753  11.1270595
  74.8007679  31.4263678   0.1377843  75.5517435  31.3657570   0.7282078
  74.0742636  31.0505605   0.6349654  25.2192140  88.2076645  85.2031326
  26.1540556  88.0354595  85.0906754  24.9402022  88.5727119  84.3634129
  19.2579508  82.9750729  84.0762329  19.2625117  83.3648109  83.2019901
  18.7515450  82.1689510  83.9764595  74.5777130  21.1577272   6.2611502
  75.2450609  21.4170456   5.6258285  75.0749302  20.8683085   7.0261598
  59.1144800  23.8031244   3.5320565  58.5837507  24.4629955   3.0858177
  58.4819174  23.2796454   4.0240598  55.1231480  20.8533263  11.8873334
  55.3794003  20.2083588  12.5465631  54.9263430  20.3338456  11.1078215
  89.4210720  50.8724356   9.3573195  89.3612099  51.7027569   8.8848650
  89.9053860  51.0851717  10.1550806  88.5992336  24.2802382  23.0988050
  87.9176807  24.2829847  23.7708950  88.2257843  23.7687564  22.3810649
  98.9106274  10.8500910  20.2009630  98.5704327  10.3593767  19.4528294
  99.7179604  11.2501669  19.8778808  12.3428869  99.5246506  91.8399811
  11.7358732  98.8810253  92.2053719  11.8353355  99.9770164  91.1661911
 110.5713654  61.9668770  89.2269993 110.5210209  61.2282753  88.6202335
 110.6597900  61.5623045  90.0899792  96.2116814  54.5554972  14.7076046
  96.9393826  54.1897869  15.2105415  96.1236191  55.4520559  15.0311124
   0.2146048  80.3401279  83.7853336   0.2995639  80.8882236  84.5654678
   0.6539994  79.5222473  84.0182304   4.1446564  33.9929843   7.8829908
   3.7681484  33.1129837   7.8744584   3.7001470  34.4506097   7.1693933
  66.6918707  54.1810369  16.6509354  66.5331078  54.6714067  17.4575126
  65.9129095  53.6348438  16.5454364 117.7055836  95.8764267  76.3666153
 118.3412170  95.2911758  76.7785454 117.2026539  95.3100204  75.7813931
  76.3045502   6.7031342   6.3750315  75.3945160   6.9196051   6.1720246
  76.4849854   5.9179175   5.8582056  10.1568449  71.1876345  88.8283539
  10.9299862  70.7431078  89.1760349   9.4171131  70.7211542  89.2174816
  85.0902176  13.4675801  30.2729392  85.6101418  12.6672506  30.3463387
  85.7270432  14.1762102  30.3652978   7.6351172  82.0686054  89.6802711
   7.4113935  81.1382389  89.6559715   6.8854523  82.5058365  89.2764664
  91.0728645  13.4296024  10.8269429  91.1404514  12.6023698  10.3501296
  91.7807102  13.9683294  10.4734445  35.2334666 103.7231064  79.2822170
  34.9858356 102.8310871  79.0388775  36.1780047 103.7590885  79.1312647
  10.7414222  90.4697514  90.4414654  10.7465434  89.7534370  91.0763645
   9.8359573  90.5105782  90.1337337  85.9783268  47.1387386  10.8265400
  86.6658592  46.7358112  11.3568056  86.3371658  47.9899502  10.5757284
 101.0513687   8.5584611  22.7139688 101.4853382   8.9479637  21.9548941
 101.3075733   9.1160715  23.4485888 102.6293659  88.3849621  91.0139656
 101.7771053  88.5344601  90.6046391 102.6051426  88.9077568  91.8154240
  97.0486832  35.3763223  21.7767715  96.9341087  35.0291085  22.6613879
  97.1160698  34.5995855  21.2214613  92.4167538  45.1717567   7.9302573
  91.4814949  45.3090954   7.7797300  92.4715996  44.2966127   8.3141178
  12.5100863  87.4347878  90.7151890  11.5789366  87.2250175  90.6431580
  12.8308558  87.4134159  89.8135948  88.1317520  16.0767257  30.1040292
  88.9812851  16.0637450  30.5448771  87.5265312  16.4217925  30.7604384
   1.8012206  76.9926834  87.3148537   1.5912004  76.0598135  87.3582077
   2.6975030  77.0210981  86.9800377  84.9063778  54.8893213  15.0568438
  85.2995586  54.4616127  14.2961133  85.2125740  54.3764591  15.8048105
 103.7813759  21.9254708  16.8966532 103.9253712  21.0857749  16.4602983
 102.8554249  22.1170568  16.7478144  63.2167006  54.2463684  24.4411516
  62.3632193  54.5639849  24.1463256  63.5737705  53.7815762  23.6843801
  70.2771282  22.9608846  14.8013151  69.9948549  22.7323127  15.6869268
  70.0615788  23.8893437  14.7133696  22.1080780  94.0371037  58.6086416
  21.9904900  93.3792877  59.2939758  22.3173976  93.5305977  57.8238678
  44.2460728 109.0604019   7.1877259  44.0707159 109.9992371   7.2514439
  43.4425116 108.6909580   6.8216264  60.0649452  40.5515862  13.0744600
  59.1967869  40.5860138  12.6727700  60.3752756  41.4568090  13.0520809
   3.0103713  98.2443810  95.6477928   2.9633909  98.2493782  94.6917629
   2.5904354  97.4232388  95.9039402  40.2426720 112.2829723  51.2565279
  40.8247280 112.9593658  51.6028404  40.3328180 111.5528870  51.8689728
  24.5190883  80.8964348  95.7429790  23.7287021  80.3877354  95.5620193
  24.3049216  81.4006519  96.5279198 101.8950939  27.3361945   3.9546251
 102.3183537  27.2106099   4.8039258 101.6156101  26.4585304   3.6941898
  33.0652165  82.5601101  92.3567390  32.5243497  83.0782509  92.9527473
  33.6435986  83.1995583  91.9410419  91.3982201  20.8852148  35.4980254
  92.1371651  21.1928582  34.9730992  91.4315414  21.4168930  36.2932849
  64.9207735  21.5171456  27.8178787  64.5676374  20.7152414  28.2032061
  65.8595562  21.4773512  28.0004406  86.3025570  24.1978407   5.9426898
  86.1728096  24.6389270   6.7822379  86.0022640  23.3016539   6.0940480
  86.2687874   3.3504200   8.8834637  85.5054092   3.9276072   8.8647783
  86.0992718   2.7526009   9.6115506  71.5623140  15.6784093  10.0946128
  71.5692616  16.2618721   9.3358272  71.2651253  14.8373914   9.7473383
   5.0611383  79.0348053  77.9231882   5.0455862  79.9906492  77.8747272
   4.4518730  78.8208675  78.6297703  86.0130787  47.3698759  18.2073402
  86.2950420  47.6067400  19.0908706  85.0752640  47.1984673  18.2930970
   3.4814274  23.2101846  17.8347397   3.4494820  23.5629559  18.7239885
   3.1644168  22.3112440  17.9221547  89.1563988  20.0395012  12.9047048
  88.7381268  19.5470917  13.6109757  90.0812054  20.0708199  13.1496191
 107.0830917  33.8583016  27.5299048 106.5012455  33.1506968  27.2524357
 107.8541565  33.7678313  26.9699883 113.6797523  95.7032490  82.8675938
 113.0407619  95.0124931  82.6921463 113.5993481  95.8710480  83.8065338
  31.3001895  84.6495152  75.0520897  31.1605120  84.4077587  75.9676647
  30.9490824  83.9118195  74.5533371   3.4048000 101.0931396  90.5539703
   4.1027391 100.8588219  91.1656952   2.6415652 101.2497902  91.1099911
  97.2677517  36.4370203   0.2216976  96.4776421  36.7351127   0.6723568
  97.5032139  35.6219554   0.6649347  76.3136292  12.2769403   7.0977616
  76.1594439  11.7580569   6.3083208  76.6192722  13.1235301   6.7720282
  98.6495972  91.4139080  95.5878067  99.0088940  92.2189236  95.9607601
  98.0034351  91.1200333  96.2299442  85.4326344  37.6083446  14.8232579
  85.8220863  38.4806800  14.7633255  85.7075024  37.1675801  14.0192652
  89.2386532  38.9152431  41.8820858  89.2537785  39.7858834  41.4846087
  89.1001415  38.3185387  41.1465645  96.8711853  15.2907598  16.7275608
  96.2787628  15.9067392  17.1586478  97.2749329  15.7991385  16.0241568
 112.1433449 101.6434860  90.5152130 111.7922974 101.2225628  91.2999535
 111.8888664 102.5621510  90.6019878  88.1775570  24.3415236  17.2649908
  87.6396275  25.1329851  17.2439051  87.5535297  23.6246824  17.1511853
 101.3195992  28.3536124  21.0867214 101.3817024  29.1190600  20.5153513
 102.1795464  28.2950616  21.5030074  23.7840247  68.5720587  95.8807468
  23.4110785  67.6905918  95.8936024  24.6524858  68.4703827  96.2701988
  86.8316364  18.0641305   7.3977196  86.7417812  17.7878726   6.4856672
  87.0915318  18.9838576   7.3449016  88.3704758  11.0619533   1.9503455
  87.7539253  11.2939501   1.2558922  89.2331696  11.2249756   1.5690112
   6.7305738  62.6497698  91.7931366   7.4714434  62.8097820  91.2085533
   6.1260307  63.3705616  91.6164494  86.4737034  22.2587419  17.4558377
  86.2076092  22.4985671  16.5681958  86.2519646  21.3305235  17.5298059
  72.0337391   8.6724740   8.6684477  72.8782129   8.6197346   9.1160160
  71.8714237   9.6109766   8.5730577  98.9459133  42.9327011   0.6640109
  99.7744942  43.0379152   1.1315703  98.7863922  41.9888973   0.6687460
  97.2780418  10.4869771  10.1933134  96.6195869  11.1257005  10.4666340
  96.7748547   9.7021252   9.9764174  63.3004141  39.1841674  15.8799589
  63.9905310  38.6604214  16.2869740  63.0206871  39.7879982  16.5679801
   7.2366494 109.3094730  96.4404106   7.4657792 109.2289829  97.3662949
   6.6703808 110.0801373  96.3999271  51.7071247  16.4271843  22.2356963
  51.9542694  17.2696948  22.6169109  51.8161917  16.5497744  21.2926650
  30.8614718  90.6119212  97.3998276  31.2703882  89.9024376  96.9041967
  30.6271445  91.2624248  96.7378836  93.9549732  19.2317140  19.7799253
  94.4329071  18.4695792  19.4528782  94.3697357  19.4326150  20.6188774
  88.3066368  25.3973913  35.4550838  88.8606834  25.3788662  34.6747470
  87.8824234  24.5394254  35.4680538 112.9118156  76.1269045  94.6940422
 113.1377602  76.4732695  93.8307858 113.1868362  75.2105618  94.6639442
  23.3952570  82.2349167  87.3800755  23.8848686  81.4165115  87.2980785
  22.7721453  82.2150517  86.6537380   0.1702698  85.8608818  94.9324417
   0.0143652  86.7463589  95.2608585   0.6179736  85.9908581  94.0964413
  73.7159348  24.6429491   0.5770589  73.7683821  25.2811098   1.2885579
  74.2816162  25.0003409  -0.1074168  80.0472641  22.9818511  12.6505816
  79.5433521  23.0169916  11.8375206  80.9606266  22.9561400  12.3653698
 101.4423370  22.4338675  22.3169494 100.6277466  22.8988504  22.1259785
 101.5854931  22.5759053  23.2526660  53.7361050  26.9031644  14.0182781
  54.0078688  26.0432792  13.6973786  53.4984255  26.7531919  14.9332905
  74.1082478  38.5845995   2.1504557  74.4275951  38.8226032   1.2800521
  74.0252638  39.4192576   2.6116374  95.3621864  26.2918210  20.0899911
  95.5107117  26.5645623  20.9954119  96.0956478  25.7095790  19.8918533
  85.6241035  15.3181076   7.9193741  86.2031746  16.0772061   7.9877692
  84.7901917  15.6793165   7.6188016  84.5481491  24.7798586  20.0481987
  84.3531227  24.2501903  19.2751217  83.8133717  24.6191502  20.6402278
  88.5221100  33.3925700   6.8273604  88.4713840  34.2102790   7.3223490
  87.7988243  33.4455156   6.2026227   4.9993688  70.5613852  88.9798737
   4.5220414  69.9992514  88.3696270   5.8609968  70.6735182  88.5783100
  86.8862247  34.8170137  23.3351898  87.0840549  34.3497300  22.5235629
  86.0801983  34.4114518  23.6546898  92.6586628  19.2892098  16.6598558
  92.6243305  19.7425759  17.5021815  93.5213661  19.5058441  16.3062406
  56.4574862  41.5304327   4.9364045  55.7814026  42.0877552   5.3218096
  56.1167669  41.3042259   4.0709710  68.8367462  31.3540673   0.4190005
  68.5272598  30.6573749   0.9978545  68.2252884  31.3429403  -0.3173631
  59.5517111  13.7220979  10.7136238  60.3801870  13.4746134  10.3030002
  59.0943050  12.8922641  10.8492291 103.5845470  21.1549711   4.2105490
 104.2746544  20.7883334   4.7633138 103.0269051  21.6435051   4.8160300
  99.6621704  50.9257841  10.7323086  99.8778439  50.6225204  11.6142082
  99.0375710  51.6379356  10.8699846  77.2407055  41.2456465  13.7582517
  77.2989607  41.5443993  12.8507376  77.6766682  40.3934908  13.7583315
  90.6327820  30.2034068  11.5241385  90.7748318  29.2872691  11.7623496
  89.6848297  30.2781367  11.4144063  82.1508408  41.0716581   6.0965151
  83.0604935  41.3665581   6.1388171  81.9764709  40.7075930   6.9644350
  72.0813417  50.2510309   5.0500953  71.6791153  50.1920128   5.9166777
  71.3641405  50.0762463   4.4407463  35.9242415 110.1532650  25.3636551
  35.1259375 109.6961784  25.0990462  36.3419080 110.4026127  24.5392704
  62.6145601   8.0406958   5.9829497  62.4453688   8.5672820   5.2017248
  61.7469597   7.8712010   6.3500631  45.1389074 108.6611080  22.5115132
  45.9095764 108.1537533  22.7662730  44.7421980 108.1545258  21.8028331
  92.1817684  17.2741818  14.5464098  92.4452591  16.7407703  15.2962613
  92.2465897  18.1763506  14.8596537 104.6994877  40.5457926   4.3980500
 103.9842033  39.9126196   4.3372998 105.4018879  40.0716829   4.8431170
 113.6851311  77.6284981  68.6279011 114.4461536  78.1482887  68.8865423
 113.5738945  77.8142452  67.6955128  85.3023052  32.4818754   6.1736703
  85.1213264  31.8501425   6.8696535  84.6077442  33.1352663   6.2567329
  44.7357273  19.1688347  14.0377402  44.1055489  19.5244884  13.4111500
  44.6308184  18.2197833  13.9704549  92.9500961  26.5774918   8.7832326
  93.4433079  27.3910856   8.6781698  92.0484924  26.8141747   8.5656625
  69.2575788  18.0657554   6.2622005  68.5742331  17.9755938   5.5980188
  69.1130352  18.9340556   6.6382247  47.7963829 105.2512360   9.6540999
  47.0042086 105.1102638  10.1725757  48.2178879 104.3924236   9.6224236
  88.5081100  44.7921658  22.4358296  88.2965851  44.4327593  21.5742517
  88.0229282  44.2418289  23.0506134   3.6323395  35.0201917  24.9733448
   2.9719391  34.3288779  25.0201201   4.4683433  34.5563865  25.0203967
 102.6088810  49.4572926  30.7208276 102.9502773  50.0743341  31.3680840
 101.7557621  49.8152781  30.4753208 103.3767319  35.5391645   6.9987160
 102.7665138  34.8017573   7.0090175 104.1628170  35.2056098   7.4311936
  87.3375607  15.2629900   3.7732014  87.1610832  14.7519922   4.5631176
  87.7868938  16.0464752   4.0901920  84.5510292  53.4423304  10.5963576
  83.8490772  52.7923059  10.6273198  84.3379498  53.9891052   9.8401397
  65.0772190  34.9930549  15.3422642  64.9802303  35.4399300  14.5013559
  64.3659306  34.3526649  15.3566206  68.9368153  17.3733521   1.6820805
  68.0240822  17.6353443   1.8025471  69.0089273  17.1792269   0.7475504
  80.4348373  37.7854204  11.5855038  79.7574949  37.2579718  11.1621463
  81.2153530  37.2315860  11.5682662  39.8485065  17.7100408  77.9242182
  39.0842056  17.7057338  78.5004616  39.5018315  17.9624295  77.0684433
  94.9249458  26.4997792  26.3838792  94.1490459  26.6567469  26.9219947
  94.5927429  26.4732528  25.4865694  95.5102921  25.5406427   9.5538127
  96.1801815  26.1917210   9.3450797  94.6876240  25.9480619   9.2827630
 107.1371651  52.6454496   5.2098024 106.6518879  52.2142601   5.9132326
 106.7023087  52.3572779   4.4072485  81.5871620  21.0604835  14.3316972
  82.3440933  21.2735939  13.7859154  80.8308887  21.3056946  13.7986445
  69.2525196  37.9138184  21.0834599  69.9843264  37.5110149  20.6160855
  69.2047882  38.8031793  20.7327628 110.4296017  89.4369698  96.3389778
 110.0005341  88.7491512  96.8479347 110.1180458  89.3023682  95.4439640
  98.0246735  45.8404684  23.7136674  98.7093353  45.2767754  24.0738273
  97.9838848  45.6053638  22.7866864   1.2018801  31.4237237  12.1979284
   1.0946627  32.3741627  12.1604812   0.8376049  31.1088204  11.3706601
  76.2492085  42.5717449  15.9355509  75.3325987  42.4278879  16.1708426
  76.3457823  42.1519804  15.0807405  45.4847717 105.0793266  11.2166405
  45.5248785 105.2500248  12.1576428  45.2815628 105.9298706  10.8273828
   3.8246921  86.7094231  87.2562313   4.6143776  86.5289211  87.7661800
   3.8513583  86.0743237  86.5405655  16.7643607  86.7282867  86.9670582
  17.1965849  86.0511684  86.4465427  16.4647436  86.2714195  87.7530289
  78.2791996  19.3665612   7.2187263  78.9360380  20.0389719   7.3994488
  77.4483681  19.7693658   7.4711132  88.0754852  26.5432382  11.1530221
  87.7093315  26.7458773  10.2921510  88.6148453  25.7660627  11.0069895
 102.1565533 109.5693684  89.6583939 102.6496220 108.9499664  90.1964092
 102.7536678 110.3071404  89.5344067  67.2091436  14.3581820  27.9474235
  66.9022799  14.0807307  27.0842409  68.1601238  14.4173336  27.8559351
  80.2258015 107.6512146  87.5143909  79.9539232 107.1016884  88.2494640
  79.4780493 107.6391697  86.9169331 101.8229389  82.2499084  90.2470016
 101.2007904  82.9647827  90.3815842 102.6799393  82.6447487  90.4078865
  97.0654678  12.3131180  15.4467070  97.8938389  12.5161421  15.8812332
  97.3213577  11.9838238  14.5851278  85.9427738  53.1650543  39.6629643
  85.0298023  53.2582188  39.3908858  86.4459705  53.5666704  38.9546323
  87.8582382   2.2254054   6.3994730  87.3097706   2.5187325   7.1270555
  88.2060719   1.3812323   6.6869050 100.2476406  38.1679654   4.8240325
  99.9220181  37.8777337   5.6760693  99.6290970  38.8447642   4.5491099
  55.9138346  19.7875941  28.5296392  55.9095192  19.8161209  29.4864035
  56.8263578  19.6129584  28.2993412  96.7070961  30.5011392   9.5551521
  96.6765594  30.8351040   8.6586219  96.9966888  31.2479568  10.0792050
  88.2039070  36.0573769   7.2789657  88.6448860  36.3076949   6.4671087
  88.7158871  36.4786696   7.9693443  77.6169252  26.5183473  13.1245625
  78.1334829  26.9292998  12.4313688  77.5847626  27.1747684  13.8204837
  53.9857197  32.5229430   1.6300921  53.0918837  32.8599262   1.6912286
  54.0949583  32.3000813   0.7056299  33.0959320 110.4436779  26.3254404
  33.3131433 111.0142899  27.0626259  33.0093265 111.0378742  25.5800200
  83.6262608  20.2065492  16.7411780  83.0688477  20.3990006  15.9871984
  83.2227993  19.4396579  17.1477783  99.5614815  32.4533916  25.1940656
  99.7454071  32.0583487  24.3418097  98.8925362  33.1135774  25.0126863
   9.6802247  98.0765533  82.6548100  10.4912031  97.7899170  82.2348213
   8.9850032  97.7036667  82.1127224  76.5286732   2.1116358   3.3434254
  77.4350929   1.9102594   3.5759851  76.4744997   3.0659047   3.3950758
  27.7859402  94.1809559  93.3201981  28.4046745  94.7625256  93.7619972
  26.9973326  94.7115803  93.2072163  10.4047632  47.7611065  12.1329808
   9.5701420  47.8979921  12.5812006  10.6728733  48.6364269  11.8534076
  15.3989518  91.2921715  88.7195587  15.8014178  90.4327774  88.5942364
  15.7980835  91.8439484  88.0469036  98.1459713  41.4310980  15.7209098
  97.5141716  41.4451456  16.4398408  98.2342529  42.3482895  15.4616833
 106.1388683  52.7467203  14.5219350 106.0732174  53.6835432  14.7071099
 105.4841423  52.5906420  13.8413465  50.1427984  10.0006747  82.0997715
  50.9094763   9.5228767  82.4162197  50.2046251   9.9480271  81.1460209
  52.3813677   5.4968297  81.0408020  52.3832464   5.2646405  80.1121902
  52.8594637   4.7852361  81.4665794 115.9608269  39.8192477  11.0897183
 116.1479187  39.7855306  12.0278502 116.7119503  39.3899846  10.6801128
  46.3618612  82.2561359  85.5936432  46.7124319  81.4512539  85.9750843
  45.8829021  82.6720619  86.3104725  70.2578259  52.1807051  27.0411849
  71.2051058  52.0613289  27.1092987  69.8884773  51.3697195  27.3906279
  16.9382858  98.7825871  93.6265278  16.2438822  98.3777332  94.1462612
  16.4752269  99.3381500  92.9994965  80.0695229  29.0812063  13.9074993
  80.2967548  28.6299515  13.0945003  80.7306862  29.7680664  13.9930439
  86.1707497  50.9129715  11.9728017  87.0216656  50.9664249  12.4079072
  86.3249683  50.3511763  11.2133074  18.5321915 104.5598602  96.1106777
  17.7729344 104.9916267  96.5022659  18.5150528 103.6728382  96.4700222
  73.4098721  48.2208633   1.8374601  73.4243107  49.1560650   1.6339540
  74.2440033  48.0587244   2.2780994  84.4987774  57.9698372  18.1021452
  84.8556519  57.8170061  17.2272074  83.5996056  58.2590151  17.9469097
  98.5520077  54.1088820   0.9176581  97.7433300  54.4951344   0.5813882
  98.4292889  54.0845823   1.8666476 116.1060810  55.0600147  28.7696028
 115.8130550  54.3354273  29.3221784 115.4509830  55.7446480  28.9050698
  74.0844011  41.7629099  34.4424152  74.8371792  41.3654900  34.8801565
  74.2780447  41.6782665  33.5088348  61.9601822  86.3261414  93.4990406
  62.8388691  86.2497902  93.8709450  61.6100264  87.1334839  93.8756180
  98.5106087  57.6879883   2.7156991  99.3777847  58.0530167   2.8917357
  98.5487175  57.4108410   1.8002927  93.1844807  12.4753726  14.7009015
  92.2713661  12.7600181  14.6630824  93.6700153  13.2609499  14.9525964
 109.2736721  22.5387144   5.0486094 109.1977119  22.8207874   4.1370738
 109.5693874  23.3193278   5.5170369  91.8658924  66.3372660   7.8314573
  92.6027584  66.6371536   8.3637375  92.2615623  66.0769653   6.9996411
 113.6181927  48.4397030   5.2311110 113.7433910  47.7153301   4.6180493
 112.6839828  48.4191084   5.4386240  14.8598790  81.9286346  86.0755062
  14.8238873  82.6865005  85.4919243  13.9444339  81.6777706  86.1990356
  92.4913406  46.2295151  11.4836633  92.5524712  45.8589363  12.3640978
  93.1803989  45.7861710  10.9888172 116.8024921  36.8176937  28.8322735
 116.9360256  37.4282956  28.1073165 117.6715279  36.4543748  29.0025806
 103.8028049  10.6206274  33.0578399 103.1079388  10.1057947  32.6475525
 103.3396435  11.2943065  33.5557032  74.4437647  34.6893597  14.1156304
  74.8442078  34.5747638  13.2538044  73.5483980  34.3683815  14.0082991
   5.3658116 100.9338284  84.2194557   5.8428711 101.3061237  83.4778118
   5.7784557 100.0828075  84.3668175  80.8825397  44.5847273  11.5242553
  80.3716469  44.6728897  10.7196176  81.3711834  43.7696695  11.4096141
  67.2457266  45.8389139  10.2678454  66.9212961  46.6803789   9.9470502
  67.0811319  45.2288818   9.5488179 104.0616608  43.3168459   5.7885796
 104.2928505  42.7206039   5.0763458 103.4578514  42.8141356   6.3353205
  49.4776249  42.6007080  12.3330092  50.3621769  42.3874378  12.6301861
  48.9487219  41.8471622  12.5950408  97.4356365  53.4280062   6.1961001
  97.8116226  52.5696325   6.3911986  96.8431091  53.6017942   6.9274956
  83.2261467  58.1166506   6.5639943  83.1459808  57.9388905   7.5011212
  82.4588490  57.6976490   6.1742347  91.0787678  49.3359089   7.7332735
  91.6921520  49.0031862   8.3884686  90.4417324  49.8425198   8.2370186
 113.1873322  27.7030516   2.1532552 112.7893543  27.3666239   1.3503438
 113.5130882  26.9238782   2.6038063  21.8815064  96.0625076  85.8655262
  21.5810370  96.9576931  86.0223866  21.1849308  95.5103588  86.2206841
  90.3265762  53.2281733  11.7928040  90.5936050  53.9260912  12.3910034
  89.8335171  52.6181173  12.3413992  85.3543091  22.9310060  29.5771790
  85.8246326  22.8794503  28.7450910  84.4373608  23.0451012  29.3273449
  86.2450600  26.1288166  17.1770442  85.7312679  26.5540266  16.4904201
  85.5922222  25.7315612  17.7534318  81.2580681  38.4906769  16.0162389
  80.5721855  37.8261590  15.9514105  80.9286690  39.2260766  15.4996002
  91.0498047  52.9519653   5.5270803  91.8193817  53.3042479   5.9741598
  91.2508965  52.0249939   5.3985524  71.0227203  49.6287870   7.4679470
  70.2555895  49.0873241   7.2820306  70.6982183  50.3095293   8.0574501
  91.7907715  42.4714804  29.0523672  90.8882427  42.5458527  28.7422943
  91.9489670  41.5289259  29.1052032 101.4865017  30.2026820   5.1734298
 102.2386646  30.0384521   4.6046498 101.1021423  31.0112572   4.8347527
 116.4516354  93.9829922  54.9849653 115.7500076  94.1148090  54.3473339
 116.7920685  94.8619461  55.1516247  14.7264934  94.2118454  86.9216537
  15.1988840  94.7836304  86.3165569  14.4198155  93.4873009  86.3764668
 104.8773193  23.6961794  25.3114009 104.3829536  24.5062566  25.1864862
 104.5009995  23.3050895  26.0998583  90.3891850  50.1191092  22.7766871
  89.9768353  50.5212975  22.0121956  91.2627983  49.8705578  22.4746060
  79.2852402  82.8708553   7.2046494  79.4448853  82.6164055   8.1134969
  80.1588058  82.9971409   6.8343025  25.3236389  79.8764133  80.8191967
  26.0950875  79.6358824  80.3061199  25.0066710  80.6824017  80.4115963
  56.6959715  16.0080338  93.4962654  56.8015671  15.0994051  93.2143497
  57.2847939  16.0962391  94.2457581   3.7656233  49.5951366  14.4011080
   3.0045712  49.5708179  13.8210726   4.1922784  50.4284430  14.2016196
  94.2344856  96.8601227   6.1522758  94.9735641  96.5941238   5.6052470
  94.1545582  97.8025627   6.0051262  64.0881109  76.6458607  26.8688440
  63.6840439  75.7829523  26.9602585  64.8700380  76.6037178  27.4193406
  75.7329702  58.9826393  11.2520337  75.9380341  58.6871195  12.1390796
  76.2405586  59.7869778  11.1442006   2.2049683  53.7973881  14.9463713
   1.6800380  54.4401836  15.4233313   1.8217045  52.9526138  15.1823843
  48.1436682   1.8407470  91.7738247  47.9418707   0.9141886  91.9042015
  47.2895527   2.2588304  91.6646004  90.5557442  62.4970198   1.7127271
  89.8893070  61.8104029   1.6871320  90.7308006  62.6953077   0.7927969
  14.9838436  42.3798418  27.0813274  15.4198110  42.0775557  27.8780651
  14.0503454  42.2718906  27.2634220   8.4075564  93.9211941  92.0583534
   8.9139438  94.3256187  92.7627945   8.7040979  94.3660164  91.2643528
  12.8719354  37.7977419   6.0791087  13.1175315  37.2998452   5.2993578
  13.1864977  38.6849856   5.9056687   7.1517003 108.7455559  89.7041988
   7.1435934 108.9576530  90.6375694   6.6031671 107.9645157  89.6312809
  91.4497852  40.8253860  14.7475755  91.3561630  40.8356333  13.7950194
  90.5707359  41.0130262  15.0766695  27.7199078  88.9638233  90.8657932
  27.3091102  88.7537384  90.0271320  27.5981092  89.9083328  90.9622192
 100.5679512  93.0883789  85.4252338  99.9115944  92.4584484  85.7229137
 100.2741051  93.9268303  85.7814407  30.4036641  92.0335102  95.2517605
  29.8365331  91.3575554  94.8807049  30.7594371  92.4920273  94.4905567
  35.8770084 102.9971790  96.1166286  36.5849996 103.5953426  96.3557434
  36.1388636 102.1551418  96.4889717  98.6746407  33.0533290  20.1469588
  98.0571270  32.3922944  19.8340023  99.4200993  32.9862642  19.5502782
  94.6768379  41.3694906  13.6694479  94.6828651  41.7631197  14.5419466
  95.3652668  41.8332100  13.1927228 108.4795666  84.2525101  29.5841384
 108.3347607  83.8243008  30.4278827 109.0999699  83.6826038  29.1296673
  89.4734383  48.0238914  28.2123137  89.1219616  48.4588194  27.4354386
  90.3506279  47.7420855  27.9527974  35.8642817 102.8782558  90.5908775
  36.1813116 101.9808769  90.4887676  34.9343514 102.7818394  90.7962132
  71.3237715  51.1355400  13.5103953  71.6634274  50.3970909  14.0159273
  70.3925180  50.9429502  13.4012568 101.4131927  19.1981959  14.6323895
 102.2730160  19.2039335  15.0529957 101.4478302  18.4578764  14.0266180
 110.9933281 103.3899403  94.0066338 111.3632488 103.4501553  94.8874092
 110.2731037 104.0204334  94.0057278  97.8152752  34.1296101  30.1948977
  98.2327175  33.4686422  29.6425438  96.9571400  33.7603045  30.4033494
 111.4910221  30.7918882  16.0373724 111.7403316  31.4796662  15.4200900
 110.5781651  30.9828782  16.2528861 104.6683216  40.8435011   8.3140159
 104.0759754  40.1891184   7.9436976 105.5362892  40.4452991   8.2483935
 118.4838009  48.8590431  18.6563540 118.1799793  48.6277580  19.5340979
 118.4447861  49.8151779  18.6335969   9.3847275  42.3611021  23.3494449
   9.2837816  41.8331909  22.5573874  10.0181866  43.0367994  23.1078029
   1.3433771  86.4342117  92.2525406   1.7532779  87.1720600  91.8011093
   1.6946496  85.6596375  91.8133450  26.1988258  90.5795383  97.1888638
  25.9379029  90.0551701  96.4317703  26.5403271  91.3905716  96.8122578
 106.5148354  40.0141430   2.1480486 105.8479977  40.1905680   2.8116965
 107.3028469  40.4443121   2.4800450 104.9350452  43.0325842  10.0848854
 104.3969059  43.8235998  10.0542951 104.6301746  42.5067520   9.3454349
  88.6744213  27.8238702  13.3078873  89.6260166  27.7843642  13.2123065
  88.3362961  27.5232482  12.4643672  13.8477755 104.5808029  87.2265434
  13.6992836 104.1718769  86.3739300  13.3512139 105.3983116  87.1898270
  20.3778553   3.6010021  88.6539650  20.7216692   3.9626426  87.8371143
  20.5118823   2.6566988  88.5729694   2.8397384  36.3873911  22.8402901
   3.0116993  35.9077954  23.6506295   1.9634600  36.7535019  22.9600072
   0.7930767  42.7169847   8.7817407   0.4931003  41.9710064   9.3011272
   1.6740087  42.4725771   8.4980917   9.9430192 100.8293056  83.4626770
   9.2708611 101.2341785  82.9144859   9.7342062  99.8952961  83.4471035
 112.0483303  22.8788018  48.9113760 112.0004845  23.8347673  48.9029598
 112.1766472  22.6373267  47.9940701  13.5127497  92.0082569  85.8602905
  13.3238983  91.3593864  85.1824093  13.1556237  91.6273785  86.6625595
  82.3460960  61.6151285   6.6564882  82.2368526  60.9371853   7.3233426
  82.7003288  61.1504507   5.8983195  18.8324404  85.0302792  85.7792282
  19.4148731  84.8247719  86.5105057  19.0327156  84.3661976  85.1195908
  77.8308296  52.7980328   0.6167888  77.3922253  52.0561600   1.0333018
  78.3693218  53.1783342   1.3107863  84.6498680  45.7002354  22.3695397
  84.7413731  46.1168718  23.2264376  83.9626789  45.0455570  22.4936891
  79.9414587  63.9790440   9.2548919  79.1304827  63.9195395   8.7499124
  80.0660038  64.9172068   9.3983251  98.7311554  56.6543245  48.0655050
  98.7390423  57.5757074  47.8062248  99.5552540  56.5310001  48.5365486
  64.7688770  71.9164371  32.5895905  63.9915180  71.5698290  33.0275488
  64.4398928  72.2732353  31.7645478  67.0369244   3.7291259  94.3116283
  67.2589540   3.2786298  93.4967709  67.8762054   4.0432960  94.6479702
 114.6507454  26.4064169   4.3097055 115.4946136  26.8576455   4.3322587
 114.7333527  25.7797694   3.5908735 104.0848064  63.2018995  31.8909216
 104.3509579  62.9911757  32.7859020 103.3029079  62.6701975  31.7420912
  86.9070530  31.8402386  25.0395799  86.7668152  31.0702395  24.4885182
  86.3463879  32.5145984  24.6560073 113.3993537  61.9163803  -0.0083426
 113.8047559  61.1220265  -0.3560236 113.3314616  61.7582146   0.9332582
 100.2798557  46.7240715   9.9043494  99.5996475  46.8456936   9.2419624
 100.9543228  47.3634815   9.6752542  70.2760983  44.8516226  19.6949816
  70.3512335  45.3642511  20.4998422  69.7302866  45.3876638  19.1196740
 105.0674534  77.8144026  13.2230389 105.8662033  77.4896336  13.6386871
 104.4215584  77.1241426  13.3733273 113.9220619  30.2990270  27.6891351
 113.4867859  30.4318357  28.5312319 113.5433388  30.9655952  27.1159983
  96.0802174  44.8261356  26.6870904  95.7608032  44.2246389  27.3597097
  97.0336342  44.7586441  26.7386413  97.7187061  71.2473440   3.8867727
  96.7616844  71.2375021   3.8712296  97.9638577  71.8337965   3.1710896
 108.4525108  45.4013634   9.1095257 108.2013130  44.4830513   9.2086923
 107.7734566  45.8872986   9.5774817  37.5929785   4.7063950  93.6487961
  37.3743844   5.5444717  93.2412720  37.7245426   4.1091099  92.9124737
  94.6767807  30.4954243   3.1065661  94.7342491  31.1760354   2.4359727
  94.3722248  30.9551573   3.8889465  11.2655568  60.1124811  93.2574749
  11.7963374  59.4902563  92.7601433  11.3055229  59.7941923  94.1593266
  42.2803545 110.4595089  95.2379894  41.7018843 109.7037888  95.1355553
  41.7018270 111.2172890  95.1525593 103.6412430  30.2758551  11.1315691
 103.9841270  30.5444956  11.9839180 103.0950546  29.5133543  11.3226318
  71.7766047  50.6937885  19.8774362  71.5054750  50.6243658  18.9620674
  71.0978699  51.2292480  20.2883244  92.1639061  54.3366337  22.3465443
  93.1148529  54.2293835  22.3672676  91.9896984  54.7679567  21.5099764
 102.6816273  29.5273519   2.5330940 102.4332047  28.8181996   3.1260693
 102.1083450  29.4171643   1.7745149  18.1770968 100.3468800  95.6262302
  18.4197557  99.6359825  96.2195015  17.7437460  99.9097157  94.8932076
 102.5883484  48.4345913   9.7381234 103.2112026  48.2168102  10.4315639
 102.5382614  49.3903685   9.7526604 118.2954502  41.9520617  16.7042243
 117.5568199  41.4518690  17.0512962 118.0070972  42.8639221  16.7441511
  89.6348572  21.8881226  18.6976957  89.4036198  21.5610290  19.5670462
  89.3221951  22.7927947  18.6912012 100.5775738  36.5093207  27.5016260
 101.3377571  36.8092322  28.0000305  99.8409176  36.6103482  28.1044197
   5.4580051 102.5066948  94.2349052   4.6573824 102.9955387  94.0444565
   5.2402031 101.9808006  95.0044632 104.6649456  70.2195740  40.9323740
 104.0425014  69.5086908  40.7792902 104.9874020  70.4474974  40.0604153
  15.1327348  31.8278408  12.2379994  15.0897992  32.5243616  11.5828288
  15.7171309  32.1707058  12.9141319  88.6855507  60.3653765  26.5518785
  88.8529587  61.2034941  26.1208701  89.1089630  59.7175789  25.9885788
 111.1824799  36.3664150   5.2423751 112.0779705  36.6407061   5.4401100
 110.7654858  37.1500921   4.8843357  97.7156258  29.8864555   4.7882915
  98.0073738  29.1958809   4.1931221  97.8567982  30.6981087   4.3009281
  32.2820592  72.8031206  97.2577953  33.1016588  72.8471184  97.7502918
  32.4936342  73.1852341  96.4060593   4.5833871  97.9525375  90.0971603
   4.6314123  98.7152290  89.5207691   5.4825485  97.8233624  90.3989124
  99.0479183  48.6743498  15.8132601  99.7897148  49.0705681  16.2704015
  99.4470501  48.0655241  15.1917636  94.1727829  53.5781670  30.7606912
  94.0843487  54.4382191  31.1714554  94.2471027  53.7660980  29.8250675
 100.3954029  21.9957781   0.1102030  99.5171165  21.6153073   0.1194171
 100.9663868  21.2874889   0.4077589  97.9998398  41.1108255   8.2774484
  98.6469555  41.0758114   8.9818954  97.8690338  40.1963568   8.0267084
  92.2666454  29.0549541   1.5802059  93.0904770  28.7187171   1.9330186
  92.5284576  29.5985866   0.8371394 106.9413662  43.0031681  20.8463717
 107.4342823  43.2665539  21.6234779 107.6065826  42.6787186  20.2393746
 114.4658852  95.8401108  96.8424797 114.6170902  96.0944366  95.9321499
 113.9445210  96.5550900  97.2074699  70.0147486  52.6086378  18.2612717
  69.9848890  52.4812365  17.3130584  70.1027203  53.5552025  18.3731043
 115.2805138  53.8248444  36.6999745 115.4344463  54.7017479  36.3484383
 116.1188316  53.5709858  37.0859885 116.2008667  95.7520771  90.0219345
 116.7284489  95.8229923  89.2264080 115.2984333  95.7003307  89.7070312
  78.7421083  33.2288599   2.1282168  79.4271469  32.8208256   1.5986286
  79.0262270  34.1373897   2.2286350 118.2818985  68.7983608  16.5963662
 117.7513123  69.5662165  16.8087363 117.8089619  68.0644655  16.9887567
  96.0824776  71.1484289  13.7118804  96.4319038  70.3530407  14.1137445
  96.5798187  71.2448263  12.8997314  81.5961266  40.2732992   9.2876130
  81.7901230  40.9245491   9.9617589  82.1312237  39.5160103   9.5251244
  37.5820637   8.6148751  96.3926601  37.1078467   8.0304056  96.9840527
  37.5087357   8.1979537  95.5341530 117.8310776 101.9089890  94.0948677
 117.7477646 100.9677315  94.2475605 116.9795418 102.2683239  94.3438721
  81.2998295  16.1171150   1.6564043  81.9028950  15.7175338   1.0295980
  80.5637074  15.5070388   1.7028424 100.8739758  54.5605755  11.8830001
 100.5464172  55.4513168  12.0075989 100.0851536  54.0227127  11.8144214
  85.4784679  57.0772696  23.3377004  86.0327721  57.8575802  23.3277535
  84.7338867  57.3052883  22.7810764  90.9529018  63.8723040  10.9117556
  90.5636311  63.7340355  10.0482821  91.6090775  63.1800795  10.9923029
  70.5228853  31.6849637   8.1420547  70.4040718  32.6048326   8.3786070
  71.4717102  31.5586066   8.1408095 112.9533100  51.4689827   9.2880195
 112.9043102  51.2079906  10.2076483 113.4540462  52.2847080   9.2969030
 103.3363247  65.5502129  40.5355740 102.7532578  65.9022236  39.8630047
 103.1856632  66.1077929  41.2988853  96.1384201  48.0771923  24.5264578
  95.9210682  47.6484108  25.3541875  96.8652821  47.5635242  24.1742563
  81.8344212  72.9168653  12.0773149  81.6924191  72.0156240  12.3668492
  81.2472153  73.0233431  11.3289285 107.6902199  64.9438763  40.4117012
 107.3021889  64.4176865  41.1108351 108.1602287  64.3112230  39.8684931
 103.8098199  66.0218850   0.2099344 102.9222876  66.3713888   0.1301309
 103.7502534  65.3752307   0.9131548  12.3536170  24.8339152  22.8874588
  12.4049985  23.9532161  23.2588911  11.8453407  24.7255635  22.0836258
 116.0940742  48.7005997  12.3107123 116.1731625  48.0909204  13.0443823
 115.2188015  48.5391998  11.9584584  41.3137960  11.7468178  83.1871414
  41.6513205  11.8066692  84.0808582  41.1000109  10.8207583  83.0733776
  98.5239601  53.8739014  28.8051534  97.9880047  53.1188011  28.5626650
  98.5837936  53.8286018  29.7594070  96.2246418  59.5005131  31.0414457
  95.3450775  59.3435192  30.6979942  96.1036301  60.1735783  31.7111993
  12.9070628 102.7456951  77.2666121  12.6912367 101.9900036  77.8130341
  13.8638699 102.7728271  77.2624874 102.5035858  62.7104235   7.2495973
 103.0932808  63.4641838   7.2676265 102.6574421  62.2659540   8.0832666
 108.6427975  46.1047983  17.4153233 108.3339977  45.8529758  16.5450037
 108.0634975  45.6396532  18.0188799   7.6001251  63.4740973  12.3428631
   7.8429598  62.5641584  12.1717608   8.0435926  63.6901474  13.1631613
 109.8853683  58.6111736  13.5551000 109.5311546  57.7271652  13.4587348
 109.2247200  59.0796137  14.0653300 114.1010094  48.2039261  10.6483543
 113.8677120  47.4853849  11.2361443 113.5059547  48.9137363  10.8898306
  88.1735516  70.1277113  14.4178998  88.2493591  70.9480429  14.9052799
  87.9174137  69.4811440  15.0756097 104.1500568  72.2603703   8.0084616
 103.9729118  71.3199949   8.0319667 104.1411400  72.5288105   8.9272058
  98.7922192 101.0319042  14.9509013  99.2456341 100.6255722  14.2122877
  99.3974304 101.7047787  15.2626467  99.8592567  64.7432280   1.5966411
  99.4285202  65.1589060   0.8497099 100.4888344  64.1385174   1.2039803
  79.1398573  61.4322805   9.7313285  79.4847918  62.3249006   9.7532988
  78.9313745  61.2335348  10.6441629 113.1083679  62.4169874  13.9251077
 113.2854080  63.2745457  14.3117344 112.2041988  62.4754715  13.6164236
 106.4804459  59.4856262  27.2982621 105.8918285  59.8445463  26.6342306
 106.2500858  59.9537754  28.1007600  92.9967690  91.1559105  22.1257639
  93.2482243  91.8496704  21.5160942  93.1663704  91.5254784  22.9923010
  49.5099592   9.8433828  88.7354565  50.2815294   9.6326649  88.2096100
  48.7905979   9.8715842  88.1046200 103.3515358  45.2592754  16.9219220
 102.9503250  44.3905640  16.8972385 103.1886387  45.5731440  17.8114057
  95.2764893  62.3288059  18.6761427  96.2152481  62.1461964  18.7164366
  94.8606777  61.4798021  18.8262331  16.7961013  86.8348026  10.2537370
  17.3284853  86.0859394   9.9854046  17.4329960  87.5030899  10.5067134
 100.5100918  78.7249136  33.1522632 101.4004898  78.9240980  32.8628588
 100.1143169  79.5809507  33.3159566  69.1037846  89.1510582   8.9897525
  69.8540783  89.7452545   9.0044749  68.3815765  89.6683121   9.3462574
  65.6821060  14.5815504  86.2365437  66.2287235  13.8070476  86.1039352
  66.2821007  15.3195059  86.1285591 114.3865967  85.3270149  23.7550092
 115.0145626  84.6409225  23.9812112 113.8044453  85.3782749  24.5131016
 114.9318504  64.1845608  18.3099639 114.7169685  65.0958920  18.1111300
 114.4962311  64.0124130  19.1447306  42.1079206 101.1320210  96.9420242
  42.5977945 100.6110477  97.5782967  42.0621681 100.5776691  96.1630249
 109.7900009  35.8601856  19.6105206 109.8027325  35.3311682  20.4081488
 109.0100002  36.4079356  19.6988320   7.1355855  26.0659766  12.0683837
   7.0532078  25.9586477  13.0159736   6.2342536  26.0517025  11.7464697
  94.3147850  55.1251173   3.8508663  93.6578465  55.3711224   4.5021316
  94.9023151  55.8794880   3.8065374 114.1463757  87.9861450  37.2341299
 115.0279427  87.6896095  37.0080233 114.2827225  88.8158989  37.6914644
  94.3309498  59.8047447  18.4536004  94.2505550  60.0607443  17.5347781
  95.0257587  59.1463852  18.4588945  53.1043720  12.5921094  87.7057362
  52.4049854  13.2383072  87.8032875  53.1890678  12.1979380  88.5738945
 101.8253285  76.3701812  -0.2650050 101.5918357  76.0013143   0.5868455
 102.2618491  77.1962134  -0.0567892 108.6125374  63.4815121  27.3943257
 107.6912022  63.2481432  27.5079632 108.8476276  63.9310360  28.2060480
 100.5781269  40.4074478   0.1622759 100.5132008  39.8114467  -0.5839133
 101.3904285  40.1544762   0.6009021 106.4128971  49.0165854   0.9677550
 107.0715427  48.3229065   1.0027100 105.6087303  48.5990810   1.2763527
   3.7007666  19.2164338  42.7097607   2.9299018  19.2739165  42.1452284
   3.3968931  19.5274997  43.5624790  20.5358648  93.1955624  77.3694420
  20.2784705  93.9300346  76.8121862  20.0182176  93.3070183  78.1668472
 117.7917480  26.9260287   5.9096104 118.4566116  27.1108675   5.2462739
 117.2784615  27.7320480   5.9653592  79.3412828  60.5381298  19.9772525
  79.9569273  60.5678463  20.7096004  79.7741508  61.0312128  19.2803097
 116.1990166  61.7365360   2.8271592 115.3343678  61.3275957   2.8642955
 116.6699409  61.2406301   2.1574306 113.3152866  54.4071913   9.0206420
 113.8833714  55.0572014   9.4341528 112.5110626  54.8855639   8.8190907
 101.3323402  77.1417904   8.6346591 101.8989182  76.5327740   8.1610298
 100.7501984  77.4984407   7.9637313 117.2314453  44.9849081  18.9623654
 116.7461395  44.6480751  19.7155285 118.1281090  45.0870562  19.2814219
  28.3227873  93.4388828  10.1750231  27.4669456  93.7141418   9.8463893
  28.2247758  93.4380531  11.1271918  60.1543856  19.5302212  90.2611637
  60.8879519  18.9192200  90.1919746  59.3814993  18.9697301  90.3299046
 110.9860611  79.0254831  20.6807303 111.6667557  78.8500452  21.3304329
 111.4029026  79.6120644  20.0495362  99.5630360  82.0059681  10.2818406
  99.9080372  81.1220741  10.4080665  99.5597553  82.3893166  11.1589193
 116.6716194  90.0526047  34.3459487 115.9283447  90.5309582  33.9786124
 117.3241520  90.0494766  33.6456442 104.2835522  83.8609409  24.3240333
 103.5954952  84.5160198  24.2070532 104.8115730  84.1950512  25.0491571
 102.7002144  71.6442537  24.9659562 103.5905361  71.9680357  25.1027894
 102.2386837  71.8631935  25.7754517  91.1089802  72.3322248  19.6753597
  90.8100319  73.1948423  19.9630344  91.9746208  72.4918461  19.2993188
  68.9162111  25.7753873  85.6807232  69.1711378  24.8652172  85.5296040
  68.7413168  25.8222318  86.6206455 117.9794884  32.9170656  36.3908720
 118.8158989  33.3479404  36.2148213 117.3408413  33.4170246  35.8825397
   2.8505084  81.5425587  23.0021858   3.4314707  81.6025543  22.2438240
   2.0190716  81.2327766  22.6430464  87.6901436  62.6106739   9.8802203
  88.0756569  61.7395544   9.9738216  86.7475414  62.4514532   9.8313558
 105.9642315  51.6632986   7.6943403 105.5233669  52.0856714   8.4315395
 106.7986488  51.3628340   8.0545032  97.8774643  57.4338961  14.1208947
  97.2995567  57.3855305  14.8824108  98.7608337  57.4166298  14.4891286
   4.9879763  84.2574310  18.1166518   5.7519132  84.8311234  18.1758726
   4.2556381  84.8034859  18.4025502 113.0640984  34.1860652  17.3992646
 113.1864929  33.3439851  16.9609141 112.9446697  33.9606977  18.3218586
 111.7061424  49.9526072   2.9539245 110.8588696  50.1515245   2.5554502
 112.0209122  50.7954359   3.2807171   3.3713683  65.0451660  26.6866064
   3.3998293  65.9494591  26.3740659   4.2895925  64.7788525  26.7332220
 102.0955467  61.7200613  42.2560644 102.4090576  62.2633600  42.9790974
 101.1423969  61.7321825  42.3431635  83.5334778  74.8395491  33.7201214
  83.3846092  74.6700859  32.7898765  82.6817322  74.6893549  34.1302419
 108.7738800  65.3465509  18.5797536 109.2710590  65.5213213  19.3788123
 108.7230873  66.1946821  18.1389356 119.1380008  39.3169665   6.6278481
 118.6112968  38.8619113   5.9707791 119.7317969  38.6462975   6.9652516
  89.7413063  59.2238045   4.0536115  90.6551647  59.5045948   4.1011035
  89.2902946  59.9484634   3.6203831   2.5542057  49.0097332  11.7515886
   2.9486048  48.1375885  11.7581904   2.9329768  49.4380808  10.9839392
  80.0913429  36.3338757  24.9912143  80.7985878  36.0111952  25.5497074
  79.7710514  37.1170259  25.4387903  95.9675121  67.7672386   9.2521417
  95.2901077  67.2120571   9.6383226  95.5163574  68.2478952   8.5581213
  33.5311174 103.4668732  94.5024681  34.3019056 103.0088425  94.8376179
  33.4786558 104.2644596  95.0290966 105.5249786  61.4088821  25.6380081
 105.7176971  61.9618130  26.3952112 104.8881054  61.9116306  25.1302052
  86.9567204  75.2960110  18.4969866  86.8914032  74.4797230  18.9926076
  86.5823746  75.0871754  17.6411319   1.3440192  70.4278946   9.4079864
   2.0817092  70.2916098   8.8134515   0.7199457  70.9466171   8.9003533
   5.7544565  84.9063683   2.5016940   4.8822677  84.7267914   2.8527915
   5.6017894  85.1290607   1.5833640 113.5502529 106.9041920  39.5393777
 113.3359909 106.7663860  38.6167002 113.5338593 107.8548717  39.6496677
 109.8545742  67.1543503  15.8455586 110.0219250  67.7160215  15.0887549
 110.3682423  66.3646460  15.6759870 104.4971085  48.9987898  13.6615121
 103.6339092  48.5898972  13.5988200 104.3864632  49.8560858  13.2503736
  81.3376522  59.9337816  27.4310350  80.4032707  60.0830746  27.2865510
  81.4148712  59.7949982  28.3749676  89.8190308  80.9755325  19.2986202
  89.1778755  80.6460381  19.9283743  89.5413780  80.6079292  18.4595644
  69.2848492  34.4531798  92.7151585  69.6638441  35.2108908  93.1606579
  69.5657873  33.7024713  93.2383633  92.1023846  30.8488393  13.9337182
  91.4864254  30.4377842  13.3272040  92.5349236  30.1147747  14.3699467
   7.0737052  81.4632130  12.5814450   7.8382772  81.8074226  12.1197283
   6.3348716  81.9520378  12.2189438   7.4656087  42.3646498  20.4236722
   6.8531448  41.9945812  19.7879303   7.9861629  41.6171932  20.7178950
 106.3418674  63.4779739   1.4460561 105.5918789  64.0276432   1.6732349
 106.7792034  63.3124113   2.2812559 109.8810101 104.8570442  34.1783905
 109.2697525 105.4905701  33.8025808 109.5124722 104.6488571  35.0369143
  30.8299804  99.5046139  91.5016556  31.6661000  99.8145199  91.1536694
  30.2934766 100.2939796  91.5743828  97.3672771  64.2765093  34.3298721
  97.5252342  63.7017679  35.0788426  96.4815140  64.6120214  34.4680309
  12.0326865 110.8163261  95.6257725  11.9025099 111.5987682  96.1615658
  12.7027142 110.3159046  96.0914612  87.8837681  87.0323467  25.7568431
  88.5370731  86.3822174  25.4984856  88.1175709  87.8169918  25.2609515
  92.7313328  69.4846153  34.8518586  93.2767200  69.1476870  35.5626774
  93.3388901  69.6109200  34.1230488  29.4207072  74.4972181  78.2958555
  28.9489341  74.8597622  79.0456676  29.9721479  73.8097763  78.6694431
  88.7799454  51.0905695  13.1245339  88.4895420  51.2634325  14.0200877
  89.2688751  50.2699232  13.1854880  74.9140644  59.8059368  29.8881030
  75.1367283  60.6490135  29.4932938  75.7395649  59.4866705  30.2525854
 103.8959122  58.0765867   2.9926813 104.3859673  57.4589968   2.4498582
 104.1769886  57.8845263   3.8872990 112.6771164  97.8430653  20.2375031
 112.4589920  97.9261780  21.1658049 113.0678940  98.6858845  20.0068974
 101.6747284  71.4786577  29.8169947 102.5543022  71.8106747  29.6371579
 101.7917728  70.5343390  29.9208903 110.5616760  48.2782984  22.0093751
 110.5485249  48.6696529  22.8828168 111.3858700  48.5773420  21.6253090
 109.2117882  61.4571571  23.2951999 109.8300648  61.0222006  22.7080250
 108.7300014  60.7409382  23.7088943  18.3157969  60.4855824  24.6970224
  18.6906564  61.1799669  24.1552281  17.6475513  60.0832701  24.1422033
  63.7862778  10.8995271  87.9868126  63.2835960  11.6693807  88.2530212
  63.1736469  10.1698494  88.0789471  63.0620384   6.7737204  93.6008644
  63.7170172   7.4366510  93.3823395  63.5528040   6.0964650  94.0663815
   0.6424281  91.1807251  14.7518766   0.4761967  91.2998104  13.8167727
   1.5611136  91.4246464  14.8647976 104.8458958  98.4738636   8.5039061
 104.5715332  99.3844891   8.3956760 104.5780659  98.0448151   7.6912475
 107.7352142  80.6159019  72.6005650 108.2923698  81.2489414  73.0533981
 106.9456959  81.1086750  72.3768234 102.8232098  61.2051392  72.5895023
 103.7623501  61.0641193  72.7093744 102.7038670  61.2290478  71.6400719
  13.7262201  77.8938484  84.8007488  13.1460214  77.9216766  85.5615616
  13.2085311  77.4633837  84.1203594  10.2602363  82.8421497  87.8647995
  11.1027586  82.4633408  88.1155777   9.6308047  82.4466228  88.4677982
   5.2558720  55.7267857  83.0185699   4.6443045  55.1104450  83.4214878
   5.5505401  55.2855539  82.2218800 107.0464706  68.6266470  79.6303225
 107.0817566  68.1933117  80.4830837 107.2577477  67.9362249  79.0018988
  84.0391636  22.6109266   1.6944054  84.7288990  22.6378894   2.3575549
  83.5694504  21.7956734   1.8703775   4.9632764  66.4021301  83.5557461
   5.1551914  65.4650736  83.5193253   5.0527638  66.7002916  82.6505756
 107.3492622  21.4187241  10.3374696 106.5155697  21.0459948  10.0506449
 107.3408890  22.3136973   9.9980801  84.0779209  87.1732903  80.6086063
  83.5138798  87.9454231  80.6521130  84.7383881  87.3958015  79.9524832
  26.2073350  90.2563953  76.4487505  26.8694472  90.8312225  76.8326998
  25.4618692  90.8314896  76.2761831 116.9596195  77.9195499  75.5212355
 116.5066433  77.5675249  76.2874746 116.3473034  78.5562468  75.1525640
  91.3901234  20.9872532  14.3000400  90.6421375  21.1652946  14.8701739
  92.1057510  21.4991975  14.6769094  17.6585007 107.3046017  95.0602341
  17.0983219 106.7641163  95.6172848  18.0703390 106.6831779  94.4598675
 106.6531849  74.1106129  66.6598225 107.5315571  74.4086456  66.4234400
 106.1083984  74.3531275  65.9110785  95.3359604   8.1869066  13.5739803
  95.3781414   9.1281593  13.7427890  94.4891930   8.0579102  13.1466961
  12.3634398  99.0190125  76.4476728  12.9028785  99.3615532  75.7349968
  12.6932168  99.4597054  77.2307873   1.2228510 101.7158890  92.4837017
   0.8005190 102.1634102  91.7504978   0.5344720 101.1653137  92.8568459
 107.2222042  65.4333305  84.6658993 107.6737690  64.6883821  84.2692089
 107.8890800  66.1180830  84.7170639   0.1721399 111.9617978  67.0819807
   0.8979457 112.0290712  66.4615679  -0.0037414 112.8655540  67.3437452
 103.5443878  37.4781156  11.8686068 103.8964939  38.2776737  11.4775014
 102.9388332  37.7875590  12.5422359  22.9096174  99.0510559  97.0083809
  23.2091975  98.5081100  97.7375603  22.5369501  98.4288025  96.3837528
 116.4919376  93.9237499  92.3779774 116.3558578  94.6512413  92.9850006
 116.9403362  94.3171215  91.6293621 111.7503643  23.0281353   3.2404459
 111.5138626  22.1245122   3.0312479 110.9115219  23.4768438   3.3464614
  28.7306285 110.3076935  83.5856056  27.8818965 110.6127071  83.2648945
  29.2693090 110.2273369  82.7984619   1.4854357  99.5357895  72.7523041
   0.5365247  99.4473362  72.6629925   1.6516952 100.4701424  72.6274872
  11.1266291  74.7951317  83.8677025  10.9789884  73.8508177  83.9197540
  10.8518231  75.1279736  84.7220612 103.0287647  48.5163832  81.0225487
 102.3474121  48.9625740  80.5196476 103.6383629  48.1883574  80.3614712
  86.8397236  23.9737415  25.6331182  87.0428371  24.3657088  26.4824343
  86.2463188  23.2513046  25.8385062  20.1197815  88.7150192  88.7621307
  19.5378065  88.7625694  88.0036640  20.9814000  88.9504910  88.4180450
  43.6186886  91.3638020  88.1906796  43.8987780  92.0730114  87.6120567
  44.3835783  90.7920837  88.2563972 104.6304512  68.2723284  60.4380989
 105.1655960  67.6757574  59.9146938 104.0309906  67.6993847  60.9162331
   3.1870416  57.4057436  73.7012577   3.9845729  57.9238129  73.8098001
   2.5008965  58.0533266  73.5397720  11.1218607  74.5988750  72.6559353
  11.0582793  74.2400742  71.7708111  10.8991826  73.8648415  73.2285023
 117.7370453  89.1122913  80.8920383 117.1511078  88.3748341  80.7215214
 117.8314209  89.5444489  80.0431728 115.5973244  62.1378183  96.6884422
 115.3032494  61.2434006  96.5159035 116.5525341  62.0775557  96.7015266
   7.0093882  93.3959103  64.8740625   6.9265282  94.2621422  64.4753027
   7.8854942  93.1008053  64.6258974 110.7965279  75.8435631  72.7546263
 110.9816265  76.6112661  72.2136974 110.8885765  75.1015949  72.1569252
 117.1843338  73.5674286  72.6035976 118.0504990  73.3122683  72.2859812
 116.9617748  74.3459225  72.0930576  26.7714024 108.2473469  72.8530884
  26.2302136 107.9790783  73.5956335  27.2145677 107.4449444  72.5774288
  10.4209137  94.3322849  81.8120766  10.2886057  94.5245647  80.8837700
   9.5749259  94.5202160  82.2185516 109.7175121  79.8199177  60.8528996
 110.6204796  79.6943998  61.1446810 109.7945213  80.3381062  60.0517893
  21.3490152  48.1861544  75.7143021  21.0562420  47.2800398  75.8116150
  20.8650565  48.6676073  76.3852835 103.7140751 108.1872082  71.9677734
 103.5323143 108.1707001  72.9074097 103.2296562 108.9463902  71.6434145
 113.6002827  84.4972134  77.4850321 114.0674400  83.6619759  77.4653625
 113.1177330  84.4823360  78.3115673  23.5289955 107.9687691  89.5934200
  23.6160946 108.6766720  90.2317905  24.4297957 107.7451420  89.3593597
  11.3779140 104.3493843  83.0122566  11.2251103 104.2252541  82.0755291
  10.5575693 104.7159576  83.3422470   2.8399667  77.7220631  80.3388405
   2.5976369  78.6480427  80.3472137   2.0618035  77.2738266  80.0075150
 107.6623440 104.1646957  97.3999310 107.9322243 103.2580471  97.2537422
 106.8402100 104.2506695  96.9172859  93.0123138 107.2160339  74.7844362
  92.5011063 106.5326500  74.3509817  93.6530113 106.7381763  75.3111172
  41.7603254  20.2056813  71.8561363  41.1337042  19.4923174  71.7349529
  41.8723536  20.5772924  70.9811544 117.4671173 107.8254890  95.3095341
 117.6335430 108.5287189  94.6818447 117.4624062 108.2612801  96.1617661
  74.8243999  18.2714009   9.9856848  74.2336607  18.1856275  10.7339525
  75.1437092  17.3826492   9.8295063  26.8679810  92.7707100  87.3947239
  26.0008264  92.5110912  87.0834732  27.3524046  91.9483662  87.4676132
 118.0752754  68.1624508  83.2416916 118.3523369  67.4319077  83.7946701
 118.4869385  67.9912472  82.3946667  46.6611814  24.1970372  73.7462711
  46.4138174  23.4046841  73.2695961  47.3708439  23.9170408  74.3243885
  72.5619125   9.4811851   5.5347347  72.2024775   9.8789060   6.3277394
  71.8683720   9.5788687   4.8822862  94.6808147 105.5954266  76.1302805
  94.6958637 104.9134445  76.8017817  95.5135441 105.4957008  75.6689262
  10.1781452 108.4525108  83.1765175  10.1681340 109.3896961  83.3709526
   9.5910466 108.0667210  83.8266850  21.0696578 101.2562275  70.3645372
  20.7803440 100.5809116  69.7509575  21.3861179 101.9668770  69.8068142
  17.7028191  70.0390959  48.0830956  17.3780131  69.3409586  48.6517239
  17.8821290  69.6048117  47.2491407 113.3031654  88.4635925  91.9682407
 112.8793812  87.9858398  92.6812649 113.0741596  87.9706764  91.1803246
  47.1416330  19.7010231  80.6534481  46.4413548  19.2183876  80.2142429
  46.6856909  20.2946758  81.2500477  98.6614609   7.3942357  29.4705224
  99.0995789   7.0385510  28.6973643  98.8207340   6.7452562  30.1558614
  49.7200871   6.4096922  59.9274349  49.3507910   7.2878659  60.0205135
  48.9669752   5.8238333  60.0037479 117.1232510  90.6531429  78.6494064
 117.2149277  91.5434742  78.3100891 117.0734596  90.1028824  77.8677654
  12.1371961 101.7382908  96.6349316  12.8200972 101.1480618  96.9535255
  12.6086068 102.3964977  96.1242771  23.3783412  73.2948732  68.6039400
  23.3771563  74.1230583  69.0838766  22.4695587  72.9963589  68.6391258
  33.2067323  69.0661478  90.6756020  33.5493279  68.2807970  90.2488899
  33.9819384  69.5079231  91.0221863  85.9785284  33.7188259   0.4570028
  85.6940771  32.8066841   0.3993246  86.1777438  33.9651600  -0.4462412
  79.8682165   5.5336601  16.4688790  79.0980005   5.3585702  17.0095682
  79.5642281   5.4054958  15.5703270  49.4326305  13.8447380  66.4822912
  50.3730869  13.7889314  66.6515779  49.0588331  13.1046581  66.9606161
  30.6897640  93.2034683  81.3136578  30.6623530  93.6220551  80.4532719
  30.0183606  93.6578465  81.8225670  83.0222607  44.2247295   0.6135585
  83.1802464  43.8628817   1.4855325  82.1518803  43.9051867   0.3757290
  99.3951321  79.7370768  89.7540569  99.5551014  79.8253012  90.6936550
  98.7908554  78.9982080  89.6823120  17.9901826  99.0109348  70.7420301
  17.7299190  99.9320412  70.7501984  18.0134034  98.7768269  69.8141909
   9.4072133  62.6721621  90.3272820   9.5444822  61.7533207  90.5577469
  10.2871358  63.0126619  90.1659489  88.3360100  93.6818504  89.1768932
  88.2150841  94.6185875  89.0215302  87.9638386  93.2605648  88.4021473
  65.5043650  38.7191844   1.9810034  64.9680328  39.0631700   2.6953247
  66.0092592  39.4730759   1.6761017   2.2304648  96.8446827  89.8801708
   1.8685088  97.1318054  90.7184887   3.0911058  97.2612667  89.8356152
  16.3456392  99.5858002  90.7171726  17.0853674  98.9824104  90.7875538
  15.5853379  99.0186691  90.5885983   8.8488084  75.4947758  78.3917809
   8.7481380  75.6764698  79.3261671   8.6099309  76.3155460  77.9610777
   7.7483964 102.9635048  74.1720200   7.4697691 102.9961300  73.2568502
   7.1482468 102.3413467  74.5830727  16.0850048 110.7876587  85.4325676
  15.3124762 110.2657986  85.2155495  16.7714846 110.4499817  84.8572826
  77.1840143  58.8208389  13.5817397  77.8407431  59.4336081  13.2508993
  77.4610615  58.6340761  14.4787335  38.0061197  72.6688290  88.7987423
  37.9168296  73.6217356  88.7835503  37.1428871  72.3515797  89.0641022
  24.7106767  96.1991119  73.8032532  25.0801086  97.0311928  74.0988779
  23.8261247  96.1864376  74.1688251  23.0003643  74.7072029  64.7810793
  23.3370233  73.9081812  65.1866150  23.1847215  75.3959465  65.4197264
  89.5096302   9.4385636  29.7784138  90.1378822  10.1445603  29.9303842
  89.5297050   8.9224869  30.5843234  83.3158875  27.4625802   9.9113107
  84.0467358  26.8553472  10.0269246  83.6445427  28.1186652   9.2966789
  82.4065113  76.1539555  81.6366959  82.8846264  76.0161829  82.4544144
  81.7490387  76.8154049  81.8521976   8.5409433  70.5975151  65.5794191
   8.0858964  69.8186874  65.8997202   9.4331479  70.5083847  65.9144688
  19.3214619  83.4207153  74.3966389  19.8348308  83.4329224  73.5888433
  19.1061342  82.4975872  74.5296526 110.6648827  70.1928282  68.3586407
 110.4638958  71.1165571  68.2084274 111.6211128  70.1510429  68.3484840
 109.8747349 107.9422283  84.4600964 110.1603317 107.0372772  84.3346500
 110.1354218 108.3894539  83.6549473  11.2927997  85.7260799  67.5312710
  11.0906339  86.5256596  68.0171061  10.8947575  85.8612347  66.6713142
   4.0605187 108.8635731  90.1718235   4.4017044 107.9835415  90.0125217
   4.5891449 109.1978645  90.8964157  83.7158108  19.8552668   5.4477167
  83.1314087  19.7473013   6.1980796  83.9073467  20.7928634   5.4262608
   1.1246683  86.4971447  62.1464109   1.0613961  87.4510002  62.0974779
   0.2613804  86.2150383  62.4487019   2.4677755  59.4904661  87.3190689
   2.1052796  59.5730829  88.2011127   3.3801010  59.7660303  87.4082756
  47.2031069  69.8591471  81.1958408  46.3218021  69.8545790  81.5693569
  47.3556042  70.7723951  80.9530258 103.0361843   7.5312197  16.4544368
 102.7546787   7.6259655  17.3643839 102.2831535   7.8208286  15.9393632
  86.0389519  31.2367105   3.5332286  86.8149185  31.7720389   3.3672813
  85.6682205  31.5957284   4.3393919   3.0392075  87.3565960  83.1461906
   2.5651532  87.7288246  82.4025822   3.6954832  88.0175018  83.3669567
   9.3040925  80.4112244  74.9919128   9.0960908  80.6096935  75.9049225
   8.4550279  80.3984737  74.5501471  10.3760779  95.1862526  94.0789223
  11.1313677  95.6629276  94.4232273  10.6802964  94.2823792  93.9970779
  18.1358242  94.6919441  94.1530228  18.2095301  93.8100338  93.7882805
  17.3004436  94.6888256  94.6203136  60.8632994  39.1595507   6.9512480
  59.9345636  39.3222213   6.7862523  60.9939671  38.2443929   6.7029637
  86.3260460  12.9427886  18.5054171  86.1460781  13.6109340  19.1667974
  86.8906879  13.3815920  17.8691304   7.4021864 109.0995598  80.5087566
   6.6383135 109.2822170  79.9616146   7.2587293 109.6173763  81.3009167
  27.4090075  85.3876686  69.8040152  26.9746065  86.1130524  70.2527189
  26.8946338  84.6163177  70.0420809   5.0392890 109.4684410  76.2042379
   4.3051457 109.9477196  75.8201075   5.8152723 109.9528790  75.9224606
   6.9047832  77.7203226  78.9655542   6.2338531  78.2472706  78.5314941
   6.4426672  77.2888851  79.6842670  36.9870162  81.5547943  97.6208496
  37.8297877  81.5687943  97.1672344  36.3781142  81.1816788  96.9834709
  46.7409611  18.7438631   1.3067098  47.3255825  19.2255545   1.8918765
  47.3221636  18.3604264   0.6498916   0.9443306  55.7558298  79.0985870
   0.1223850  56.0756779  79.4705200   0.6813032  55.2773476  78.3123922
  17.4313736  89.5533562  87.6553154  17.5589442  89.6158409  86.7087173
  17.1672690  88.6450672  87.8019619 117.5101852 106.6926861  79.6516800
 118.0029488 107.3812866  79.2053080 116.6066265 107.0085907  79.6551514
  53.4606028  10.4585981  92.9524517  53.9939022   9.6651429  92.9050064
  52.6535606  10.2327621  92.4899483 110.5453587 100.8820629  92.7084923
 111.0829067 100.3616619  93.3055305 110.4497433 101.7273426  93.1473446
  89.2648888  43.2954550   8.2975227  89.5434380  43.6067247   9.1587704
  89.2892265  42.3411894   8.3683425 116.7508888  87.4900818  74.2897987
 115.8998203  87.0999813  74.4891453 117.3852539  86.8108368  74.5187902
   8.3461064 111.3892269  86.6661167   9.1195524 111.5142059  87.2160244
   8.3633351 112.1275425  86.0571671  75.8366299  12.9577959  86.9945621
  75.1565027  13.0799389  87.6569366  76.4163446  13.7114692  87.1047211
  69.9958849   7.9593647  94.6043205  70.8789682   7.7568609  94.9131680
  69.5628691   8.3560377  95.3602123 114.3058205  96.5428925  73.8171864
 113.3943558  96.2839603  73.9528656 114.5082664  96.2500763  72.9286480
  95.6148529  58.0178642  10.0133991  95.0132179  57.9593563  10.7555842
  95.1522064  58.5570765   9.3719667  69.6389818  13.6366546  91.8244267
  69.5782280  14.1381919  92.6374531  69.1921759  12.8124464  92.0174980
  70.8884239  51.6482544   1.0011972  70.7467937  52.4281693   0.4646283
  71.2650347  51.0076189   0.3978863  90.8021355  63.9471436   8.0253887
  91.1526299  64.8167276   8.2182950  89.9595833  64.1165876   7.6039302
  93.4562683  63.2114458   5.1471829  93.7834549  62.9990625   6.0212982
  92.9711246  64.0281487   5.2649295  14.9417591 109.7213745  92.7034950
  15.5755556 109.6740055  91.9877529  15.4767370 109.7260189  93.4972286
  20.2192163 102.1785927  84.2313480  19.4082177 101.7601776  84.5202160
  20.8746576 101.8965816  84.8693943   3.2915220  90.6653023  79.5041895
   4.0663660  90.1173496  79.3792677   3.0368185  90.9253502  78.6189032
 102.6914597  50.2402067   2.8979436 102.1377850  50.7858944   3.4564313
 103.1705666  50.8642244   2.3526984  87.7963638  43.7190580   4.3245223
  88.0700111  43.2356453   5.1040459  87.1371078  43.1590891   3.9145890
  14.5396483 103.0101204  94.3963909  14.2601430 103.3503437  95.2463055
  14.9005616 103.7706947  93.9408684 107.5366688  54.9741316   3.4337500
 107.3966217  55.8744001   3.7272346 107.2241974  54.4341946   4.1597366
  19.5090783  74.9955082  88.1751156  18.9786005  75.7897234  88.2387352
  19.7107589  74.9162340  87.2427654  59.0821218   4.3261442  90.7323742
  58.4854460   4.8866704  91.2283707  58.6018085   3.5059431  90.6192398
  96.6286945  87.5050068  77.9130983  96.8889236  87.4111748  76.9967413
  97.3721218  87.9407978  78.3297825  23.7021494 105.2362823  89.3241119
  23.4766173 106.0350609  88.8473320  24.6582866 105.2018452  89.2949867
   2.9455507  79.6379471  84.8068333   3.4585658  79.3042421  84.0708447
   3.1991374  79.0849447  85.5458355  60.9784794   1.6515431  71.4854765
  61.5305471   2.1485275  70.8817720  61.4590836   0.8372477  71.6343832
  75.7352448  73.4273624  11.8215406  76.1795998  74.0756035  12.3679519
  75.5353069  72.7069378  12.4192429  35.3190112 101.1161518  81.9254971
  36.1166811 101.6425610  81.9789028  34.6280766 101.6949177  82.2477818
  17.9793143 107.2325230  83.7043190  17.9521978 106.4423370  84.2438602
  17.2073865 107.1654034  83.1423092  26.8462157  99.8279762  78.9978838
  27.4543619  99.0913391  78.9365816  26.9625282 100.3036690  78.1754351
 114.2086506  90.8949566  70.9978294 113.5888577  91.5002632  71.4048815
 114.6420574  90.4644394  71.7347431  10.2815855  98.8577271  44.6215916
  11.0070169  99.2540169  45.1042318   9.7642285  98.4105396  45.2913666
   9.6642488 107.1192169  88.6800194   9.8746127 106.6455460  89.4847679
   8.9671826 107.7242661  88.9334869  29.7884321 109.0485096  90.7211208
  29.5964527 109.9450874  90.4462910  30.7254934 108.9430523  90.5567360
   9.7383130  71.8550253  11.6707718  10.2892935  72.0116901  10.9038889
   9.7956830  72.6656628  12.1765471  18.7318254  88.3311367  46.3580227
  19.1841340  88.7050724  47.1142101  17.9402244  88.8613796  46.2661266
 114.7123337  94.9775982  71.2073612 113.8695335  95.4263210  71.1399317
 114.5586109  94.2724419  71.8361378 114.5015812  46.6728640  17.0325708
 114.2402744  47.3620558  16.4218664 115.4359818  46.5476799  16.8668878
  93.5122395  47.9714251  17.2026587  94.1730785  48.6161566  17.4553585
  92.9725266  48.4232759  16.5539908  75.1749611  28.0924535   7.9277074
  75.1680088  28.5788941   7.1033531  74.6525669  27.3105693   7.7488464
   0.8026133 112.0070553  89.8181438   1.7080475 111.9777966  90.1272774
   0.8464909 111.6856670  88.9175797  44.5390511   7.2727549  75.6555986
  45.1025629   7.6651943  76.3224363  43.7097931   7.1133995  76.1063433
 114.2640114  50.0589180   7.4636781 113.8688564  49.6707106   6.6830486
 113.6841393  50.7863426   7.6891476  60.3831387   5.8436602  94.3058300
  60.7826853   4.9751970  94.2571831  61.0279989   6.4267540  93.9053440
  22.9168344  95.4505157  54.0137768  22.1027923  95.2739429  53.5421944
  23.1072855  94.6346283  54.4766760  27.5999999 106.1231518  86.9725513
  27.5206447 105.5177689  86.2353611  27.4936819 105.5718040  87.7477551
  65.5216885   8.2262355  81.6837597  66.3801432   7.9269439  81.9832802
  65.6058168   8.2809001  80.7318306  56.5972328  14.9640119  79.2744064
  56.7526054  14.0899491  79.6323252  56.7194939  15.5529463  80.0190163
   6.2074316 104.5891285  96.8376923   6.5273041 105.1895523  97.5110435
   5.4403526 104.1738796  97.2318935  33.4119034 105.3223896  71.4055681
  33.0804157 105.8693695  70.6934118  34.2772555 105.0409889  71.1085653
 115.5726910 111.7877293  72.7573586 115.3307724 111.5870476  73.6614799
 115.8780670 112.6944256  72.7867460  53.8822079   3.8299248  85.1040649
  53.3100700   4.4177747  84.6107864  54.5734453   4.3980533  85.4441357
  20.1775694 103.1634903  81.7483711  20.0132275 102.6879501  82.5626755
  21.1210370 103.0813313  81.6092682   8.1828010  70.3824997  90.8991432
   7.5318903  70.0738955  91.5294743   7.7325618  71.0685778  90.4063892
  25.2955675 107.4218369  75.0631523  24.4908071 107.9393387  75.0911570
  25.5644536 107.3474121  75.9787893  49.3109035   8.6085844  92.7324867
  48.4606552   9.0477568  92.7534294  49.4657326   8.3430761  93.6390018
  26.5342259 110.2205563  95.1498413  26.3404393 109.6437740  94.4109249
  26.8169069 109.6292877  95.8475018 117.3149872  93.3842659  78.2443237
 117.5266457  94.0190220  78.9288044 116.4554310  93.6563778  77.9228401
 106.6003513  59.8251772   2.0598775 106.7682076  58.8891077   1.9511048
 107.4586105  60.2360725   1.9560164  18.7469733 104.7916412  64.3129444
  18.7201786 105.7483101  64.3305063  18.4073412 104.5267963  65.1677752
  91.8911839  39.8940802  28.5596132  91.6212177  40.0519323  27.6549411
  91.6223812  38.9924765  28.7359285  14.0142727  99.0187263  87.9389668
  13.4151292  99.7651958  87.9323864  13.4917068  98.2952118  88.2849312
  23.5257220  90.8098412  86.5733242  23.4665251  90.7445621  87.5264549
  23.9114571  89.9776173  86.2997532  92.5812531  24.1444707   9.9489677
  92.6039505  25.0851989   9.7736186  93.2874489  24.0011716  10.5790412
  19.1663587  83.7206554  81.5676498  19.4924760  83.0512142  80.9662151
  18.4270191  84.1170692  81.1067104   4.4116852  90.6002808  73.6917114
   4.1440839  91.2885094  73.0826330   3.5959342  90.3129673  74.1018677
 103.1797028  38.8038945   7.5237221 102.3532486  38.6979890   7.9948723
 103.3977318  37.9222512   7.2214007  91.8912220  40.7873106   2.7843297
  92.0236397  39.8637366   2.5705457  91.8136501  40.8036184   3.7382421
 113.9871788  94.1675663  79.5781803 114.2241573  93.2494545  79.7091293
 114.1436005  94.5788860  80.4282188  10.7716691 108.8621044  72.9330063
  10.0749886 109.4411564  72.6238728  10.3784609 107.9894161  72.9261255
   7.6470757  96.7900944  81.5776062   7.5797129  96.9572639  80.6375217
   7.6964748  95.8368015  81.6484165  13.1064844  91.2493324  96.3943958
  14.0300333  91.0231495  96.2842464  12.6647508  90.8144188  95.6650352
  21.1362815  95.9948158  49.4374084  21.3275266  96.6140652  50.1418114
  21.5103221  95.1667213  49.7383833  23.2698178  94.8391438  94.1726208
  23.3894539  94.3401527  94.9806595  22.8898573  95.6699848  94.4582176
   9.3137908 105.4933357  68.8268709   9.8016828 105.3407097  69.6361256
   9.0642214 104.6185493  68.5290527  37.1610570   9.0529770  88.0797863
  37.4076605   9.8558617  88.5389137  36.2040544   9.0503508  88.0990601
  20.7357764  94.5874691  69.1197443  20.1294351  93.8859749  69.3574047
  21.4707947  94.1377544  68.7029219  87.4766154  43.5764137   0.6045076
  87.5391192  44.5136849   0.4205057  87.1667994  43.1915299  -0.2153185
  75.6595325  42.6345873  10.0033164  75.4637241  43.4268856   9.5031595
  76.2888384  42.9191303  10.6660676   9.2959785  85.2217197  59.5251703
   9.6112961  85.2895832  58.6239481   8.3508956  85.0964069  59.4394636
  16.7921197  81.7182159  88.3666229  17.5562871  81.9140911  87.8244877
  16.0428739  81.9338608  87.8113174  45.7072639  92.5186443  78.9688826
  45.9713602  91.6122437  78.8109684  44.9330616  92.6416969  78.4196138
  89.0111923  42.1198130  23.3677053  89.6609211  42.7856588  23.5929680
  88.3528709  42.1838045  24.0596199  17.9417741  89.5393848  72.2310686
  18.0133748  89.3253613  71.3008547  18.5166800  90.2957630  72.3477507
  40.4571772  14.0883231  72.9525566  41.1717224  14.5708609  73.3682632
  40.2624798  13.3764160  73.5620785   8.4865433  89.5436478  76.3923645
   7.6580799  89.1695786  76.0924482   8.3233190  90.4859829  76.4323235
  52.3769712  82.9694748  86.3512707  52.6242018  83.8938046  86.3782501
  51.8702936  82.8805256  85.5440521  68.1689978  26.6881800  81.2539387
  67.7338934  25.8892298  81.5515804  68.4763622  27.1072102  82.0577908
   0.7536012  60.9009552  20.6506515   0.1300089  61.2531853  21.2857080
   0.7227091  61.5162325  19.9180472   9.1699302  98.1401634  64.2994070
   9.5727897  97.7687073  63.5145760   9.7590572  98.8486671  64.5585966
  54.2658854   2.3343807  87.7469921  55.0013638   1.7220734  87.7666283
  53.7350082   2.0955059  88.5068226  17.0221961  97.4864674  82.3397541
  17.0445371  96.9297886  81.5613937  16.5953660  98.2914257  82.0463467
   1.8698493  83.1931782  83.2333755   1.1543407  83.8006973  83.4209919
   1.4597973  82.3283768  83.2479000  20.3173637  93.6702442  83.2693577
  20.4842448  93.0335236  83.9643097  21.1496305  94.1305733  83.1613636
 108.4704304  84.9199295  73.3775187 108.4988499  84.8155117  72.4264574
 107.7059364  85.4740143  73.5348988   9.8915088 100.1146317  95.4736137
  10.5026913 100.6990528  95.9221077   9.5111257 100.6528568  94.7794533
  28.9045954  94.4903088  88.2451439  28.3324790  93.7257004  88.1796551
  28.3838725  95.1392365  88.7183952 117.4806690  99.3171692  72.8070021
 116.9526863  99.2212105  72.0143795 117.0047951  99.9576759  73.3357000
  67.0538044   5.0484931  80.9850025  66.5860462   4.2369479  81.1820602
  67.5467300   5.2405846  81.7827225  25.9448791  76.6660404  84.5513344
  26.1672735  76.8525648  85.4634666  26.1803222  77.4647474  84.0792561
  41.2617636 103.0227757  72.6235390  41.3652039 103.1614494  71.6821051
  42.1509838 103.0799580  72.9731846  57.8946543  16.5334976  96.0733509
  58.1049871  17.3478854  96.5302658  58.0157995  15.8505833  96.7330360
  23.5211825  74.7399759  71.9593048  24.3114805  75.2029848  72.2373104
  23.3346701  75.0869751  71.0869312  14.5229983  73.9233065  91.8249702
  14.8498213  74.1690922  92.6904202  14.7988188  74.6392250  91.2525845
  27.8573394  86.1549282  85.7521725  28.1805253  86.5229702  84.9297810
  28.6094213  86.1920834  86.3431263  14.1555917  91.6745281  92.8505325
  13.7964129  91.9469261  92.0061302  14.3560040  90.7454395  92.7370644
  21.3078737  97.6849079  81.9362164  21.6417146  98.0384922  82.7606869
  20.4624677  98.1171608  81.8150806  93.0157185   7.6937521  81.0190010
  92.3920918   8.3441734  81.3419247  92.5073910   6.8851233  80.9560966
  92.4948597  43.7765312   4.4967979  92.3445129  44.0465879   3.5908744
  93.4413338  43.8550615   4.6162015  70.1843071   4.2648453  80.1820755
  70.0166798   4.9948618  79.5860863  69.9851418   4.6142167  81.0507011
  27.2406268  99.9724770  76.0930300  26.7407227  99.4879723  75.4360771
  28.1251216 100.0242329  75.7307863  24.5025063  62.4749374  67.1665955
  23.9723730  62.9993868  66.5664768  24.1533113  62.6778507  68.0344248
   4.9540791  68.3919096  64.9530888   4.8423803  67.5664282  64.4815636
   4.8023188  69.0676117  64.2923164  10.2697933  58.4603739  64.5138741
  10.0179422  57.6007366  64.1764879  10.0399327  59.0697241  63.8123846
 112.0529175  52.2757912  85.1585007 111.2839699  52.1813345  85.7206535
 112.5128746  51.4402533  85.2394390   0.6624544  82.1873569  90.4021072
   0.3657714  81.9374561  89.5270348  -0.1239825  82.5177574  90.8363724
 117.2265530  49.8362255  83.9401436 116.6558552  50.5760384  84.1480446
 116.8513584  49.1008043  84.4245148  41.2638807  77.6557970  70.2984667
  40.9146023  78.4766674  69.9514627  41.4043140  77.8297138  71.2292004
 107.3853970  20.3906989  13.1036055 108.1943130  19.9257100  13.3173442
 107.5050640  20.6754684  12.1976149   1.9150469  83.0704784  75.6652498
   1.1960758  83.5169220  76.1124706   1.4834136  82.4868584  75.0412989
  33.3090019  64.2671347  69.8836088  33.6725307  65.1432943  69.7554493
  32.6135135  64.1983652  69.2295456  24.6593142  75.1952410  51.3801575
  24.3100667  76.0732460  51.5330172  24.4154334  74.9944258  50.4765892
   3.0479866  84.8859692  63.4090805   3.3073166  84.3475914  62.6613283
   2.3695265  85.4657269  63.0629539   5.1746923  69.8570395  31.2880182
   6.0006058  70.1175737  30.8803177   4.5166045  70.4153728  30.8739996
 118.9854145  59.8949194  48.8530874 118.3481407  59.9496460  48.1409597
 119.0858459  58.9565372  49.0130377  12.0009172  46.0043669  70.0174904
  12.5537121  46.7850304  69.9825954  11.5235770  46.0116148  69.1878366
 115.8411503  70.3922653  56.4004755 116.5865135  70.9851313  56.3046455
 115.6262970  70.1309538  55.5050468 113.2810307  69.5804358  64.0361500
 113.1564236  68.7897015  64.5609760 113.6096764  70.2306461  64.6569967
 112.3718929  79.0078402  66.5207529 113.0547619  79.0632296  65.8522844
 112.6624298  79.6051264  67.2100067   9.8742098  85.9044361  84.9086285
   9.6629721  85.1250076  84.3947220   9.5627058  86.6351414  84.3745327
   3.3124945  73.3360910  89.8664379   3.6791921  73.7018538  89.0614700
   3.8406289  72.5563240  90.0375175 105.8905315  58.1752300  60.3475094
 106.0475445  58.0505657  61.2834787 105.4246426  57.3845673  60.0754118
 107.1086025  41.1019087  59.9295759 106.4740753  41.8161726  59.8709822
 107.6088810  41.2904930  60.7235479 115.1314354  61.3687515  81.0719299
 115.1564407  60.4239464  80.9204197 114.2557144  61.5320635  81.4221764
 113.0879974  63.2247019  56.7279911 112.8957748  62.3332739  56.4370632
 113.5767841  63.6132622  56.0024977  22.1705770  84.6111107  62.0772362
  22.9022694  84.7455311  62.6795578  21.5482974  84.0776348  62.5716066
  22.2960377  70.2179003  37.0851636  21.5890932  69.8794842  37.6346517
  22.6218963  69.4506550  36.6146469  28.5500513 104.4740478  -0.0178507
  27.7313505 104.6313945  -0.4881648  28.2774911 104.2783681   0.8786127
 115.7887745  50.2397346  72.3356819 115.3591061  49.9388027  71.5350199
 115.1645470  50.0381327  73.0327749  98.9189529  17.8012526   2.8979832
  99.0418053  17.9828227   3.8297406  98.3510303  18.5072076   2.5892445
  21.8343544  76.0300207  59.3317223  21.0574317  76.5879440  59.3683863
  22.1828055  76.1622620  58.4500647 117.1563911  61.0517693  62.8812075
 117.1012020  61.9666576  62.6052284 116.2466049  60.7875681  63.0180216
  64.7217131  11.0417175   8.6616778  64.9213123  10.4148006   7.9664326
  64.4644213  10.4989719   9.4069695   6.8381447  88.6951447  46.2551880
   7.3532772  89.5010471  46.2179613   6.1895257  88.8569069  46.9402838
 107.7713680 106.6405678  62.5946522 107.8562832 107.2981071  61.9042444
 108.1732082 105.8535957  62.2266340  54.9669123  30.7068634   9.5298326
  55.2422142  30.2183795   8.7540591  55.7599974  30.7799459  10.0607836
  31.1902261  67.1470547  88.6617470  31.5474701  67.2414303  89.5447540
  31.3815308  67.9824495  88.2354355  95.3955364  83.1353283  68.4500122
  96.1084270  83.1912136  67.8136873  95.8356094  83.0626011  69.2969370
 118.8053608  65.8548260  51.2954712 118.7804604  65.5256510  52.1939468
 118.2187366  65.2738190  50.8111858 104.4227123  42.2731209  82.0149231
 104.6066761  41.3346863  81.9733334 104.1276073  42.4986744  81.1327267
  72.4374151  19.6562743   7.0457447  72.3618078  19.3118262   6.1558735
  73.3556223  19.9147236   7.1253228  19.5005572  48.5996628  59.5771408
  18.9747643  47.9104519  59.1712379  20.1966763  48.1304216  60.0369883
  94.5797825  48.2801008  69.9035883  95.2360153  48.9025831  70.2168036
  94.5792294  47.5825644  70.5590820 118.7956715  81.8066978  69.0382862
 118.9960766  81.0072327  68.5515261 118.4571362  81.4970970  69.8783875
 101.3082409  55.5857658  82.8291225 101.8325520  56.1919212  82.3057556
 100.6020260  56.1253309  83.1846046  73.2991028  13.2131004   3.6288753
  73.9345455  12.5761366   3.9555609  72.7520037  12.7155387   3.0211371
   0.4398494  68.1692266  81.1960125   0.1215936  67.8287601  80.3599262
   0.6674664  69.0806675  81.0124207   6.5705931  79.3589115  56.1355352
   5.6279999  79.1976213  56.0938740   6.6698122  80.2709961  55.8626127
 116.3090420  56.8305540  81.0786438 117.2364521  57.0653391  81.1106873
 116.2934399  55.9739876  80.6516933   6.4408189  44.3734694  60.7655382
   6.7070907  45.1606894  60.2905512   5.5549699  44.1923237  60.4513884
 101.7162037  79.0812111  70.2073336 101.6486263  78.1272984  70.1659250
 100.9627533  79.3965912  69.7082615  11.9266701  67.4457598  55.9517241
  11.5447009  68.3170033  56.0578728  11.3110125  66.8591642  56.3911581
   8.9390820  42.0385313  53.3472490   9.2939895  41.2665319  52.9064655
   8.1550103  41.7197895  53.7943125   1.3423142  82.2643280  66.5906525
   1.3209808  81.4874458  67.1494198   1.3569218  81.9174576  65.6986332
  23.8513398  42.0738459  94.3288994  24.2735481  41.3760710  94.8299885
  23.8836837  42.8366089  94.9062920 115.8488083  37.4662566  76.2066603
 116.7450142  37.6823664  76.4642572 115.9476376  36.7713428  75.5558443
  69.7928810  23.3346200   3.0868396  69.9879503  22.5899196   2.5179815
  69.9590015  23.0099583   3.9718431  18.7155545  34.4318628  73.7739229
  17.8684902  34.8774791  73.7620592  19.2574465  34.9629927  74.3574381
 114.8767567  77.9577732  60.9804058 115.6083202  78.5340595  61.2016392
 114.1398907  78.5511684  60.8350039  10.7712209  79.2408895  72.9482841
  11.4480174  79.8967505  72.7808619  10.4148388  79.4776630  73.8045311
 108.8828659  84.9468803  82.0359707 109.8190403  84.7584248  81.9705486
 108.7718868  85.7745075  81.5680313  25.1183224 107.9197025  64.3409681
  25.1937938 108.0780792  63.3999825  25.6775355 107.1596146  64.5015287
 113.8610649  54.0360498  69.6303129 113.1821918  53.7697458  70.2503538
 114.5346260  54.4450521  70.1736975  20.4061079  65.4817486  81.4963436
  20.6394410  66.2651300  81.9944382  19.6256423  65.1427937  81.9347572
  10.6397033  94.8234749  61.2471771  10.7264996  95.5782795  61.8293905
  10.1152968  94.1961479  61.7448664 104.8640060  62.4403095  65.5135202
 104.0995789  61.9949579  65.1480913 104.7119045  62.4407387  66.4585543
   0.2716610  73.2097626  70.8206940   0.5700540  73.0104446  69.9333000
   0.9191413  73.8289833  71.1576891   9.3830472  80.1793194  62.2441053
   9.8000968  79.3223810  62.1548367   8.4716338  80.0294590  61.9929075
 112.0338726  75.4551744  51.7035055 111.1957836  75.6901598  52.1017694
 111.8144894  74.7734118  51.0684443  20.6110597  62.6210785  86.7623615
  19.9923444  62.1432972  87.3147678  20.9818292  61.9535017  86.1852169
 102.8370953  61.0149956  81.1066628 103.6281776  60.4870558  81.2147903
 102.9667187  61.7629242  81.6897869   1.7579275  86.5940189  66.3852692
   1.1186258  87.2790337  66.1896276   1.4358933  85.8246517  65.9155798
  20.6962323  87.9746056  32.8514862  21.0054564  87.0766163  32.7322149
  21.1765671  88.4821892  32.1973705   0.3987902  77.5852680  54.4647455
   0.9815922  76.9804573  54.0056419  -0.4794461  77.3373795  54.1758060
  22.9858327  64.3172789  59.8993921  22.5684500  63.4562922  59.8725414
  22.6569247  64.7672701  59.1212177  20.0109649  93.8769913  61.3186741
  20.4472494  93.1251812  60.9178305  20.7231116  94.4767761  61.5407944
   3.3136606  61.6490221  77.0886755   2.9791081  62.0604944  76.2918091
   2.8669515  60.8033323  77.1272421 117.6047707  64.4749928  79.4108152
 116.8353081  64.7251844  79.9222517 117.8359318  63.6048985  79.7359800
  17.8345478  85.5115032  73.1918001  18.4111524  85.0466347  73.7981415
  17.0352721  84.9852657  73.1703091 117.4621391  44.7560978  90.8729935
 118.1814766  45.0226307  90.3005028 116.7755508  44.4625902  90.2740955
 115.1571560  34.5169091  70.8269215 115.8002758  35.2177715  70.7200861
 115.6784344  33.7451792  71.0481310   1.2074436  58.9502907  89.7520638
   1.8625322  59.4463968  90.2429390   1.0207474  58.1898880  90.3026676
  18.0253303  57.9486942  77.5174713  17.5500047  58.0922270  76.6991234
  17.9915655  58.7939072  77.9654741  12.4388564  70.3731108  81.9639015
  12.7439868  71.2465048  82.2094917  11.5401936  70.5090141  81.6636181
   7.7259535  81.7367363  84.8451614   7.9731041  82.6612568  84.8248672
   6.8108577  81.7395496  85.1259136   2.4648272  63.6586523  57.2876787
   3.1500924  63.9687634  56.6956711   2.7616021  62.7916861  57.5643158
   6.8030977  75.8183050  61.0501242   7.3523504  76.6018867  61.0735559
   7.0488185  75.3778124  60.2366018  24.2967105  53.9571333  56.1144209
  24.1967750  53.0591774  56.4305258  23.7309861  54.4765329  56.6857481
  94.7008991  95.0764275  71.7798042  95.2889824  95.8228207  71.6645956
  94.6766376  94.9344444  72.7261066 104.5931339  54.9108601  89.9172306
 104.8532677  55.1599741  89.0303802 104.5470333  53.9550591  89.8937321
 108.1810951  55.9243155  64.9132109 108.9599419  56.1525393  65.4206944
 108.4833717  55.2562046  64.2979956 111.0122967  80.4748344  69.1190481
 110.2348614  80.0513458  69.4830227 110.6668854  81.1818314  68.5739899
 109.4358253  75.0175190  89.1183853 108.8656425  74.2531109  89.0359211
 109.7934437  75.1454735  88.2397747 102.6053238  52.7407789  63.5116434
 102.3602962  53.6638021  63.4466696 103.5602760  52.7504683  63.5765171
 117.2129250  80.2584553  66.2362003 117.0100689  81.1299801  66.5760994
 116.7172909  79.6614408  66.7966986  80.1304436   9.9291086   0.8615784
  79.2496824  10.1900721   1.1306396  79.9903631   9.3511075   0.1115623
   2.5696453  59.1906166  95.7004166   3.2465103  59.0779543  95.0330353
   2.6059592  58.3854055  96.2166977 113.3380222  23.6974025  76.2618923
 113.4410477  24.5648241  75.8704901 112.3968124  23.6138630  76.4147568
  75.6114864  37.1689892   8.7336689  76.1203718  37.1485472   9.5441300
  75.7463312  36.3050079   8.3443296 118.6495590  55.0149965  82.6148033
 118.1465626  54.3712425  83.1136131 118.9005089  55.6754398  83.2606125
  35.7154155  63.4835529  68.4463835  36.6461444  63.5504627  68.2330799
  35.6356740  63.9008427  69.3041372   6.1484355  72.0208073  77.5819254
   5.6386685  72.1904898  76.7897272   6.6595584  71.2384367  77.3748493
 117.7125835  58.7730885  76.8098497 117.4622250  59.0801144  75.9384775
 118.2017517  59.5029879  77.1895885 119.0532303  60.7253790  78.1897926
 119.8239326  61.1747122  78.5367060 118.3546925  60.9345341  78.8099003
 117.4722672  80.6641388  56.5170765 117.5604343  80.6896877  55.5642891
 116.7869568  81.3035297  56.7114210 112.1965122  72.1186972  39.1263747
 112.3501205  71.4792585  39.8218989 112.8663063  72.7884102  39.2645335
  22.4248362  53.2298422  84.6275997  22.0387459  52.8714132  83.8284111
  23.3274150  52.9111814  84.6213436 103.3331394  60.0137854  83.7417221
 103.5753155  59.9647188  84.6664810 103.9666557  59.4498920  83.2979774
   8.3301455  65.6338978  66.1268044   9.1565180  65.6566381  66.6093206
   8.5125381  65.0834608  65.3652382 118.3787060  53.3707857  61.3182640
 118.0082989  54.1537380  61.7257214 118.5188293  53.6196947  60.4046822
   5.2923602  58.8641405  67.5518513   4.9773568  59.1813231  68.3982563
   5.7949156  59.5958996  67.1938086  13.4237170  71.6391325  55.0798845
  13.5023952  72.5927448  55.0541019  13.1489205  71.4456224  55.9761381
  28.1782222  57.5315809  84.7079754  27.8605342  57.6934862  85.5962849
  27.9005456  58.3007002  84.2103958 112.2289753  82.7910328  95.9303761
 112.8956032  82.2001934  95.5800056 112.7268982  83.5088062  96.3216591
  19.3540108  80.6285477  74.7505188  20.1747870  80.8710384  75.1791906
  19.6232557  80.1007652  73.9987326   4.2366156  64.5455933  86.7535400
   4.1522807  64.4489574  87.7021027   5.0981361  64.9437237  86.6289997
   2.0049728 102.2164154  61.5626621   1.7929280 101.3253689  61.2846231
   1.6481297 102.2822475  62.4484158 117.7930069  75.9885311  78.1438255
 118.4043407  76.3266659  77.4894762 116.9332409  76.0638046  77.7298498
 103.3105850  70.6339550  58.8758993 103.9280510  70.6798458  58.1459188
 103.8375854  70.3350306  59.6169424 106.7459106  77.2579193  69.8888254
 107.1223831  78.1378126  69.8720169 106.1310959  77.2744274  70.6222820
   8.2916534  34.9100876  94.1986752   8.1352967  35.7569027  94.6166325
   9.1932094  34.6900535  94.4332218  16.0501015  55.7116508  35.0315166
  16.8288732  55.2837181  34.6756792  16.3690603  56.1931038  35.7948661
  19.0915954  64.4518518  39.3137383  18.3158982  64.5415354  38.7601304
  19.6525812  63.8361645  38.8420844 105.7962990  88.9324665  54.2973089
 106.0464573  88.1626797  53.7863493 105.3920364  88.5743427  55.0875950
 105.7209873  71.7917776  46.5283680 106.4688778  71.2605429  46.2550974
 105.8837700  71.9767237  47.4533129   0.7927790  76.1278105  71.8116379
   0.3175743  76.0112381  72.6343298   0.1336493  76.4527273  71.1982775
  24.3292737  78.3773041  77.4128199  24.3130445  78.4424686  76.4579821
  23.5077763  77.9401588  77.6370525   1.0497374  57.2068834  62.1893978
   1.0042378  58.1305981  62.4361992   1.8435845  56.8838930  62.6156807
 104.8680973  59.5211267  63.9046097 104.6045303  60.2348375  63.3237600
 104.1856003  59.4936132  64.5751905   5.1181281  51.9366455  88.7085629
   5.3740287  52.5572824  89.3908787   5.8297163  51.9763374  88.0695820
 111.9072723  58.3643723  63.8419962 112.2197247  58.8170099  64.6254015
 111.0949230  58.8156986  63.6125803  13.2843316 107.2259045  65.3807497
  12.6225293 106.5427017  65.2735806  13.0764842 107.8691196  64.7030306
  12.1279502  62.0713043  74.4258070  11.6323292  61.2565851  74.5084429
  11.9829762  62.5251007  75.2560329  12.6612866 100.8130646  78.8696527
  12.3248327 100.6216908  79.7450972  13.6129761 100.8059216  78.9719677
  17.1132720  72.5269556  65.0479078  17.8078079  73.1396818  65.2896070
  17.2594321  72.3539782  64.1178799  70.2047777  21.2936926   1.5222304
  69.7272491  21.2107706   0.6968078  71.1018848  21.5004969   1.2602034
  15.8449399  68.8675213  77.9300356  15.2606428  69.2631149  78.5768270
  15.4488897  68.0176067  77.7376223  13.8589871  99.5710278  70.6539965
  13.5303688 100.3920174  71.0203600  13.5992861  98.9041615  71.2896681
 112.4038410  84.6113682  90.3551197 111.5546989  84.2739391  90.6403160
 113.0010700  84.3924046  91.0703945  33.0691481  58.7476873  92.5968647
  32.8127861  59.6637487  92.4903584  32.6635003  58.2977295  91.8557739
   8.0664027  78.2617378  60.1521635   8.6304975  78.3256721  59.3814850
   7.5440395  79.0636301  60.1338243  18.7085783  53.8996029  71.5525389
  19.5035827  53.8356352  72.0817900  18.4393799  52.9915476  71.4139795
  15.8831596  79.0679359  74.2141867  16.2377250  79.1555262  75.0989676
  15.6344378  79.9584770  73.9665794  28.1942701  77.1939230  59.5633936
  27.9702282  77.4863815  58.6799335  27.3668790  77.2267389  60.0435829
   5.4265040  99.7735214  69.2003059   4.7543705 100.4241371  68.9974213
   5.5695403  99.8627377  70.1425457  18.3463120  70.1775694  59.8921728
  19.0754592  69.5704174  60.0184393  18.7283337  71.0435867  60.0346756
   5.7266158  75.8900213  72.3297024   6.4265561  75.3753138  71.9279623
   6.1035299  76.7631435  72.4384165  17.8756809  60.5021048  78.4966612
  18.0669355  61.0192966  77.7142525  18.6963546  60.5006599  78.9893341
  66.9527864  10.3949785  94.4649410  66.2470388  11.0068583  94.6741199
  66.8546247   9.6887523  95.1035690  12.3415184  71.0635376  52.9066181
  12.7851188  71.4540148  53.6595964  11.7334437  71.7403889  52.6093817
  32.2314858  91.2151337  69.6057653  31.6175842  91.5542984  68.9543629
  32.5523567  90.3958988  69.2287588  23.1199193  78.0923080  71.8774223
  23.0091166  77.3663187  71.2635040  22.6617646  78.8254642  71.4665556
   0.4137636  82.6150703  62.3353577   0.0262856  81.9087315  62.8522444
   1.2221207  82.2402763  61.9856167  23.8365889  95.0435448  77.5355577
  23.3407211  94.7853947  78.3125448  24.5869279  95.5277252  77.8802204
  18.5698187  75.1447392  58.8367128  19.0955400  75.9402752  58.7532377
  17.7550173  75.4378128  59.2446804  47.3816204   6.1547267  82.7503109
  46.6347837   6.6487813  83.0885124  48.0654669   6.2731701  83.4095192
  33.5686755  87.8154469  80.4266071  33.8479400  88.7028694  80.6518078
  32.7787709  87.6733112  80.9482193  93.7851620  18.2100439  12.5855184
  93.3689499  17.5859225  13.1800532  94.5994473  17.7821553  12.3207724
  69.2129469  11.0523629  82.1708298  68.7452602  10.7870150  82.9627132
  68.5465336  11.4756536  81.6295719  11.2748706  83.7687397  79.1227818
  10.6798816  83.8554668  79.8675585  11.6928327  84.6267033  79.0489531
  25.2395344  63.4571695  61.6991425  24.7391701  62.7654123  62.1319675
  24.5955515  63.9178658  61.1612988  28.2725501 101.3842964  36.5486813
  28.1508541 101.9091606  35.7575202  27.4476290 101.4751625  37.0256305
  24.2093396  78.3341599  59.2728758  24.2891121  77.4730539  59.6832037
  25.0057340  78.7976599  59.5320129  61.4081764  19.3254375  80.2258205
  61.7869234  19.5766950  79.3834114  61.5399408  18.3786154  80.2748108
   6.7924249  72.8941011  90.1362801   7.1745861  73.3909941  89.4128895
   5.9689999  72.5549984  89.7852612  44.3240356  62.9394674  76.7281389
  44.1104412  62.1710730  77.2574615  44.2038107  62.6485395  75.8241796
  10.6524932  72.2148752  84.5426273   9.9550539  71.6303158  84.2458153
  11.3014627  71.6323853  84.9373150  10.5540371  74.3532705  81.1600685
  10.5048013  74.4303989  82.1128845  10.3353322  73.4385204  80.9821987
  21.0117269  74.8193169  63.1139278  21.3048267  74.4553041  62.2785711
  21.7228770  74.6225119  63.7236547 110.4476070  71.8245983  50.4938602
 110.3774071  72.3841047  49.7203875 109.8484898  72.2173357  51.1287260
  21.6689992  63.0172825  83.1621552  20.8303022  63.4570789  83.3014393
  22.3253202  63.6729288  83.3979511 112.2921562  82.2623444  72.5160027
 111.5488625  82.6084137  73.0099344 112.1881294  82.6294041  71.6381216
 102.5811958  66.9182682  72.4342346 101.8761921  67.0430326  71.7989111
 102.5059509  67.6671267  73.0256510 116.5890026  85.1295185  60.9246635
 116.5557289  86.0516453  60.6701040 117.0437908  85.1298141  61.7669201
  37.1910763  52.0633698  78.1879711  37.2559094  51.2346077  77.7134371
  37.5196791  52.7183294  77.5721169 117.4031734  90.9560204  61.3443947
 116.8941498  91.6393089  60.9082222 117.1217632  90.9943676  62.2584915
   0.2539452  77.7295065  65.5473900  -0.4019609  77.4642754  64.9026632
   1.0737303  77.7647209  65.0544930  32.6294327  78.7068987  72.9908133
  32.4634671  79.1787481  73.8069296  33.2378840  79.2675591  72.5094795
  35.3359747  92.2473907  79.4900799  35.3608847  93.1995201  79.5851755
  34.7024894  91.9576073  80.1465511  20.0846267  68.9881754  79.2648602
  19.9822187  69.9391270  79.2269897  19.5288968  68.6591101  78.5583830
  24.9784636  96.3708687  62.0491409  24.6439767  96.7878723  61.2551260
  25.9244704  96.5124512  62.0137167  14.4647253  92.7152634  73.6202431
  14.6910870  92.1199894  72.9056549  14.9059081  92.3484230  74.3864155
  29.3656921 103.1179333  63.7847090  28.7811279 102.7495003  63.1223106
  29.9708104 103.6701679  63.2896423  48.7496853   9.0115148  85.3604126
  49.5115280   9.5769268  85.2333832  49.0917063   8.1229872  85.2615547
 115.2186871  91.7905331  91.9608402 114.9676991  91.4666462  92.8259087
 115.7555008  92.5623894  92.1405602  29.1315627  95.7007313  85.8708954
  29.2736888  95.5357361  86.8029976  28.4015274  95.1283646  85.6349277
   4.5568514  72.4503517  79.8372221   4.5244601  71.5280247  80.0911808
   4.9459648  72.4444628  78.9626980 118.6779022  61.7215538  69.1903782
 117.9705238  62.2653103  68.8437223 118.2422638  61.1148357  69.7889996
   1.1883464 111.3876534  70.4112625   0.9351172 112.1401024  70.9459829
   1.9237688 110.9957790  70.8822393  12.6320040  61.4727592  80.6042480
  12.1919811  61.5236759  79.7557116  12.3753917  62.2768259  81.0557556
  98.8473606  65.9633589  72.2334385  99.2427826  65.2246809  72.6962900
  99.1585255  66.7359066  72.7052164 116.2120628  95.3873730  82.5453568
 116.4565182  95.1234722  83.4323883 115.2564335  95.4384327  82.5654602
  12.7955103  85.4512119  54.2859745  12.7701211  85.4826546  55.2423239
  12.2407520  86.1798763  54.0075636  39.2620063  83.2302856  59.2858219
  39.6201348  82.6088715  58.6519289  40.0293016  83.5769939  59.7411060
  27.8067660  64.3968105  61.0411549  26.8898606  64.1912985  61.2235880
  27.9488659  64.0849972  60.1473904  15.8530521  88.1121254  38.8359404
  15.8104837  87.2833061  38.3589935  14.9436104  88.3036137  39.0650201
   4.2094421  79.0462589  65.4364491   4.6287727  79.5790911  66.1120796
   4.8648590  78.9808702  64.7419071  19.0935326  87.3168564  24.0178132
  19.0318382  88.2432461  23.7849402  19.2568183  86.8712902  23.1865263
   4.0277120  90.1292229  66.5225267   4.4236916  89.7959900  67.3277473
   3.0862340  90.1144218  66.6946650 112.5354767  89.5257378  79.4313765
 112.8199673  90.2919483  79.9295998 113.1257153  88.8258171  79.7105885
  17.1267593  88.7460232  67.0335102  16.5891922  88.9259911  67.8047848
  16.4969134  88.6550903  66.3184881  24.3578410  92.6978111  75.8706999
  23.5514402  92.8726482  75.3855419  24.3696594  93.3596611  76.5621138
  17.9488361  71.9224644  70.8224535  17.7429807  72.5358963  71.5278339
  17.2025859  71.3234091  70.8006191   8.8725770  82.9219437  68.1908703
   9.0334547  82.8447628  67.2504473   9.7155499  83.1896305  68.5568905
   9.1458380  85.5142498  64.9213219   9.1628671  84.6538067  65.3403425
   8.9955926  85.3265285  63.9948130 114.4464779  78.3107185  80.2307987
 114.0989876  79.0809298  79.7810650 113.7891674  77.6306200  80.0837040
  33.8590074  72.9265404  70.9232759  33.0638266  73.0922318  71.4297009
  34.4409513  72.4726582  71.5328360  34.9215174  90.8591557  94.5328808
  34.5988560  90.8911133  93.6322784  34.6207166  90.0133991  94.8652077
 114.0054512  80.7024765  64.6381521 114.5845795  81.3445377  65.0487614
 114.5114517  79.8899555  64.6366596   5.1167250  85.6710625  90.7340240
   5.0806034  84.7199154  90.8352852   6.0044372  85.9070492  91.0032940
   8.5955107 111.3731194  79.1954231   7.7958930 111.3992596  79.7209358
   8.7969226 110.4410744  79.1119957   6.6034931  89.3506622  67.7478027
   7.1506119  89.5601654  68.5047722   6.0307217  88.6473370  68.0535746
   6.6537392  69.4559622  93.1064701   6.2238330  70.2976227  93.2581997
   7.1149498  69.2716408  93.9247227  19.4900966  58.9865971  90.9551144
  19.2132843  58.1268740  91.2721062  18.8104844  59.5858669  91.2637138
  35.6368661  77.7931929  89.6050453  35.5146337  78.3316040  88.8231182
  36.5865064  77.7373743  89.7113609  81.2315655  11.4526904   2.9068854
  80.7187176  11.0163248   2.2265895  80.5798531  11.7671549   3.5334778
  13.8344741  74.2123127  55.4118872  14.4384658  74.0946531  56.1450911
  14.2378604  74.8956442  54.8765659  14.2305386  78.2924175  71.4261675
  14.4195974  77.5167990  70.8980465  13.4266520  78.0717373  71.8965912
   5.8856791  91.1974621  78.4674835   6.0111094  91.6164494  77.6160431
   5.6027800  91.9070625  79.0442610  38.3234191  63.5874891  82.6985359
  38.3524609  63.5022831  81.7455769  39.1486740  64.0158129  82.9259682
   1.5536578  74.4026423  87.1030712   1.1241577  74.0064955  86.3449001
   1.8191823  73.6587286  87.6437378 110.6638718  56.5528727  75.6505108
 111.2569523  56.1886883  76.3076639 111.1760998  56.5575027  74.8419142
   7.4200159 104.0313053  84.1540527   7.1854770 103.1125355  84.0233326
   6.5819699 104.4773865  84.2761993  14.4184554  55.8951473  82.5822544
  14.6260095  56.0501242  81.6607666  15.2695119  55.7669258  83.0011749
   9.9013126  89.7108746  78.9314175  10.3571594  90.5498409  78.9990091
   9.5237029  89.7136402  78.0518532   6.1862016  75.5150843  75.9705019
   6.3658077  75.7052898  76.8912601   5.8981347  76.3515043  75.6049156
   4.3280640  48.2772446  88.3744240   5.1559639  48.7576580  88.3701611
   4.5808873  47.3631859  88.2448006  54.1959000   3.8871330  60.4134512
  53.5977507   4.5669594  60.1031494  53.8225555   3.6020929  61.2474775
 113.1800270  89.8135757  61.6234589 113.0781651  89.8377895  60.6720018
 113.3320713  88.8901901  61.8246365 106.0174942  15.7866621   6.5299475
 106.9219398  15.8082366   6.2173140 106.0942841  15.6796396   7.4780405
   7.2677022  94.5514774  44.3552303   7.5372374  93.7352753  43.9340258
   8.0880380  94.9627876  44.6274424   5.5344850  83.7994099  97.3712063
   4.9547786  83.6183453  96.6313553   6.1449635  84.4587708  97.0413780
  20.9632492  86.1361790  74.5329714  20.9746432  86.7173386  73.7724781
  20.5410051  86.6504097  75.2210855   4.1741142  66.1088324  51.6784382
   4.7673601  66.3530207  50.9680414   4.1472581  65.1524353  51.6499901
  17.1206057 108.2273197  69.5862770  16.4662457 108.0755329  68.9043617
  16.6589808 108.7372398  70.2519512  27.0110273  49.0539455  87.0877171
  27.4597740  48.6014557  86.3735008  27.3508787  48.6429787  87.8826046
   1.0588953  87.2201920  76.1803436   0.5415000  86.7791939  75.5065107
   0.5920126  87.0407963  76.9964743 119.2342949  92.7914143  76.3055372
 118.4746552  92.3671627  75.9065390 119.0981960  92.6895714  77.2475195
  18.7547874  94.1514874  74.3081713  19.2017639  94.3886662  73.4956503
  18.1310534  94.8626041  74.4547892 114.4479561  82.2122192  86.3941383
 113.9746284  82.9276466  86.8188286 114.9064827  81.7707443  87.1090412
   9.6856576  85.5752850  56.9158363   9.3447721  86.2932301  56.3823843
   9.1192371  84.8322868  56.7075968 111.9612789  71.1431789  82.6035500
 112.1505928  71.9735718  82.1667004 112.8022099  70.6864166  82.6245403
 117.5963020  97.8009415  82.8174496 117.2523308  96.9555473  82.5289536
 118.3787537  97.9361725  82.2829342  93.7959194  13.0715442   5.5356365
  93.7734127  13.8316393   4.9542749  93.2439423  12.4212992   5.1011968
  17.8808713  91.5238190  67.7240849  18.3900774  91.6897488  66.9307280
  17.8902507  90.5714703  67.8198957  16.9893014  60.0385761  62.1372223
  17.1680868  60.4286242  61.2815762  17.6574576  59.3602467  62.2355556
  77.6705933  17.6489246   3.5613123  78.1265354  17.2422445   4.2981702
  77.5669289  16.9421005   2.9242197  18.8032341  91.5538788  75.5532503
  19.4228911  91.9888592  76.1389494  18.9831150  91.9304752  74.6918249
   3.6554977 105.5015278  69.9820614   4.3327996 104.9904251  69.5390415
   4.0295541 105.7021141  70.8400154   5.6129402  77.5808907  69.4115305
   4.9553448  76.9430113  69.6888542   6.0430372  77.8498220  70.2232695
   8.2123286  91.9867325  70.5962038   8.3608621  92.5326061  69.8240709
   7.2822767  92.0983601  70.7931232  42.1539783  98.7856483  68.8432980
  42.1324873  99.6886444  69.1601038  42.2367287  98.2556057  69.6360397
  11.0189283  69.0998840  73.4712267  10.4427111  68.9027739  72.7327442
  10.8922946  70.0351429  73.6308527   6.0688144  83.9693451  80.1435852
   5.7447827  84.6440887  79.5469618   5.3330773  83.7953377  80.7306480
   8.7712550  93.0618382  72.9434061   7.8509688  93.2596684  73.1170988
   8.7932152  92.8174305  72.0181990 114.7757149  85.7716370  48.6607409
 115.5322266  85.2955627  48.3182812 114.0187359  85.2859020  48.3332253
 118.0077457  84.7245693  63.3298731 118.6235619  84.1021729  62.9430580
 118.1473637  84.6446323  64.2734528  22.6873446  75.9484816  87.9913425
  21.8748355  75.5483150  87.6816177  22.5529099  76.8883801  87.8698540
  15.8037746  94.7077274  89.4093037  15.4788494  94.3473244  88.5842133
  15.1864576  95.4067612  89.6249294 103.7951565  80.7964420  66.5375042
 103.8755417  80.1770496  67.2628450 103.4602642  81.5967560  66.9419527
  32.3247218 107.5159359  75.4644966  33.2401609 107.7035332  75.6718779
  32.1456456 106.6837692  75.9022903   9.1613823  86.0135555  62.0565271
   9.5010072  85.7187653  61.2115526   8.3674943  85.4955864  62.1894693
  27.2038960 102.9213715  58.6309767  26.7800951 103.3904171  57.9122114
  28.1325388 102.9161263  58.3989620  96.9534683  16.5291667   8.0463290
  97.1545601  15.6516039   8.3714128  96.3081169  16.3860846   7.3540288
 112.8283501  76.6707802  87.1264172 113.6798477  76.7500687  87.5564194
 112.6184368  77.5611877  86.8447495   6.0131574  72.0275879  68.8784170
   5.9448880  71.1511707  69.2571926   5.2761734  72.5090361  69.2543030
 108.4536171  90.2835369  59.7785378 108.0756474  91.1445332  59.5995378
 108.0861378  89.7152138  59.1016293  10.3378212  98.2767296  53.3560705
  10.4185736  97.6168919  54.0447855  10.2152157  99.1009045  53.8271809
 111.8797207  87.3667908  94.0999413 112.3086929  86.5533543  93.8343620
 111.4354706  87.1470070  94.9188137   1.0744009  59.3754673  66.9230556
   1.7582597  59.9896812  67.1900892   0.6068676  59.8279715  66.2210035
  23.9121771  49.7820044  70.9251785  24.2552042  49.4231033  70.1067924
  23.4650946  50.5873156  70.6647539 107.5258732  69.4338942  46.2030458
 108.1207943  70.1380110  46.4609575 107.6119232  68.7811089  46.8978119
 110.8974552  48.4852934  81.3800716 110.6276035  49.2614555  80.8891678
 110.2275944  48.3847904  82.0563984  26.4580846  62.4279070  64.9771309
  25.5394864  62.2024584  65.1240492  26.9442296  61.8422556  65.5575705
  21.7078662  57.3545027  64.1981602  21.0233974  57.0025349  64.7672415
  21.4678383  57.0549059  63.3213139  17.2402608  93.9623451  71.2979460
  16.9074476  93.9121056  72.1940136  16.4558089  94.0415478  70.7551765
 113.0209541  71.3966751  90.0440693 112.8814411  72.2219563  89.5796585
 113.2006454  70.7599688  89.3523026  19.5482039  71.6912556  54.7971964
  18.7713122  72.1389198  55.1322651  19.6107411  70.8939695  55.3231764
  14.6196902  70.0147867  80.3267574  13.9100873  69.9732161  80.9678268
  15.4039192  69.7779226  80.8218479  14.4268000  95.3956127  56.6126156
  14.5787501  96.1894512  56.0998106  14.9829257  95.4991627  57.3847771
  16.0905433  85.7479286  37.3412323  16.5138566  85.1068306  36.7702365
  15.7323921  85.2281475  38.0608082 116.0061836  81.8181419  89.6854210
 116.6476631  81.4077377  89.1055107 116.2236023  82.7500248  89.6617699
  13.7153745  57.9492140  75.5557537  14.5668519  58.2201767  75.2125359
  13.5333228  57.1185684  75.1163006  25.0029755  79.7894430  87.8019714
  25.1182604  78.8486528  87.9356098  25.8720160  80.1611042  87.9532051
  58.4070539   6.8489134  62.7072954  58.3675671   7.4533516  63.4484625
  58.1215525   6.0092849  63.0674982 104.9606991  48.1286716  73.4810591
 104.0710354  48.4309864  73.6636257 105.1280785  47.4611187  74.1463327
   3.6640486  71.4730358  84.7380733   2.7796566  71.7452145  84.9830151
   3.8191539  71.8951511  83.8930893  19.1810298  68.7151766  56.3626480
  19.4179511  67.9990959  55.7732964  19.3475175  68.3688784  57.2393417
  16.0640800  91.5338039  75.7955265  16.8212545  92.0975208  75.6369781
  16.4408302  90.7009125  76.0793972  36.6248775  94.9190712  76.5855122
  35.9236312  94.4876099  76.0973215  36.9343472  95.6100845  75.9998846
  69.9728203  45.3782177   0.1509177  69.1977310  45.2130079   0.6877397
  70.3822565  44.5188475   0.0505334  21.7580509  88.0298805  57.6672983
  21.3612962  87.2433567  58.0417252  21.1882639  88.7443638  57.9520702
 119.1128826  89.6601200  70.8201551 119.2969990  89.2580128  71.6690636
 118.6114883  88.9975166  70.3449774 105.1539898  43.6620331  12.9128909
 105.5931854  42.9302835  13.3463502 105.1760483  43.4375381  11.9826508
  59.7809362   7.1873885  73.7017107  59.9646521   8.0677879  74.0293980
  60.4309845   6.6314286  74.1313362  27.9845858  86.4232540  66.6855049
  27.3336363  86.5835381  67.3687410  28.7608910  86.9010925  66.9774771
  33.0021429  97.7669239  52.6978207  32.2971296  97.9944038  53.3039904
  33.3157825  98.6091232  52.3683405   0.0508648  69.4553375  74.6595287
   0.8875003  69.4639492  75.1245022  -0.6055634  69.3582582  75.3493929
   4.5302778  53.2532978  84.8219299   4.0913811  52.7060080  85.4731369
   5.4633075  53.0954504  84.9660492   7.6501089  44.7524548  86.8949699
   6.9391161  44.9216127  86.2768173   7.2130632  44.6492004  87.7402878
   3.9351833  94.1949272  75.8542728   4.4541782  94.5731163  75.1444483
   3.9295307  94.8700333  76.5328169  34.4924951  77.6995993  44.7738123
  35.2588463  77.2263479  44.4498253  33.7523580  77.2956944  44.3207264
  18.0426526 106.7654419  79.0868139  18.9846909 106.7329979  79.2533779
  17.7142119 107.4260712  79.6966743  41.0634708  60.1780128  65.7073021
  40.1251316  60.3662634  65.7249689  41.3700438  60.5652189  64.8873568
  15.7733643  87.9650784  76.6564178  15.9844959  88.0202293  75.7244205
  16.4206243  88.5271454  77.0822954  32.3292184  91.9920540  83.1018353
  31.6739678  91.3098431  83.2483673  32.0002317  92.4822617  82.3483849
  18.3813667  99.2840481  56.5910578  19.3160152  99.1433620  56.7422867
  18.1525660  98.6565590  55.9053898   4.3238688  88.0636406  68.5674810
   3.4509856  88.0550861  68.1747532   4.1630515  88.0139923  69.5097685
  14.3169212  85.3270245  69.9674654  13.8681698  86.1720371  69.9390411
  14.0132320  84.9217606  70.7797289  25.7213759  98.8943577  57.2089529
  26.4163256  98.2586956  57.3798656  25.4087019  98.6770630  56.3307476
  22.0221376  83.6460304  71.8359232  21.1213994  83.5653973  71.5222359
  22.3244095  82.7428055  71.9310141  28.9600253 101.0911179  50.6077242
  29.1590476 100.2186489  50.2679777  28.0047011 101.1144829  50.6628990
  27.5961161  70.8286238  72.3475504  27.0842981  71.6067076  72.5686026
  26.9490290  70.1981926  72.0312214 107.3709393  48.3555460  53.8071680
 106.7355442  48.1560946  53.1196260 107.3571110  47.5862455  54.3765688
 113.6346912  96.9605541  43.6217356 113.5023308  97.7791023  44.0999413
 112.9499245  96.9604778  42.9529142  95.1366806  87.5124931  68.3643103
  94.8709393  86.7989635  67.7842283  96.0125446  87.2659874  68.6615133
   9.3764943  64.6556425  63.4605455   8.8832450  65.2047348  62.8510904
  10.2471375  65.0523472  63.4894991   4.5364147  66.1706686  68.8434410
   3.9604098  66.3599586  69.5841312   4.4722754  66.9460630  68.2858801
  23.9402556  73.6807394  88.7868404  24.1924524  73.4927273  87.8828049
  23.3479786  74.4296694  88.7194538 109.1107655  55.7273769  60.8781576
 109.3478107  56.6537189  60.8342505 109.5448875  55.4062557  61.6685057
  10.4377425  79.6220255  83.9644146   9.9806976  79.2345667  84.7108841
  11.0495543  78.9432287  83.6795425   7.7514118  68.1254768  57.6537037
   7.2071946  68.1346083  56.8663168   8.0613190  69.0268946  57.7411175
  31.4567089  61.1973715  56.5825796  31.3174582  60.3588772  57.0227718
  31.0546947  61.8427849  57.1640062  14.3804145  72.5598621  83.0876637
  15.0600076  72.6763725  82.4237251  14.5110500  73.2884645  83.6945438
   4.9323326  88.3950996  91.1785984   5.7971716  88.8051510  91.1662960
   5.0883567  87.4980545  90.8833122  18.9464247  77.7948904  85.6456661
  18.3929515  78.2525301  85.0128365  18.5386300  77.9727077  86.4931965
  79.5360565  11.4163589   6.8324274  79.9937725  12.1537352   6.4286894
  79.1224337  11.7886269   7.6112491  29.2099667  73.2258940  43.6131716
  29.2233205  73.7182093  44.4339514  29.8834825  72.5550413  43.7252808
  10.0483966  68.9145470  26.7507935  10.7759058  69.4284582  27.1012974
  10.2847993  68.0060911  26.9380164  21.3823509  92.0137978  60.1011705
  20.9948087  91.2809467  59.6226597  22.1040440  91.6232300  60.5939627
  18.8194525   7.1886730  76.5515041  18.1189883   6.7029071  76.1160612
  18.3638000   7.8435868  77.0803738  30.5163431  83.8059044  77.9843903
  29.5843029  83.8741112  77.7773142  30.6327581  84.3658352  78.7519550
  16.8119311 103.7673950  73.7847662  17.5760603 103.9582825  73.2407951
  16.1936986 104.4701481  73.5843801  14.3725526  97.2241592  54.8310041
  14.3036199  96.6585064  54.0619040  14.1321993  98.0937099  54.5110989
  18.4965169  92.0861816  79.1643000  18.9514279  91.7269993  79.9260569
  18.0113065  92.8367519  79.5070028  22.2879887  84.8055840  51.1339426
  22.1021032  85.6489468  50.7211208  23.0362844  84.9783421  51.7052889
   7.2880650  99.7248650  75.3519487   8.0964017  99.4785404  75.8015537
   7.4964589  99.6411037  74.4214725  20.2060604  81.9403076  67.9842234
  20.3466654  81.0072994  67.8231287  19.7188902  82.2448063  67.2186041
 118.8320255  85.5252457  74.4565248 119.2835712  85.2073479  73.6746836
 118.4725380  84.7366047  74.8627949 102.9435730  23.8390136  13.2437229
 102.3476219  23.7099957  13.9815772 103.6277771  23.1817603  13.3707011
  37.9817343  86.4115620  54.0195274  37.5098562  85.7715416  54.5523787
  38.8384151  86.4879227  54.4396448   4.3480465  73.5122252  86.9245434
   4.4630942  72.6698399  86.4847946   3.6690727  73.9566565  86.4168930
  13.7207639  84.8232269  66.2335157  13.9667058  83.9852428  66.6253281
  13.0608594  85.1808739  66.8275213 102.0287514  59.8554325  37.7164769
 101.2562752  60.4143810  37.6322269 101.7288780  58.9892769  37.4406290
  31.0606027  79.6549511  63.8697481  31.8821001  79.4959021  64.3345928
  30.3989935  79.6970940  64.5602036  12.1809685  71.1599016  78.5914278
  12.4003160  70.2603054  78.3488464  13.0025291  71.6413403  78.4940195
  33.1577778  91.3624668  87.6348782  33.5266757  90.6090164  88.0958080
  32.9094839  91.9709301  88.3308411  31.5605378  94.7566986  55.1508045
  31.1219597  95.2146053  54.4337273  32.4617815  95.0781059  55.1245451
  15.4793942  86.5050507  84.6171284  15.8386791  86.7118835  85.4798985
  14.5307994  86.5579891  84.7337437 115.6281185 100.2520466  80.3395557
 116.0214520  99.9739838  79.5123911 115.1640224  99.4772053  80.6565094
  15.9378231 102.4736214  55.6368685  15.0235415 102.2357559  55.7909346
  16.3652873 102.3426056  56.4832354  29.9102426 102.7230167  72.7120829
  30.6905413 102.5975323  73.2521009  29.7333336 101.8580818  72.3421860
  10.5125654  85.6827259  89.9484158   9.7455466  85.5386162  90.5026245
  10.5523050  84.9076176  89.3881989  17.4231124  89.5655251  77.9102278
  17.6833999  90.4354095  78.2132006  18.0277622  88.9678669  78.3500290
  28.4915376 102.4205780  32.0967245  28.6316967 102.4769878  31.1515236
  29.2536974 101.9426823  32.4237728  19.1909254  92.6026726  69.7747803
  18.6247706  93.1124496  70.3542852  18.6278379  92.3650169  69.0381098
  27.7756953  96.5093803  61.9215345  28.0267477  97.1727371  61.2787533
  28.3073306  96.7091751  62.6920366  11.5451705  82.7594280  82.7721786
  12.3441792  82.8967285  82.2632885  11.6737700  83.2800102  83.5650730
  33.9657617 104.5569801  63.6315584  33.6598802 104.2977810  64.5007467
  34.5905638 103.8752556  63.3843756  31.5821171 104.7858715  92.8995132
  32.1520996 104.2803097  93.4789562  31.0639071 105.3323078  93.4903622
  20.0382900  69.0682459  69.7801876  19.5565999  68.9466476  70.5983686
  20.8126068  68.5132837  69.8733664  24.8994637  84.8374653  89.3332195
  24.4482088  84.0134239  89.1500568  25.0414300  85.2294540  88.4715843
  20.7656908  85.8733177  83.0474949  20.1322508  86.3015938  83.6233139
  20.2723360  85.1653957  82.6331520  55.1489496   6.7771268  95.0956440
  55.3558493   6.3363349  94.2715549  54.2810154   7.1550268  94.9538040
  28.9192271  79.1516495  82.7268028  28.9578938  78.5982323  81.9467640
  29.6450949  78.8481665  83.2720089  20.4927611 104.2670727  89.8866749
  20.7268548 103.3419418  89.9612331  21.2868237 104.6894073  89.5590687
  10.7294738 105.0129986  90.2136230  11.6256094 105.1478195  90.5218315
  10.6945062 104.0861988  89.9768639  19.0252101  98.6827087  83.5085297
  18.8203609  99.4608879  82.9901695  18.3496797  98.0491543  83.2666588
  16.8477583 100.1672554  87.5822735  17.4376512  99.4140720  87.6135159
  15.9799266  99.7863865  87.4479675   7.1118313 101.8772697  82.0106411
   6.9301361 102.7542210  81.6727352   6.9654429 101.2975121  81.2631893
  21.6059422  91.5834141  68.9457178  21.8254590  91.3992500  68.0324078
  20.6695724  91.7815113  68.9317369  46.8488503   8.4687108  65.9713030
  46.0887814   7.9459816  66.2268019  46.5886497   8.8836628  65.1489019
  45.3558969  99.6287251  85.8422565  44.9425411  99.4770145  84.9923515
  46.2142420  99.2114544  85.7690334  52.9657221   0.6558661  77.0403242
  52.8940916  -0.0482092  77.6848221  52.7130032   1.4453386  77.5189686
  24.2070365  86.0437202  86.7828465  24.4635010  86.7676449  86.2115479
  23.4399891  85.6619740  86.3560677  24.2475939  84.7021103  63.9916277
  23.6312675  84.7729969  64.7205639  24.8186851  85.4644775  64.0858364
  21.3235307  73.6988020  78.3889151  21.5920234  74.0653563  79.2314053
  21.9385600  74.0728998  77.7580261  17.7606869 110.0100040  88.0808449
  18.6038470 110.0313187  87.6282310  17.3059082 109.2564011  87.7046967
  44.8076725  89.8099899  58.1702995  45.3871155  89.0489483  58.1342697
  43.9265680  89.4440365  58.0930901  22.3811936 102.0020008  51.9235134
  21.8520069 101.7916870  52.6929045  22.1438217 102.9041195  51.7088699
  46.5329981   9.5173538  21.4799547  46.7694378  10.3845382  21.1508346
  45.7423067   9.6654451  21.9987130  27.7310848 111.5972996  81.2832451
  27.2965288 111.7307854  80.4408741  28.6457467 111.8274879  81.1200333
  96.2399769  27.5922251   5.9586877  96.7385387  28.1270504   5.3409255
  95.3241348  27.7799511   5.7531995 113.8709831  80.4077816  78.2332325
 112.9840469  80.1996231  77.9395771 114.1014290  81.2035751  77.7538252
  46.3378525  86.6854286  63.2421541  47.0823574  87.1670914  63.6026287
  46.4280367  85.8022308  63.6000299  16.3816583  91.9333363  61.1437750
  16.6376245  91.2924671  60.4804468  15.5766749  91.5787792  61.5213060
  83.8477612   8.3926105  73.2322025  83.0717754   7.9825091  73.6141634
  83.7296963   9.3281651  73.3966112 115.0555134  93.1028080  43.1495905
 114.2865944  92.6231575  43.4576941 115.7890224  92.7075100  43.6206818
  47.4295092 110.9014893  88.6654758  47.7247858 111.8050671  88.5532761
  47.1721125 110.8461475  89.5857525  27.0984864  87.0732498  96.1607075
  26.5627074  87.2723770  95.3929043  26.7503595  87.6398563  96.8491745
 102.8820419  33.7107873   0.2749122 102.5532055  33.3284235  -0.5386597
 102.4650383  34.5711493   0.3209005  98.7495613  52.8691530  15.7390797
  98.4531593  52.8506899  16.6490459  99.6969986  52.7440405  15.7932007
  50.6934118   2.4679673  56.1067104  50.7714272   2.4594395  55.1527309
  51.3883114   3.0580124  56.3985825  23.3214974  59.4752645  73.2689047
  23.5037422  60.4149437  73.2648563  22.4024200  59.4106531  73.5284281
  40.0209188   2.1462034  80.1807117  40.9271526   2.1826668  80.4867268
  39.6565294   1.3684700  80.6033039  91.9095612  44.1709852  20.5140805
  92.1065331  44.3858910  19.6023512  91.0033035  43.8633251  20.4972339
   9.6199286 109.3627167  93.5847855   9.3425292 109.9514580  94.2866993
  10.4101670 109.7694302  93.2293415   1.8493907  97.0366096  58.0910540
   2.0352842  97.9660702  57.9577398   1.5741315  96.7215157  57.2301388
  91.4858913  50.6690550  11.2169683  92.1906281  50.3819704  10.6363022
  91.7752934  51.5218210  11.5414190  20.7807255  99.2597198  77.5590420
  21.3965845  98.6226559  77.9211187  20.4334188  99.7185707  78.3239412
  50.7625866  12.4695921  64.1258144  50.2273607  13.0303574  64.6873379
  51.6622925  12.7476335  64.2974329  28.9933610 107.6955891  80.5057526
  28.3170652 107.0395374  80.6744385  28.9972949 107.7962399  79.5538664
   6.4596695  94.7116756  47.1254635   5.6089473  94.9809361  47.4718714
   6.3348901  94.6865082  46.1767673 115.4493523  97.2202587  62.0042324
 115.9985447  96.4465237  62.1305561 114.8788548  97.2370911  62.7726603
 116.4331722  86.6265488  65.2017832 115.7106304  86.6559505  65.8289146
 116.8088913  85.7528496  65.3100491  84.2672825   4.5674300  59.2443419
  83.7747860   3.7507731  59.3265247  85.1524067   4.2905381  59.0074587
  30.8797741  88.2938290  66.2059021  31.7047119  88.2834721  66.6912889
  31.1429977  88.2747173  65.2858019  23.3518362  93.0362225  71.2177372
  23.1890368  92.7196598  70.3291893  23.5662103  93.9624500  71.1064911
  49.7955751  97.0670128  79.0043449  49.8252058  97.7377415  78.3220816
  49.3867540  97.5035000  79.7517252  17.1194184  77.0483494  60.4304457
  16.6295373  77.3446321  61.1975574  17.9023182  77.5989532  60.4188824
  63.0519867   0.9851525  93.7740993  62.7032757   0.1000203  93.8798141
  63.5305691   1.1525871  94.5859814   7.3586482  89.6860409  90.7175255
   7.3985517  90.4998302  90.2151394   7.9629374  89.0963364  90.2666283
   4.2660850  79.4690990  59.4012928   4.0310603  79.1008472  58.5495949
   4.4025132  80.4009056  59.2299366  11.2402141 102.9218769  50.3732872
  11.3197732 103.8749695  50.3343153  11.5717316 102.6190948  49.5279169
  82.6591873  17.7443635  79.6886015  83.0232143  18.2610655  78.9697552
  83.3304882  17.0882177  79.8758411  34.5171094  87.3433781  58.2011843
  35.3105330  86.8410301  58.0158424  33.9081526  87.0944977  57.5058699
  34.3139172  68.7804794  65.1607370  33.8979268  68.0485868  65.6162786
  35.1710892  68.4439421  64.8995256  27.4730206 106.6930580  56.4389563
  27.5359845 106.7668343  57.3912287  28.0528831 105.9647560  56.2162924
  28.4685707 100.8188629  71.6703415  28.3209181 101.3056278  70.8594894
  27.8175783 101.1661625  72.2801161  93.3713245  23.6217642   4.7448593
  94.1427040  24.1363215   4.9824122  93.0021191  23.3428550   5.5827904
  41.0593891 101.5204525  63.9603519  40.9163427 102.3435593  64.4275427
  40.2258205 101.3448238  63.5238314  43.6684370  82.2293377  75.0100613
  42.7852201  82.0306015  75.3209734  44.0177155  81.3849068  74.7251415
  12.3068869  97.9151630  59.9580812  12.2666347  98.4937954  59.1966391
  13.2238877  97.6447582  60.0052023  17.5658333 101.4081383  84.8499680
  17.4362528 101.5644073  85.7853889  16.6800404 101.3459873  84.4925594
 113.9439964  83.7735271  60.0076294 114.0765285  84.3765068  59.2761421
 114.5832729  84.0495586  60.6644154  34.0185142  96.8549347  85.2167702
  34.1282129  97.1913147  84.3273640  33.0996037  97.0236683  85.4250145
  75.6924677   2.5553745  89.7533989  76.4945316   2.9690439  89.4343281
  75.2290010   2.2876756  88.9598179  33.7509847  86.4888573  87.9758072
  34.1381359  87.3584080  88.0769444  34.3971634  85.9963703  87.4697113
  45.7402277  92.1166229  56.9317579  45.0534201  92.5950623  57.3961067
  45.4255056  91.2130833  56.9034958  15.8644021  83.4406471  77.6776648
  15.3588140  82.7155781  78.0449343  16.7761600  83.1590080  77.7525473
  23.2499814  73.8163996  31.4178324  23.9510608  73.1721020  31.3198423
  22.8144503  73.5740280  32.2350240   8.2837176 102.1198082  45.4679441
   8.1754500 101.3595200  46.0393238   7.4408948 102.2066784  45.0225973
  18.4196472 109.8893547  84.3404484  18.7902009 109.6489811  85.1896572
  18.5590219 109.1178417  83.7912941  10.9168828  90.3335667  55.4491425
  11.5454376  89.7824764  54.9828291  11.4584303  90.9468555  55.9459686
  22.6658702 101.8247414  74.0763330  22.4703169 101.1459541  73.4303951
  22.6824093 102.6379490  73.5716915  22.7809572 107.4291992  85.6377888
  22.1008301 107.0427227  86.1894131  22.7691793 108.3601952  85.8599186
  19.0550125  74.2709398  65.8629417  18.2809913  74.3611288  66.4188099
  19.2182410  75.1550293  65.5343485  26.5003943 105.4380894  63.2471228
  26.3957143 104.5597744  63.6129761  25.7913613 105.5178356  62.6090479
  21.1952376  82.9222393  39.3293524  20.4746199  82.6365757  38.7678027
  21.8714666  82.2555637  39.2089796   2.0918107  85.6208324  79.5467329
   1.4123991  85.8227158  78.9034033   2.8807050  86.0383701  79.2009878
  33.9094615  86.7582989  76.4298439  33.7797761  87.5818157  76.9001961
  33.9565277  86.0943985  77.1177816  12.1971619 108.4732819  63.0807257
  12.6254737 108.9741611  62.3865366  11.6259885 107.8610706  62.6168442
  34.1686392  85.5101585  82.0505238  34.2574930  86.2834835  82.6075649
  34.0782905  85.8619881  81.1649227  27.3785257  74.6644020  76.2284756
  26.6325235  75.1097965  76.6301346  28.0463886  74.6500397  76.9140291
  31.7047238  87.9928875  82.5058842  31.3485217  88.8282585  82.8083897
  32.3887157  87.7801704  83.1408119  15.3372824 104.8231888  83.9291668
  16.2837303 104.6950340  83.8655663  15.1200163 105.3789806  83.1807518
  17.9884219 111.0837460  67.6612234  17.1743274 111.5678024  67.7997065
  18.5903263 111.4346409  68.3175898  98.5473251  50.7034063   5.8848453
  98.3820629  49.8684549   6.3227654  98.0341244  50.6564999   5.0782144
 104.9494553  84.3561840  63.7845278 103.9982986  84.3942833  63.6841249
 105.2505875  83.8565636  63.0256271   3.7739825 102.8975391  84.9742889
   4.4177541 102.1952820  84.8814487   4.2979145 103.6963749  85.0341892
  13.9145637  63.9284277  61.6281223  13.2732224  64.6379852  61.5901804
  14.1527808  63.8701153  62.5533724   9.5137191  82.6161861  77.3129416
   8.8918537  82.3579121  77.9932404  10.2643311  82.9642773  77.7942324
   5.7422858  91.0311127  64.2190170   6.0834408  91.8120575  64.6548700
   5.2112335  90.5969334  64.8866272  67.6667595  57.8487873   9.5734262
  67.8566456  57.9299498  10.5080843  67.0004845  57.1633863   9.5230210
  27.4990249 107.9039001  96.7601395  27.2541356 107.1634197  97.3150730
  27.4420667 108.6651421  97.3376274  36.5078926  97.9496193  41.7961407
  36.4638877  96.9963360  41.8706417  37.4388003  98.1540585  41.8847132
  85.6544495   3.4912944  71.7579365  86.3925838   3.9903969  71.4082384
  85.8774281   2.5775748  71.5800858  38.9723587 111.3534260  54.7040081
  39.8006320 110.8737946  54.6919060  39.1877055 112.2124577  54.3407917
  25.5809259  84.0278053  73.3131695  24.9270678  83.3705425  73.5513163
  26.3018608  83.5230255  72.9367590  33.5268426  82.9566097  44.4752359
  34.1022897  82.2251987  44.6991396  33.5854077  83.5462666  45.2269697
   4.8863000  93.1029797  68.0304623   4.8564753  92.3030853  67.5055695
   3.9752656  93.2612133  68.2778740  32.2600365 108.6144733  90.0480461
  32.6924133 109.2664242  90.5996323  32.6625896 108.7246513  89.1866302
  12.8824198  88.8383770  73.8991022  12.0743561  88.6184025  74.3626499
  13.3803105  89.3665504  74.5231009  38.0543375  57.9199648  92.2375202
  37.9988360  58.8621140  92.3972321  37.6026440  57.5237131  92.9826355
  77.8687048   4.6030468  92.4918556  77.6474953   4.7144571  93.4164524
  78.6300230   4.0228668  92.4959469  42.5421715   0.5366787  65.4651928
  42.6891756   0.5807134  64.5203733  42.5828457   1.4475274  65.7566214
  28.3680177  66.7337322  73.8359404  27.8778958  66.5931702  73.0258417
  27.9257751  67.4698448  74.2587805  43.5812712   7.3359638  60.0473547
  42.9888344   7.2100449  60.7885695  43.2418203   6.7535537  59.3677950
  25.7539511 103.4906006  79.4040775  24.9923348 102.9541779  79.1840267
  26.4821792 102.8702831  79.4376183 112.5651646  52.8173828  81.3805866
 113.1007671  53.1923103  80.6814480 113.0021286  51.9951105  81.6022968
  50.9868097  22.2199678  73.4379721  50.8235264  21.5765285  72.7483702
  51.3250589  22.9865050  72.9751158  31.2461805  97.2206974  67.4137354
  31.5039897  97.9938698  67.9157019  30.5544496  97.5333786  66.8306637
  99.7414589  91.7570400  71.9250107 100.6555367  92.0401764  71.9018221
  99.7302341  90.9424114  71.4225292  13.2116127  92.2392750  90.4399204
  12.7058649  91.6740799  89.8559666  14.0877807  92.2586250  90.0549698
  22.1767974  92.9937649  73.6843586  22.4727726  93.2863522  72.8223705
  21.5145588  92.3284721  73.4971189  27.3595428 104.3143463  51.3793325
  26.8177557 103.9445782  50.6822205  27.4602699 105.2359390  51.1410809
  91.9560146  24.3183041   2.2802830  91.9358349  24.2525387   3.2350078
  92.4354649  25.1282525   2.1060780  24.1752958 101.1928082  66.4248419
  23.7929177 100.6050968  67.0764685  23.4448171 101.7414951  66.1392307
 108.8277340   9.7747576   8.0643207 108.0704975  10.3538704   8.1507254
 108.6382961   9.2469198   7.2886050 119.1159058 110.6457329  78.8254595
 118.2813740 110.8133602  79.2632961 119.0560341 109.7352219  78.5363102
  20.8964872 102.3464108  41.5127373  20.9170079 103.1063461  42.0943737
  21.7727542 102.3149014  41.1288166  10.2682090 105.4755974  44.5919657
   9.7570246 106.1181545  44.0999794  11.0310507 105.9633827  44.9024057
  52.9053402   0.8202621  81.5594006  53.1228113   1.6567674  81.9707394
  52.5024223   0.3066855  82.2594929 101.7541599  30.3830647   8.3308721
 101.3007641  30.0318503   7.5645041 102.0995712  29.6112180   8.7793988
  18.7693083 111.8876076  53.9838028  19.1867018 111.5360355  53.1974173
  19.2316544 112.7083206  54.1538191  42.6026106 103.7118721  70.1235914
  43.4512520 104.1524506  70.1674652  42.7425671 102.9820156  69.5203066
  23.4173512  99.5921898  89.7041893  23.9865923  98.8609123  89.4645405
  22.5754166  99.1840935  89.9062634  27.5028253  98.6590004  69.0410757
  27.8858471  99.5132637  68.8416624  28.1910992  98.0308914  68.8220072
   1.5414020  87.8619671  68.7566519   1.4746535  87.1036625  68.1763601
   1.0433023  87.6124859  69.5350409  38.4876394 100.4613209  70.7219553
  38.7162590 100.9039307  71.5393066  38.5073972  99.5296097  70.9404755
  19.4639039  87.8719807  66.1394262  18.8771379  88.4364700  66.6427040
  19.6395445  87.1311665  66.7195797 108.0563927  25.7117462   1.4164886
 108.3823204  26.5208912   1.8105561 107.4858665  26.0043502   0.7057703
  26.7061090  85.9623051  61.4879131  26.5964675  86.4254379  60.6574154
  26.6824532  86.6517162  62.1515322  13.7435925  84.2507839  75.7909822
  13.2909799  83.6465836  76.3794756  14.6734405  84.0901375  75.9516335
  74.7514772   5.1512122  43.4779358  74.5465565   4.2383707  43.6803198
  73.9971924   5.4604697  42.9762936  69.2221546   0.6847831  24.0663838
  68.4942722   1.2077247  24.4024611  69.0931654  -0.1814423  24.4527102
  34.4192576  90.4305077  81.4130116  34.1760993  90.7813454  82.2697639
  35.3200722  90.1269627  81.5253830  18.0034566 105.8819771  89.1240978
  17.2172856 105.6824684  89.6323967  18.6474931 105.2367783  89.4159412
  14.6081400 100.9938335  83.8044548  14.4082522 100.1703358  84.2495632
  13.9956212 101.6250420  84.1821194  64.2135620  10.4888308  91.8392563
  63.9386129   9.7221899  91.3363743  64.1234732  10.2204025  92.7536201
  57.3823786   3.7234405  62.9837847  57.2556734   2.8221798  62.6872969
  56.7128944   3.8508177  63.6559439   2.1924247  93.9790630  69.1385937
   1.5384251  93.3732605  68.7900019   1.7836978  94.3482876  69.9214411
  10.3664947 104.4699287  80.5946064   9.5806998 105.0120163  80.6645775
  10.3727436 104.1735458  79.6844673  19.4852448 101.8170357  74.8332882
  18.5676301 101.5504551  74.8894262  19.6244872 102.3610115  75.6084871
  42.1315861  94.7561836  69.5862293  42.7878428  94.1473579  69.9251938
  41.7218399  94.2865849  68.8597202  76.2147188   8.8551611  89.8357773
  75.5325699   9.3023264  89.3348312  77.0324516   9.1136837  89.4106865
  19.6437776  85.5455303  57.2511530  19.8891997  84.9491596  56.5438080
  19.4270611  84.9703979  57.9849720  33.8630939  85.5431175  93.6782265
  33.0201364  85.2929401  94.0564632  33.7918377  85.3029156  92.7544022
 105.5975914  12.8072405  16.8524396 106.0336113  12.2601819  17.5057769
 105.4337883  13.6351418  17.3040795  68.1920147  10.7786632  84.7126579
  68.0947208  10.2288640  85.4901505  67.8158474  11.6214049  84.9666595
  50.3429270 103.9818573  74.0589762  50.0582552 103.2100964  73.5695028
  49.7446775 104.0265274  74.8048544  55.5198860 101.9821739  87.6016808
  54.9633360 102.6392460  88.0196953  56.1925936 102.4909687  87.1491051
  37.2927570  99.3089294  85.1153564  37.9738045  99.9306011  85.3721333
  36.6040659  99.8526192  84.7328186  18.7627411  83.2354164  65.9713268
  17.9526961  82.7266788  65.9359550  18.4858966  84.1072845  66.2531614
   1.5151459  93.5663033  38.6726046   0.6817137  94.0130997  38.8208890
   1.6915654  93.6917019  37.7401996  25.1088071  90.8542824  58.5993671
  25.0672865  91.8004704  58.7380505  24.7582245  90.4782581  59.4067860
   2.8916255 105.8118343  83.5899544   2.9742903 105.0481415  83.0188370
   3.7712237 105.9422970  83.9442444   1.5120026  79.4973040  87.4812412
   1.5846747  78.5440063  87.4346542   0.8009838  79.6532154  88.1028366
  26.1376286  88.6740875  88.3957005  25.7203746  87.8760529  88.0712414
  25.4128599  89.2835522  88.5353184  21.6325688  90.2613926  75.5463743
  21.4354491  90.4277706  76.4681625  21.4987731  91.1061478  75.1165819
  32.8774691 102.4800682  44.4494772  33.7066698 102.6878643  44.0187979
  32.4059176 101.9414616  43.8140440  48.1835556   3.3010522  76.0037994
  48.4820080   3.3853307  75.0982285  47.7192926   2.4642767  76.0260868
  23.9824033  73.6074209  20.3540897  24.2849207  74.4303513  20.7381535
  23.0801320  73.7846375  20.0881338  53.9893055  89.3213558  82.1735954
  53.3020210  89.0084362  81.5854168  54.5406485  88.5541439  82.3273087
  18.4902048  75.5887127  83.9353275  17.6637614  75.9643984  84.2387772
  19.1372812  75.8848190  84.5755196  41.1467409  89.0461349  63.3265543
  40.2594280  89.0570450  63.6854267  41.5798855  88.3233452  63.7806368
  42.8833389  89.5637703  73.1955147  42.9548311  88.6208820  73.0469131
  42.5409079  89.9107838  72.3717690  95.4343224  38.2853627   1.4602502
  96.3116550  38.5724425   1.7134397  95.2163124  38.8239098   0.6995465
   1.5448150 100.5342960  77.9397535   1.1302121 100.7212639  77.0975065
   1.3362040  99.6158886  78.1107664  46.5675211  11.0084915  56.1701250
  46.8934488  11.5522206  56.8873119  47.3572922  10.6743884  55.7448387
  88.9935970  60.3476858   9.9281299  89.0385914  60.1420450   8.9943647
  89.8605633  60.6942320  10.1391053   9.9999553 103.0789375  78.3547497
  10.5960655 103.3325481  77.6500750   9.1305298 103.3101177  78.0278111
  11.9085741  91.8633080  78.6039114  12.6443076  92.4382019  78.8146830
  11.2018359  92.4596405  78.3566380  50.8498812   1.2127583  84.9735928
  51.5906239   1.8115802  84.8790073  51.2314987   0.4160630  85.3421974
  34.1743588  82.1347618  71.2913942  34.2359471  81.2217522  71.0106134
  34.7203183  82.6143074  70.6683397  26.9899178 110.5712509  65.1811361
  26.4886022 109.8095417  65.4722071  26.8479896 110.6041241  64.2350864
   6.8944508  86.5501404  49.2848539   6.6404378  86.1520195  50.1174498
   6.0680687  86.8302059  48.8912964  26.1130619  81.4150047  65.2468109
  26.1244011  82.2005749  64.7000217  27.0366096  81.1959362  65.3705072
   8.6624265 104.1160107  88.3271027   9.2906052 104.5478725  88.9060020
   8.9322376 104.3741131  87.4457359  20.4701328 100.4653454  34.8653889
  21.4174724 100.3619099  34.7755003  20.2985930 100.3044033  35.7932377
  20.7544518  91.3172722  94.5686626  20.5116439  91.0772896  93.6744118
  21.2968540  92.0994949  94.4678402   9.9095041 110.4538727  61.5522337
  10.7567978 110.1878548  61.1950779   9.4705451 109.6305561  61.7660093
  41.8617392  79.3839598  72.8465462  41.5889263  79.5956421  73.7392950
  42.0570898  80.2321815  72.4483156  11.8334806  99.6927738  68.6029196
  11.7789149 100.6482792  68.5867453  12.3910689  99.4974327  69.3560219
  20.5591965  90.0113010  92.1173096  21.3638711  90.2551365  91.6598415
  20.6423259  89.0688133  92.2623158  57.5571680   0.5025240  84.4346333
  56.6222191   0.5839058  84.6229935  57.7177811  -0.4410254  84.4223785
  49.5842838  14.8335588  48.1408930  49.8723507  13.9250696  48.2297659
  48.7090731  14.8462951  48.5282898  20.8701944  85.9718418  78.0924702
  20.0401139  85.8168411  77.6417255  21.5250754  85.5408192  77.5433111
  13.1981921 105.9739113  43.2872343  13.1659019 106.5580750  44.0448141
  13.3093083 105.1005173  43.6628199  47.3614502  96.0376644  54.2483950
  46.6806936  96.7100620  54.2745399  47.1001673  95.4600620  53.5312176
  43.2645845   0.7992539  79.3204498  44.0798759   0.4296396  79.6594524
  43.0005503   1.4414299  79.9793339   5.6315392  77.3733377  43.6864901
   4.8516050  77.5781679  43.1707621   5.7988340  78.1677771  44.1935539
  75.5005407  11.3910794  67.8838158  75.5324078  10.5316496  67.4635792
  76.3982201  11.7185760  67.8276682   9.5954686 104.7817612  59.5432520
   8.7358236 105.0087070  59.8978472  10.1618540 104.7157192  60.3120708
  14.5579457  94.2996693  64.3358183  13.6012435  94.3234348  64.3555450
  14.8001266  93.7709427  65.0961018  12.9987311  89.1313457  54.2314720
  13.9087749  89.4132042  54.3242216  12.8435957  89.1296482  53.2869291
  13.0216312  78.6639166  68.6928701  12.3332882  79.0173292  68.1293821
  13.1978524  79.3627691  69.3227768  30.8521366  97.3612499  88.8111401
  29.9023485  97.2571564  88.7536716  31.0095477  97.6272202  89.7170734
  41.5359068  96.2915325  87.4491596  40.9309340  96.9684601  87.7524853
  41.8449116  96.6091824  86.6007233   9.4734466  96.1784363  75.8598661
  10.3941095  96.2686729  76.1057758   9.0418923  96.9291687  76.2677860
  62.4147081 110.0510693  73.9868307  62.4148369 109.1065407  73.8316154
  61.6695118 110.1979733  74.5693493  71.3768721   0.9816334  65.8533430
  71.3884449   0.1248960  66.2800741  70.7226896   1.4828873  66.3401890
 116.8507004  57.2950125   3.1296864 116.7767334  57.4192333   4.0759054
 115.9689808  57.0478535   2.8509140  43.7925100  76.3580465  49.7281837
  43.7711191  76.0771370  48.8133812  44.7222137  76.4828205  49.9187422
  20.6958485  99.3860722  74.9183321  20.7147551  99.3790531  75.8753204
  20.2955627 100.2258110  74.6928358  38.8981414 112.0685387  66.2660646
  38.7233853 111.1790848  66.5735817  38.0948257 112.3281574  65.8149385
  13.0008590 104.8119640  92.0528030  13.2438803 105.3731155  92.7892017
  12.4866664 104.1077900  92.4477577  56.8393707  89.9916935  78.1575966
  57.3583698  90.1111031  77.3622274  57.3219109  90.4692173  78.8323975
  47.8026199 105.8560467  56.6766262  47.1188354 106.4577103  56.3822174
  47.5945663 105.0273705  56.2450600  36.1111546 102.0892429  85.2059460
  36.8812490 102.6506519  85.2954197  35.4201078 102.6773548  84.9012852
  51.0968494  97.3279953  40.8232450  51.8722582  97.6883698  41.2534857
  50.7648468  98.0473900  40.2861547  28.8783026 111.1673641  89.1634846
  28.9812803 111.1311626  88.2125282  27.9857993 111.4870071  89.2957592
  80.4308319  96.4392090  88.1556129  80.2444458  97.1045113  87.4931526
  80.6254768  95.6483746  87.6527023 114.4303894   2.2000279  50.1167536
 114.7233486   2.7444041  50.8475494 113.6042881   1.8207936  50.4166937
  46.5807724  99.6341705  64.4756365  45.6719398  99.7731781  64.2093134
  46.7329073 100.2875900  65.1583719  48.4624338 107.1183681  79.8547173
  48.6746168 107.4076843  80.7421303  49.1927195 107.4300480  79.3201447
  22.4870634 107.5038433  71.0694456  21.6969585 107.9281425  71.4040089
  22.5953126 106.7295933  71.6217566  30.4516244 110.8519650  63.0405426
  29.9059296 110.0691986  63.1161690  30.9327984 110.7303333  62.2220659
  51.1227942  89.7523212  61.1684990  51.5970898  88.9249325  61.2503338
  51.0294867  89.8825836  60.2248049  82.8262711   4.0198061  50.7726765
  83.7020874   4.2555678  50.4667521  82.2441769   4.2864957  50.0611496
  48.1907606  92.2092628  95.3080177  47.7617645  91.7496777  94.5862293
  48.6874437  92.9094505  94.8846149  43.4773159  94.4442844  88.6410141
  42.6622343  94.7176075  88.2200909  44.0796375  94.2831898  87.9147243
  99.6818161  41.5801477   6.2629229  99.0215683  41.5778351   6.9559568
  99.1762352  41.5604448   5.4503798  84.0423203   7.3259801  79.1276360
  83.5682583   7.1432745  79.9388838  83.7195492   6.6708541  78.5088778
   4.7828162  60.1199961   0.9455629   4.4731188  59.4065332   1.5035017
   4.9258107  60.8501768   1.5477413  61.5336180   6.8250078  66.5398073
  61.1670685   6.8264091  67.4240398  61.4724445   5.9127063  66.2566185
  36.3772130  92.4695587  87.2241688  36.0735345  93.3283901  86.9302082
  37.2346640  92.3646736  86.8118477  94.8973370  17.9855406  58.9844131
  95.4253769  17.7953088  59.7597933  95.0582123  18.9122057  58.8065290
  72.3081255   4.8277542  32.7813649  72.6528978   5.0268149  33.6518455
  72.8898478   4.1469243  32.4432802  90.2813625  10.7451653  69.0314674
  91.0340023  10.4633462  69.5514107  90.2572823  11.6958106  69.1406679
  47.8292894  90.3966713  66.7880201  47.5806475  90.4757881  65.8670712
  47.9976940  89.4624901  66.9112396  84.5485306  11.2514210  59.4858027
  84.6797276  10.7405233  58.6870527  84.3475056  10.5992258  60.1569700
  25.2846241 109.7726917  70.5012894  25.8470702 109.2371082  71.0607815
  24.7583985 109.1389084  70.0138140  47.0211220  89.9480152  60.7167053
  47.8719854  90.0419903  61.1449957  47.1758986  90.2240849  59.8133469
  59.5613956   6.5834612  84.2734528  59.8180246   7.1263123  83.5280037
  60.3841782   6.2168825  84.5973015  47.7519321  12.0539379  48.4784651
  47.1885490  11.3000274  48.6529636  48.0688477  12.3209214  49.3413210
  82.1889496  17.5030506  71.7320585  82.1461582  18.1135702  70.9960794
  82.2106934  16.6373706  71.3241863  40.5260134 103.0350494  79.4017267
  40.4665327 103.6063766  80.1674175  40.7881308 103.6170387  78.6884117
  19.3633449 108.2839489  67.9301834  18.9726186 109.1181183  67.6699495
  18.7048984 107.8761768  68.4926796  29.0593767  97.9927921  38.5184336
  29.6878195  97.6093960  39.1302347  28.4538174  98.4840488  39.0735865
  43.0466318  98.9142609  66.2565374  43.4466743  98.0446720  66.2525892
  42.5700712  98.9548969  67.0856762  38.8433838  94.3841362  79.3869019
  39.5566487  94.7850513  78.8901567  38.0468941  94.7238731  78.9789581
  78.6134529   6.6192037  71.0689592  79.5546389   6.4638090  71.1480331
  78.4150028   7.2463918  71.7642879  54.5646143  90.5442524  53.5380554
  53.8738441  90.0656986  53.0797386  54.2682362  90.5801296  54.4475079
  67.7396774   4.2206794  48.5297108  67.9284382   4.5367673  49.4132757
  68.5057831   3.6975905  48.2937050  38.9602447 107.1036243  80.0100136
  38.0381274 107.3570251  79.9685192  39.0669107 106.4707565  79.2998457
  46.2880659 103.7834835  77.8247690  46.6885233 103.4087372  77.0402765
  46.9697571 103.7228107  78.4939766  63.9720535  15.5270970  83.9613056
  64.6369934  15.7434952  83.3076572  64.4719124  15.3010321  84.7457027
  82.0302677  11.7172790  62.3274231  81.9534016  10.8722770  61.8843746
  82.2876453  12.3275256  61.6363430  26.8313098 105.8855534  80.8592796
  26.8186975 105.8187294  81.8140602  26.3234735 105.1315117  80.5596828
  82.8567219   7.6870435  85.8313560  83.3505344   7.9865366  86.5946960
  82.3935890   6.9069725  86.1366844 103.5700130  69.3231916   2.9165700
 103.9863396  68.8426638   2.2010289 103.1400585  70.0640154   2.4893068
  18.1000960  92.7374744  63.2572126  17.2176170  92.8640366  62.9087257
  18.6598921  93.2678223  62.6901150  78.9723158  22.7518940  90.1964569
  79.7701025  22.3584342  89.8429680  79.1436434  23.6935472  90.1835728
 104.6276188   1.2023941  48.8110495 105.0061417   1.9274634  48.3138275
 105.0010109   0.4170001  48.4110880  30.3319287 109.4952583  75.4432154
  29.9388456 109.5179939  74.5707464  31.0993648 108.9315796  75.3455353
  65.0930119  10.8172178  75.7112122  65.0156689  11.4382374  74.9869347
  64.2311716  10.8263373  76.1276007  85.1628304   7.6772082  92.4176502
  85.3231430   6.7649800  92.1760559  84.4887161   7.9721916  91.8054581
   6.6777438  87.0875931  53.1879759   7.0831662  87.6434612  52.5224876
   6.1218673  86.4866638  52.6918793  23.6518168  86.6063976  41.2731791
  23.6302876  87.5061512  41.5990782  22.7307415  86.3650131  41.1752892
  40.2915192   1.4658320  71.8531418  39.9217176   1.2720740  72.7145004
  41.2014437   1.7037147  72.0311451  30.2048182  86.4558411  62.7789879
  29.4765782  86.7216969  63.3404303  30.9596443  86.4203358  63.3665323
  49.8971272  99.8710251  80.5385876  50.1456356 100.3610134  79.7547531
  50.7033968  99.4347572  80.8139706  28.2141161  90.9566593  80.4719543
  28.8362145  91.3091660  81.1083126  27.4168730  90.7997990  80.9779453
  96.3276005  11.1731803  77.7506971  96.5433216  11.3408971  76.8333292
  95.4870510  10.7163024  77.7194262   2.8580940 109.9988365  47.5938416
   3.6693221 110.4776001  47.7638912   2.3252718 110.1451778  48.3754539
  18.1581616 102.5403786  80.0721169  18.7604952 102.8682423  80.7398987
  17.9669738 103.3033562  79.5266438  45.6599236 104.6348953  82.9222012
  45.5366993 103.6877251  82.9847050  44.7717762 104.9916172  82.9088974
  74.2961216  13.8155615  89.0424728  73.9223480  13.6593556  89.9097157
  74.0048981  14.6976411  88.8114834  81.5778065   9.8599404  71.3396263
  81.7790699  10.4092503  70.5820084  80.6912613  10.1169407  71.5930605
  88.4591770   5.0263757  77.7063656  88.3797550   5.3936458  76.8260050
  88.4565639   5.7888091  78.2850933  43.2171917 104.1114616  87.7498531
  43.2921934 104.1448593  88.7035275  43.6028576 103.2692623  87.5086212
  47.6508665 104.2739201  80.7877922  46.9715357 104.8069763  81.2008286
  47.3037291 103.3822346  80.8125591  50.3197289 101.4898205  44.6701622
  49.8050165 101.6324997  45.4644823  49.8833179 102.0202065  44.0034771
  87.4832249  24.8970175  54.7216463  88.4000683  24.9854016  54.4612360
  87.2864819  23.9689445  54.5943499  79.6908522  -0.0560255  63.3436251
  79.5800066   0.3473357  64.2045832  78.9201069   0.2211059  62.8482676
  17.7543640 100.8120346  34.7434139  17.7061284 101.4750290  35.4321337
  18.6807203 100.5741882  34.7043777  76.9259405  67.3396730   0.5962877
  76.0338879  67.2448826   0.2623865  77.3731089  66.5415192   0.3148158
   9.1861486  83.3473206  91.7370892   8.6374325  82.9122162  91.0845375
   8.7729847  84.2009926  91.8666363  52.1007395 103.5393333  52.7522135
  52.8174162 104.0198040  52.3377848  51.7124319 103.0286407  52.0418262
  13.5875905  97.0254326  62.9906607  14.0518522  96.1894035  62.9488468
  14.2777371  97.6859283  62.9301357  64.5120096  12.9041862  90.6922531
  64.2218876  12.1265018  91.1689854  63.7697220  13.1330156  90.1329041
  73.5426188   9.1435540  48.2450962  72.8408670   9.4404757  48.8244247
  74.0139723   9.9429703  48.0105972  28.8774729 108.5379028  63.1741190
  28.8974023 108.2969952  64.1002893  28.8503289 107.7014256  62.7095842
  29.5293117 107.0713520  71.2730455  29.5072007 107.7226162  70.5719090
  30.0936460 107.4587822  71.9421101  33.5168862 110.2142715  56.9368744
  33.9694524 110.5872440  57.6933861  32.5898790 110.3835011  57.1049500
 104.4535923   3.6018798  76.8909645 105.3439236   3.3402070  76.6563177
 104.1398335   4.0919805  76.1309671  23.9655423 109.9645233  76.0643005
  23.8802361 110.4262543  75.2301741  23.0639124 109.7978115  76.3390732
  55.4383516 100.0305557  63.9036608  54.9710894  99.2942238  63.5090494
  54.7793150 100.4738140  64.4379044  49.0327692  92.2583008  90.2605820
  48.3957720  92.6666737  90.8468342  49.8498821  92.7268314  90.4309940
  83.5786438   9.7511178  95.1114845  83.6070061   8.8437837  95.4150772
  84.0501118  10.2433908  95.7835102  22.0422292 107.1715164  44.2749834
  21.7159653 107.4177170  45.1405334  22.6400304 106.4429951  44.4426727
  49.6739578  93.4816360  74.4236469  49.9649334  92.5699997  74.4015598
  50.3921604  93.9720440  74.0237570  34.7532678 106.0244751  77.9852915
  34.9298549 105.1815128  78.4029818  33.8039374 106.0372066  77.8634644
  29.0568161 102.3195457  89.5574951  28.6983371 103.1776047  89.3306446
  29.6531582 102.4939919  90.2856255  33.1693339 104.2379665  73.9968395
  33.8504791 104.8341751  74.3079853  32.8059435 104.6715450  73.2247066
  33.8059616 106.3383007  94.5282459  34.2172027 106.4141560  95.3892708
  33.1503630 107.0355892  94.5136833  36.1735415 107.8203487  79.4820642
  35.9298205 107.2706509  78.7373066  35.5372643 108.5353661  79.4703674
  36.5343595  94.5415878  84.1361141  35.6174755  94.3574142  84.3401623
  36.7451191  93.9431190  83.4194183  36.6316438 110.3084087  69.3453169
  35.8175731 110.5618382  68.9102316  36.4747572 109.4126511  69.6440363
  52.1642447  95.3790092  79.9651670  52.8130293  95.8223343  80.5117702
  51.4219713  95.9827328  79.9371243  35.9746027 105.8433056  87.4165154
  36.3808036 105.2445030  86.7898750  35.0481772 105.6025887  87.4118614
 108.8831902  23.0263424  65.6365347 109.1174698  22.1025300  65.5475521
 109.6582413  23.5001278  65.3347874  42.3552370  94.5688152  73.7508392
  42.6074553  94.0393543  72.9943419  41.8016338  93.9896965  74.2746449
  18.0540824 104.9144650  39.9181318  18.1361425 105.1694012  40.8371019
  17.1844864 105.2211285  39.6612358  28.5821605  98.1496334  77.8394651
  29.3812156  97.6245403  77.7944660  28.6157131  98.7040997  77.0599318
  39.5313954  82.1586990  84.6426678  39.3914509  81.2716484  84.3113136
  40.0949812  82.0425129  85.4075813  93.1367111  10.9956276  86.8775845
  92.3397827  10.7138145  87.3267269  93.5166073  10.1870680  86.5338612
  20.8543777  89.6647263  54.5222569  20.2611923  89.1812038  55.0972080
  21.2874007  90.2938080  55.0993109  60.2353716  99.0951729  78.0460072
  61.1541033  99.3620777  78.0764151  59.8348904  99.6872520  77.4093866
  25.3638911  77.1775579  88.5114861  24.5321321  76.7039299  88.5023117
  25.6248569  77.1854877  89.4323921  55.8833313 109.8570633  77.8353071
  55.5793333 110.5625534  77.2642517  55.8533287 110.2317333  78.7156200
  57.7846479   4.3278688  84.3484306  58.3749723   5.0541538  84.1477776
  57.0569181   4.7338253  84.8194313  27.8822899  87.3034382  64.1994572
  27.9729819  87.1413136  65.1384592  26.9741416  87.5861263  64.0918255
  15.3558087 107.2315979  86.0573196  16.3055527 107.1431065  86.1372375
  15.1056528 106.5623283  85.4203510  47.5026464 107.2672558  49.9990368
  47.1254063 106.5697956  49.4628811  48.0956221 107.7302074  49.4071770
  65.6712294   4.2648473  55.0993824  65.7771397   5.1549417  54.7636032
  66.1748314   3.7194100  54.4951391  43.3670855  97.6652241  50.3160143
  42.4342632  97.8446770  50.4338169  43.5635757  97.9866791  49.4360781
  64.6230602   4.8681635  59.8870325  63.9824390   5.1016939  60.5588245
  64.6160841   3.9111099  59.8718023  59.3731642  27.6698375  84.1602898
  59.7501802  26.8879986  84.5637989  60.0856590  28.0363870  83.6366272
  73.8926697  17.2537446  28.8671350  74.0541220  16.7289293  29.6511841
  74.7654295  17.4920630  28.5545301  46.5422964  94.6663570  71.9654894
  47.4673033  94.5182800  71.7688417  46.4867306  94.6014118  72.9188633
 110.6433296  47.4760723   3.1431028 110.0024796  47.7091789   3.8148174
 111.2629795  48.2056379   3.1397948  56.1373806 111.6222095  80.3935146
  56.1336136 112.2769070  81.0917950  56.2964010 110.7926559  80.8438301
 101.4785576  15.8344185  47.5938559 101.4111996  16.5782511  48.1925249
 101.6374111  16.2302709  46.7369461  85.5950642  10.5108178  82.0524216
  84.9143028  10.0297654  81.5818977  85.5466080  10.1790595  82.9489803
  54.5032495 111.9133536  76.5230131  54.9335855 112.7157987  76.2278414
  53.9146894 112.2001359  77.2212791  51.3176060 105.7200146  48.8235474
  51.2867641 106.0087013  49.7356558  51.5593004 106.5049458  48.3319330
  70.4537487  20.4925895  53.3707523  69.7238684  21.0565400  53.1148863
  70.2054119  19.6227157  53.0578947  54.0900040 105.4289055  67.0001841
  54.4760466 106.2843895  66.8121719  54.7855568 104.8028374  66.7990112
  33.2235599  10.2621973  49.1603994  32.3662376  10.1284945  49.5645714
  33.7636614   9.5501935  49.5032883   2.2959955  30.4373479  70.5520344
   2.6960027  31.2510514  70.8588123   1.6823457  30.1957083  71.2457752
   8.7161064  15.1342452  43.8831615   8.8067746  15.7885396  43.1904030
   9.4155872  14.5040619  43.7104511  15.3126490  46.9051504  60.1065969
  15.3230298  46.2975216  59.3670654  15.5870581  47.7424145  59.7325277
 116.8232822  32.7638412  76.5020895 116.0723972  32.7439165  75.9087849
 117.2898006  33.5671115  76.2711096 102.2137260  13.3073854  61.9297361
 102.0808220  12.3594666  61.9252968 102.7384853  13.4793329  61.1478853
 112.6107025  36.6181684  61.6425037 113.3315468  35.9901619  61.6895914
 112.0072842  36.2425423  61.0013866   8.5263819  45.5319881  74.3161154
   8.9730579  44.7574615  74.6579027   8.8788396  45.6415224  73.4329319
   1.3606778  37.7079034  45.6755924   0.7205470  37.4162269  46.3247395
   2.1896607  37.3310614  45.9705687  51.3063002  87.7254772   6.7788494
  51.5614748  86.8675995   6.4394736  50.3922606  87.6169300   7.0415014
   0.8230893  62.3170853  62.1772099  -0.1169239  62.4635077  62.2828913
   0.9651887  62.3464680  61.2310696  11.9658589  63.0637455  49.3500042
  11.6501379  62.2697735  48.9185381  12.8603601  63.1723166  49.0270281
   2.9572248  35.8621526  65.7496309   2.3635678  35.4457188  65.1248217
   3.5297567  35.1540112  66.0445499  12.9272723  28.1770492  62.2945404
  13.2870555  28.4021497  61.4365673  12.1396470  27.6697135  62.0983601
 111.4734077  42.9775429  49.9999380 111.4510822  43.3030653  49.1000652
 111.1204529  42.0896626  49.9422789   2.4782971  60.0915909  63.1432009
   2.3368512  59.4610119  63.8493156   1.6512510  60.5692482  63.0794144
   7.2178108  22.9435563  48.9437675   7.9244107  22.2988081  48.9084435
   7.5577277  23.6409450  49.5044231   0.2581719  60.0523520  85.8602238
   1.1991014  60.0833416  86.0332012  -0.1083385  60.7500219  86.4035034
  11.0805166  23.1624961  63.0135632  10.6651843  23.9986420  63.2247257
  10.9398377  22.6220942  63.7909985 114.9956703  32.9914451  63.8440990
 115.8848286  32.6390481  63.8819885 114.4314289  32.2361159  64.0094662
  -0.0632009  30.9968615  89.1130829  -0.2615799  30.4691243  89.8866272
   0.7934080  31.3815141  89.2988110 110.8031464  36.3201666  63.6738729
 110.6482315  35.4262972  63.9792109 111.4236641  36.2223959  62.9516363
  19.6022964  65.6581926  70.1059294  19.7883773  65.5285406  71.0358763
  20.4489875  65.8855581  69.7216797 118.1833744  27.9585981  46.8187809
 118.4960747  27.1173477  46.4860010 117.4640083  28.1953001  46.2333679
 117.0331955  82.2019672  39.2258596 117.3962498  81.3801861  38.8955450
 117.7777863  82.6474380  39.6300507  13.1831717  37.3811650  62.9775000
  13.7647462  37.2337747  63.7233400  13.7726188  37.4771357  62.2294521
  20.2784252  42.7821207  60.0477695  19.4745255  43.1756306  60.3870726
  20.0150657  41.9070292  59.7630167 109.8387718  40.8984804  40.3279161
 109.4645023  41.7691135  40.1931810 110.7666969  41.0013676  40.1167107
  23.1720638  49.1593409  65.9879494  22.8241515  48.3238888  65.6761599
  23.8636875  49.3787289  65.3636456  19.3894410  56.0709000  65.8788967
  18.4742403  55.8099318  65.7762671  19.4175732  56.5180874  66.7247486
   0.8272001  27.4968338  32.9711270   0.8221845  26.8171525  33.6451006
   0.3706371  27.1012545  32.2286344  14.8338556  64.4127035  70.5474806
  15.4250491  63.6773729  70.3861952  15.0136375  65.0254250  69.8343992
  23.5962129  45.6477880  67.6522923  23.1912518  45.9366417  68.4700918
  24.3970895  46.1676788  67.5849009   5.1411879  40.6718731  32.1486712
   5.5228406  40.7467842  31.2740493   5.8535558  40.3363609  32.6929116
   9.5319432  42.4345303  70.5207109   9.9604636  42.6655245  69.6965456
   9.4447595  43.2661247  70.9866285 113.6074257  43.9692926  83.3220959
 113.1912708  44.6208143  82.7576733 114.2165279  43.5073996  82.7460098
 114.5924759  50.3658581  59.5807695 115.1789761  50.4332209  60.3342342
 114.6757984  51.2094593  59.1362143  11.5892935  40.9904385  50.8725834
  11.6882122  41.9214010  51.0719728  12.4858105  40.6704140  50.7722139
 104.5416164  48.6612177  66.6432667 103.6581326  48.3436060  66.4566517
 105.0571918  47.8669024  66.7828226 111.5812874  21.6170359  51.1125278
 110.7039452  21.4452338  50.7705069 112.0399189  22.0467043  50.3905296
   7.8042519  38.4498954  80.0149536   7.3171353  37.8658295  80.5961704
   7.3258257  39.2781329  80.0518322  90.7666683  47.1104813  73.9431477
  90.4531288  47.9742002  73.6749840  91.7160225  47.2112131  74.0125227
   3.4845257  15.7335413  60.2105618   3.9902425  15.2424181  59.5630455
   4.1367441  16.2548721  60.6785965   7.9310119  31.2381816  55.0527096
   7.1548700  30.7274032  54.8226166   8.5162681  30.6082511  55.4732990
  17.1838367  47.4718094  66.0164785  17.4076641  46.8326187  65.3400373
  16.3764560  47.1358442  66.4057064 101.5271854  74.1152048  53.0136538
 101.4369678  74.8286772  53.6453581 101.5800095  74.5528364  52.1639919
 109.8235416  53.7246752  50.5923843 108.9331055  54.0387440  50.4351234
 109.7924709  52.7945375  50.3685236  15.4769218  51.1645365  31.8613625
  15.5353892  51.6367054  31.0307765  15.3797412  51.8513441  32.5209761
 117.1636009  13.0657268  54.6339607 117.1682358  13.9805162  54.3522310
 117.3185158  12.5672328  53.8316298   7.4022543  50.6984663  57.0334053
   8.3196914  50.4471064  56.9268370   7.3143369  51.5049982  56.5254545
   8.3073765  27.2594738  35.3986049   8.5552174  28.0478907  35.8815193
   7.5169063  27.5100327  34.9204755 114.5471573  46.2767363  39.8513746
 113.7320328  46.0802555  39.3896508 114.5543766  47.2307396  39.9292016
  10.8117354  26.4217114  68.5033035   9.8736989  26.5607882  68.6335945
  11.1601865  27.2943687  68.3208704   3.1467161  29.4086528  59.6070814
   3.5885486  30.2234817  59.3681908   3.4999353  28.7579083  59.0004492
 113.7830067  31.0441732  32.9623222 114.6326351  31.2030888  33.3735538
 113.5308361  30.1711774  33.2631850  20.0943184  65.7724047  78.7649298
  19.5373595  66.5508604  78.7706518  20.0400329  65.4324913  79.6580935
 107.0762062  61.0879469  88.5092640 107.3558712  60.9433651  87.6053143
 106.6464233  61.9430828  88.4931374  13.4263122  25.7230973  53.6797762
  13.8614070  24.9122071  53.4163809  12.6785600  25.7972169  53.0868149
 111.2188721  53.1311846  75.1029921 111.5183353  52.7738714  75.9389830
 110.2638149  53.0935431  75.1547766   9.8595715  13.5850489  68.1212664
  10.4717302  14.1889513  67.7007961  10.3021908  12.7368152  68.0926418
  31.3909101  47.3146677  58.2462835  31.7578769  47.6121330  57.4137688
  31.5326524  46.3680220  58.2459021 100.6194878  51.8297148  33.0507708
 101.4568520  51.7133379  32.6018739 100.7394123  52.6176119  33.5809350
  13.2551014  37.5509167  58.4675169  12.8042686  37.4567866  57.6283979
  14.1202581  37.8900290  58.2378674  15.2642739  34.2193437  53.1229305
  15.8171070  33.9169860  52.4023819  15.4776716  35.1478791  53.2151985
  23.4343362  54.2529440  43.9809132  23.7309384  53.7951279  44.7674608
  23.3511901  53.5651302  43.3204365 114.4762611  62.6267195  65.3463984
 114.5220757  63.4014082  64.7860479 113.5996819  62.2732115  65.1951456
 113.6102009  43.3588314  46.1130714 113.8240719  42.8568983  46.8995523
 114.3301296  43.1762409  45.5092621 117.5991821  56.2180376  77.4951887
 117.7100372  57.1422577  77.2721243 118.4271240  55.8096361  77.2423124
 107.2615051  38.6584449  76.1312103 107.5010300  37.7357841  76.2181425
 106.8949223  38.8921046  76.9840050   0.5127451  40.6307650  61.9579029
  -0.1145182  40.4218864  62.6501036   0.8958249  39.7866893  61.7191315
 114.5000458  40.6159925  36.6121221 115.4192448  40.4410315  36.8138671
 114.5149422  40.9874964  35.7300830 100.6336498  44.8769665  65.7021189
 100.7305050  44.7457886  64.7589111 101.1275768  45.6762934  65.8847332
  17.2313356  60.6472492  57.1519709  17.2762215  59.8143244  56.6824436
  16.2943935  60.8147526  57.2535372  20.5255270  27.9691243  51.0546494
  21.3497400  27.5110936  51.2193060  20.6337428  28.8183308  51.4828682
   2.4889840  25.1256037  52.7689409   1.7252758  24.5527625  52.6993990
   3.2372653  24.5287037  52.7649212 101.1208916   9.3794847  67.0666742
 101.9676399   8.9404911  66.9858742 100.5765438   8.9762306  66.3904333
  17.0151544  35.2752161  89.8557472  16.3465512  35.4762292  89.2009258
  17.0936632  34.3215156  89.8329353  14.5819628  63.0846930  56.1500883
  14.2908967  63.8258266  55.6188345  14.5720422  63.4153271  57.0483208
 115.9371567  69.3260193  62.9615688 114.9913597  69.2764854  63.1003380
 116.0577011  69.0818453  62.0439196   6.7162907  39.1982961  70.1977634
   7.6723403  39.2095375  70.1522112   6.4384961  38.9084554  69.3288279
 101.5848541  44.4545937  59.8763943 100.9349537  43.7542772  59.8179483
 102.3733807  44.0227795  60.2050209   0.8059981  38.8493800  71.6477537
   1.0508396  39.6093464  72.1757078   1.6365032  38.4146047  71.4542007
  13.9683378  52.7858067  62.1978283  14.2219687  51.8676662  62.2922659
  14.0092838  52.9499149  61.2556887  93.5059071  39.9228477  66.4169359
  93.1261444  39.2954302  67.0320415  93.9959049  40.5325603  66.9686508
  28.2407999  33.3010483  64.2343473  29.1006112  33.4338737  64.6334934
  28.0130911  32.3970008  64.4513226   7.2967714  44.0621662  38.6439681
   6.7108220  43.8186789  39.3606329   8.1762087  43.9402914  39.0016937
 116.2389660  26.0111189  69.1531229 115.8555984  26.7762089  69.5819473
 116.1352539  25.3031373  69.7889185   1.3534902  42.7157211  60.3913116
   0.6584917  43.3667469  60.4881382   1.2099233  42.1030283  61.1125803
  11.2401199  51.1886358  25.3385711  10.8939469  50.3694677  25.6926298
  10.8146000  51.8720961  25.8563018 117.1855068  39.7884870  44.5342493
 117.5613022  39.6368217  43.6670637 117.9437542  39.8781323  45.1115322
   6.5165406  64.0581560  62.4300528   7.1373302  64.7653913  62.2549248
   7.0207363  63.4147501  62.9280949  22.7763009  34.8155499  59.5812416
  21.9113111  34.4797707  59.3461370  22.9201794  35.5475807  58.9815235
  23.2479763  70.8850241  54.5049667  22.7948976  71.6281796  54.1066313
  24.1742873  71.0440636  54.3236160 111.9202328  53.1792641  52.3040104
 111.1858368  53.3189154  51.7061853 111.7759132  52.3025227  52.6599932
  12.4621642  55.3449917  57.6161575  11.6285300  54.9136877  57.4283695
  12.3684585  56.2208080  57.2414541  16.3964462  93.4744263  80.0953388
  15.6560051  92.9176998  79.8544312  16.5381730  93.2954884  81.0249233
   8.0864918  44.6421528  51.9074011   7.9268771  44.3501091  51.0099220
   8.5038513  43.8928890  52.3324347  79.3157101  -0.0619106  10.1941144
  79.2624903   0.6537198  10.8275747  78.4349012  -0.4363996  10.1812625
   1.3933475  47.1077394  67.1902466   1.1037411  47.0285225  66.2813568
   1.8161833  47.9654217  67.2330046  22.4110579  40.9087420  81.5213490
  22.2274113  39.9693251  81.5201378  22.6436877  41.1061430  82.4286270
   3.5152251  54.3358421  58.8932467   4.1999248  53.7463713  58.5771132
   2.8378797  53.7535143  59.2372370 110.5217171  54.7888136  32.9560304
 110.6010151  55.5657148  32.4025202 110.6873798  54.0550661  32.3640823
  94.5217705  23.2784939  66.2353563  93.6760902  23.6472201  66.4904881
  95.0749302  24.0414619  66.0676336 112.4064064  29.8070502  51.5930986
 113.1434155  30.1281095  52.1126938 112.4423504  30.3185511  50.7848263
   5.4606658  32.2746301  95.7857704   4.5947248  32.2939396  96.1932087
   5.3887212  31.6089463  95.1017189   1.7003570  48.8121367  64.4647455
   2.0144880  49.0231657  63.5855293   2.2023319  49.3867207  65.0427628
 109.2305183  67.0890331  40.1878786 110.0399017  66.8190956  40.6217718
 108.5944843  66.4146471  40.4263926   7.8078604  41.5021801  33.8640070
   7.3976427  41.7970848  34.6770167   8.5116947  40.9192133  34.1486096
  12.2757804  46.2837505  43.5808659  13.0185568  46.6887760  44.0286016
  11.6785133  47.0101786  43.4025240   1.6468857  35.8509159  60.7219696
   0.7908932  35.6155872  61.0799217   1.6895492  35.3930235  59.8824787
   4.5732987  41.1576414  66.1194181   4.3106279  40.2988672  66.4506865
   3.8650751  41.7439413  66.3856936  98.8304615  47.6828384  71.9309902
  99.2597866  47.0954514  72.5529957  98.3447838  48.2989216  72.4794340
 116.9525146  15.4559255  67.3835945 116.6942883  15.4615569  66.4618969
 116.1401176  15.2816653  67.8588676  16.7608237  23.5624909  53.1193924
  16.7874372  24.5138812  53.0175066  16.3535333  23.4244919  53.9745569
   9.1897756  31.6435814  61.4338446   9.6166068  32.4966002  61.5138817
   8.2801861  31.8065286  61.6834927  15.5294275  39.1005087  53.1454134
  14.9065530  39.3475246  52.4618626  15.2565753  38.2226682  53.4122133
   0.8990515  30.4371309  41.0381556   0.9907427  30.6386828  40.1069212
   1.4765164  31.0621428  41.4764786  35.8445287  63.7341022  30.3979182
  36.1362767  63.0795145  31.0324502  34.9843955  63.4251642  30.1133823
  13.1607389  49.6216536  46.8085146  13.9995277  49.2682934  47.1048260
  12.6426280  48.8496685  46.5808439  11.8544865  27.2148895  51.9263411
  12.4674761  27.7622724  52.4171066  11.0065830  27.6445222  52.0390701
 116.4306736  59.3545103  56.6059303 116.2611771  58.4520340  56.8761921
 117.2042084  59.6132708  57.1068430  24.9677896  42.6653481  44.5186329
  25.0495195  43.5929823  44.7400904  24.0279460  42.4899340  44.5650244
 110.4351425  55.3144789  63.2271290 111.0429382  56.0233307  63.0165386
 110.9519958  54.7041273  63.7530279 110.7145786  21.3884187  42.6554537
 110.1569939  22.0309186  43.0942297 111.6070652  21.6581321  42.8721619
 116.9738197  30.0081706  61.0662651 117.5621986  29.9232674  60.3160429
 116.1796761  29.5439458  60.8015680  36.8177462  13.7851083  39.0501738
  36.2938762  13.0898166  38.6522245  36.5736461  13.7690985  39.9755883
 114.5546341  56.7080069  49.6432638 113.9045620  56.0189915  49.7807264
 114.7115612  57.0669270  50.5166340  84.0362263  42.1356297  43.4784079
  83.3825397  41.7669344  42.8842735  84.5245934  41.3768768  43.7978077
  18.4424186  27.6603317  49.1683578  18.0046546  28.4206104  48.7855148
  19.2859316  27.9967999  49.4708633 116.3458729  14.7213519  59.8867273
 116.6370106  14.3126452  59.0716028 115.6666756  15.3389859  59.6157074
  13.9397252  55.8024597  73.9130449  13.4080684  55.8313799  73.1175947
  14.8405802  55.8931446  73.6024475   6.7445076  74.0953922  56.0416651
   6.6233665  74.8540926  55.4707575   7.0396942  73.3989573  55.4550886
   2.4437137  57.6324797  49.7761774   1.5009549  57.5076866  49.6672535
   2.6737618  57.0797729  50.5230522   7.2097588  64.8460770  68.7233067
   6.2800652  65.0712681  68.6888170   7.5788444  65.2299309  67.9279041
 118.8885569  54.9465895  69.3137741 119.8362738  54.9316692  69.1801977
 118.6026959  54.0581560  69.1011715  32.3821425  72.7596283  47.4323320
  32.5197005  72.1060944  48.1180477  31.9370031  72.2821712  46.7322445
  25.3322792  62.1561813  81.3068295  24.4803166  61.7512941  81.4694881
  25.3048778  62.9773521  81.7979145  13.5636234  65.3190708  55.0595760
  12.9295170  64.9747038  54.4306469  13.1236076  66.0710478  55.4559946
 108.0360031  66.6197062  77.5112867 107.4119663  66.0633993  77.0450926
 108.7702179  66.0395145  77.7126026  10.9512246  31.4282084  57.5433826
  10.7669091  32.2653866  57.9692841  11.8802810  31.4737988  57.3175335
  47.4898291  59.1376448  69.9830389  47.1533060  59.1957569  70.8772469
  46.7221546  59.2775774  69.4286633  22.8219628  44.0382814  56.8296337
  23.2237601  44.7821522  57.2784567  22.9725671  43.2957697  57.4146366
  24.6414709  44.8841190  54.5902872  25.4500103  44.6160936  55.0269270
  23.9448237  44.6086693  55.1861429   6.2344062  52.2022772  77.0982504
   6.5766364  52.0394659  76.2192726   6.7399991  52.9497385  77.4174786
 109.7678852  25.8665299  58.7711763 108.9993954  26.2117076  58.3167315
 110.4059982  26.5792251  58.7379122  19.5330203  53.9911985  53.4939194
  19.7269082  53.9703703  54.4310427  20.3884864  54.0825272  53.0743122
  12.4008191  56.3196611  31.6242385  12.1747255  56.7364407  32.4557495
  13.1794512  55.7989407  31.8212414  37.2326064  69.3323231  88.3804417
  36.3939190  69.4068193  87.9251575  37.8750277  69.6686554  87.7556133
  15.7032919  91.2966347  71.6605997  15.8900142  91.9724941  71.0089970
  16.4311504  90.6800365  71.5814638   2.8124079  81.8177986  72.4688244
   2.9360101  81.4329433  71.6011572   3.5463369  82.4241066  72.5686741
   2.7052525  59.4511652  35.8833432   1.7556112  59.3369341  35.8464074
   2.9251841  59.3310833  36.8071628  11.8048501  42.7722502  59.7342682
  10.8810532  42.8703260  59.9649477  11.9042373  41.8414927  59.5341635
 104.9686146  76.0209656  47.5304317 105.6812286  75.6952906  48.0802870
 105.2222252  75.7769489  46.6402769  23.4885192  67.6059198  93.1944942
  22.5388837  67.5719595  93.0792999  23.6191058  68.2011890  93.9326286
   8.5718626  61.8897533  73.0093050   7.8275096  61.9078493  72.4077749
   8.3379465  62.5113726  73.6985874  19.3545926  67.1404600  49.7179365
  18.4988236  67.5669622  49.6733427  19.3808126  66.7467070  50.5900049
  15.6205583  73.6221313  74.8968220  14.7294259  73.5214472  75.2314520
  16.1721230  73.1944036  75.5518436  20.9344912  65.2955008  62.7102184
  20.5027008  64.4847012  62.9792833  20.5663753  65.4881334  61.8478870
  15.5118060  27.8275704  83.4157658  15.2153528  27.0563436  82.9324913
  14.7113729  28.2019663  83.7836838   7.6643682  51.5789366  71.6582346
   6.7850441  51.3277531  71.9409466   7.9213232  50.8954859  71.0392809
  36.8266845  67.8517580  64.4220877  37.1639109  67.9258060  63.5293245
  37.4959064  67.3525810  64.8902702   5.1361829  43.0764818  50.1348400
   4.5681843  42.3999977  49.7660828   4.8716092  43.8808441  49.6884823
 116.8771458  66.0734224  63.7229061 117.1214771  65.8302546  64.6158791
 117.3475170  66.8910265  63.5601091  18.4852386  48.0412626  95.5125713
  18.7264156  47.6353407  94.6799278  17.5320005  47.9627609  95.5500793
  33.0539513  88.8927650  63.9904547  33.4280944  88.5175037  63.1933165
  33.6271214  88.5843277  64.6922874   3.0159825  42.7420235  39.9809933
   2.3355158  43.3770227  40.2045345   3.8373452  43.1897736  40.1837587
 107.1727276  55.6017923  72.1635675 108.0816841  55.7908630  71.9305754
 107.1045876  54.6486235  72.1082735   4.6531054  46.4072180  63.7082815
   4.5531616  45.5896807  64.1960001   3.9988947  46.3520765  63.0117178
 110.8665466  33.5131526  62.3696232 111.4560127  33.5508823  63.1228447
 111.2437916  32.8395653  61.8037605  27.3134136  61.5756035  51.2799072
  26.6073227  61.7211628  51.9095707  26.8776155  61.2037325  50.5130768
 112.4211216  59.2008448  66.5053129 113.2684898  59.1380453  66.9460487
 111.7934895  59.3482304  67.2128344  27.6714730  66.3896275  66.0653019
  27.3532414  65.7566118  65.4216766  27.2853661  66.1040306  66.8933010
 108.3508396  63.5375738  58.4957600 109.0880394  63.9409447  58.9540768
 108.1180096  62.7818632  59.0351391  29.4611192  47.4959803  38.5497785
  28.6477470  47.0890236  38.8481832  29.4834638  48.3422422  38.9965200
   9.0558571  53.8145065  50.1071787   8.7216574  54.2058706  50.9142590
   9.8614711  53.3705521  50.3719902   5.3148353  60.8404160  83.7278557
   4.8295656  60.1433611  84.1692829   6.2350589  60.6137896  83.8622475
  11.4052176  87.0331860  63.2208443  11.2782526  87.5430489  64.0209341
  10.5190563  86.8106174  62.9355097 115.9396172  46.9045544  63.6910915
 116.7569256  47.0958710  63.2310534 115.3423977  46.6071177  63.0047274
  16.4664793  63.3671808  86.2049198  15.8220220  64.0503120  86.3899612
  15.9986830  62.7394581  85.6541443   7.1667349  88.6118221  51.0554266
   7.2523171  88.2282257  50.1826382   7.7318817  89.3840790  51.0341024
  23.8141322  85.6234646  71.9085073  24.4583011  84.9913883  72.2274876
  23.0039930  85.1200199  71.8282032 114.1354179  87.8567600  67.4553394
 114.9741840  88.2798004  67.2716570 113.8343525  88.2643509  68.2674122
  14.7776675  60.6029510  58.9363289  14.6510518  59.7037315  59.2389870
  14.0203869  60.7763243  58.3771324 117.5079250  78.0508041  92.6081085
 116.7090034  77.5395441  92.4793625 117.4714565  78.3254910  93.5243225
   2.3275094  57.1713638  85.9107780   2.7798119  57.5387096  85.1513577
   2.3464674  57.8718758  86.5628147   8.2759053  73.2504988  85.8430958
   9.2056996  73.3263731  85.6287193   7.8548574  73.0363607  85.0105667
   5.0762171  61.3200378  55.6829977   4.7672307  60.6781197  55.0437069
   4.6521047  62.1384096  55.4248667 104.6153069  35.1665425  46.4964294
 104.0358448  35.4472876  45.7881641 104.1781616  35.4622340  47.2949886
 103.1748581  54.5019960  36.1569834 102.8380299  55.0943851  36.8291807
 104.1261673  54.5916462  36.2136102   2.2014330  64.8112440  53.4234381
   1.2694828  64.7754335  53.6388874   2.4573395  65.7132339  53.6161995
  42.8215027  66.3843918  48.9365578  42.3541403  66.6683102  48.1509399
  43.1175518  67.1973467  49.3460608  28.9535069  46.4265871  46.5179062
  28.5731173  47.2043180  46.1096525  28.2934475  45.7443810  46.3948631
 109.6834087  44.7087097  47.9884720 110.1427937  44.1856623  47.3314905
 110.1835442  45.5233145  48.0386066  14.5306075  69.9155903  40.3273726
  15.4604733  70.0052500  40.1186991  14.2996120  70.7419014  40.7517290
  11.9853520  54.9661207  34.1274118  11.7165089  55.3547001  34.9598551
  11.2046814  54.5103979  33.8126135  22.2242022  42.2826719  45.3959227
  21.4166927  41.7708397  45.3491259  21.9759107  43.0794621  45.8646536
   5.4600823  61.1805010  65.5598497   5.4258937  61.2462854  64.6055269
   6.3372517  60.8453608  65.7455540  17.5203633  45.6171560  64.1921902
  17.4543536  45.9068537  63.2822752  18.3375549  45.1199150  64.2265558
  27.5042701  93.9808464  26.5026879  27.2251749  93.6558437  25.6467032
  26.9392490  93.5261536  27.1273828  27.5114131  43.8998079  46.1180782
  27.3983741  43.5943365  45.2180004  27.1993446  43.1738901  46.6583443
  21.8902135  55.4464912  74.9890280  22.7471948  55.8700418  74.9398708
  21.5007114  55.7867718  75.7944632  96.3858509  41.2006807  87.7411938
  96.0645485  41.9534969  87.2449398  96.5991211  41.5559578  88.6040592
 111.4371490  41.5650702  36.2718177 110.8398151  40.9390831  36.6811681
 112.2695732  41.0965729  36.2100124  15.0576842  59.5464706  66.7232943
  15.1991427  60.2047777  66.0429621  15.4396474  58.7454319  66.3645935
   1.5898328  44.8182344  49.5173597   1.1043379  45.6301212  49.6635151
   1.5060583  44.3375158  50.3408432  13.3295214  60.6042433  68.5872030
  13.7578416  60.2335739  67.8155947  13.3114564  61.5468216  68.4214973
  30.2400064  58.5419321  68.4600067  30.4259992  58.5622787  67.5212717
  30.9145689  57.9695463  68.8254786   0.4961051  39.4861579  40.4826355
   0.0871182  39.0250707  39.7502661   0.9781863  38.8068223  40.9541559
  22.1223760  46.8880796  64.8520041  21.7102861  46.0319424  64.9679327
  22.7502823  46.7574215  64.1414499  11.6524732  44.8099613  51.0043955
  11.8883395  44.2849255  50.2395868  11.3406610  45.6381130  50.6394720
  12.9209101  47.9040670  57.7252769  12.8985810  47.1275139  58.2844687
  13.4065270  47.6260948  56.9486570   5.9142065  85.9144211  67.8749180
   5.2452874  86.5968227  67.9306221   5.6291640  85.2480125  68.5001278
  32.6883936  49.7581244  75.5285645  33.5180759  49.9410009  75.9694910
  32.4037886  50.6077194  75.1917791  17.2203958  68.7215757  85.0475502
  17.7217281  69.4101381  85.4843330  17.8150308  67.9719210  85.0219345
 118.2011318  38.5398936  58.5604715 118.5296726  38.3512425  57.6814365
 117.9159451  39.4526720  58.5188007 108.3032703  58.3606434  75.3291225
 108.5192013  58.4983826  74.4068241 109.1319466  58.1034136  75.7332993
  10.8847487  63.4892273  76.8636847  11.4102054  63.8995647  76.1768436
  10.8068657  64.1621780  77.5399303  27.4254608  56.0273600  74.2804098
  27.5054502  55.0984859  74.4972658  27.2798181  56.0407925  73.3344507
 116.5062141  81.8300152  27.8390622 117.2315121  81.2180328  27.7139187
 115.7203484  81.2889481  27.7623248   7.8868121  62.2018909  64.0087557
   8.7576318  62.5810814  63.8899326   7.7528822  62.2018576  64.9565411
   3.6306161  41.2742949  48.5509443   2.8991318  41.0479689  47.9765415
   4.4109988  41.0401630  48.0485344  28.1783247  52.1037292  72.5011873
  27.9530621  51.8620491  71.6028118  29.0378499  51.7085886  72.6471615
  29.0233541  60.8263826  62.0962667  28.4757853  60.2359200  62.6137209
  29.7604752  61.0342550  62.6704407  30.5769849  53.5368347  81.4193058
  30.9045553  53.8630342  82.2574806  31.3560390  53.2124472  80.9675598
 104.3059540  42.1583128  62.1434593 104.5634460  42.5311708  61.3003063
 104.7572803  41.3150024  62.1802711  20.4982495  59.2371035  73.8399315
  20.6876445  59.3776655  74.7676182  19.9252486  58.4704828  73.8259363
   8.3677435  63.3655262  30.7634258   8.0558622  63.7043285  29.9242735
   8.1912982  62.4256086  30.7227230   6.7746973  78.6142492  71.3149643
   6.8575799  79.5505619  71.4957333   7.6699036  78.2797098  71.3690281
 112.7797794  67.4524450  75.9978199 113.7102413  67.3905802  75.7818413
 112.7361965  68.1230116  76.6794825 116.7280483  61.7035913  66.5349436
 117.1533108  62.5569868  66.6191864 115.8846474  61.8956852  66.1250544
 110.0072670  48.4510326  67.0661116 110.8444595  48.7318420  67.4355459
 109.4917870  48.1746054  67.8238058  22.8862572  72.2272825  93.6889076
  22.7018809  71.7805004  94.5151138  23.8101554  72.0439863  93.5184765
 108.6578655  52.7137184  74.9512005 108.3334160  52.7737188  74.0526676
 108.3755684  53.5304880  75.3628206 118.9256954  46.6955185  49.8862696
 118.5947609  47.1361542  49.1036081 118.4692478  47.1213341  50.6119204
   9.8659420  50.5415678  37.4165344   9.2913735  50.0201273  37.9770732
   9.7823232  51.4341068  37.7521110  28.4386325  34.8234010  58.1063747
  29.2989159  34.4343209  58.2637310  28.4042358  35.5755997  58.6973429
   9.8639506  61.2938929  70.3980446   9.2459124  60.7523346  69.9071503
   9.4630396  61.3919020  71.2616968 115.3872776  79.6684742  46.3069057
 114.8329353  78.9307308  46.5612173 115.3202057  79.7006702  45.3526020
  14.8727083  49.9827480  62.2186422  14.3728173  49.1693783  62.2877121
  15.7783043  49.6976852  62.0967102 112.3628521  64.6684074  89.0718937
 111.5236092  64.2796469  89.3184090 112.4947548  64.3973064  88.1634045
   5.4990524  50.4142714  66.8768501   4.8951694  50.7367134  66.2078285
   5.3689337  51.0026550  67.6205587 118.8788319  57.1306133  49.0371180
 118.9949894  57.2336197  48.0925894 118.1514740  56.5143633  49.1231871
  13.3596265  89.6723557  84.2384720  13.9822364  89.5690441  83.5188103
  12.6370013  89.0853214  84.0161419  10.7809114  32.2733498  50.2545404
  11.3593614  31.6040826  50.6201982  10.7375312  32.0681477  49.3206024
   3.3266893  91.1771584  53.3944798   3.4372240  92.0319939  53.8107300
   4.1415876  90.7117558  53.5830879  31.0340357  63.7714386  92.8247643
  30.4907656  63.6051178  92.0544147  31.7234468  64.3561029  92.5099468
  24.2809725  59.7049713  67.6312876  23.6654735  59.9512529  68.3217525
  24.5326042  60.5354691  67.2273254  42.8101301  59.5267487  57.4597883
  42.3685503  59.6075010  56.6143751  43.6806297  59.8962021  57.3115778
  16.7596388  51.3969088  53.5814381  17.6180589  51.8151569  53.6478662
  16.1468685  52.1239376  53.4711313  20.1951194  63.8700056  52.2800159
  21.1135483  64.1228533  52.1862602  20.1060295  63.6287737  53.2020283
 107.1586037  74.1868067  50.8082867 106.3483715  74.6514940  51.0175991
 107.3215580  73.6334848  51.5721703   9.0627229  36.8701696  51.8744135
   9.2568350  36.0798860  51.3704252   9.8157316  37.4415016  51.7234516
 116.9879627  68.8929462  78.6036301 116.1284256  68.8512897  79.0227890
 117.3834991  69.6939516  78.9473820 107.5164604  51.8183851  59.2975283
 107.0473576  51.7826414  60.1311350 108.0354691  51.0142994  59.2800856
   4.4961354  58.8340712  58.1488085   4.0435684  58.4022188  58.8733196
   4.4735584  58.1944704  57.4370289   7.9191214  62.5528669  59.0262747
   8.8078862  62.7011824  59.3492794   7.5533676  61.8997097  59.6227980
   3.7739891  47.4927998  76.5785360   4.3815750  46.8116426  76.2902689
   4.3244985  48.1247234  77.0409679  33.0711389  62.2296619  65.7652855
  33.1517339  61.8197680  66.6265202  33.6465025  62.9934025  65.8087397
  22.9074121  29.8331904  60.1676416  23.5408449  30.5490875  60.2174997
  23.2471323  29.2602348  59.4802237  10.8511627  73.7440968  70.1562023
  10.5037630  73.1222630  69.5167685  10.8310521  74.5880222  69.7049665
  10.9218180  59.3682909  60.0891113  11.5616763  60.0148869  60.3869772
  10.1931560  59.4514322  60.7042313   7.4598390  73.8208771  63.7957859
   7.0933652  73.5819578  64.6471643   6.7866409  73.5654974  63.1650639
 116.3243103  41.5912628  61.8340969 117.0006657  41.2195539  62.4003220
 115.8668995  42.2222757  62.3898172 109.2360783  41.5024281  68.9644766
 108.3947849  41.8388796  69.2730999 109.8866177  41.9560194  69.5004797
  18.2144248  44.9704599  67.0885944  18.6761606  44.6404266  66.3178062
  17.2888565  44.8213148  66.8954325 116.9177914  51.3714361  56.2027550
 116.5292454  50.7181215  55.6210041 116.2963676  51.4471579  56.9268608
  27.7202845  82.0317268  42.1206665  27.4349213  81.3357449  41.5287113
  26.9081640  82.3863316  42.4825382 118.0470753  28.5611033  57.0180559
 118.2571220  29.2588449  57.6387548 117.1586609  28.7618470  56.7236853
   0.2728988  64.2000532  48.5119772   0.8382609  64.9708414  48.5617781
   0.8791494  63.4600019  48.4800959  37.9581833  60.0114346  58.4274960
  37.7524066  59.7295046  57.5362015  38.3939314  60.8564854  58.3168125
  22.6172948  78.2815647  74.4615269  21.9914603  77.5604248  74.5288038
  22.8924823  78.2751322  73.5447598  23.2506895  58.9458084  55.5590248
  23.2732511  59.6695328  54.9329662  23.1269956  59.3681908  56.4090395
  29.1979718  71.8292570  54.8841906  30.1331115  72.0209265  54.9549484
  28.8536954  72.5212669  54.3195391 115.8043671  92.0110226  57.1609926
 115.8093357  92.6276112  56.4288616 115.9659672  92.5540161  57.9325342
  30.1565361  52.1808577  69.7420692  29.5551801  51.4646578  69.5379782
  29.8704267  52.9012394  69.1804409   0.3612234  62.1571016  55.6505156
  -0.4852938  62.5453568  55.8716393   0.9568337  62.4801588  56.3266182
   1.0583147  67.8561878  69.4120312   0.7286476  68.0002546  68.5250187
   1.3701300  68.7160444  69.6942616  17.9482639  51.8802309  33.7360263
  17.9220557  51.1701107  33.0947208  17.7262378  51.4606333  34.5672154
  44.5310259  64.3547106  35.1088333  43.6886120  64.7409058  35.3484559
  45.0401640  65.0871229  34.7615767   3.7261751  50.8296919  34.1127610
   3.3486003  50.0551748  33.6958694   3.2666758  50.8992815  34.9495697
  98.6454010  59.4094419  75.1722717  99.1937733  59.6135235  74.4147301
  99.2347240  58.9651775  75.7818270  46.7603779  81.7670536  68.2373619
  47.3891783  81.7271996  68.9579582  47.2969770  81.7021370  67.4473763
  17.3332655  74.7881889  69.4968319  16.4480412  75.0927401  69.6964693
  17.2255981  73.8607550  69.2858553   5.8179885  72.6109314  47.8291035
   5.9695715  73.0136442  46.9740772   6.2044728  71.7383862  47.7547884
 111.9699001  65.6470919  57.3503447 112.5393105  64.9064302  57.5587368
 111.2998867  65.2793837  56.7740679 103.9994621  95.7162857  43.3459854
 104.2561436  95.7240295  44.2680979 104.1940784  94.8268223  43.0506563
 112.2734165  73.3865070  58.5207701 112.6119900  74.2796135  58.5836744
 111.4856243  73.4663343  57.9829550   3.1706583  76.2064314  69.9432421
   2.4116981  76.1452055  70.5232954   2.9205939  76.8596172  69.2897511
   1.5246564  40.3672838  43.4418392   1.2169880  39.5030284  43.7150383
   1.0033923  40.5727959  42.6657724   4.6513915  50.9931707  81.5158558
   4.5987231  51.5659285  80.7507324   5.5848384  50.8026266  81.6086006
   6.3317382  84.8597908  62.7688169   5.5311334  84.5093060  62.3783970
   6.1670053  84.8400784  63.7115288 112.3260117  68.8918114  59.0175629
 112.6905060  68.1997871  59.5693636 112.2371006  69.6434832  59.6034956
  28.7818265  65.1600838  70.1512051  28.6328292  66.0913801  70.3146887
  28.9482808  65.1057386  69.2101574  23.3030462  49.1748810  74.4445992
  23.7300777  49.8586273  74.9607038  22.4908209  48.9907169  74.9164057
  28.8180614  46.0830021  57.7690601  29.2832899  45.3287554  57.4072552
  29.5114541  46.6707039  58.0691385   3.0549219  61.2891912  58.2252979
   3.6791429  60.6731081  57.8418589   3.1963509  61.2171221  59.1692448
   4.6709570  44.8756504  35.2690029   3.8273978  44.9180746  35.7193828
   4.5587522  44.1860104  34.6147585 107.4538994  50.4391766  32.0049548
 107.4867821  51.3783836  32.1867299 106.7225933  50.3386211  31.3955951
 102.0907211  55.3131485  88.2871246 102.8232002  54.9931812  87.7605152
 102.3192024  56.2204981  88.4889793  12.5484014  46.6905069  65.9013510
  13.2295012  46.6589212  66.5731668  13.0286777  46.6945219  65.0733709
   1.8044436  48.6609077  46.8945742   2.5430644  48.1064510  46.6430902
   1.0385489  48.2219791  46.5244675  20.3570557  54.3507051  63.0400515
  20.2818513  54.5576286  63.9715862  20.4430246  53.3977699  63.0125570
  25.4165006  28.6525726  64.1480684  25.8014369  29.3884039  63.6720371
  24.6928239  28.3608770  63.5935974  19.7614849  62.8749514  58.1095982
  20.2846217  62.0838928  57.9800224  19.4940960  62.8375149  59.0279293
  12.7084172  43.1253433  29.7037339  13.4325039  42.9371023  30.3008080
  12.1816242  43.7783527  30.1644921  12.2826636  58.6620378  70.2263308
  11.4799261  58.9297915  70.6737137  12.6350403  59.4733810  69.8605680
 118.5756207  44.0636921  53.2609034 119.3665695  43.8458014  52.7678013
 118.7689686  44.9112797  53.6614513  50.1820946  86.1362171  62.0813704
  50.9857512  86.1687565  62.6003170  49.7805882  85.2989769  62.3138618
  26.3068748  52.5289392  62.7292013  25.7989383  52.0147610  62.1016264
  26.5026259  53.3444834  62.2678947 114.6622086  38.1959200  63.0121994
 115.1601124  37.7855968  62.3051310 113.8136959  38.4013629  62.6197052
  42.1955967  69.2480516  75.2390194  41.4867830  69.7953892  75.5770063
  41.7746639  68.4148836  75.0271797  18.0264556  47.7956009  79.4295168
  18.9575720  47.6554775  79.6016169  17.9663229  47.8616571  78.4764957
   2.0662592  43.4093142  55.1292849   1.6397345  44.2630434  55.0554276
   2.2038038  43.2907963  56.0691071   4.0033787  52.4390078  40.7875872
   4.6724609  53.0973005  40.9752321   3.7468690  52.6097822  39.8813462
  11.4270353  47.9885721  79.6311569  11.5834057  48.1623125  80.5593777
  12.2395849  47.5878286  79.3222952   6.7294008  53.5829258  40.2934027
   7.5607973  53.7708378  40.7289505   6.2850761  54.4296312  40.2498770
 117.0386410  30.3154564  78.1323481 117.8555202  30.0411320  78.5491037
 117.1453953  31.2563181  77.9922962   6.5082169  54.9331141  68.6753654
   6.2323862  55.2991199  69.5157146   7.3066628  55.4131126  68.4555626
  91.7576408  37.1486855  31.2003016  91.5751457  38.0836511  31.1066628
  92.1694565  36.9009519  30.3724957  99.3839359  64.9491930  63.8399982
  99.4914436  65.6563377  64.4760942  99.0784931  64.2049074  64.3586254
 108.9425850  17.8610945  64.6604013 108.0572319  17.7406406  64.3170881
 109.4441319  17.1350574  64.2895174   7.4716711  45.4267454  70.8110428
   6.8091691  45.7232428  71.4350748   6.9717073  44.9971628  70.1169777
  17.3957384  75.0926161  77.2941256  17.0024908  74.2471647  77.0777893
  17.6205730  75.4761219  76.4464188   7.3086971  56.1923933  43.9771700
   6.4641696  56.5672636  43.7272167   7.7133960  55.9393167  43.1474686
 105.0417995  57.9507303  82.7445316 104.9786758  57.0357418  82.4705887
 105.3766060  58.4089708  81.9737244 108.1044388  76.3399839  57.8836966
 108.0792904  77.0492935  58.5259438 107.6319313  75.6206560  58.3026648
 107.0511818  54.3064785  51.0372543 106.4062881  54.1470432  51.7263985
 106.6008186  54.8780298  50.4153681  20.3602004  57.0027494  51.1921310
  20.6418896  57.8892994  51.4177799  19.5723403  57.1290588  50.6633997
  34.7787476  63.2114840  74.3136835  33.8253880  63.1474495  74.2568016
  34.9482322  64.1428947  74.4550323  96.1847115  64.6884537  47.5773239
  95.4519939  64.2242289  47.9821110  95.8174419  65.5321789  47.3137569
  27.9088759  66.6142845  19.0617394  28.3014655  65.9401751  18.5070527
  27.2748351  67.0523071  18.4939706  29.9992561  71.6099882  64.7169447
  29.4986129  71.6367388  65.5323410  29.3660784  71.3293314  64.0562248
  44.4171000  74.6836758  68.4529352  43.9779520  75.0995350  67.7110195
  44.3903160  75.3423166  69.1469812  14.9237466  69.5514870  74.6558762
  15.5265927  70.1252699  75.1287174  15.2011001  68.6662149  74.8916674
 118.2205009  80.7297039  71.6111135 117.4705696  80.1363373  71.5692139
 118.9682198  80.1586246  71.7872334  10.9182429  33.9365435  61.2652683
  10.7360673  34.7127652  61.7949104  11.4653242  34.2584491  60.5488110
  22.5431514  55.4098129  47.8244352  22.7691388  56.3306999  47.6935673
  22.3124957  55.0933409  46.9510078  14.0548360  71.4008331  69.5011854
  13.2919645  70.8496523  69.3266535  14.6562040  70.8321762  69.9820375
  15.2404928  37.5200033  61.0332012  16.1676180  37.5989962  60.8086300
  14.8921943  38.4053063  60.9275627 107.7916431  46.3069534  24.3720436
 107.9801655  47.1252680  24.8314500 106.9577408  46.4669657  23.9301848
 118.0112362  69.0666151  90.9281921 117.3385334  69.2687941  91.5784454
 118.7319469  68.6949301  91.4367771   8.7553436  79.5830154  77.8384972
   7.9387486  79.1057968  77.9856873   8.6449242  80.4015636  78.3222437
 114.6478176  28.2690048  56.8271399 113.8129902  28.6988521  56.6413450
 115.2813911  28.7276387  56.2753487  33.7355590 112.1359348   2.8282282
  34.0869379 111.4655590   3.4142068  33.7822628 112.9461098   3.3358335
  12.3030984  77.1079779  72.8387117  11.6046727  77.7001381  73.1175995
  12.0337951  76.2494230  73.1651974  19.4197333  95.2912521  78.9053726
  20.2979231  95.5785656  79.1552973  19.2407012  95.7530212  78.0862617
 118.9777470  80.3762436  58.5109377 118.4621906  80.4675961  57.7096367
 118.7644863  81.1562157  59.0231848   5.0670999  82.0849228  85.2799702
   4.4849694  82.8244877  85.1056004   4.5177770  81.3118935  85.1499844
  16.3386667  57.6423550  54.6171379  16.2654531  56.6879940  54.6251822
  15.6583881  57.9398584  55.2212477  11.1830473  64.0813351  35.6709909
  10.4126203  63.9141798  36.2138844  11.7582202  63.3339596  35.8348203
  32.9061484 110.0852489  45.4485655  32.0523643 109.8306656  45.0986099
  32.7751660 110.1226521  46.3960218  10.5769551  61.2334919  78.5368824
   9.7583604  60.8643484  78.2054281  10.7849538  61.9411230  77.9267788
  17.7602720  83.3129883  94.3664742  17.3175156  82.8614140  95.0850010
  18.4777606  82.7284050  94.1221237 115.9030151  81.6068268  31.2678766
 116.3051891  81.3811684  30.4290867 116.1986637  82.5002956  31.4425921
  42.8964376  72.1055984  59.6580791  42.3382854  72.8817034  59.6094608
  43.7101746  72.4200916  60.0519753  19.6573257  61.5114021  60.9044790
  19.2740726  61.6147709  61.7754889  19.4179070  60.6227589  60.6413841
  45.2399492  96.7771530  56.3552618  44.6323299  97.3614120  56.8087673
  44.7692966  96.5074444  55.5666065   0.3912047  62.1160030  59.2021513
  -0.2797815  61.4369440  59.2720842   1.0678748  61.7278671  58.6474514
  27.2315907  74.0277576  71.2743235  27.1981168  74.9836540  71.2372780
  26.9175291  73.8109398  72.1521568  14.6951842  55.5461168  49.7118807
  15.5882680  55.2365541  49.5608759  14.3918252  55.8318710  48.8501692
  42.6776981  55.4257870  78.7470722  43.0126953  55.7537985  79.5815897
  41.8082190  55.0841331  78.9556694  13.3325851 111.5768242  56.0058689
  12.7367306 111.2414646  56.6757393  12.8240967 112.2445107  55.5455780
  31.7265797  46.1004639  80.7777214  32.4804497  45.8116770  80.2634144
  31.1181188  46.4578152  80.1309586  16.1491644  79.4656324  85.4942322
  15.4994869  78.9932108  84.9736786  15.6756949  80.2231312  85.8381081
  44.9920845  79.2381811  46.1693430  44.5306206  78.7798405  45.4670572
  44.4789171  79.0507412  46.9553185  24.0456271  65.9386826  74.1527319
  24.5020771  66.7710257  74.2755890  24.4768643  65.3371620  74.7597170
 118.3764839 100.7078075  64.8437691 118.5880661 100.6295586  63.9135313
 118.9023399 100.0291061  65.2669287   0.1849345  53.1097174  65.8294487
   0.6909636  52.5923872  66.4559793  -0.6124422  52.5998306  65.6865168
  32.0122457  50.4501343  57.4519110  31.3347507  50.3480196  58.1203461
  31.8722558  51.3297892  57.1014214  25.2640867  72.4172688  48.0443525
  24.3720245  72.0908737  48.1623459  25.7824779  71.9360065  48.6892462
  24.2330551  65.1203489  70.8278418  24.8762822  64.4168091  70.9145737
  24.6438289  65.8740044  71.2515163  32.2042704  65.0590467  57.0544338
  32.7463675  65.4355288  57.7477074  31.3149476  65.0798130  57.4078608
  39.6414185  65.1711702  90.7714844  39.8498464  64.2641163  90.9951878
  39.0961266  65.1052856  89.9875546  25.7165384  74.1028786  66.5682316
  24.9672937  73.5625553  66.8190575  25.3786302  74.9984312  66.5740156
  35.2292347  58.4232283  64.1700029  35.1992035  59.3059587  64.5389509
  36.0480762  58.0534029  64.5000935  24.0847445  33.4508252  70.1899910
  24.6819949  33.5309601  70.9336996  24.0496707  34.3308449  69.8150730
  13.7646651  78.3500099  41.4889622  13.1014132  78.1739807  42.1563005
  13.5231793  77.7836895  40.7560253  11.0254169  58.7463140  53.1443119
  10.1420379  59.1015244  53.2428074  11.5283287  59.4602680  52.7524137
  34.3120432  83.0789948  64.8435736  34.9724436  83.6617088  64.4686651
  33.5445023  83.1951237  64.2835474 115.9497261  94.7337055  67.4985313
 116.2808609  94.6403694  68.3917618 116.5811634  94.2588234  66.9581604
  30.3402281  60.1730824  21.8080497  31.0711098  59.5598221  21.7308807
  30.0045967  60.0354528  22.6938486  44.1099644  70.3858948  86.7966080
  44.1432762  69.6603823  87.4201107  43.3664179  70.9153748  87.0847511
  14.5768225  37.1290231  65.1304388  15.3175187  37.6720405  64.8607445
  14.5846367  37.1710873  66.0866785 110.0759983  76.9048834  44.7613382
 110.2174854  77.4027681  43.9561510 109.3195534  77.3236036  45.1720619
  18.9762795  74.1765165  81.6194248  18.1454408  74.1702223  81.1441422
  18.8066292  74.7167253  82.3911953  23.5061288 100.4125500  71.7395353
  24.1751409 100.2206993  71.0823870  22.6899242 100.4647636  71.2422276
   0.8503927  70.5648327  64.6771860   0.9306651  70.9687185  63.8130903
   1.3158953  71.1606026  65.2642155  42.0565891  96.8425846  59.7404623
  42.2508955  95.9591961  60.0536537  41.8814516  96.7322636  58.8059092
  13.1286061  78.0286264  53.5470247  13.7877142  77.4601412  53.9453077
  12.8367388  77.5499630  52.7711821   2.9505441  65.3887796  66.4212847
   3.6870524  64.9926519  66.8869781   2.8950551  64.8994303  65.6004953
  12.3631895  91.8433285  57.4064589  12.5235319  92.7198219  57.7561378
  11.4461470  91.6660023  57.6157951  24.4718909  56.1736012  73.2400990
  23.9299154  55.9059095  72.4979115  25.0315785  56.8668461  72.8902483
  18.1837368  65.5074930  65.6852484  18.9451969  66.0848236  65.6295729
  17.4399519  66.0707617  65.4713726  21.3969684  59.4500589  51.4465380
  21.8035889  59.9371338  50.7298422  21.9884062  59.5771408  52.1883488
  18.0874634  89.5637894  63.1688499  17.2136962  89.3046188  62.8762865
  18.0571866  90.5201340  63.1957150  15.8576322  99.6575451  81.7465878
  15.4904068 100.3041744  82.3493004  15.6905806 100.0193310  80.8762836
  18.9173508  63.3957815  63.7631083  18.8369191  63.9507055  64.5388794
  18.1959569  63.6698008  63.1967735  14.2992008 101.1827946  64.2865181
  14.7354436 101.7588520  63.6587572  14.7060978 101.3927174  65.1271152
  18.2415473  67.6143217  78.0112314  17.5256944  68.2496166  77.9976320
  17.8133214  66.7744780  78.1771183  15.8182323  74.4815493  43.6791658
  16.3108492  75.1555109  43.2108259  15.7797599  74.7969484  44.5820904
  30.4065537  55.3655052  43.0840158  31.0256720  54.6355534  43.0937433
  30.8967996  56.0902214  42.6958370  11.5870130  64.0591049  53.3509493
  10.7077110  64.2481136  53.6785650  11.6599667  64.5761156  52.5486946
  34.0982413  55.3396320  56.6295767  33.7256026  56.0766983  57.1134186
  35.0386190  55.5171680  56.6095400  16.9663298  65.4375458  78.4786701
  17.2338200  64.5223379  78.5628033  16.6833580  65.6862354  79.3586206
   6.1924684  78.9437723  63.0774212   5.7464486  79.0476179  62.2368765
   6.6034168  78.0808353  63.0254984  42.1101284  64.3103647  66.8256807
  42.6741076  63.7564230  67.3654127  42.0718479  65.1432943  67.2957754
  13.6295438  76.1391497  68.1612015  13.2086194  76.9876051  68.2996845
  13.2454026  75.8110714  67.3481655  27.6262450  66.0774946  79.8744297
  28.0587769  65.2434111  79.6915340  26.8116570  65.8335638  80.3139496
  10.4191816  52.5792313  43.2300520  10.2678847  52.8671360  44.1303062
  10.8841014  51.7473269  43.3195734  28.4200025  58.9360046  49.8503113
  27.9205489  58.1710911  49.5645046  28.7283874  59.3378353  49.0381193
   9.0141374  46.0668373  46.9881725   8.9242643  46.9373131  46.6003275
   8.6692959  45.4713869  46.3227701  35.8052588  74.3507099  80.2358341
  36.0412169  75.1682472  79.7974443  36.3543081  73.6875200  79.8175573
  43.2006788  93.1812191  54.1833687  43.3179426  93.6079502  55.0321198
  44.0497971  93.2710934  53.7507534  28.0558491  67.6068068  34.9925423
  28.7164879  67.2595692  34.3931985  28.2401943  68.5451460  35.0346208
  17.9381633  50.3245020  60.8691597  17.2445071  50.5754757  60.2591705
  18.4707689  49.6965981  60.3809977  38.8939643  56.5844250  86.2896538
  39.3805790  56.2204742  85.5500793  39.0249181  55.9526348  86.9967079
  24.5120025  76.5396023  66.1526442  24.3180108  77.0739746  66.9227362
  24.8733830  77.1575260  65.5171919   7.4327099  68.2549524  63.4956026
   7.7472150  69.0827131  63.8591099   6.5433741  68.1654835  63.8381052
   2.0469636  80.6629562  64.5155716   2.6350337  80.1825142  65.0983047
   2.4517471  80.5875111  63.6514616  25.5994511  72.0070505  53.8124752
  26.0085249  72.5752640  53.1597710  25.1473141  72.6085997  54.4040346
   8.7173289  30.3417206  58.6683559   8.5474890  30.8947849  59.4309235
   9.5074344  30.7121778  58.2750034  11.6625369  75.7507181  47.8286600
  12.1268451  74.9422121  48.0453825  11.9342804  76.3715410  48.5046577
   4.8746496  84.0523148  69.8447227   4.0854773  84.2595482  69.3442297
   4.7020182  84.4008923  70.7193232  19.6497595  67.5975513  58.9661360
  20.2476120  66.8522978  59.0245104  18.7817419  67.2199774  59.1083145
  17.2929275  85.0450134  49.8618507  18.1691670  84.8884392  50.2138758
  17.2251022  85.9980106  49.8032904  21.5489650  85.8170795  59.8142385
  21.6976476  85.4093456  60.6674004  21.4481688  85.0806427  59.2111349
  18.6728930  34.8790956  59.8816299  18.8860762  35.7636452  60.1788759
  19.3029976  34.7028303  59.1829681  34.0501237  52.2125006  70.4123068
  34.2928314  51.3113213  70.1996946  33.4513283  52.1305132  71.1545706
   5.6547570  69.4831133  69.5225382   5.2880174  69.0861034  70.3125525
   5.0740117  69.1953659  68.8181448  46.3266325  64.0027094  63.8221073
  46.6196346  64.9077845  63.9280367  45.3822708  64.0372896  63.9744949
  22.0831132  76.4790392  56.4575815  21.3994741  75.8985758  56.1230230
  22.3340726  77.0129061  55.7037640  43.4986019  85.6243706  62.0355940
  43.7624359  86.5423012  61.9720554  44.3091536  85.1325321  61.9039392
   8.0061990  92.6846790  68.0578136   7.8265262  92.2689533  67.2145319
   7.8076273  93.6102104  67.9157066  12.3070431  84.0359592  40.2009106
  12.6618207  84.2710972  41.0582781  11.8068218  84.8055744  39.9294305
  41.8822956  71.7760563  63.7960052  41.6897297  71.2476921  63.0214167
  41.2355566  72.4812984  63.7716961  31.1852837  77.3115969  49.1629457
  30.8402205  77.0675707  48.3041000  31.5419316  78.1908655  49.0367603
   1.9540840  67.9704237  56.2053442   2.4720058  68.6704636  56.6027498
   1.5384816  67.5296831  56.9464588  20.7530260  84.7061348  88.0021667
  21.6108656  84.5103359  87.6253319  20.9356475  84.9132347  88.9186764
  25.9814596  67.3114967  82.8733635  26.0650945  68.2649803  82.8630829
  26.7136574  67.0126390  83.4126282  12.0181084  77.1950054  64.7169018
  12.6107037  76.4734840  64.5060253  11.1772728  76.7715836  64.8899460
  16.9124055  89.7178364  49.9132252  16.8237090  90.4615688  49.3172169
  16.2616348  89.0863514  49.6067238  44.3472481  90.8248425  46.7121029
  43.6483765  90.8893013  47.3629856  43.8901663  90.6829071  45.8831453
   6.7192203  66.7567253  76.4060783   7.0643646  66.9986916  75.5466843
   6.1011887  66.0485125  76.2252426  40.6190252  52.4359846  41.8126583
  39.9190378  53.0816889  41.7161608  41.2641001  52.6811028  41.1493111
  12.6714742  79.1406727  75.0728846  13.1326079  78.3257008  74.8743582
  12.1860266  78.9516830  75.8759165  40.0307178  68.6842775  77.5815821
  40.7984734  68.1133127  77.5535393  39.4502234  68.2737637  78.2224703
  28.3461523  71.6766453  60.6510782  28.0671740  71.1850739  59.8785782
  28.6904573  72.4981928  60.3007364  37.1236062  96.0311890  55.3374386
  36.4450240  96.6885471  55.4912138  36.7950678  95.5155659  54.6009445
   6.7466855  54.7982311  57.9626560   7.4447137  54.5881462  58.5830212
   6.4137888  55.6467247  58.2550097  18.9333773  87.0551777  52.7304745
  19.3157780  87.2487164  53.5863590  18.0705643  87.4689484  52.7545404
  11.9874573  80.9375763  43.1814337  12.3489249  80.9856892  42.2964191
  11.5606940  80.0816345  43.2196426  47.5313520  84.7329998  45.1236534
  47.0215178  85.2737904  45.7268476  47.4061823  85.1447296  44.2686415
  16.3638139  78.1261396  92.3907089  17.1825409  78.5925722  92.2223091
  15.8287942  78.7506151  92.8806305  28.0658579  72.9250431  57.3172522
  27.3136830  72.6209450  56.8093252  28.8270044  72.6045895  56.8333101
  11.2603557  52.9952145  77.6062346  12.0717001  52.8865910  77.1100950
  11.2909079  52.3055363  78.2692862  31.3326025  91.0708332  65.6094408
  30.8907533  90.2301788  65.7290077  31.7099380  91.0203075  64.7312069
  13.0362356  70.3683138  46.7928457  13.3580256  69.5456791  47.1615648
  12.4468768  70.7163811  47.4619770  10.5713999  73.0970001  52.7359915
  10.4212427  72.6651525  51.8950462   9.7704446  73.5963535  52.8952026
  11.7827666  56.4895630  71.8328094  12.0528090  57.2100782  71.2634516
  10.9082770  56.7367315  72.1334934  35.9195685  68.9828587  54.2268848
  36.7195153  69.3887138  53.8928223  35.5543709  69.6323490  54.8277378
   6.0735106  79.5917988  89.4133949   5.2191198  80.0232029  89.4016647
   5.8775240  78.6778307  89.6195030  31.1811018  79.2838383  44.8880291
  31.0190797  78.6571646  45.5931950  31.0861254  80.1411724  45.3029919
  49.7765303  82.3365402  65.3523684  50.6593084  82.0004368  65.5071831
  49.2030191  81.7252159  65.8145189  17.5583720  65.9026003  59.2056561
  17.3916519  64.9603462  59.2299318  16.9764888  66.2312126  58.5203362
  34.1558552  63.4569645  51.2797689  34.0956450  63.3033943  52.2226477
  35.0543475  63.7573195  51.1429167   3.0927354  32.8698158  71.1581182
   4.0391853  32.8863311  71.3002157   2.7929056  33.7335896  71.4413643
  35.8602452  72.0879698  66.7577267  36.4829731  72.8130198  66.8101120
  36.4063001  71.3018942  66.7698812  13.9707935  64.0346909  78.2290459
  14.7146833  64.0984726  78.8280392  13.9329565  63.1080914  77.9919577
 110.9558487 103.2799053  41.3823652 111.8378067 102.9594803  41.1933661
 111.0567188 104.2288208  41.4573288 117.9475594  71.2546873  52.6202154
 118.6456490  70.9023094  52.0681858 117.1981049  70.6833649  52.4524641
  25.5736494  53.1299114  48.7737989  25.2054024  52.5664377  49.4543314
  25.4771399  54.0172958  49.1194391  12.1067584  64.9865484  74.8661423
  11.9505799  65.9001589  75.1052284  12.8692698  65.0171709  74.2883253
  17.0828164  70.3729820  82.0861435  17.5247610  70.9191990  82.7361965
  16.6791749  69.6715307  82.5972843  17.7531052  78.8859892  76.4577198
  18.0864727  78.9220333  77.3542690  18.2541764  79.5533180  75.9888601
   1.3976486  58.8585377  43.9782476   1.9693702  58.6615372  43.2362556
   1.5595672  59.7829580  44.1665554  53.3797359  92.1379089  73.8587999
  53.2812643  91.6384125  74.6693850  53.0979490  91.5353966  73.1704617
  13.5733402  55.7308435  39.7032189  13.7893641  55.8544970  38.7789488
  14.3216801  56.0963297  40.1750660  42.4821711  65.2109146  58.6988831
  42.4118900  64.6113873  57.9560089  43.3982515  65.1503325  58.9697218
  19.9303055  70.1719236  83.0950546  20.5216694  70.6074142  82.4811554
  19.7855842  70.8173370  83.7869549 109.5076942  52.6809502  55.8042526
 108.9501858  53.3798075  55.4621744 109.8197365  52.2205162  55.0252390
  30.3531814  62.8137827  43.4715033  30.2929449  62.8877974  44.4239330
  29.6073198  62.2662973  43.2261658  12.4809611  77.1693087  50.1087904
  13.4153068  77.1686172  50.3167057  12.0615244  76.8083334  50.8898163
  28.4097385  61.6882515  68.5005045  28.3732367  62.4602699  67.9358053
  29.3118167  61.6676235  68.8199806  35.8529329  79.5039082  42.1971989
  36.6553235  79.2533684  42.6550531  35.6811953  80.3996754  42.4876070
  24.3525434  89.3535233  82.7989769  24.0223861  88.4576988  82.8677177
  24.6343017  89.4356918  81.8878841  14.4266868  68.8822985  54.9591541
  13.6419034  68.4668016  55.3165150  14.1532552  69.7772026  54.7576332
  24.5929575  44.1421890  48.0133057  24.8053050  44.1762495  47.0805788
  25.1096416  43.4101343  48.3500004  36.7583036  67.4102831  42.1058989
  37.3017883  68.1871367  41.9741917  36.2461185  67.3369551  41.3005924
   5.4131341  70.5069399  44.0320206   6.2516105  70.6581926  44.4682693
   4.7744060  70.9709692  44.5732594   8.7507534  89.1868973  69.9290323
   9.0206975  88.8430309  70.7805681   8.5944140  90.1181984  70.0854445
  32.9793334  96.6525364  50.1998806  33.1233191  96.9730663  51.0902452
  33.5279298  95.8708191  50.1350927  32.0196199  63.8342953  54.7411585
  32.1797490  64.1417885  55.6333733  32.8929377  63.6841965  54.3791962
   8.0146927  52.1190262  53.4550333   7.3370391  51.5003252  53.1825972
   7.7555448  52.3849249  54.3372869  26.3180065  84.0693855  80.2419758
  26.4451599  84.9163818  79.8145914  26.7786837  83.4461117  79.6802425
  50.6682825  63.9282084  56.3152218  51.4842033  64.2391109  56.7074537
  50.0393438  64.6300745  56.4827061  28.6777353  76.4779282  62.9265022
  28.7148666  75.6592083  63.4210253  27.7951384  76.4943695  62.5563908
 112.0114422  42.6559877  79.9348211 111.6351223  42.6676130  79.0547800
 111.2704086  42.8321266  80.5145454  28.4807491  88.2509613  58.4944630
  28.8675284  88.3204365  57.6216507  28.4869599  89.1469479  58.8312054
  44.8396635  60.8130026  71.1595440  44.1416693  60.7018042  71.8050385
  45.6459761  60.8077574  71.6753578  24.7988153  61.2445021  76.3603401
  25.5054808  61.7065096  75.9093380  24.0248156  61.7879486  76.2126160
 116.2168407  83.6147881  72.4172258 115.6235027  84.0946579  71.8393803
 117.0912933  83.9027023  72.1551704  42.6160192  90.7904720  39.8664141
  41.9313383  90.8379269  39.1991830  43.1684160  91.5537167  39.6974564
   7.8179723  66.2088585  62.0059967   7.7997476  66.4818573  61.0887337
   7.6091146  67.0037460  62.4966669   1.9120720 103.7148476  58.7678909
   2.5682577 103.2811069  58.2224321   1.8715915 103.1828117  59.5625734
  46.0867453  56.4714670  79.3378735  46.6726875  56.4345551  80.0938797
  46.5832043  56.0611057  78.6298037  46.0177994  56.6351652  69.2633677
  45.5923414  57.4861479  69.3684435  46.7239285  56.7960739  68.6374950
  31.4973640  68.6942053  60.2694368  31.4008307  69.6455908  60.2272463
  32.4416637  68.5519505  60.3349638  15.1400518  85.7264805  51.6539860
  15.7857668  85.4189682  51.0178089  14.3005347  85.6456757  51.2013102
  22.5867248  50.7368755  62.8712559  21.6666126  50.9612131  62.7323341
  23.0594134  51.5532923  62.7092028  11.4522600  91.7382812  50.2270269
  11.4745033  91.7298317  51.1839294  10.5273914  91.6249371  50.0079393
  34.5300579  77.2997236  47.5446892  35.2300119  77.9509020  47.5922346
  34.1254234  77.4450445  46.6894770  21.4967322  73.4462786  46.0632753
  20.6573415  73.6319923  46.4841890  21.9960761  72.9681969  46.7253399
   5.8052218  69.6823072  49.6602917   5.5194277  68.7718391  49.7351313
   5.8963144  69.8281145  48.7186575  33.8531351  61.5553331  60.0419188
  33.2761669  60.8533049  60.3427505  33.5687375  62.3261118  60.5330896
 109.9001694  69.0965080  49.5212507 110.1843548  69.9772263  49.7658014
 110.5663967  68.5181284  49.8925304   7.0165646  62.1614027  70.4396057
   6.1031771  62.4200630  70.3169250   7.5189018  62.9478025  70.2263689
  18.2164025  71.8580532  84.6345615  17.3115861  72.0057392  84.9097538
  18.6008894  71.3415670  85.3428364  15.5671787  92.1261406  66.0171652
  16.1994338  91.5045071  66.3778067  14.7573340  91.9488525  66.4956617
  34.9203134  64.8942375  59.7467613  34.2570615  65.4415464  60.1672173
  35.2432561  64.3281412  60.4478121  18.1283629  51.3928223  71.3452482
  18.8381708  50.9931946  71.8479443  17.3586106  51.3067532  71.9076586
   9.2370915  64.4697189  54.1200686   8.4158885  64.0659857  53.8392496
   9.1182899  65.4027605  53.9424562  47.3319721  69.8803186  47.9233265
  47.2010994  70.5417585  48.6027384  48.1715488  70.1092911  47.5246954
  19.3690801  95.9320641  26.0087633  18.4674203  95.8435917  25.6998730
  19.3196416  96.5829563  26.7088532  23.1161094  79.0186262  63.1925249
  23.9645004  79.0983820  63.6285305  23.1895995  79.5803308  62.4209547
  17.2465920  58.5247183  72.3142338  16.9650424  59.1148758  71.6151810
  17.8999448  57.9595804  71.9019461  51.7394161  61.9131756  52.6241159
  52.6217747  61.5927935  52.8112936  51.3453627  62.0470858  53.4861040
  37.7916789  69.7546673  66.1940432  38.6856556  69.8683834  65.8713818
  37.4633837  68.9877415  65.7247019 109.5867729 104.5763302  79.8351192
 110.4729080 104.2876911  79.6167612 109.6040249 105.5241108  79.7022629
  28.4526610  86.5123558  53.8989162  28.3160734  85.5881310  53.6906242
  28.2791281  86.9712830  53.0770302  19.8940277  88.4172726  60.6570530
  20.0722837  88.9655209  61.4211702  20.5764341  87.7464008  60.6791639
  15.4789269  65.9144020  46.4373541  16.3978422  65.6555510  46.5067911
  15.3695619  66.1658430  45.5202675  49.1908073  84.2382431  70.4546833
  49.5931530  84.5324421  71.2718678  48.8465595  83.3682632  70.6568384
  11.2619555  50.4514217  65.5237198  12.2134149  50.4104424  65.4273939
  10.9661877  50.9575176  64.7670031  40.3314161  54.1291237  68.4303761
  39.7888780  54.9163723  68.4764242  41.1163664  54.3495226  68.9318848
  25.3470516  60.3258944  60.0454617  26.1381721  60.8492613  59.9172068
  25.3382254  60.1308298  60.9825325  28.3414078  86.9855690  72.3769712
  28.2527399  86.2747288  71.7420912  28.8640857  87.6473522  71.9241190
  42.1700239  58.9673948  84.9166965  42.2829819  58.3211708  85.6137466
  42.9013634  59.5741367  85.0317860  26.9341207  68.7545633  64.2321253
  27.2298932  68.0689907  64.8310757  27.6591444  69.3789768  64.2060423
  41.6135979  65.0244331  71.8393421  40.7989120  65.0697041  71.3388729
  41.4728594  64.3111992  72.4620199  12.9921591  58.9986706  43.6364985
  13.0723178  59.4082260  44.4979334  13.4916282  59.5694113  43.0525303
  20.5131388  72.1167469  66.3605452  20.0461531  72.9406309  66.2213469
  21.4385414  72.3611736  66.3496780  33.6765623  67.7921247  41.4708376
  34.1731620  67.0762396  41.0744429  33.7240863  67.6242113  42.4119949
  28.0114651  60.5142307  53.9142990  28.5650110  61.2726831  54.1002321
  27.5247693  60.7600307  53.1275702  39.8417759  74.9077988  66.9672775
  39.7143626  75.3893328  67.7846622  39.4087577  75.4442692  66.3032532
   5.4808342  58.3329487  86.5680408   6.3648325  57.9726028  86.6382694
   5.5113262  59.1431379  87.0768642  19.3435991  88.3049679  79.1785812
  20.0051880  88.9238262  78.8694859  19.6356857  87.4562073  78.8461161
  28.5825586  70.3158569  62.8252411  28.9868164  69.4841146  62.5782394
  28.4262681  70.7626104  61.9932461  30.1067400  82.9055882  86.8714809
  29.3838406  82.4639034  87.3170948  29.9163318  82.7963257  85.9397984
  50.9315014  80.9744358  40.6156778  51.8166685  80.6288433  40.7309341
  50.7723522  81.4931870  41.4042187  49.3550539  77.5567436  56.1743021
  49.7184992  77.1617508  56.9668388  49.7824383  78.4111691  56.1148691
 118.0608749  92.2420120  71.4615965 118.4899616  92.7996159  72.1105957
 118.5689640  91.4308262  71.4693642  15.3604281  66.1205816  68.3701468
  15.5647755  65.7865286  67.4967146  16.1924219  66.4638710  68.6959887
  20.0068617  98.9653587  67.3183727  19.2410207  98.4473801  67.0705605
  20.4535365  98.4327316  67.9764175  27.8370953  71.4231443  84.7956562
  27.1862578  71.1314964  85.4340839  28.6523771  71.0089493  85.0784683
  18.6620092  77.7754545  67.9909086  17.7329981  77.9371023  68.1553411
  18.6805034  77.3192835  67.1496010  25.7423735  74.2532873  58.2971382
  25.3729725  74.4684839  59.1535616  26.5350103  73.7550831  58.4965181
  32.9750323  93.0932140  66.6409540  33.5238957  93.0675030  67.4247408
  32.6930761  92.1870422  66.5161657  32.6561689  62.0449877  48.4299183
  33.5625768  62.1248960  48.1328106  32.4324751  61.1277151  48.2724142
  17.6201677  51.1732197  40.6481028  18.1897724  51.4098454  41.3800812
  16.7509043  51.0864878  41.0393667   5.7403713  62.7852631  73.1797409
   5.4465210  62.8046989  72.2689676   6.4440638  63.4330034  73.2182455
  40.6063461  95.8304310  81.5186405  41.1899233  96.0926056  80.8066559
  40.6122160  94.8735905  81.4931202  38.6252975  80.6833744  63.8304663
  38.7538719  80.5984688  64.7751856  37.6822138  80.5763245  63.7065220
  17.4684691  96.9485092  36.5133977  17.0055854  96.1820412  36.8517685
  18.3908892  96.6928768  36.5186548  24.8001719 106.4173889  59.1400051
  24.5377207 105.9077740  58.3734274  24.8143649 107.3235130  58.8318348
  23.0436730  93.3656406  55.9622335  22.8581452  92.4314404  55.8669662
  23.9989138  93.4181309  55.9937191  86.1197281   1.8648930  60.6841516
  86.1959648   2.3944034  59.8904037  86.9944096   1.4977272  60.8120584
  37.6741266  83.5236931  37.8659034  38.1328630  82.8664112  37.3426747
  36.7505550  83.2813072  37.7988219  44.4347572  74.4258404  91.5745354
  44.7592068  73.6144924  91.9652748  44.8402357  74.4531870  90.7078934
  38.2341099  92.6094341  39.3686271  38.0404234  91.8202209  39.8744488
  37.8207326  92.4567699  38.5188961  26.7408657  83.2118034  63.4820127
  25.8836794  83.6072159  63.3235407  27.3665500  83.9075756  63.2804155
  51.8075705  96.5730762  75.6204557  51.2451077  96.8563175  76.3413191
  52.3565340  95.8870792  76.0002947  34.0602851  74.3164682  45.5399084
  33.4347868  74.8815584  45.0864124  33.5690260  73.9615774  46.2808228
  26.3941622  72.7930689  64.2436123  25.9400797  73.1261730  63.4696102
  26.0959244  73.3568096  64.9573946  38.3392525 105.0908375  36.9352913
  38.8986421 105.1032543  37.7119255  38.8129568 105.6162739  36.2905002
  27.5536060  85.9183216  30.9335518  27.0850372  85.4651356  30.2326274
  27.1808004  85.5622673  31.7400694  18.7080956  96.5063763  52.3456717
  18.1632495  95.9944439  51.7479229  19.2814207  95.8610535  52.7592993
  58.5428619  90.0041389  50.7477045  59.3161011  89.5764160  50.3797531
  58.0513620  89.2950153  51.1622047   5.4129428 102.0680523  47.6965141
   5.4879904 101.8233204  46.7741776   6.2755460 101.8784618  48.0655766
  13.4818113  77.0491743  58.2296944  13.5294521  77.8893185  58.6858988
  14.2745781  77.0222521  57.6939440  38.2977748  59.2153502  72.3859167
  37.7727461  58.5636377  72.8505135  37.7365780  59.9896669  72.3444366
  15.4527569  96.2603378  71.3555813  15.5329430  96.6600513  70.4895353
  16.3151324  96.3773251  71.7541456  28.5240483 108.7091351  69.2828321
  27.8346825 108.7914467  68.6238670  28.8787842 109.5938778  69.3701506
  10.7608378 102.6227188  44.5846844  10.5389428 103.5498714  44.4988108
   9.9658382 102.2172356  44.9307919  45.8945370  89.4590473  68.8091993
  46.5928602  89.9431801  68.3685303  46.2722111  88.5962677  68.9800835
  29.5471501  67.7421427  61.9022274  30.3596735  68.1196547  61.5652990
  29.8015356  66.8792915  62.2293520  71.2687397  80.6521702  20.1516509
  70.5357790  80.5044174  20.7492828  71.8960333  81.1627007  20.6635976
  38.2328463  93.4951210  55.6260061  37.9762030  94.3292713  56.0191393
  37.9357791  93.5567379  54.7181606  51.1940622  87.1464348  58.8674879
  51.1957026  88.1033134  58.8428354  51.5896797  86.9279099  59.7112703
  22.9977274  81.1941719  60.6323242  22.8161573  82.1122074  60.4311466
  23.9530802  81.1355209  60.6420326  44.4045258  91.8622208  60.2741671
  44.6415758  91.2191772  59.6059418  44.0127373  91.3438988  60.9770679
   8.7540591  97.0352077  56.7627621   8.5522085  97.9708195  56.7519474
   8.7943923  96.8096066  57.6921225  14.8345602 107.8168774  88.5190392
  14.4696307 107.0061016  88.8735771  14.8848498 107.6643848  87.5754070
  41.2962103  69.4931984  57.1424532  41.8742418  69.3146181  57.8842258
  40.5697775  69.9898958  57.5190401  27.3388314  69.9864626  32.9242182
  26.9912887  69.7703505  33.7895179  26.7134047  69.5996666  32.3114681
  51.1969185  78.3750486  38.6313224  50.7405043  77.8488159  37.9748154
  51.2110519  79.2583179  38.2627201  17.9023421  47.1409702   3.7384114
  16.9896185  47.2048187   3.4571779  18.1814599  46.2718391   3.4504309
   5.5409467  66.9341469  49.5787525   6.4267594  66.6948032  49.8512983
   5.3796875  66.4053726  48.7973261  22.0614195  91.1198139  52.6615095
  21.4032149  90.5647469  53.0797195  22.5749230  90.5179691  52.1226931
  18.0660176  81.9997597  45.0776577  18.8504744  81.4866543  44.8837757
  17.3417521  81.4570332  44.7660112  30.0490856  76.9701719  42.6086855
  29.9701405  77.9170227  42.4926090  29.1453600  76.6556311  42.6326704
  13.0055833  96.7587090  28.5663629  12.2983003  97.2017670  28.0976605
  13.6959255  96.6511440  27.9120803  37.9584765 109.3328381  58.5132694
  38.8710594 109.2844200  58.2285309  37.7289891 110.2579784  58.4255934
  31.2666297 111.5967941  57.7852631  31.1685729 112.1278763  56.9949627
  31.5933537 112.2079754  58.4455252  53.2436562  87.4291325  43.5706758
  53.0551577  86.9758224  44.3923903  53.7103701  86.7820740  43.0417776
   1.9565412  97.7174282  51.4796829   1.9126892  97.3246098  50.6079006
   2.5315115  98.4751320  51.3723230  23.3520198  62.9390812  55.9308672
  23.8962746  62.5382042  56.6085958  23.7844849  63.7707806  55.7372427
  25.9845281  83.5117626  57.9185343  26.5665984  83.6402607  58.6674738
  25.1175261  83.3934784  58.3065367  23.9948487  73.0580759  40.6164503
  24.4433284  72.5121117  39.9706745  24.2640805  72.6990795  41.4619493
  22.6034188  90.2852917  70.9757280  23.0639696  90.9920883  71.4280176
  22.6525354  90.5216503  70.0494719  78.3502054   2.6478934  79.5723534
  78.1689072   3.3861381  78.9906693  79.3053961   2.5904885  79.5959139
  73.5593796  12.1620369  77.1479177  73.9637852  11.2945783  77.1623230
  72.8783894  12.0977318  76.4783335  33.3873153  98.0205917  77.0855331
  33.9845204  97.5059700  77.6284313  32.8878522  98.5459423  77.7106524
  78.4465504   7.4019396  78.9667177  77.9168510   6.8526864  79.5446205
  78.1058216   7.2253168  78.0898285  28.7917113  84.4893551  88.7965584
  29.5695186  84.5025444  88.2388115  28.0677342  84.6878242  88.2026768
  27.3804688  59.5785522  56.3019657  27.9389501  60.0939894  56.8839073
  27.6344347  59.8533058  55.4209185  32.8190494 108.7300491  87.3682880
  32.0411181 108.2837391  87.0338440  33.5167074 108.4823799  86.7615223
  52.1388912  85.7970142  78.0114841  52.3635721  85.1182747  77.3750401
  52.0524836  85.3279781  78.8414097  23.2441258  96.4686203  58.0823851
  24.1080666  96.2986946  57.7069378  22.9413939  95.6121159  58.3840466
  31.4357972  68.6241436  71.1395884  30.7199669  67.9975176  71.0339403
  31.6216016  68.9275742  70.2509689  36.1633897  98.4478664  73.2185650
  36.9395947  98.2907581  72.6809263  35.9969401  97.6095867  73.6496353
  46.0086536  85.8511257  67.1520615  46.0104942  86.6394711  66.6091681
  46.4845848  86.1039734  67.9431295  39.9866009  96.2757683  57.4698734
  40.6642389  96.6803741  56.9282675  39.1651583  96.4987659  57.0319986
  27.3550344 105.2504539  42.0008278  28.0018497 105.1879597  42.7036476
  27.1008992 106.1732388  41.9905567  12.6799107 104.3880558  37.4042225
  12.1234536 105.1470661  37.2296190  12.9563761 104.0893936  36.5378523
  47.0669079  77.0895052  45.8265972  47.0968056  76.8339157  44.9046373
  46.3647604  77.7384329  45.8725929  52.2122622  77.9392290  52.7318716
  52.3568344  77.2132158  53.3386993  52.9845476  78.4952116  52.8352594
  32.5682497  74.7797823  52.6240158  33.1075764  75.3313208  52.0573092
  32.9891372  73.9206409  52.5929737  24.1551113  87.1577072  59.2013931
  24.5648932  86.9256973  58.3680344  23.2450509  86.8763256  59.1073370
  50.1177454  89.0653419  32.5256872  50.2408600  89.8717117  33.0265236
  51.0056877  88.7497520  32.3577833  17.4957097  78.8737392  40.0468683
  17.7094769  78.7830067  40.9754705  18.0303407  78.2094383  39.6120000
  49.8122549  95.0466537  50.4835129  49.5966148  94.3322182  49.8840904
  50.0859308  95.7642651  49.9122238  49.5895815  78.2516479  46.1527395
  50.1474047  77.9274607  45.4456568  48.7285614  77.8753996  45.9702158
   8.8546723  79.3709755  41.5299797   9.4930005  79.9053478  41.0575247
   8.8204092  79.7567940  42.4053144  49.9564362  92.3235130  58.6548281
  49.7400093  92.6181602  59.5394564  50.4688931  93.0409241  58.2820797
  37.4723077  71.5492582  36.3845706  37.9525733  72.0746946  37.0244861
  36.7094898  72.0824957  36.1609697  25.8900070  73.0364799  24.9954438
  25.2338266  72.7950096  25.6491637  26.7033792  73.1220245  25.4927754
  19.4431305  67.7471256  21.8122029  19.8710787  66.8918943  21.7713213
  19.7222328  68.1147718  22.6507545 109.4332123  93.0777168  58.0117226
 110.2702713  93.2236099  57.5709629 108.7845612  93.4774494  57.4323225
  42.2567415  87.3404217  37.4751353  41.4650536  87.2853279  36.9399476
  42.6724005  88.1590462  37.2043657   8.0095601 101.0309887  30.4176569
   7.9364848 101.9123745  30.0515103   7.4496198 100.4922390  29.8586893
 118.1845474 110.3822327  37.2342801 118.5746193 111.2184906  37.4887204
 117.3119450 110.6122398  36.9150543  28.7630987  81.8178940  82.1664524
  28.6851025  80.8787823  82.3344421  29.3952489  81.8814468  81.4505100
  22.4747181  87.4772835  53.9121532  22.0277405  88.2237244  54.3112326
  22.6357675  87.7495861  53.0087423  53.9337969  89.7174358  48.3496666
  53.6393642  90.6140423  48.5097647  54.8805571  89.7938061  48.2311392
  15.8517802 105.6756401  55.5141306  16.3516712 106.0565472  56.2361050
  15.2986336 105.0136280  55.9288549  58.0347300  89.8627472  55.7879543
  57.8900003  90.3244591  56.6138506  57.4801826  89.0848637  55.8480501
  24.5945573  92.3082352  61.0695505  25.2408457  92.9721451  61.3098860
  24.4523001  91.8100357  61.8744087  43.2292223 111.6770363  45.0939941
  42.5434828 111.1251068  45.4699850  42.9815531 112.5681400  45.3406191
  10.3775513  86.6784477  40.7530832   9.7709322  85.9424877  40.6718111
   9.8146904  87.4525833  40.7650614  43.5499573  88.1248856  49.2329311
  44.2425251  88.3969784  48.6308098  43.1224632  87.3915291  48.7905788
  30.1250577  80.8223152  52.8875256  30.8815026  81.3308907  52.5953293
  29.7824597  81.3110447  53.6358595  29.3020773  98.9612484  66.5567350
  28.3880854  98.9562893  66.2724352  29.7227144  99.6159935  65.9994173
  27.2619843  91.3220882  83.0457401  27.0138383  91.1443233  83.9529705
  26.5515399  91.8657398  82.7052402  33.1199265 103.3067608  65.8729553
  33.3721328 102.3834038  65.8783913  32.8099704 103.4756279  66.7627001
  57.8297663  72.9883671  42.3793364  58.2001972  72.3976088  41.7235804
  57.3903942  72.4094629  43.0022764  12.7854431 101.6944695  52.3708725
  12.7263749 102.3539066  53.0621672  12.1553874 101.9827175  51.7104340
  72.0255041   3.6689776  50.9840059  72.7250910   3.0560496  51.2101126
  71.9359016   3.5903943  50.0342560  55.0143290  92.2816181  43.4845686
  55.2884817  93.1329346  43.8256454  54.1237116  92.1663857  43.8158655
  26.5937877  83.5549164  49.0121269  26.7619491  83.4296894  48.0781698
  26.2418985  82.7149582  49.3068695   7.8171837  97.2389507  40.8397770
   8.5061824  96.6106510  41.0560083   7.7806628  97.8241634  41.5963602
  16.7334318  82.5498199  58.7403631  16.0625589  82.8478241  58.1260729
  17.2100258  81.8703651  58.2634687  64.6072006   2.2287482  60.3066397
  63.8985348   2.2800559  60.9480429  65.3657246   1.9343504  60.8108234
  24.7207689  99.8352337  81.6004181  24.6177053 100.1506042  80.7025623
  25.5046082 100.2805233  81.9221973  92.7016449   1.0839314  66.2060356
  93.1697083   0.3295846  65.8481121  92.0901585   1.3366377  65.5143261
  40.3897619  79.6362066  45.3419781  40.7589865  80.5132484  45.4454327
  39.9722552  79.4513321  46.1832476  56.3477993  99.7820663  48.2786274
  55.8392334 100.5826759  48.1497192  56.8509388  99.9438095  49.0767002
  12.6706874 106.7195034  53.9650154  13.4488297 107.1158028  53.5730076
  12.1536350 107.4629593  54.2751074  52.7871418  86.4228630  37.9618859
  52.2612953  86.9620895  38.5526085  52.1456480  85.9055328  37.4749756
  32.6123333 110.1743221  48.2434845  33.4319019 110.3297615  48.7129307
  32.0596695 110.9215260  48.4725571  23.2249928 101.4964294  49.1974449
  22.8283763 101.3828278  50.0611687  22.5331783 101.8906212  48.6661816
  30.2621651  96.0316849  44.8360920  29.4501042  95.6531525  44.4991922
  30.9559822  95.5404568  44.3961573  36.2815857  75.5258560  38.5969687
  35.7627511  76.0063171  39.2421055  35.9459043  75.8221769  37.7509522
  44.0988541 106.1944389  85.6878567  45.0470734 106.0707569  85.7303810
  43.7407351 105.4867649  86.2237453  34.3575072  69.5858812  69.1408300
  34.6168566  70.2291536  68.4811497  33.4049678  69.6654654  69.1914749
  31.6299582  75.4200888  70.7442951  30.8326030  75.3544855  70.2187920
  31.6754484  74.5880985  71.2154150  53.6144257  67.9535055  41.1519957
  53.5316229  67.0005941  41.1155081  53.8510513  68.2076883  40.2600145
  15.4927492  98.6752415  50.8715773  15.7149982  97.7495861  50.7716370
  14.7068810  98.6752319  51.4180613  45.6487131  80.2559471  63.1676674
  45.5461121  80.9721470  63.7943745  46.5705490  80.2913284  62.9123354
  42.4672937  71.2086964  82.5236607  41.6412354  71.6047430  82.8011608
  42.3773336  71.1060429  81.5762424  45.7801390  87.2585583  57.5199890
  44.8914814  87.2408581  57.8752327  45.9298325  86.3672638  57.2046757
  17.0586669  98.4517193  46.2828541  17.4605906  98.3736420  45.4176426
  16.2253523  97.9876328  46.2026024  30.7969689 106.5965176  42.7565575
  31.7163038 106.3526344  42.6489544  30.6260252 107.2081566  42.0403767
  48.6348343  79.8618841  74.7192812  49.4939184  80.0202179  74.3279505
  48.5036850  80.5991364  75.3155136  17.5801802  93.3858109  44.7454119
  18.3336735  92.8375912  44.9643469  16.8532860  93.0002499  45.2344894
  43.9395380  85.1025200  47.1517992  44.7980404  85.5218220  47.2100735
  43.3619261  85.7857037  46.8114090  26.4608002  92.8737736  24.2874956
  26.3334394  91.9481468  24.0795946  25.7544589  93.3229351  23.8231969
  56.2749195  99.6051311  75.0344753  55.3594112  99.3261909  75.0508642
  56.3859415 100.0121689  74.1752768  25.4950547  87.2343159  70.4285192
  24.7354078  86.8362904  70.8536577  25.6279135  88.0579662  70.8977652
   8.3732760 100.4152870  55.0216770   7.7458060 100.0637913  55.6533098
   7.8570974 101.0088253  54.4762278  23.8469291  72.2245502  75.0165844
  24.6562576  71.9065809  75.4167318  23.3718848  71.4300156  74.7731066
  34.6210289  80.7582951  45.9385014  34.1193604  80.8436584  46.7492247
  34.5426631  79.8334217  45.7046080  47.7022266  94.9857616  64.3977690
  48.1428432  94.2628098  64.8443413  48.2576609  95.1741219  63.6412954
  42.0256710  86.5740299  64.2369652  41.5626860  85.7431889  64.3445969
  42.6203823  86.4233875  63.5022211  63.3894825  88.8969612  50.1519346
  62.7413321  89.5028210  50.5111933  63.2349825  88.0760765  50.6193876
  32.1302128  80.4131889  95.6117630  32.1242571  79.5792055  95.1420212
  31.2596798  80.7805538  95.4586315  27.5906801  90.4667187  53.2450819
  27.0010376  90.4570484  53.9990425  28.4508872  90.6629372  53.6162567
  54.2335696  -0.0260091  41.5620375  53.7179858   0.7605147  41.3837290
  53.8600249  -0.6929612  40.9859610  29.6528435  88.2966995  55.6818962
  29.5209384  89.1628170  55.2962971  29.1536403  87.7052402  55.1186943
  36.6287875  79.5578718  54.4468546  37.5722861  79.4371605  54.3397379
  36.2369490  78.8581753  53.9242411 101.7563618  50.8762947   0.1471826
 101.3759650  51.6150681  -0.3279475 101.7731560  51.1620632   1.0605737
  38.6515474  72.7702427  67.5486040  39.0429354  73.6213875  67.3521376
  39.3931675  72.1655846  67.5733805  38.6828995  95.1318359  27.3303366
  39.4393373  95.1013947  26.7445827  38.9014983  95.8107090  27.9687500
  29.7922778  54.0412855  57.8271818  29.0780258  53.6395693  58.3218527
  29.3687367  54.4112110  57.0525837  29.1448641  80.4263878  57.1018028
  29.1661978  81.0833454  56.4059782  29.7548676  79.7487974  56.8102455
  38.8978910 105.7903385  58.7615919  38.9737034 106.1341381  57.8714848
  37.9584265 105.6571770  58.8877058  13.5085511  90.4697418  70.1943684
  12.8327060  90.9285736  70.6933117  14.3084431  90.5923653  70.7056093
  29.4595861  90.4567623  68.1195164  28.6353064  89.9893951  67.9840136
  30.1365685  89.8185444  67.8945446  47.9022121  80.5570507  56.1755943
  47.4493837  80.5124378  55.3334618  48.5083485  79.8163605  56.1611366
  33.5425925  63.5410261  61.9644690  33.9364791  64.3342924  62.3275232
  32.6436329  63.7943220  61.7548466  40.6897163 101.9291115  49.3927097
  39.9853492 102.5747108  49.4501543  41.1405563 101.9909477  50.2348185
  55.7740927  95.8598137  52.1652555  54.9628305  96.2152672  51.8022966
  56.1984158  95.4268742  51.4244843  36.2251043 106.1662579  43.6423397
  36.3859439 105.6738949  44.4472885  35.6184816 106.8593979  43.9027071
  32.1749735 101.2425995  76.4119387  32.6638222 100.5393410  75.9845257
  32.4441218 101.1980724  77.3294401  45.1929140 102.4628830  58.7182426
  44.2954445 102.4527454  59.0509129  45.6551313 103.0714893  59.2946053
  51.8730593 104.1362476  65.5523396  51.5487719 104.8803806  65.0450563
  52.6098919 104.4892406  66.0510492  18.5183835 107.5951099  76.2843466
  19.0498424 108.3246231  75.9656239  18.6780977 107.5767422  77.2279501
  36.9429922  93.4977722  66.5368319  37.7346706  93.7111568  66.0429239
  37.2544432  93.3238125  67.4250698  35.4522514  65.8071804  75.2504349
  36.1205959  66.2658644  74.7413635  35.0037813  66.4995956  75.7358885
  12.5873685  61.6290665  60.8862400  13.0855429  62.4460316  60.8614016
  13.0461168  61.0882473  61.5291214  36.1754513  71.8015337  62.0148373
  35.6281233  72.5835228  61.9430161  35.7220030  71.2494946  62.6519203
  37.5029564  69.3337536  79.7012949  37.9273534  68.8165331  80.3858471
  37.4457908  68.7396622  78.9529514  55.7788372  97.9864025  66.3337803
  55.8691692  97.2724628  65.7026243  54.9033070  97.8704453  66.7028809
  27.8197575 105.8312416  16.8805170  27.1586037 105.6648636  16.2086356
  28.5292077 106.2732983  16.4141476  30.0793481 104.3560028  70.4047441
  29.9218464 105.2515984  70.7036304  30.1148129 103.8379097  71.2088299
  45.8813095  76.0882092  77.0841312  46.5146828  75.3707457  77.1018314
  46.4059162  76.8745852  77.2345829  52.2299623  95.0801945  55.5117655
  52.4065733  96.0166454  55.4218531  52.7543259  94.6704197  54.8237514
  30.4871011  92.0789146  43.1918526  31.3240552  92.0779037  43.6563253
  30.7155991  91.8702126  42.2860622  31.7845297  87.2514343  57.4998474
  31.6234708  87.2216129  58.4429264  31.1935759  87.9318714  57.1773434
  20.0989389 102.3651505  57.3558569  20.5192900 102.8572464  58.0611086
  20.6937551 101.6347122  57.1859217  11.7834330  73.3455467  66.1208010
  11.4524221  73.0486536  65.2731466  12.7301979  73.4139872  65.9975815
  99.8497105  65.1105452  55.4717207 100.6576920  65.0172138  55.9764004
  99.1888618  64.6520519  55.9906626  38.7977171  81.3759518  49.4343567
  39.6517444  81.5352631  49.0325069  38.6406851  80.4412460  49.3005705
  24.2623353  98.9376163  36.8620992  23.7594748  98.2137489  37.2354412
  24.9247527  98.5130119  36.3169885  40.2564812  77.6197910  62.3149490
  40.7768202  76.8961620  62.6640034  40.8378220  78.3786058  62.3646402
  33.8208556  84.5071316  23.0339360  34.2029595  85.1383305  22.4241614
  34.1035938  83.6541748  22.7041674  26.7226338 102.4300575  66.5464878
  25.8706641 102.0050049  66.6450214  26.7575288 102.6858139  65.6247473
  35.7594490  84.9564266  58.6901093  36.3081121  84.5582867  59.3659019
  34.9842882  84.3962765  58.6501980  39.2318630  74.3290043  77.1973658
  38.7438035  74.4570017  76.3839531  39.9089456  73.6908484  76.9725370
  28.6488795 100.3682613  22.0460773  27.6951146 100.3982925  22.1213269
  28.9204288  99.7229290  22.6987982  53.5391140  97.7367783  71.9904184
  52.9659891  98.0255890  71.2802410  54.3923426  97.6133633  71.5744829
  23.8818932  76.5097332  22.6567125  24.4052219  77.2481251  22.3450470
  24.5179439  75.8089113  22.7999473  23.9798641  89.4185448  73.8692284
  24.4083357  88.6536884  74.2534637  23.1307364  89.4634151  74.3087721
  26.0082793  68.8190556  92.4522400  26.4109373  68.0264950  92.0973492
  25.1561189  68.5294724  92.7781105  38.9341855  76.7300987  65.3134441
  39.7056842  76.8329000  64.7562599  38.2207823  77.1214151  64.8092985
  53.4482479  84.1361618  47.4403954  54.3441200  84.4077015  47.6401520
  53.2928181  83.3842182  48.0119276   9.3378323  82.4318123  65.5929041
  10.1267934  82.1134758  65.1542282   8.6657798  81.7857552  65.3756523
  23.0618429  98.2208920  50.7915831  22.1508765  98.3078957  50.5108643
  23.1409883  98.8171196  51.5362215   1.9293179  50.4872465  41.2052441
   2.7260554  50.9969807  41.0582256   2.1756379  49.5889139  40.9848881
  61.6861725  93.9927483  56.4941025  61.9868326  94.6233463  57.1484613
  60.7884312  94.2607498  56.2979603  19.3666780  77.9948473  58.6820555
  19.5612597  78.6432457  58.0053377  19.4473255  78.4763527  59.5053911
  26.2611127  67.7753592  71.4674568  25.9835100  68.4005260  70.7978773
  25.7715058  68.0291700  72.2498226   0.0907973  94.0272808  46.3107109
   0.5970553  94.4445419  45.6136990  -0.1461526  94.7454739  46.8974686
  41.5928888  87.9860783  69.8456478  42.5312901  87.8130150  69.9210215
  41.4986324  88.9065170  70.0908756  48.4276819 101.1953449  66.2309933
  48.4092426 100.7964802  67.1009302  48.2242727 102.1177387  66.3860655
  35.8027673  91.1324596  73.3254337  35.5360746  91.2217808  74.2403841
  35.1748943  90.5138016  72.9522419  17.7993309  97.9095173  54.3965340
  17.1896803  97.1725845  54.3579578  18.5304761  97.6449776  53.8382530
  31.0902095 108.2247448  35.9610343  31.8010044 107.6723385  36.2863851
  31.1901188 108.2077312  35.0092149  17.9812169  74.6235847  90.8143139
  17.0407963  74.7843170  90.8918285  18.2554901  75.1605034  90.0708580
  41.9971848  89.7199535  58.0429649  41.1276531  89.3395424  58.1671858
  41.9529104  90.5680275  58.4845924  49.3534088  93.0944824  48.3322287
  49.6229172  93.0018616  47.4184322  48.4254169  92.8598404  48.3332014
  17.4568856 100.2199364  65.1419020  17.6421928 100.3812313  64.2167664
  16.7511356  99.5733261  65.1356173 105.1764011 105.8352852  73.4748650
 104.9633598 106.4726448  74.1564941 106.1113739 105.6653309  73.5896683
  24.4795418 105.0736427  43.6734676  25.1519227 104.3955421  43.6077642
  24.8487592 105.7194805  44.2757988  67.7032232  16.7575872  50.4756784
  68.6081123  16.7262983  50.1651382  67.4170589  15.8441699  50.4721212
  40.3959036  92.8640652  48.4428215  40.4812431  93.6110973  49.0351820
  41.1326742  92.2954845  48.6666918  35.1401067  92.1947002  56.5394068
  35.8994436  92.6983070  56.8327093  35.0688696  91.4790058  57.1710205
   7.1290821 105.4755878  51.6139507   7.5610083 106.2745094  51.9162703
   7.7789938 104.7860146  51.7493677  21.5082979  69.1847277  39.8252940
  21.5018201  70.1355171  39.9357224  21.6311932  68.8416386  40.7104063
 113.7666893  67.4147081  65.7432795 113.1560993  67.2594023  66.4638996
 114.5301151  67.8159761  66.1584806  11.9095528  98.5391331  39.3806386
  11.0709393  98.2113934  39.0557671  11.8067384  98.5585976  40.3321028
  28.7700868  97.8553581  72.4613523  29.6235657  97.7572918  72.0392323
  28.6189866  98.8003922  72.4794006  46.2342978  58.5146856  54.7632074
  46.4092970  57.8076553  54.1421509  46.6846466  58.2467842  55.5642366
  55.0045378   0.1610636  57.4659061  54.3354709  -0.1502824  56.8562841
  55.7566888   0.3675246  56.9110441  48.1792545 109.3201160  58.3393383
  47.8934574 109.0168095  57.4776173  47.6781654 110.1217461  58.4894228
  32.4698758  64.2168045  34.9508071  32.5512362  64.9225569  34.3092990
  33.0580711  63.5329676  34.6304607 116.2818241  71.6879845  76.0063171
 115.9143734  71.6945314  76.8901587 116.0474014  72.5420189  75.6431389
  19.1606224 102.0632935  66.3173723  19.0280843 101.6751289  67.1822405
  18.5099292 101.6356468  65.7606411  36.4511633  92.2647476  70.9118032
  36.0834432  92.0781326  71.7756271  36.8533731  93.1284142  71.0041952
  52.8201103  92.1450710  37.3797369  52.9940605  91.2062931  37.3114252
  53.0934334  92.5014305  36.5344405  58.9613581 106.1784458  66.0050154
  59.2380428 107.0586967  65.7504177  58.1240988 106.0520554  65.5586338
  24.0388751 109.9324131  59.9512386  24.3154812 109.5261669  59.1298437
  23.6273718 110.7546520  59.6851206  23.5096741 103.2271671  55.1329088
  23.6432672 103.6284828  54.2742348  22.7335453 102.6779270  55.0224590
  66.8713188  14.2769718  55.3241682  66.8720341  13.5010195  54.7636938
  66.5147543  13.9700019  56.1577511  41.5521908  90.6297016  83.5150623
  41.2956142  91.5263653  83.2996559  41.3309479  90.5332375  84.4413376
  13.3614874  93.5989666  46.6813326  13.4735227  93.5010719  47.6269007
  13.9613354  92.9570770  46.3013458  28.0304503  94.8810101  37.9950142
  28.9043021  95.2208519  37.8023362  27.8067422  94.3487644  37.2315383
  34.2024446  79.2510748  70.9028387  35.1317978  79.2376661  70.6740332
  33.8514876  78.4438992  70.5266380  66.4439583 103.2590199  54.7418594
  67.0048189 103.4445858  55.4950047  67.0132399 103.3844090  53.9826250
  49.3725538  95.3026772  59.3915224  50.1646090  95.0450420  58.9198160
  48.6558723  95.0700569  58.8011980  28.3306170 105.2301502  35.1450276
  28.3702922 105.8279991  34.3985486  29.0536523 104.6195316  35.0015378
  25.9503150  98.4018993  93.6034107  25.4945731  98.9692211  94.2252541
  26.8308735  98.7721825  93.5422707  58.1056929 110.3761101  69.0995502
  58.8858652 109.9988365  68.6930847  58.3416891 111.2879276  69.2702198
  34.5365453 107.8835297  67.3236370  34.9473524 107.1664715  66.8406248
  34.3753314 108.5564232  66.6622305  49.1190624 111.2817192  69.6415043
  49.6005630 111.8114758  70.2769184  48.4268045 110.8638000  70.1537037
   5.5820024 107.7099514  65.3716898   4.7204536 107.5060940  65.0078106
   5.9032583 108.4346104  64.8351288  48.3558273 100.4445648  52.4684715
  48.6824942 100.2116776  53.3375454  48.6021280 101.3629341  52.3581934
  83.8979626   2.0181309  47.4089718  84.5574951   1.3794664  47.6798058
  84.3847179   2.8357720  47.3052311  78.3844376   1.8933536  67.8904867
  78.7775087   2.5817943  67.3540354  78.5365915   1.0880771  67.3959064
  68.0940390  14.7316277  45.5234432  68.3812332  14.0410888  44.9260235
  67.8337193  14.2671788  46.3188982  72.2013664   0.7964471  81.8899822
  71.8097019   0.5833926  82.7369976  71.5290928   0.5631778  81.2497711
  53.5740852  94.4249439  66.3626671  53.4226513  94.9821758  67.1260691
  54.2769241  93.8340664  66.6330719  38.3853626  83.3573246  51.4875937
  38.8233399  82.6921749  50.9565687  39.0998173  83.8560009  51.8839598
  52.6746178 105.3212929  79.5740461  53.0345917 105.5217361  78.7100601
  51.7678928 105.0669479  79.4026041  51.2551260  71.6196203  46.5391922
  51.9855499  71.6757345  45.9231043  50.8131552  70.8013058  46.3127947
  59.8939419 106.8815041  60.9704733  60.4468060 107.0557404  61.7321873
  60.4837179 106.9683266  60.2215672  71.3911486   3.6563218  62.9718018
  70.5385303   3.3172849  63.2444334  71.2147427   4.5566544  62.6988268
  56.2519407 104.6425915  57.3775434  56.9519949 105.2954006  57.3779869
  55.5251837 105.0710773  56.9253683  56.6721296  71.7498255  51.4855480
  56.6332722  72.0302677  50.5711794  57.5072765  72.0910358  51.8054438
  48.9554310  93.2178497  66.1995602  49.8897791  93.0815506  66.3565731
  48.5630465  92.3537350  66.3243341  22.7787232 110.9679508  63.6412239
  23.3080745 111.7247581  63.3896923  23.1508517 110.6820011  64.4754791
  54.2819405  88.5165310  91.3598537  53.4810686  88.5410309  90.8361721
  54.5414972  89.4340515  91.4436245  50.7237673  84.6816540  66.4650536
  51.5535450  84.7986984  66.0024548  50.3106689  83.9353085  66.0308218
  77.3312616   7.2078902  76.5151358  76.4373779   7.2800434  76.1804771
  77.5573492   8.0970752  76.7880201  66.3590908   1.5683627  86.1983490
  66.2600565   1.4090343  85.2597141  67.0912695   1.0101286  86.4601040
 114.9891949  12.4984074  70.4650640 114.6039677  11.6371715  70.3034925
 114.3341255  13.1179190  70.1436138  64.6464729 110.3713894  41.0083103
  64.2246532 109.7465229  41.5981007  65.2805328 110.8303165  41.5592957
  55.0866795  90.1898003  34.9015641  54.3265009  89.8726463  35.3891850
  55.7998133  89.6080971  35.1648068  66.3097525 107.8274632  65.1578379
  65.9519577 108.6005497  65.5943680  65.6458092 107.1503067  65.2876949
  46.1113262 103.4231853  55.8108616  45.6150103 103.4450340  56.6290474
  46.3361549 102.5004292  55.6916857  54.5914936  88.7139416  71.2476254
  55.1668406  88.7742233  72.0102358  54.5920467  89.5964050  70.8768320
  32.0335102  99.2970753  63.2595253  31.5691018  99.3860245  62.4272728
  32.5469732  98.4950638  63.1627607  20.8928537  90.4918289  78.1307316
  21.1615825  90.5980015  79.0432787  20.3654599  91.2685966  77.9444313
  36.5597439  92.5901604  37.3594761  36.8936443  92.5833130  36.4624262
  35.8025932  92.0049381  37.3376870  44.3787241 102.0852280  39.8272443
  44.8020172 101.2429523  39.6610427  44.3058348 102.1326923  40.7804823
  40.0012875  94.3907642  88.0358696  40.5081940  95.1686668  87.8031921
  39.6512485  94.0749741  87.2028160  22.9216528  98.5915375  45.4096174
  22.8792429  98.2009029  46.2824488  22.2551918  99.2784882  45.4220200
  69.7757769  12.9858518  69.2132425  70.0370359  13.8243985  69.5937872
  70.5882978  12.6160264  68.8678885  58.7953663 105.0529575  83.0754185
  59.2780304 104.2375374  83.2109356  59.0766811 105.6199646  83.7934685
  30.2301788 103.2015228  79.6606874  29.4609785 103.1571770  80.2286625
  30.7836604 103.8732338  80.0590611 108.2947063   5.8447444  58.9483261
 107.5768280   6.4740878  58.8790274 108.6884880   6.0236651  59.8022318
  43.6485910  79.9910688  55.7967472  43.3198786  80.3667068  56.6134930
  42.8616762  79.8088264  55.2831554  24.5884299  98.0958080  60.0006914
  24.7002339  98.8403893  59.4096422  24.2956018  97.3820782  59.4340611
  34.6151543  94.1342258  50.0401974  35.3785634  94.4575405  49.5617580
  34.9777532  93.5365582  50.6940699  28.8294339  76.6941786  52.3499155
  28.0675483  76.2497234  51.9781351  29.1099906  77.3016310  51.6654301
  88.7275219   9.1749805  75.2303362  88.6890602   8.8245267  74.3404293
  87.9698849   9.7567624  75.2915955  37.6642728  95.9061146  49.7155762
  37.4562907  96.4991093  50.4376078  37.1870327  96.2637520  48.9668655
 107.6289654   3.2323623  45.1618099 107.0678139   3.0650401  44.4046116
 107.8001308   2.3652673  45.5293417  32.9861474  82.3645973  54.9003077
  32.9248571  83.2990837  54.7023201  32.2113061  82.1809769  55.4314756
  33.4443974  93.4312439  38.8336325  34.0517735  94.1706848  38.8572001
  33.9271808  92.7390289  38.3819771  53.9791822   2.7338815  93.4137726
  54.6632910   2.0741302  93.2999611  54.3934488   3.5561100  93.1519413
  79.7337914   6.1812955  75.8879995  78.8793707   6.6126162  75.9007502
  79.9034977   5.9588856  76.8034029  91.6153812   1.7505519  79.5916605
  91.6596985   2.6903975  79.4157124  92.4596882   1.4112048  79.2946625
  68.8849449   8.2504368  25.8433270  69.1189480   9.1419935  25.5852556
  67.9296589   8.2277834  25.7872295  49.5701933  97.3925018  52.9129457
  48.8316774  97.0040226  53.3819008  49.1790056  98.0877686  52.3839808
  29.9479461 108.9795399  47.8045511  30.8951735 109.1141510  47.8340912
  29.8392820 108.0298901  47.8554153 109.6212006  15.3796458  80.3802395
 108.7867451  15.7522738  80.6649685 109.8013496  14.6843565  81.0129738
  20.6823993  90.9358883  42.1366072  21.1679888  90.7800579  41.3265753
  20.8758593  91.8462086  42.3604822  24.4713259  96.6037083  84.6007442
  23.9264011  97.2485447  84.1496658  23.8808703  96.1893368  85.2299404
  51.1016703  91.2548256  63.2620859  51.0953522  90.6437492  62.5253534
  51.2918615  90.7085609  64.0247440  47.9327345  95.7526302  74.9556780
  48.1799650  94.8319912  75.0424910  47.6251698  96.0012531  75.8273554
  58.4073257  92.7799892  39.7949743  58.6433744  92.3864841  38.9549375
  58.4443903  93.7232494  39.6364450  54.5667171  99.5061111  57.6831675
  54.4852018 100.0966740  58.4320450  55.2647066  98.8998413  57.9311085
  26.6276002 110.0400734  76.5211535  25.7688951 109.6793938  76.3003302
  26.8375754 109.6549320  77.3719215  92.8071976   1.2943499  52.8100586
  92.3882484   2.0608255  52.4186134  93.2155895   1.6267061  53.6094189
  69.3990707   2.3472773  76.5374899  68.7024021   2.2354296  75.8906698
  69.8994255   1.5324301  76.4939213  64.9398279 106.7546654  35.2708793
  65.8670044 106.7541695  35.5087376  64.9246693 106.4444256  34.3654776
  34.6633101  98.5687637  67.2400951  35.2767992  98.9332771  66.6021347
  33.8286901  98.5274696  66.7732620  22.4435234 101.1281967  80.4770947
  22.7652621 100.6598282  81.2473774  21.5623569 100.7816601  80.3367996
  30.3481674  95.3943157  74.1156292  29.9416351  96.1681843  73.7256384
  30.0367713  94.6646023  73.5801077  86.8145370  14.2526472  40.1972198
  86.4191914  13.4658992  39.8217726  86.5899467  14.2132676  41.1268663
 106.7961502   3.8235632  75.4850292 107.7062321   3.7891915  75.7796383
 106.8382072   4.2435199  74.6259022  54.4369984  95.3034687  69.4024706
  55.1959705  95.4370499  69.9702263  53.8850117  94.6856689  69.8819160
  86.3362408   6.4627630  50.8405590  85.9296131   7.2638935  50.5102968
  86.9512749   6.2055933  50.1536608  98.7284565   0.7184854  61.4383364
  99.3561268   0.6518846  60.7187414  98.2966709  -0.1355381  61.4593554
  45.2069759 108.7846375  59.2578745  45.1602316 107.8716373  59.5415640
  45.0724983 109.2914581  60.0586796  30.0894022  90.6122017  72.6756716
  29.6172976  90.2034092  73.4010983  29.7759223  90.1527023  71.8966866
  39.2002535  86.1962318  65.7358742  39.8708534  85.5538845  65.5036783
  39.1007781  86.1066818  66.6836691  98.0326748   3.7952474  58.0168438
  98.7474155   4.2846325  58.4241438  97.2735405   4.3735239  58.0912828
  39.7384262 110.1957130  61.2230778  39.9094224 110.6659889  62.0390654
  39.5268250 109.3042755  61.5002203  35.0849319  99.0357590  47.8854513
  35.2535009  99.6661186  47.1851206  34.1519523  99.1331863  48.0759382
  88.1961727  13.3428574  67.3549604  87.6679897  14.0956783  67.0894194
  87.9276943  12.6408708  66.7621994  31.6256022 100.1403999  68.6404181
  32.1280241 100.5747318  69.3297386  30.8914948 100.7308102  68.4708881
  73.6755657  16.6752970  48.7538290  74.1162968  16.0099924  49.2823696
  73.7784290  16.3715482  47.8519487  31.0791016  93.4118938  59.7805357
  31.9294906  92.9742622  59.7412205  31.2906384  94.3333530  59.9301958
  30.7419086 112.2662163  48.1413937  30.3069568 111.7854404  47.4371910
  30.0563765 112.4066353  48.7945080  40.6806660  86.0181236  54.9833250
  41.1944294  86.7471790  54.6358156  41.0362196  85.8708668  55.8597565
  33.8715911  92.2531986  91.8947315  34.3816352  92.5367069  91.1359692
  34.1683102  92.8187943  92.6076698  88.4640980   0.3097534  49.9858379
  87.6401424   0.1137190  50.4318094  89.1155720   0.3353801  50.6866646
  17.1825719 101.5789509  70.8144379  16.2836444 101.8325043  70.6049871
  17.7234817 102.1084595  70.2285480  68.9320946  96.6249275  44.9296141
  69.6876478  97.1955013  44.7888374  68.6560822  96.8100834  45.8272552
 117.3838329   7.6954007  33.9655852 117.5852871   7.4792635  34.8760414
 116.4282608   7.7431387  33.9365458  75.5590296   0.9237991  59.5415449
  75.0349760   1.6129236  59.1332436  75.0812101   0.1160860  59.3530750
  36.4255810  97.1091843  63.3079910  35.4995990  97.3431301  63.2442760
  36.8469191  97.8929806  63.6606646  40.5382204 107.1347809  42.6688576
  40.7165432 106.4905739  41.9837093  41.0435677 107.9055023  42.4103165
  69.2606401  98.3994198  51.6735077  68.6740112  98.0914974  52.3643684
  70.0706577  97.9081631  51.8105173  45.7332468  78.2973242  80.7618523
  45.9176922  77.4285221  80.4049206  46.1482191  78.2949352  81.6244221
  49.5037651  99.2596817  77.3065138  49.5307636  99.1129684  76.3610125
  50.3087378  99.7412014  77.4972582 101.4242649  17.7121222  45.5524778
 101.3731766  17.2641373  44.7081280 100.6445312  18.2667875  45.5768871
  50.6702518  89.1565228  35.9168482  51.5550613  89.3763351  36.2084365
  50.7497120  88.2740211  35.5547476  50.3625727  77.3781967  43.3653212
  49.9119854  77.4697542  42.5257874  50.9997511  76.6788006  43.2201529
  39.7286201  88.9068699  65.4975510  39.0959263  89.2885971  66.1059999
  39.7608805  87.9803085  65.7356024  68.6717653 106.9348621  67.4170637
  68.6537409 107.6576519  68.0443430  68.5256577 107.3512173  66.5676308
  55.8719778 109.9603176  39.4875002  56.2911224 109.0997982  39.4801545
  54.9353981 109.7700882  39.5410395  49.2171478 100.3070831  83.3846188
  49.3243408  99.9146271  82.5181770  49.9452209 100.9239006  83.4599018
  51.0096169 100.2339458  50.4628515  50.1219130 100.5919838  50.4676390
  51.0529470  99.7117615  49.6618032  57.5296021  95.9203529  65.2302790
  57.7112675  95.3004742  64.5238924  57.9275322  96.7402744  64.9376678
  36.2989068 104.8434067  34.7649264  36.1391568 105.7749462  34.9163866
  36.7258596 104.5402336  35.5661941  48.6183071 100.6340313  58.4794617
  49.1662741  99.8800087  58.6971998  49.2348480 101.3610458  58.3925867
  84.5176697  18.3587730  57.0906210  83.6114311  18.0749440  56.9706154
  84.7296906  18.8301873  56.2849855  71.1542177  17.6618183  67.0876408
  71.9289255  18.1898451  66.8946600  71.4796829  16.7622626  67.1208763
  42.6421213  78.4172106  52.5596094  42.1419144  79.0781546  52.0808887
  43.5308981  78.7705660  52.5977135  93.7921238   6.7388070  51.2419987
  93.0374241   7.2464418  50.9437227  93.4273529   5.8880246  51.4856100
  27.6983976 109.7630978  60.6364679  27.6516891 109.8044014  61.5916348
  27.5283313 110.6602383  60.3493357  45.0218391 111.0261250  72.2629070
  44.3983841 111.7507458  72.3125744  44.5259047 110.2627563  72.5587940
  37.9554749 108.1670475  75.7529116  37.9473519 108.5505199  74.8759222
  37.2762775 108.6444378  76.2293720  34.8175907  93.3819485  44.8188400
  33.9943314  93.0176163  45.1440048  34.7145367  94.3288326  44.9138069
  38.3279467 111.5339088  70.9767294  38.6254168 110.7609558  71.4566183
  37.7264404 111.1892414  70.3167057  42.6983976  74.7075939  71.2028980
  42.7187061  75.5552769  70.7587624  42.6665211  74.0660667  70.4932117
  56.9343948  99.8935223  51.2063742  56.1907196 100.3656864  51.5808630
  57.2733641  99.3674183  51.9306278  69.7915268 105.3869152  48.0935144
  70.1997089 105.1771259  48.9335203  69.2554045 104.6205807  47.8897190
  22.8126001 108.6385345  62.1124792  23.5073853 108.9096260  61.5124655
  22.8185987 109.3028069  62.8016376 103.7253666   2.7658033  72.6647425
 104.2799187   2.0057333  72.8407955 102.9863834   2.6673213  73.2651091
  23.8108444  78.3178663  68.3623695  22.9331517  78.5344362  68.0477524
  24.2737889  79.1555548  68.3762217  39.9969101  94.7995663  44.6805048
  40.1525879  95.6538010  45.0833559  39.0445900  94.7030830  44.6840096
  38.2343578 103.3224773  41.6151524  38.3329058 102.3896599  41.4244080
  38.9729810 103.5291767  42.1878099  48.5484552  80.2553654  62.9047108
  48.9936829  80.8339596  63.5237789  49.1929722  80.1025009  62.2137260
  30.2650428  55.1046705  64.3132687  30.4258275  54.6270895  63.4994507
  29.4542956  54.7282743  64.6556854  62.8530645  86.0835648  50.4868126
  62.9308033  85.1839352  50.1692343  62.4476194  85.9987450  51.3497448
  30.3473783 101.1474514  46.2677002  30.0183845 101.0922241  45.3705168
  30.2034950 100.2731514  46.6298151  66.0019970   1.0166285  66.0709810
  65.0454664   1.0166483  66.0351419  66.2301350   0.1393455  66.3784838
  58.1570911 110.7464790  75.0350523  57.4549437 111.3729000  74.8594952
  58.8390207 111.2646484  75.4624844  41.4462948 110.2934456  46.6532755
  40.9701824 110.6874943  47.3842192  40.8679962 109.5992756  46.3371658
  26.6876054 102.0762825  46.6285610  26.0999632 101.3713837  46.3564920
  26.1921906 102.5592041  47.2900581  52.2809982  97.6595116  44.3238878
  52.5765371  97.8711128  43.4383821  52.8716040  98.1486130  44.8967791
  60.3285599  94.9636936  43.2042217  60.1348495  95.5749989  43.9148617
  61.0668039  95.3602886  42.7416897 108.0523872   1.8684661  50.2889299
 107.5753689   1.7280461  51.1068344 108.4390831   1.0162542  50.0878477
  45.8894920  89.1426086  48.1923008  46.8439627  89.2087841  48.1633854
  45.5840063  89.8213100  47.5904083  24.7880340 101.1577606  42.6478720
  24.7615170 100.4650688  43.3079481  25.4788399 101.7484093  42.9481363
  91.8445015   3.1555459  58.8179207  92.2597408   2.8522548  59.6252775
  92.3206329   2.7055502  58.1200361  73.2042217  10.8521020  61.1268044
  73.6165905  10.6073380  60.2983856  73.7428188  11.5700436  61.4595270
  19.6054113 108.8454533  36.8620229  19.8571157 109.2775917  36.0458517
  19.9202681 107.9468250  36.7642260  20.9869218 106.3979721  36.0354519
  21.3662028 106.3833332  35.1567221  20.3200102 105.7115173  36.0199308
  37.6273370  83.9306068  63.0941725  37.7856207  84.5831299  63.7763643
  38.1667304  83.1820297  63.3489752  17.8670335 101.0729790  22.1601057
  18.2800603 100.8471870  21.3266444  18.2178521 101.9372940  22.3748732
  45.0027561  84.9622536  71.1140442  44.7180557  84.6807957  70.2445841
  45.1510620  84.1469288  71.5930939  39.8933935 107.8837967  62.5871611
  40.6065702 108.0130959  63.2123709  40.1831198 107.1529484  62.0411253
  33.2099485  89.5545578  54.0188980  33.1608677  90.5005455  54.1564703
  33.9418459  89.4382858  53.4130621  24.2570734 111.3842392  56.4699078
  24.6000552 112.2542858  56.6738987  24.9493408 110.7832623  56.7452860
  63.0794430 102.0769405  58.1411600  62.9581165 101.1327171  58.2409525
  62.8790236 102.4368095  59.0051937   7.8515822 105.8979607  64.5463848
   7.3331952 105.3173447  63.9892530   7.2036731 106.3654423  65.0735474
 119.2284870  19.2091775  78.8639641 119.1765499  20.1476502  79.0450811
 118.3169937  18.9173043  78.8491297  51.1808014  91.4274502  54.4671345
  51.1570740  92.3332787  54.1586876  51.0048294  90.9036064  53.6855602
  91.4758587  31.7664862  75.3382587  92.1658611  32.3664999  75.6212807
  90.7673645  32.3384166  75.0430155  45.0665283 110.5375671  61.5187788
  44.1622257 110.6315041  61.8181944  45.5534983 111.1930656  62.0181894
  41.3906050  70.1053953  61.5870190  40.4910326  70.3984642  61.4417362
  41.8872929  70.4895401  60.8645487  22.6201773  83.4185123  68.5391045
  22.1248913  82.6031780  68.6176014  22.2341084  83.9974976  69.1963339
  35.9495616  82.7192020  73.4138346  35.0271273  82.9745293  73.4014034
  36.1105466  82.3604107  72.5411510  49.1256046  95.9914303  62.2971916
  50.0826311  96.0096169  62.2993326  48.8684702  96.9128704  62.3296881
  54.9123526  86.2369347  59.5639896  55.3554344  85.7648277  58.8589907
  55.2223921  85.8160973  60.3658628  44.7842360  90.5873203  71.1296225
  44.8945904  90.0811577  71.9345093  45.1517105  90.0298023  70.4437923
  43.5744286 101.7868423  68.1983137  42.8090334 101.4921093  67.7048159
  44.2834139 101.2144852  67.9050922  62.3627615 110.0538349  31.5826845
  61.5538788 110.2794170  32.0420885  62.3772621 109.0967464  31.5791368
  50.6441832  81.0808277  46.3919115  51.4906740  80.8962154  46.7988634
  50.1021147  80.3233719  46.6124868  58.4957361  98.6310863  53.4704018
  59.0122938  99.2746830  52.9854441  58.3195591  99.0507698  54.3124580
  44.2314005  82.2144604  64.6887398  43.7800789  81.5096855  65.1533127
  43.5494471  82.6270962  64.1587305  52.4677801  80.6989765  59.3608761
  52.9468298  81.3872719  59.8223972  53.0195618  80.4866219  58.6080980
  81.2654495   6.4317131  44.6830320  81.6520119   5.7948726  45.2840567
  80.3373337   6.1995268  44.6525002  50.9427834 110.4310989  65.5634880
  50.1762247 110.8747959  65.9264660  50.6785870 109.5135975  65.4954624
  36.0611820 100.6814671  68.8809299  36.5723109 100.0238132  69.3525934
  35.3635836 100.1828289  68.4555578  80.9577179  12.8162491  46.5671015
  81.6303253  12.1586847  46.7444181  80.8729744  12.8211153  45.6136703
  79.4138098   2.2482519  76.1448288  80.1186848   2.4127893  76.7711735
  79.2310190   3.1051475  75.7594109  27.7990818  82.9043865  72.0029259
  27.9145193  82.2583866  71.3060856  28.5333467  83.5086155  71.8934202
  28.6576772  92.9545975  55.3852987  28.6428118  93.2355881  56.3002062
  28.3274746  93.7091541  54.8976088  79.4391966   1.4314802  53.9566755
  79.7476816   1.6629998  54.8327303  79.9494553   1.9879141  53.3682489
  45.9494162  96.9797897  63.7281561  46.5573359  96.4084435  64.1974401
  46.2814236  97.8636456  63.8856173  20.6761050  94.5384693  52.5685167
  20.1069260  93.8927078  52.9871559  21.0616660  94.0726280  51.8265152
  31.0066915 109.2519474  53.6076069  30.3949022 109.5502949  54.2806101
  30.9492278 108.2969570  53.6380768  33.9034343  84.8388958  90.6379128
  33.1590986  85.1658154  90.1326180  34.5989966  84.7212887  89.9909306
  47.2532797 101.5736294  80.6607342  47.8189421 101.0637951  81.2406731
  47.1548557 101.0272026  79.8810244  45.6702232 102.0331478  70.2674007
  45.3420115 101.4979744  69.5448399  45.9930658 102.8304577  69.8475122
  44.4623566 108.9628029  56.4847040  44.5434093 108.9358330  57.4380875
  43.5279226 108.8364220  56.3200998  43.9315033 102.2430515  45.9704304
  43.8290453 102.4652100  46.8958378  43.2369232 101.6072845  45.7984114
  59.7904062  99.5119190  67.4501419  60.0288248  99.8895931  68.2967567
  59.0285921  98.9638042  67.6384020  31.2778521  71.5569639  60.5420828
  31.9824862  72.1429634  60.8183575  30.4769635  71.9882965  60.8400106
  48.0261517 100.1494503  48.2349825  47.6188326  99.8683548  47.4156475
  48.4033060 101.0058308  48.0334902  49.1532803  82.9733562  43.6181259
  49.4215155  83.5833645  42.9309845  48.7484074  83.5273361  44.2855215
  16.2276423 100.8941555  46.7999744  16.6734970 100.0588894  46.9406176
  15.8159840 100.8041763  45.9405136  53.6052370 102.4852371  80.5213833
  54.4792986 102.8511620  80.3859329  53.0951166 103.2106018  80.8817387
  15.1390398  95.3403091  52.6789618  14.3184352  95.0156116  53.0496502
  15.2030718  94.9107456  51.8259621  41.4470387  92.9193497  45.9798717
  40.8671045  93.5676575  45.5803680  41.0696793  92.7614307  46.8452597
  99.0084839   2.5941256  75.5126286  98.3259392   2.2737226  76.1022902
  98.5632801   3.2324442  74.9553347  37.2049809 108.7264824  61.2908220
  37.9337692 108.3115578  61.7522717  37.4633503 108.7080193  60.3693342
 106.8810177  28.5189319  46.3768196 107.6876354  28.4239721  46.8833733
 106.3661194  29.1616964  46.8646288  60.6247711  90.3139114  54.6028233
  61.1982489  90.6709576  55.2809620  59.7514391  90.3310585  54.9942732
  23.6082458  80.6552982  53.3196926  23.3991838  79.9274921  53.9052010
  22.7588534  81.0392666  53.1021357  50.7169485 107.8170395  66.5877438
  50.3419971 106.9890499  66.8878841  51.3644075 108.0428219  67.2556114
  37.6053643  84.9049568  49.2747355  37.4165964  85.5499840  49.9563026
  37.6340222  84.0680218  49.7383690  86.6419983  15.8000982  46.5101480
  85.8258247  16.1687565  46.8480587  87.2209644  16.5552366  46.4062309
  90.2430439   6.5959805  34.4312596  90.6615448   5.8338642  34.8315883
  90.9417725   7.2471040  34.3676782  69.9343395  93.5782623  47.6339531
  70.4746914  94.1763115  47.1176338  69.2236471  94.1255188  47.9681015
  53.2723284  97.3663235  67.7331924  53.7062407  96.8603802  68.4202003
  52.4527359  97.6583576  68.1322050  90.3687859   5.6049514  54.2475796
  90.0951481   6.2132293  54.9341297  90.2119446   6.0791373  53.4310150
  84.9297523  20.3318524  61.6969299  84.2649841  20.5331874  62.3555470
  84.5034313  19.7080874  61.1092186  79.4840097   8.2473695  62.4890184
  79.9630642   7.4221945  62.5653505  80.0409126   8.7975645  61.9382286
  74.3995190  16.3623929  42.2390127  74.4296646  17.1887457  41.7568684
  75.2459812  16.3132572  42.6832199  79.4589376  17.7642429  48.9008570
  80.2156258  17.8906739  49.4732809  79.1015673  18.6437583  48.7784958
  97.5133705   8.6733055  78.3633614  97.1850681   9.4087827  77.8461409
  97.2630405   7.8972763  77.8620148  97.4239445  20.7374024  41.0675907
  98.1246758  21.1229205  41.5935040  96.8842983  20.2619457  41.6992188
  66.8469667  92.9393864  44.4213915  66.5444851  93.8058853  44.6932602
  66.1060572  92.5659084  43.9441109  43.8595343  93.0147266  77.1506739
  43.3980274  92.6491737  76.3959455  43.9309263  93.9496136  76.9579649
 105.8360100   6.1874217  55.8183527 106.4750290   5.8085907  55.2147293
 105.6729317   5.4957408  56.4596176  47.3040199 104.1917419  29.5976925
  47.0682335 103.8887691  30.4745293  48.1184912 104.6786118  29.7234726
  86.6857052  27.8738618  58.1620502  86.1760139  27.7134871  57.3678684
  86.7797089  27.0105839  58.5647249 106.4326191   0.8679368  52.7282667
 105.7788277   1.5378831  52.9281616 106.9124222   0.7493703  53.5480022
  85.3914165   6.2402809  68.1926537  85.2496815   6.9328511  68.8380098
  86.2230873   6.4671355  67.7766132 111.5646935   1.5917969  49.9742556
 111.0256004   0.8841627  50.3276062 111.5913296   1.4250211  49.0320730
 114.4168091   2.0761086  45.6287146 114.0321922   2.4820235  46.4055872
 113.8679600   2.3771602  44.9045849  90.5159855  43.7105608  62.1161175
  89.8045635  43.4728336  61.5214825  91.1759472  43.0299091  61.9842005
  43.0818653  97.2068214  54.3178749  43.3668232  97.6433182  53.5150671
  42.1290302  97.1597099  54.2396307  28.9023328 101.1168289  68.1934023
  29.4084263 100.4858017  67.6816320  28.3396840 101.5496540  67.5512838
  97.3262596  14.4865048  36.4068151  96.8421078  13.7482381  36.7766666
  96.8020058  14.7645950  35.6557751  83.4611320   6.5729833  48.0500031
  82.6846886   7.0212638  47.7147150  84.0938187   7.2741145  48.2060432
  98.9856815  23.0138826  56.3714552  99.4025421  22.1947479  56.6388083
  98.3954716  22.7616405  55.6613398  44.8330593 107.7197552  62.8645086
  45.0663185 107.0619297  63.5195494  45.6195784 108.2578850  62.7748489
  98.3853722  16.5655100  64.4377327  99.0932941  16.5445745  63.7938070
  98.3191299  17.4862123  64.6910143  65.3610229 110.0792599  66.7709827
  66.2587929 109.9698830  67.0844841  64.9446392 110.6381798  67.4270868
  52.2173691  95.4778767  62.4283504  51.8102169  96.2383747  62.8431988
  52.7077198  95.0545406  63.1330299  52.5549889 108.9019871  88.9338684
  53.2937241 109.4593716  88.6892700  51.7853975 109.4587231  88.8155270
  72.3870039  25.9541821  86.6598129  73.0140686  26.6679764  86.5435314
  71.7747736  26.0520387  85.9305382  88.0614471  18.0744481  54.5768595
  87.7223396  18.9043999  54.9121475  87.7012253  17.4125791  55.1671171
 107.6128578  26.9003081  53.2406759 107.5275707  26.0939646  53.7493658
 106.7122555  27.1474648  53.0307722  67.8449631 103.4355164  57.0158434
  67.8275347 104.1582298  57.6432371  68.7313080 103.4530544  56.6548538
  92.5633335  18.5461748  89.0674210  91.8806648  18.0519128  89.5211887
  92.3033333  19.4618356  89.1683960 109.6504116  10.7686090  59.7534895
 109.9054432  11.3640904  59.0487957 109.6211147  11.3207841  60.5348206
  82.0352364   1.9500987  45.5187702  82.6688957   1.9480160  46.2361956
  81.5341473   2.7559653  45.6441402  57.2378969 110.3542137  49.9853897
  56.4762640 110.9324360  49.9427748  57.7975702 110.6417656  49.2640591
  87.8828716  10.1241744  87.5650120  87.7881050   9.1719419  87.5874996
  88.2191086  10.3519487  88.4317780  62.4437284  91.4719200  56.2764549
  62.2150183  92.3548889  56.5667963  63.2167625  91.2428570  56.7923737
  32.0658946 108.8438511  22.2634339  31.1494660 108.9049053  21.9938684
  32.4806571 109.6160126  21.8787527  61.6039991  91.3710022  51.2303019
  62.1693993  92.1398449  51.1566019  61.6607380  91.1194515  52.1521139
 100.9667110   3.0700544  78.9965296 100.4975796   3.4816182  78.2707453
 100.9887600   3.7411517  79.6787119  68.7799072 111.1988258  64.2488527
  68.1929398 111.7366219  64.7803354  69.6371508 111.2991142  64.6627522
  64.7594309 108.3509445  61.0622311  65.4682064 108.2851219  60.4222822
  65.2005053 108.3272839  61.9114256  61.2197065  94.9614334  29.8114014
  60.3238487  94.6477509  29.9350238  61.1176491  95.8586025  29.4937706
  58.0252504 100.7807922  55.8720541  57.8080797 101.7080116  55.9686375
  58.7664127 100.6456280  56.4625120  52.2825813 105.9926414  57.0050764
  52.0908165 105.6159782  57.8639030  51.6063356 106.6582489  56.8790579
  98.1769085  17.1520317  67.9281235  97.5796795  16.4416933  67.6936722
  99.0207195  16.8858778  67.5628996  49.9162817 105.7530785  64.4665766
  49.2519617 105.0928211  64.2691708  49.4426823 106.4339542  64.9444199
  90.0658131   4.5947585  62.3780203  90.9056854   5.0313038  62.5204182
  89.6211243   4.6492195  63.2238960  63.4945726  30.5112505  68.8088226
  63.4411860  29.6230841  69.1617298  62.5973368  30.8415461  68.8547230
  45.0739336 103.9331532  66.8612480  45.5512810 104.0173244  67.6866484
  44.2409277 103.5303116  67.1063185  87.9086304 102.6992893  70.3208590
  87.0111561 102.4678040  70.0817204  88.2246113 101.9472408  70.8216667
  30.0859284 109.7758007  38.1710601  30.3537965 109.1969872  37.4572992
  30.8859682 110.2412319  38.4150743  87.2144508  10.9191096  71.9669867
  87.9396057  11.0262620  72.5825310  87.5043488  11.3707554  71.1743927
  81.8734741  35.7806802  70.0576735  81.3224411  36.5153694  70.3275347
  81.4523792  35.0116920  70.4418182 119.4676590  10.6759572  74.9190617
 118.8649273  11.1716235  75.4733706 119.0019131   9.8621124  74.7267771
  55.7375765 103.2564545  66.6787529  54.9968529 102.6770878  66.8573284
  56.4886808 102.6681232  66.6016817  71.1775923  43.2744312  53.8651037
  70.8148384  44.1050386  53.5573196  71.1872149  42.7148628  53.0885553
  78.3391809 103.9229202  73.5543060  79.0303040 104.2442417  74.1333818
  78.2972622 104.5694351  72.8496838  82.7084732   2.2788253  30.1463819
  82.8238106   2.3881362  29.2024660  81.7652035   2.3655415  30.2840471
  88.3164501   0.1882357  62.5406790  88.7472630   0.4400674  63.3575106
  87.3827934   0.3048608  62.7164841  38.0163193 103.9153767  50.3045845
  37.5912237 103.5546112  51.0826445  37.7533245 104.8356628  50.2929449
  46.1875963 104.1994095  60.6810808  46.9677496 104.7475433  60.7655668
  46.2680721 103.5578251  61.3868618  55.5450249 100.1585674  69.2236900
  54.9620724 100.8003521  68.8180923  56.3478851 100.6464672  69.4070148
  31.4106941 104.2473602  50.6685019  30.8843589 103.6758423  51.2275743
  32.1385384 103.6964417  50.3804636 118.0763626  25.7076001  65.2764702
 118.6413383  25.7661700  66.0469246 117.2178173  25.9956622  65.5865812
  46.3980007 103.2419300  45.5236197  46.8873262 102.9535389  44.7531509
  45.5609465 102.7817631  45.4618120 109.7946739   9.3110907  30.9456658
 109.4093132   8.8762301  30.1849914 110.5283928   9.8118377  30.5890870
  85.4921341   9.1141295  50.1767778  85.4323006   9.8005348  49.5123243
  84.6241856   9.0947008  50.5799007  88.7002563  12.9449213  47.7998257
  88.3849239  13.8027191  48.0844021  89.5185471  12.8190815  48.2802439
  77.3640203   0.6808776  61.8590879  76.6496086   0.1660913  62.2343731
  77.0542765   0.9190607  60.9852695 100.1246834   0.5228000  39.6247625
 100.9732723   0.5632545  39.1837502  99.6634483  -0.1952211  39.1912460
  87.2975159   8.5928512  70.5875731  87.2667217   9.4100881  71.0849762
  86.4680004   8.1592000  70.7878113 111.5828991   4.6080077  34.1636300
 111.6585159   3.6575648  34.2483211 110.8729362   4.8458773  34.7599554
  61.7614079  22.1009970  67.7091312  60.9410238  21.8090534  67.3116732
  61.4893293  22.6601696  68.4368181  75.8867073   8.1434959  59.2651749
  76.5286064   7.8222495  59.8984194  75.6815958   9.0304291  59.5609903
  97.3126411   9.6869743  35.4557419  96.7550755  10.3483737  35.0459814
  97.0646572   9.7039711  36.3801050  42.4369526  97.9968357  40.3611517
  43.3721304  97.8633404  40.2067041  42.0946407  98.2922935  39.5174956
  88.1097603  13.8937175  90.4123592  88.7079430  13.7777138  91.1505699
  87.2886181  14.1802275  90.8121967  55.6398201  95.8739758  57.1870041
  55.8089685  96.5916920  57.7973413  56.1456966  96.0992622  56.4062595
  42.9871798  84.4178009  38.2913661  43.8884735  84.4354057  37.9695106
  42.6700687  85.3120041  38.1645823  68.6915112  25.2712107  45.2384710
  68.9994669  25.4777217  44.3560076  69.4183111  24.7954965  45.6405783
  77.7459478  22.0849371  58.1561518  76.8172693  21.9744229  57.9522657
  78.0505943  22.7460814  57.5346136  76.4188290  13.9213598  82.4937725
  75.9195614  13.4885395  81.8012142  76.8427801  14.6603096  82.0573616
  76.7164373  22.1258140  44.3255711  76.7723083  23.0163646  44.6720266
  75.8685780  21.8028760  44.6306562  59.5357990 106.4529610  31.9875312
  59.3057251 105.8833599  32.7215910  58.8236237 107.0912647  31.9473028
 116.0788727  19.4364905  70.1058340 116.6189766  18.8637328  70.6503296
 115.6594181  18.8461685  69.4798851  89.6702671  20.4552054  56.5475035
  89.8833275  20.5609322  57.4746799  88.7666512  20.7620215  56.4728928
  79.9619389   3.0000567  65.6413174  80.6234646   3.5289776  66.0872555
  79.6296072   3.5682029  64.9463367   6.0798776   3.1128046  65.0441980
   6.3585317   3.9783666  65.3431702   6.7500800   2.5167137  65.3784657
  98.5890198   4.5697105  78.7018824  97.6447582   4.7094366  78.6305475
  98.6751652   3.7939638  79.2559862  68.0285311   1.8671417  73.3166981
  68.3758450   1.9592687  72.4295044  68.2552814   0.9726305  73.5709906
 108.4061623  32.6157975  36.1185074 107.9653549  33.3553910  36.5367460
 107.7386379  31.9309664  36.0778332  90.7347679  14.0227270  66.6739988
  90.9638786  13.2522142  66.1543369  89.8641682  13.8275743  67.0206928
  97.0740128  10.2966273  80.8916187  96.1642265  10.0296521  80.7602882
  97.3403454  10.6626618  80.0482178  56.6817474  95.8378220  60.2959394
  55.7336903  95.8236980  60.1647234  56.8017340  96.2978745  61.1267138
  53.9782333  94.2928314  88.3762836  54.4726181  93.4987354  88.1732655
  53.0656338  94.0056419  88.4065533  82.9508686   9.1571635  38.2114244
  82.5243664   8.4213060  37.7722859  83.0273438   8.8796157  39.1243052
  97.1918201  -0.1706895  57.0275116  97.9062939   0.4660980  57.0436239
  96.8940830  -0.1736361  56.1177969 109.3665314   6.6251874  71.1731005
 108.6453056   6.1039770  70.8203840 109.9234009   5.9899157  71.6231680
  94.9427986 108.9995670  61.2876225  95.8148861 109.0343380  60.8945751
  94.5131683 108.2631493  60.8524895 117.6901531  11.7534184  76.6182995
 117.7709770  12.6756382  76.3749695 117.8146172  11.7443204  77.5673294
  64.7165060  87.2417355  43.8616276  63.8600302  86.9346905  43.5643101
  64.5502806  88.1196690  44.2048883 102.4737549  28.1647301  48.4022427
 103.0758667  28.0408835  49.1359711 102.9051399  27.7355957  47.6633406
  98.5396576  13.8057363  62.7711058  97.8302670  14.1208160  62.2109985
  99.0179920  14.5967460  63.0195761  49.1314077 104.9466610  47.5560379
  48.4423208 105.2417374  48.1512833  49.9348545 105.3245735  47.9136467
  99.9430656   6.0445368  54.3766546 100.4040909   6.5570962  55.0407124
  99.0339279   6.0275829  54.6756744  80.8742905  98.8157845  44.7718620
  80.4591465  99.4125557  44.1491699  80.4821968  99.0395546  45.6159115
 106.0955524  12.2468960  71.5755177 106.0599709  11.4016712  71.1276770
 105.8802223  12.0447731  72.4860191  48.5592079 109.5939827  34.8132062
  49.0813684 110.3957081  34.8417997  49.1221380 108.9570808  34.3730903
  89.5619869  27.7753377  44.5391703  90.1809502  28.1767607  45.1490688
  90.0885487  27.5632715  43.7684631  63.1209087 103.9659691  55.8654022
  63.0848169 103.5565281  56.7298603  62.2502470 103.8208389  55.4951096
  93.8858891  24.9602818  69.6674871  94.2476845  25.3060389  70.4834461
  92.9670429  24.7832108  69.8689651  79.5860529  13.2443511  49.1455030
  78.9631033  13.9250135  48.8908100  79.8868656  12.8725779  48.3163309
 102.1742153   4.4401157  64.8891878 102.7576256   3.9002573  64.3558741
 102.2447109   4.0711981  65.7696199 114.9331951   0.5454797  75.5771399
 114.1040421   0.8866282  75.9123278 115.1667309  -0.1561331  76.1849499
  37.0811152 101.6105461  56.2141228  36.4556503 101.7255306  55.4987144
  37.2458673 100.6679630  56.2390471  96.6315365   0.3786519  54.2127800
  97.4113178   0.3500357  53.6583900  95.9260750   0.0585214  53.6505747
  94.5246315   2.3930047  57.5393200  95.1921463   1.9904481  58.0948400
  94.8281765   3.2920167  57.4133492 102.1153069  19.6498120  57.1692038
 101.7175770  19.8313212  56.3176775 102.5990391  18.8342202  57.0386457
  42.1447611  85.7033730  57.1447325  41.9935608  86.4111328  57.7711916
  43.0580235  85.4522133  57.2829437  55.7442188  85.4852390  25.8941293
  54.7881889  85.4680061  25.8501148  55.9683943  86.4154911  25.8694077
 113.1941986   5.0645810  55.5000257 114.1396141   5.1870888  55.4138899
 112.8244114   5.9322917  55.3370285  45.4601192  97.3182487  73.7982464
  45.4035711  96.3932419  74.0378237  46.2382841  97.3749065  73.2437325
   0.2241112   3.0421743  48.6338997   1.1625219   2.8626069  48.6919737
   0.0054363   2.8793791  47.7163458  90.2309799  19.4829404  74.9550009
  90.1894855  20.3445005  74.5400000  91.0518742  19.4934547  75.4471922
 109.0229321  20.3067374  58.4777927 108.3950138  20.2533579  59.1982746
 109.8790550  20.3092623  58.9059114  46.5292358 108.2407570  90.6170082
  47.4827194 108.1584263  90.5990410  46.3718510 109.1782570  90.7290459
  92.7354717   7.8054178  66.7756271  93.2008553   8.6321795  66.9025803
  92.8248405   7.6213974  65.8405447   2.8802714  14.1707778  58.0678844
   2.0260844  13.7774611  58.2464886   2.8520247  14.3923545  57.1371126
  98.8031197  26.1283565  60.8545685  98.2493401  25.8333516  61.5774298
  99.4846916  25.4597163  60.7866812  23.1209397  16.8978000  66.1853218
  22.8411531  16.0960948  66.6271544  24.0771937  16.8649340  66.2123394
  12.2998381   9.1835803  56.4750433  11.3747346   9.0559202  56.2649918
  12.3229790  10.0055265  56.9650412  21.2545204  31.5042281  67.3704433
  20.8719087  31.3219380  68.2287025  21.9320297  30.8365583  67.2635460
 105.7046986  22.5196266  43.3545780 106.3343525  21.8617678  43.0596399
 105.9379864  23.3098364  42.8673601 111.3997650  10.9079492  54.7423935
 112.2313309  11.0973585  55.1769543 111.1757088  10.0227046  55.0294113
 109.4461632  22.2415328  40.4699230 109.6553135  21.9419885  41.3546610
 109.3682480  21.4371943  39.9568915   6.1025751   8.5834855  25.5897689
   6.4343840   9.1391152  26.2950420   5.9756041   7.7274609  25.9988308
 117.4045372   8.4030217  67.5092030 117.2695351   9.3460298  67.6026964
 118.3421898   8.3108979  67.3402119 115.1235771   7.6885301  49.7881269
 114.2459202   7.3072970  49.8131180 115.6956863   6.9942528  50.1150799
 113.5192871  22.0890474  43.3455992 114.1303539  21.4530802  42.9736090
 113.8220119  22.9343915  43.0139637 102.3847198  22.8220081  52.5057316
 101.9695282  22.0427918  52.1360493 103.0400562  22.4788475  53.1131887
  30.5235410  27.6019573  36.3896990  31.4068317  27.8414488  36.1092138
  30.4605603  26.6642570  36.2080860 116.9787216  35.7115841  47.1482658
 117.5465393  35.0381756  47.5228930 117.4333382  36.5347648  47.3269510
   9.6105242  28.9683533  48.7385559   8.9141208  28.9350772  49.3944120
   9.1551548  29.1392994  47.9141474  26.6103077  58.4867668  68.5599327
  25.7093358  58.7991905  68.4770536  26.7329407  58.3560419  69.5002031
  17.0693862  15.7194412  58.7026358  16.9106305  14.8815024  59.1372490
  16.7341375  16.3742208  59.3150902  11.2222028  14.0415967  49.2841864
  10.6341159  13.3001959  49.4280910  11.0328257  14.3275809  48.3905506
   0.7875137  34.1553068  33.8499904   1.0709470  33.2412434  33.8697195
   0.0874765  34.1749692  33.1974626  12.6059759  36.0958886  52.9024506
  12.0393562  35.4859328  52.4300861  13.4264708  35.6174731  53.0213499
 111.9872475  11.4957511  48.1702471 112.8307629  11.3254702  47.7510452
 111.3385868  11.1914420  47.5355339  14.9537253  30.4076362  45.8116198
  15.3882694  31.1135530  45.3329945  14.0593457  30.7224202  45.9428835
  23.7243748  12.4535429  49.0017843  23.3480716  11.8765545  49.6664000
  24.5437598  12.0272064  48.7506390  24.8977470  11.9245887  31.4538813
  25.2791595  12.5352061  30.8230853  25.5537915  11.8558955  32.1475101
 117.6253319  35.2148843  59.4326305 117.8060055  35.3958678  58.5102224
 117.0442200  35.9244561  59.7065783  16.6982388  24.1850114  72.3986006
  16.3266838  24.9637270  71.9841337  16.5282619  24.3066669  73.3326960
  27.0471907  26.0657668  47.9093695  26.6411901  25.2454066  48.1893778
  26.8873477  26.1024499  46.9663239 117.6859856  36.2001586  24.5505404
 118.5759926  36.3735723  24.8572278 117.7032185  35.2850127  24.2704654
   1.3978012  17.8811264  46.2036753   1.9887805  18.4938729  46.6413021
   1.4821552  17.0689178  46.7031050 115.9537411  17.7217376  82.0445633
 116.5250874  17.4579310  81.3233089 115.6813717  16.8976021  82.4481010
 114.5264339  45.9011984  27.3027492 114.3688107  45.5704260  28.1870437
 115.4373169  45.6709242  27.1197224 116.9014263  30.4278684  41.0749960
 116.6022587  31.3166428  40.8831358 117.7844524  30.5429363  41.4260721
  94.3595982   9.1773701  29.3348312  94.3142509   9.3098396  28.3879280
  95.0133610   9.8092735  29.6340394 100.8028316   8.4247202  51.8017340
 101.5752411   8.8424993  52.1826315 100.9096718   7.4950171  52.0029020
 118.1661510  16.6949058  40.0843477 118.7610531  16.9261026  40.7977009
 118.6635876  16.8806517  39.2879248  16.9439745  21.1477852  46.1735916
  16.1263204  20.9569359  45.7139730  16.8392622  20.7341504  47.0304298
 116.4194107  20.5623245  55.1064491 115.5256176  20.6973982  55.4212856
 116.8839169  20.1907301  55.8563757 105.7838535  40.8257818  13.5364676
 105.3136826  40.6433582  12.7228975 105.1456928  40.6470203  14.2271423
   9.3713552  33.8160372  43.0260515   9.6722400  33.9606690  43.9231491
   9.3428177  34.6910262  42.6389980 119.0357377  20.4189968  63.1893253
 119.1966849  20.6548953  64.1029310 118.5410774  19.6008933  63.2367659
  21.2091255  20.5311227  23.2955265  21.6892838  20.2616501  22.5125408
  21.7276239  20.1893282  24.0239263  87.2752666 105.5350018  50.2572727
  86.6058254 105.5564022  49.5734501  87.0225906 104.8007107  50.8169270
   3.0526933  29.2823744  64.6078014   3.0991486  28.8252664  63.7680864
   3.1230387  30.2094245  64.3800688 117.8769875  24.5413256  57.1732664
 118.0408382  23.7507176  57.6873922 117.2345448  25.0316834  57.6861477
 114.5336342   1.8218458  22.4795747 115.3824329   1.4567780  22.7295661
 114.4319344   2.5942272  23.0357385   2.2697170  31.9866228  42.5599575
   3.1422639  32.0840979  42.9412603   1.8143930  31.3892817  43.1533337
 116.3833809   7.4796867  61.5615749 115.5798054   7.6171112  61.0599613
 117.0771027   7.8314012  61.0036516  10.6274700  16.7954969  53.7287998
  10.5047262  16.4663589  54.6192122   9.9617904  16.3417792  53.2118464
  22.4110484  22.1476173  47.8988981  22.4864531  21.8754911  48.8134956
  22.0898008  23.0482364  47.9426813   1.2725018  45.8343697  54.5105791
   2.0588921  46.0550833  54.0114689   1.1808953  46.5484667  55.1413727
  21.1682463   8.5136908  34.1335964  20.5225325   7.8203952  33.9971185
  20.6568265   9.3227476  34.1231608  90.8787823 109.5235062  43.2107830
  91.5654850 109.3876648  43.8636398  90.4079247 108.6906338  43.1815958
 104.5891094  36.7018867  64.2885971 105.3579140  36.2625909  63.9250326
 104.1340351  37.0586538  63.5258007  82.8553391  28.0632186  70.0708008
  82.4359703  27.2632289  69.7539711  82.3942661  28.2694936  70.8838749
  13.8312435  45.2194691  46.2216139  13.7229478  44.5766926  46.9225693
  14.2570889  44.7339439  45.5151081   5.7520056  19.2254496  14.0101802
   5.5257934  18.2996345  13.9211476   5.6801128  19.5760238  13.1223965
  13.8213921  27.8134584  28.1624651  14.6179426  27.4469137  28.5463715
  13.1339180  27.1897840  28.3962274 105.0329494  25.4611182  64.0878534
 104.5129108  25.7762337  64.8271084 105.9391022  25.6405020  64.3387175
  94.8742771 109.1063118  68.6100578  94.2191505 109.0319443  69.3039703
  95.2932072 109.9527454  68.7658882 112.9399395  33.8127232  53.7615728
 112.7911377  34.6727705  53.3686256 113.7175465  33.9300275  54.3072891
 115.6029701   7.4813741  42.8625679 116.1401844   7.0059156  43.4962654
 116.0576248   8.3148438  42.7407026 113.8816643  25.3199339  59.7369003
 113.2661819  26.0280657  59.9265575 114.4390869  25.2726436  60.5136061
  23.8066292   6.4602154  56.6923904  24.3056631   6.0883766  55.9651136
  24.2078710   6.0835040  57.4755430  10.3185940  12.4250364  45.4224730
  10.2342784  13.2512379  45.8984089  11.0255635  12.5804842  44.7961664
  15.5733800  23.2987475  40.9157038  15.1571941  23.4846258  41.7574120
  14.9341321  22.7635431  40.4454422 108.5158539  32.6483989  67.3996115
 108.6361790  33.4907818  67.8379583 108.4420490  32.0152164  68.1136560
  14.8911047  49.4692898  49.1448927  15.2622926  50.3426075  49.0193224
  14.1148233  49.6144867  49.6857595 115.8893204   9.8390025  63.0684328
 115.1715279   9.6947783  63.6850405 115.8836651   9.0627068  62.5084639
  18.3412468  31.8150210  42.1016026  17.7346432  31.0991216  41.9125175
  19.2021263  31.3976812  42.1323824  27.6985002  74.1189909  29.1200447
  27.8296804  74.2246628  28.1777835  28.5282230  74.3944979  29.5097661
 111.4240170  28.0868125  58.1639290 111.7846394  28.0874920  57.2772598
 110.7536221  28.7699032  58.1503582   3.9900371  34.3244433  55.3181458
   3.6900711  34.5303679  54.4327927   4.5648319  35.0532889  55.5518675
  90.5956841  41.9035435  43.0346870  89.9230766  42.2630310  42.4562407
  90.1479435  41.7731380  43.8706017  91.7497546   0.0238871  69.9297333
  91.9634492  -0.6603360  69.2953730  91.5959508   0.8044219  69.3974447
  38.2779813 108.6922836  49.2006063  38.9451432 108.0865383  49.5234108
  38.7755942 109.4153214  48.8187265  21.0323930  18.7793016  35.3180170
  20.5204439  19.5818508  35.4182839  20.8647108  18.4990859  34.4182444
  17.3482156  29.3949866  72.8046799  17.8111637  28.6879730  73.2541704
  17.2367656  30.0711489  73.4729719  15.8975708  36.4747620  24.9979663
  16.7704988  36.7627382  25.2649832  15.4159212  37.2864485  24.8385644
   2.1485686  27.3294473  22.4959564   2.6521769  27.6867580  21.7645621
   1.7096661  28.0892706  22.8784037  22.6692891  26.0945487  52.4168921
  23.3707857  25.8496785  53.0203581  21.9733548  25.4601693  52.5885582
 117.6984310   6.7464298  36.5011215 117.7491474   7.6566976  36.7927909
 117.0620632   6.3412482  37.0902753  10.2451730  58.0026913  44.1069460
   9.8626757  57.9192972  43.2334614  11.1259437  58.3435869  43.9511776
  11.1810720  49.2116022  72.4619341  10.7941127  50.0749445  72.3165607
  10.4356039  48.6111927  72.4575806  14.8671019  29.6653938  69.6122456
  14.3755615  29.5882964  70.4299736  15.0033867  28.7614083  69.3285751
  92.9279327 111.5608311  60.5876780  93.6285019 111.8489075  61.1728764
  92.7921772 112.2998238  59.9946451  14.6423018  25.4603028  50.0819969
  14.4579816  26.3202357  49.7041464  15.4624367  25.5798960  50.5608559
  30.5301714  30.9610415  40.7782555  31.1648393  30.8505416  41.4862251
  30.9557772  31.5619278  40.1666737  91.7089462  26.9767666  27.6319480
  91.0150528  26.3673949  27.8837585  91.8180561  26.8398786  26.6908908
  14.6188653  16.6008949  38.0807018  15.3287733  17.2412229  38.0333352
  15.0262892  15.8186793  38.4526896  25.9385467  17.1185291  75.3711605
  26.8911958  17.1434224  75.4609823  25.7533193  17.6890337  74.6252060
 113.4725189  42.5565290  55.9791756 112.7499008  42.3142481  56.5582848
 113.2082081  43.3970451  55.6051350  11.1072278  59.6521425  48.5061312
  10.8621407  60.4829836  48.0988550  11.3617682  59.0918875  47.7729464
  29.7766471  10.6044388  47.0444775  29.1150022  11.2225783  47.3548985
  29.3668079   9.7451097  47.1435595 116.4932537  16.0483217  51.3392782
 115.6164360  15.9215224  51.7016888 116.6845989  16.9734633  51.4933205
   3.2712618  30.0153661  55.8601379   3.7364921  29.4310308  56.4587545
   3.0064052  29.4519711  55.1330423  24.4574952  24.4513273  45.6148195
  23.8833570  25.1224446  45.2457714  24.3915224  23.7173557  45.0039482
   9.8279035  17.4898744  42.3069715  10.3039503  17.1118522  41.5675735
   9.2494398  18.1418300  41.9112873  20.5523014  17.0797753  64.7751570
  21.1297441  16.9055033  65.5184078  20.7128096  17.9979253  64.5572805
 113.1515121  10.4675555  58.8640165 112.6268673  10.1951098  59.6168470
 112.5614548  11.0156095  58.3466148 119.1405919  33.9869547  47.6687908
 118.4088142  33.4099817  47.8874969 119.9107448  33.5412288  48.0215263
   6.7741752   1.8123353  37.1241570   6.7435670   2.0373842  36.1942911
   5.8608633   1.6528261  37.3621678   5.8212364  32.1717095  23.2410216
   6.2373537  32.5219417  24.0286875   4.9091327  32.0303917  23.4946537
 109.2419052   9.2102450  70.3502989 109.4304466   8.3216041  70.6519604
 109.3345165   9.7535527  71.1329031 111.4913845  17.3047066  37.4615502
 112.1518040  17.5395393  38.1134248 111.7353821  17.8046060  36.6825771
 109.4315243  41.7112446  34.3601727 110.1633167  41.9875574  34.9118614
 108.6525440  41.8996811  34.8835254 109.1766262  32.8217316  25.8348608
 109.1034222  33.4686494  25.1331687 110.0736046  32.9164362  26.1553240
  14.5081329  29.9900103  63.8464165  13.7130880  29.4734764  63.7147808
  14.1911912  30.8583546  64.0949297  23.0926061  41.6350412  62.2558165
  23.1959677  42.5333405  62.5698423  23.8819265  41.4691973  61.7403555
 116.5163803  46.5529060  42.9986906 115.7936764  47.1707773  43.1090117
 116.1124802  45.7798338  42.6044083   0.7418308  23.1845379  38.6563563
   1.0247733  23.8405657  38.0193281  -0.0675841  22.8283930  38.2899690
   1.8395716  38.3079076  61.5237713   1.9333693  38.7724638  60.6921387
   1.8466330  37.3815656  61.2827826  24.2855453  33.1848097  57.8005791
  25.2166367  33.0066800  57.9331303  24.0684080  33.8344240  58.4692240
   5.3261328  43.6649466  46.8934250   4.7929814  43.8435125  46.1187696
   6.1187953  43.2535076  46.5489960 114.0298271  27.2384977  45.5307627
 114.0745354  28.1882453  45.6412745 114.9417496  26.9660473  45.4287672
  21.8729091  21.5172315  37.8912854  21.2342739  21.8812680  38.5043550
  21.5591836  20.6297612  37.7174950 117.9334736  43.2766438  46.5869331
 117.6769257  43.5964203  47.4518919 118.8820839  43.1627989  46.6453266
   2.6605150  20.8523941  44.8465729   3.2372773  21.5728140  44.5924664
   3.0315676  20.5262947  45.6664610   9.1189826  43.4573078  28.4858012
   8.9403439  43.3839655  29.4233179   8.4328145  44.0374565  28.1558990
 110.4937458  50.5554056  33.2152963 109.7564125  50.7326794  33.7993693
 110.5421352  51.3262606  32.6499033 116.1510277  49.5733309  35.0708723
 116.5692234  49.0371990  35.7445931 116.8637943  50.0970173  34.7048831
  94.8378563  50.0307178  27.8688240  93.8807201  50.0371790  27.8598070
  95.0754929  49.1937685  27.4697351  22.1601629  54.0501738  60.3098345
  22.6474452  54.0717030  61.1334372  21.5949345  53.2814407  60.3859854
  32.1605539  44.6203613  29.4243288  32.9475093  45.0652361  29.1096544
  32.0976973  43.8333797  28.8830876 113.6348629  29.2695928  48.2524157
 112.8390503  28.9696431  47.8131533 113.3635998  30.0530624  48.7307787
   1.2652636  17.1491075  41.5020990   2.1716988  17.0504069  41.2107849
   1.2785295  16.8814898  42.4210310   0.1295832  40.2292490  46.2426853
   0.9223441  39.7916007  45.9324884   0.4412344  40.8524561  46.8989801
  17.0039117  50.4706430  51.0244894  16.4377165  49.7483730  50.7524967
  16.7784822  50.6189251  51.9428730  15.8956087  36.2856412  37.0054483
  15.2807260  36.7723370  36.4565611  16.7334867  36.3575363  36.5482569
  20.2205467  42.7215433  16.8764818  19.5804226  42.2720337  16.3247454
  20.9877515  42.8290796  16.3142860  24.5827675  33.8430119  43.1486559
  24.3841887  34.7744226  43.2449484  24.7256064  33.7243986  42.2096348
  23.5465240  46.6117096  57.8978539  23.9771032  46.4427710  58.7358856
  24.2253113  47.0151997  57.3568630  27.2275257  31.3396764  41.8019962
  27.9435778  30.7732034  41.5145731  26.4391303  30.8116078  41.6762781
  16.1481488  36.2363434  44.6132374  15.5733585  36.8401718  44.1428757
  17.0319772  36.4932752  44.3504381  13.7094641  40.1438522  60.7007313
  12.8942943  40.1245308  60.1993752  13.4365702  40.3549719  61.5935850
 104.3018723  50.3094387  46.0833025 103.8055992  49.8677397  45.3942108
 104.4852161  49.6225548  46.7242479  12.3409498  27.8622103  55.1785231
  13.1142092  28.0073071  55.7237291  12.2136378  26.9135976  55.1910400
  11.5894628  40.0847721  56.5782881  11.8728554  40.9177732  56.2014294
  10.9685397  39.7323513  55.9407282 111.4362717  39.0246701  52.2043514
 111.1921024  39.0114999  53.1297922 112.3256207  39.3785501  52.1963072
  16.5680611  27.2619772  34.3113494  17.2216702  26.9262004  34.9247670
  16.2392628  28.0601764  34.7248721  25.0807977  39.6153784  17.9054332
  25.1046062  39.2037010  18.7692523  24.1501284  39.6570563  17.6855445
  19.5420623  46.1292553  72.8575277  20.3624320  45.6612587  72.7019548
  19.0916741  46.1103296  72.0131159  26.7215109  34.0461540  24.9053073
  27.6523209  33.8490391  25.0100470  26.6903067  34.6821141  24.1905951
  23.4889531  57.6847124  75.6043339  23.0758381  58.5019255  75.8831453
  23.8071609  57.8667021  74.7201109 115.7859993  49.2551470  54.1195011
 115.8172131  48.3041477  54.0153074 115.7383347  49.5926523  53.2250500
  25.1780415  27.7032995  26.6795969  24.2520213  27.4701166  26.6136789
  25.6410670  26.9531250  26.3066626   5.4832876  22.5865912  32.0922852
   6.1901522  22.7832747  31.4775586   4.7223359  22.4185419  31.5364599
  24.5663381  31.5911841  45.0467014  24.7229648  32.0515418  44.2222166
  25.1936650  31.9759583  45.6587839 115.0587177  51.3225842  13.7560749
 115.6288910  51.7270517  14.4099462 115.6006622  50.6448126  13.3521402
 115.4186821  25.6736493  57.5166321 115.2450180  26.5200233  57.1046591
 114.8435497  25.6571174  58.2816029 112.8849602   7.0123816  10.3659117
 112.6996613   7.7773637   9.8212147 113.2553196   7.3752987  11.1704969
  26.6688824  57.1049309  48.7918186  27.0874286  57.1739912  47.9337502
  25.9338975  57.7166939  48.7497330  22.4560666  43.5698271  42.3881531
  21.9638896  44.2745543  41.9670153  21.7848969  42.9672909  42.7086449
  15.9185410  38.1708670  57.5544071  15.5230284  39.0381670  57.6415348
  16.5671277  38.2722855  56.8577862   9.2699480  42.5653028  41.5566587
   9.4936681  42.7219248  40.6392431   9.5645541  43.3534861  42.0129585
  93.5968399  18.6698329  50.1744747  93.7252712  19.1646051  50.9837580
  94.2853165  18.0049777  50.1883984  27.3962569  11.0386801  32.9369044
  28.1039786  10.5257416  33.3271027  27.8373241  11.7837918  32.5288606
 104.6264172  45.0973368  57.5920296 105.0188351  44.8835564  56.7455387
 104.1442108  45.9090281  57.4343300   2.1088542  33.9687634  63.5552549
   2.2202122  33.6367083  62.6644325   1.1621585  33.9626670  63.6965466
  94.1450596 110.8101654  53.5238647  93.7732410 110.0141525  53.9038038
  93.3846474 111.3199425  53.2443428 115.2760506  25.6382298  53.1901217
 115.7913780  25.1145911  53.8036919 115.0100994  25.0184369  52.5108910
  15.8921754  27.4795485  64.2675638  15.3084314  26.7670059  64.0072680
  15.3571165  28.2691240  64.1868544 114.2428112  27.5460291  37.5033760
 113.5471535  27.2691751  38.0997324 114.2865753  28.4961438  37.6110768
   6.6324514  22.7847552  46.0929585   5.7164019  23.0194187  45.9445715
   6.7624545  22.9097080  47.0330238   9.3011379  21.5969777  45.4184103
   9.8656315  21.9452500  46.1085463   8.4117830  21.7312241  45.7459116
  22.6416183  18.9948845  43.6295366  22.7773094  19.7704351  43.0851650
  22.4774766  19.3431282  44.5059013  19.0997016  22.8576493  29.3633294
  18.2531059  22.4471545  29.1872644  19.0424263  23.7150955  28.9417386
  21.4724112  49.9553347  27.8818226  20.6129313  49.8893261  27.4656844
  22.0628643  49.4936419  27.2864771  18.6472595  36.5637159  36.4521074
  19.2321038  37.1301937  36.9553900  19.0730989  36.4770818  35.5992365
  10.1151872  44.0890026  39.3630743   9.7470510  44.9718714  39.3276405
  10.7760870  44.0771198  38.6707592 118.6279392  10.4727316  62.6033926
 117.6821327  10.3451085  62.5299406 118.9234638  10.5980194  61.7016172
  14.6287870  40.6466389  57.4199533  14.9382281  41.4761543  57.0561075
  13.6764920  40.6869078  57.3319578  16.0239196  53.3151197  20.0065780
  15.1732969  53.1808329  20.4244804  16.6122842  53.5392094  20.7275820
  12.2233307  43.9718771  24.5140481  12.6133180  44.8363972  24.3846345
  12.1449220  43.8842630  25.4640007  21.6916490  59.7063065  32.8692579
  22.0304799  60.5949640  32.9775095  21.6756511  59.5698166  31.9219732
   3.5866845  14.7761238   8.8465708   3.3914062  14.9077630   9.7743475
   3.8095075  15.6488132   8.5225403  20.8484983  41.7512608  36.5722775
  20.6519318  42.5493622  36.0817337  21.7413974  41.5242910  36.3125706
   8.3904123  55.5842447  15.7822406   8.6053336  54.7811890  15.3077507
   8.9036494  56.2645960  15.3464186 112.5616169  63.5742855  38.0201960
 113.0521584  63.5073137  38.8394141 112.5651550  62.6852179  37.6655436
  17.1441972  41.9806004  39.5952201  17.9827070  42.4420500  39.5811844
  17.3642898  41.0769510  39.3689084 107.7792740  34.5844150  30.2822542
 107.4377251  35.0500846  29.5188880 107.4318600  33.6966228  30.1964498
  31.8553829  21.6287851  36.0811353  32.3613620  21.7841148  36.8786860
  31.0584593  22.1458507  36.1985564  29.3109798  37.5305581  46.8231297
  29.0072799  37.8821421  45.9862375  28.6410809  36.8940449  47.0727682
  93.4861374  27.0414138  30.1351309  93.4772110  26.1055708  30.3360081
  93.1193924  27.1005344  29.2529559  14.7838628  41.7001438  65.0698709
  13.9896512  41.4017296  64.6266937  15.3687334  40.9426975  65.0490713
  23.9986706  25.6919312  61.1040449  23.6583042  26.4513397  61.5769958
  23.6183619  25.7647586  60.2286625  18.2483578  26.9224286  36.6455936
  18.2940984  27.6596212  37.2544360  18.7075925  26.2124395  37.0942020
  14.3657267  42.4836302  33.1472993  13.9963162  41.6021061  33.1991243
  13.7964308  43.0149937  33.7038851  11.3090575  37.1986747  32.4626517
  11.5634537  36.3173866  32.1890759  11.7649662  37.7795053  31.8535423
 106.8580914  10.3131378  22.9576802 106.6842747  11.1961126  22.6315308
 107.7720737  10.1479197  22.7262282  17.0159018  40.4772091  25.9950519
  17.0608830  39.6753359  25.4742742  16.2605774  40.9488058  25.6438947
   8.3745003  63.7443161  47.5827265   7.7675050  63.4776640  48.2731533
   7.8099257  64.0389204  46.8681002 118.2173538  33.8829231  39.2897844
 117.7420044  34.5624447  38.8117433 118.7413311  33.4417248  38.6211872
  11.1510670  57.3721838  46.7702961  10.8082318  57.3579693  45.8767128
  10.3778279  57.2698545  47.3251486   9.2710930  38.5588026  44.9665689
   8.4289050  38.1994963  45.2455854   9.1126257  39.4985056  44.8766899
   6.6187739  41.6569805  54.7041178   5.6699681  41.5409851  54.6536779
   6.8080616  41.6772223  55.6421947   1.0622736  51.6825962  24.3467140
   0.1319843  51.5071440  24.2052579   1.1372827  52.6353073  24.2924547
  13.0024827  20.8599496  50.1889277  13.9262807  20.9274840  50.4303169
  12.7510273  19.9738574  50.4493952   2.5153711   8.0615968  15.4271603
   2.6670212   8.6131048  16.1946714   2.9071552   8.5478050  14.7016680
   7.0972544  29.3696856  49.8195982   6.2172520  29.0136075  49.9422216
   7.3299825  29.7326708  50.6741810 117.7783680  36.4736152  64.0223932
 117.9786587  37.4073172  64.0880871 117.0052910  36.3550806  64.5742369
 107.9029942  27.6101971  49.9206638 108.6059666  27.0595527  50.2654171
 108.1459618  27.7652383  49.0078831  13.1675220  45.8676910  33.4641504
  12.4244177  46.3820028  33.1486964  13.8081646  45.9121990  32.7543426
   4.7847068  31.2868166  39.4198728   5.0105238  32.1323013  39.8076749
   3.8316283  31.3095498  39.3341041  17.5209010  23.6537051  45.4313183
  17.3760045  22.7155352  45.5541039  18.1914139  23.8789225  46.0762405
   5.7449216  15.3171515  56.8636894   6.2169540  15.1170874  56.0553598
   4.8267511  15.3693271  56.5982199  10.9940875  21.8754768  56.3264799
  11.0330915  21.2835073  57.0776653  11.5385938  21.4544964  55.6612587
   7.9243714  60.7841015  42.0311117   7.0145160  60.5380392  42.1979856
   7.9318881  61.0681248  41.1170530   2.7924782  46.4937449  58.9023829
   3.1673613  46.1095333  58.1098747   3.1749859  47.3700237  58.9477825
  21.0573101  45.6841516  37.7732253  21.5736175  45.7469749  38.5767865
  20.2650189  46.1886597  37.9575419  29.0005398  17.1959114  24.2821741
  29.5225382  17.8834498  24.6957445  28.8590026  17.5076139  23.3882833
  12.3871839  43.5976791  34.6406078  12.6229680  44.4931793  34.3982911
  11.7423713  43.3338308  33.9842296  27.1583080  36.5867925  53.4703207
  26.6835523  36.3233113  54.2586231  26.9697094  37.5206828  53.3780527
  91.2846756  19.0132749  46.4854383  91.1569977  19.1266799  47.4272823
  91.4307880  19.8997045  46.1550951  13.5254014  56.2167549  52.1887541
  13.5372484  57.1524477  51.9873285  13.6212230  55.7875109  51.3385773
  20.3352952  30.7501554  20.4592228  20.0723028  29.8299456  20.4759836
  20.9894824  30.7996345  19.7622120  23.5180354  53.4073782  62.6128387
  24.3727183  53.5909081  62.2228813  23.6919403  53.3437490  63.5519552
 118.2900143  37.4127221  38.5525942 117.6778030  36.7250252  38.8143229
 119.1555786  37.0272493  38.6884308  13.3381116  33.0072999  54.9036837
  13.8976991  33.5218358  54.3220091  12.4537075  33.1361151  54.5609474
   1.6599636  33.4399390  36.3222814   1.3033126  34.1033173  35.7315516
   2.6044339  33.4654427  36.1687970  19.1855979  55.4062986  38.1134582
  18.6040783  55.1060438  38.8119674  19.5437431  54.6020746  37.7377081
  38.0349517  11.7961371  36.5555716  38.4598804  12.3640084  37.1983719
  37.9891992  12.3268652  35.7602954  19.1126025  28.6838341  55.6495094
  18.6376095  29.4250679  56.0252571  18.6490500  28.4905553  54.8346519
  26.3377976  54.1285086  45.6667948  26.1572218  55.0334883  45.4125595
  25.7319856  53.9568281  46.3877296   4.7659031   3.5084113  53.7536478
   5.1956218   2.7500749  54.1492510   4.3544003   3.1640446  52.9609919
  19.9043763  24.8895955  37.7398539  19.8911810  24.0210152  38.1418800
  20.4820323  25.4052329  38.3025837 105.0308514  41.5680265  40.0300646
 105.6826115  41.1769819  40.6119013 104.6309185  42.2638559  40.5516958
  15.0024533  42.1218967  37.8368020  15.7095134  41.8585110  38.4258056
  15.4499292  42.4928236  37.0762706  14.5312405  35.9013534  41.3517475
  14.4697630  36.8561840  41.3791561  13.7615204  35.5978727  41.8330622
  23.6322331  13.9822102  54.4501305  24.2709589  14.6837544  54.3232632
  22.7825356  14.4094777  54.3420124  30.9275031  51.4646435  20.5324125
  30.1210165  51.2173557  20.0800180  30.7737207  52.3640251  20.8217120
  19.7430897  50.2760315  50.5936432  20.0806022  51.0562849  50.1537275
  18.7982213  50.4201460  50.6454706  26.1840367  41.9175434  87.7832413
  26.4067841  41.8491602  88.7116432  27.0010567  42.1807718  87.3596573
 104.1683960  46.7251348  28.9913487 104.3049240  46.0380459  29.6436501
 105.0368500  46.8777704  28.6188936  20.5091953  50.4079485  44.7563219
  19.8838818  50.9017563  45.2867651  20.5929852  49.5669937  45.2057743
  10.6812155  64.8739958  41.2282228   9.8115957  64.4843483  41.1378479
  10.5370939  65.8123636  41.1060333  71.6654921 111.6072941  63.3052778
  71.5794325 112.5524044  63.1803560  72.3222685 111.5157604  63.9955664
   6.9463015  35.2722216  47.3442030   7.0713848  34.9650812  46.4462900
   7.7891934  35.6562829  47.5855732  22.7447057  42.0939541  15.3808045
  23.0704737  42.0612192  14.4813406  23.3390379  42.6956892  15.8290458
   1.0910865  20.5918074  34.2372894   0.3551252  21.1310530  34.5267844
   0.7242325  20.0343847  33.5510468   8.4829205  41.3615084  47.0676231
   8.6160994  41.8218803  46.2390375   7.6000571  40.9978342  47.0003462
  27.1162152  52.9189396  43.4137201  26.8324256  52.7804184  44.3173313
  26.9138336  53.8377094  43.2372856  25.9331942  40.1724339  43.7123394
  25.5867743  39.7547197  42.9238367  25.5526924  41.0507250  43.7049866
  22.5294399  32.8090310  64.7268248  21.6569901  32.4861526  64.9522400
  22.4374652  33.1452179  63.8353348   0.4323947  29.6198750  65.5380106
   1.3071734  29.2427540  65.4443407   0.2368729  29.9882627  64.6764469
  25.1750851  59.1434765  26.3842487  25.7140636  59.2235994  25.5972838
  24.3919635  58.6772156  26.0917544 118.6691095  30.3572440  13.9640033
 118.8834171  29.4424510  13.7810910 119.3712193  30.8558965  13.5461271
  18.2739902  43.5179853  28.5450435  18.7442994  43.1571722  27.7934766
  17.7255762  42.7965450  28.8532591   3.7523207  38.9343071  36.8219256
   2.9314438  38.8528371  36.3363791   3.4884632  39.2447281  37.6880956
  20.9782290  39.8958683  53.7297106  20.1249838  40.0671053  53.3311129
  21.3930464  40.7566309  53.7866974  19.5204461  32.5772452  64.6539783
  19.2666721  33.0371976  63.8538074  19.1176522  31.7128563  64.5713758
   1.6836432  31.4517927  38.4431124   1.5187867  30.6863427  37.8925300
   1.8044235  32.1711326  37.8232789  95.8739948  48.0111933  58.8470554
  95.8292103  48.0754519  57.8930616  94.9976444  48.2550955  59.1449451
 104.5453930  30.4736900  52.5839615 104.1020775  29.7088957  52.9511023
 104.9514580  30.1517391  51.7791653  23.2600117  21.6028285  42.2659588
  23.7583447  21.7549133  41.4629889  22.4821901  22.1528935  42.1729374
   8.9055979  58.3186340  41.7257023   8.4864360  57.9305744  40.9576225
   8.5153967  59.1897774  41.7969990 117.5847530  22.2001576  51.2154675
 117.5508976  21.2842035  50.9395790 117.7178955  22.6899719  50.4039335
  28.2253695  29.5011044  40.0227451  28.7325478  28.7426066  39.7334552
  28.8833928  30.1660538  40.2254248  23.0070138  19.2109215  61.3106871
  23.0842161  19.5078325  60.4039812  23.1128025  18.2608604  61.2614346
  15.0735855  32.1228147  43.7531519  15.4804015  32.5970006  43.0279779
  15.0185025  31.2177181  43.4465599  12.1353173  50.4065132  13.8882780
  11.5509355  50.2867413  14.6368659  12.9778278  50.0621510  14.1846228
 105.7025433  39.9639654  44.4244432 106.3889790  39.4553423  44.8561239
 104.9116802  39.7764778  44.9300289  15.6715357  19.2265487  51.4340401
  16.0871112  18.5920274  50.8501625  15.9694231  20.0778842  51.1135340
  78.7398720 106.5230942  37.8391409  78.6749983 105.7077980  38.3364439
  77.9247284 106.5641212  37.3390555   3.9829499  55.3831720  48.4229708
   4.9054277  55.2191114  48.6188030   3.6771277  55.9272575  49.1486979
 114.5804024   2.7301034  27.8540325 114.3174744   2.0448372  27.2396135
 114.3604374   2.3763548  28.7158370  21.4290094  45.5880356  27.2497296
  20.6679869  46.1618853  27.3378897  22.1117949  46.0144472  27.7676153
 106.5253639  24.7062755  54.7962284 105.5970478  24.8283482  54.9951363
 106.6346169  23.7572432  54.7359371   8.1001848  30.4091406  73.7913561
   8.1059742  29.4578767  73.6850643   8.7459797  30.7247114  73.1592226
  24.7830296  36.5698791  69.4831991  24.5492220  37.4974561  69.4490147
  25.2302361  36.4048529  68.6531353  16.2333798  65.3504324  38.3361459
  15.8563697  65.8877468  39.0328431  15.6067348  65.4181433  37.6157546
  18.4041023  43.6571550  25.4336238  17.6190042  43.6700821  24.8861909
  18.8201475  42.8180742  25.2359295  18.7018323  51.4967012  46.5200043
  17.8786206  51.0085630  46.5366077  18.5748100  52.2021484  47.1543884
 113.0313301  32.4416590  68.3287239 112.7757835  33.0639815  69.0096378
 112.2858238  31.8455863  68.2570171  16.1844099  40.8956289  71.7679214
  16.5586829  40.0151968  71.7994356  16.6002047  41.3588095  72.4951124
  16.2373614  34.3784237  56.7306376  16.0139656  33.4576035  56.8663406
  16.0691082  34.7929263  57.5768709  18.0466819  42.6141214  46.5797949
  17.1608257  42.5565004  46.9378042  18.3294570  43.5058212  46.7826414
 108.1911278  59.3259144  49.5681190 107.3754692  59.6784878  49.9239731
 108.1431675  59.5112896  48.6302662  10.5755448   2.5120744  52.5650501
  10.1286125   2.9823545  51.8612623  11.4420128   2.9162845  52.6106596
   1.8204010  30.3845525  46.0875797   1.1504543  30.1679182  45.4391384
   2.1734688  29.5373821  46.3593864 118.7642956  39.6068311  28.4898472
 118.3485031  39.0072870  27.8702497 118.1126213  39.7273970  29.1805100
  28.1866646  42.6513386  43.6496878  27.6448321  41.8624496  43.6670446
  29.0858197  42.3238802  43.6268234  13.8138103  35.8050919  47.5040388
  13.7458456  36.2485099  48.3496094  14.7052062  35.9893727  47.2079182
  25.3838754  68.5910797  37.7331495  24.7789574  68.6584568  36.9943929
  24.8307872  68.3421659  38.4736681  17.5084424  57.9058886  33.2201982
  18.3322477  57.4393559  33.3613420  17.3084319  58.3008766  34.0688515
  29.2978835  35.5172205  73.9582682  29.6440029  36.3658285  73.6820459
  28.8281989  35.1890469  73.1914997  -0.0336866  40.5082989  14.7887671
  -0.1651465  41.0086918  15.5940974   0.9167773  40.4734325  14.6809042
   4.1001379  34.7710395  28.9324665   3.1513363  34.7539449  29.0578222
   4.3751666  33.8633204  29.0614486 117.5369930  42.9207611  41.6720772
 117.0168209  42.9872179  42.4728489 117.0732403  42.2757816  41.1380625
  13.7528777  39.7976851  38.7678909  12.8229117  39.9592829  38.6088896
  14.1790414  40.6299543  38.5630798   6.6731250  44.5622635  80.8498096
   7.4806970  44.2531395  81.2602997   6.6726685  45.5070210  81.0036659
  15.3756189  48.5900307  30.7202411  14.8279929  48.4556437  29.9467564
  15.2125823  49.4983959  30.9742498  13.8091481  29.0960169  42.1201372
  13.9570463  29.2694187  41.1904669  12.8976750  29.3477678  42.2686958
  17.7996349  47.7396679  46.7401266  18.7566864  47.7230787  46.7430925
  17.5741124  48.4392309  46.1269522  25.2175355   0.9277984  55.1344442
  25.8864141   1.3623962  55.6635523  25.6948829   0.5860229  54.3784285
  11.7737985  41.2345791  66.0161638  12.2627294  41.0597420  66.8202829
  11.0558677  40.6016397  66.0299587  21.7036724  37.2460461  66.0717106
  21.4148927  36.6940022  66.7984009  22.3227763  37.8591466  66.4680004
   9.4423455  13.6701787  52.3721504  10.3767049  13.8777220  52.3836088
   9.3225694  13.1485868  51.5785313 117.1670818  41.7108297  49.9181271
 116.4343071  41.7703533  50.5311012 117.0191956  42.4248219  49.2979860
  41.7382097  48.8782310  24.8537040  41.4531517  49.7682238  25.0607872
  42.6911640  48.9409113  24.7889996   7.3703009  44.5029497  32.7729535
   6.6181284  45.0129843  33.0735087   7.9705960  45.1534367  32.4086094
   7.0520246  31.2754798  63.9707613   7.3527551  31.9592524  63.3722210
   6.1183739  31.4520144  64.0863609  10.5855024  44.3220234  43.1542921
   9.7988927  44.7756958  43.4570408  11.2994051  44.9331999  43.3360434
   1.3655573  36.8432212  36.2327075   0.6377617  37.4649143  36.2261868
   1.4769679  36.6145563  37.1554923  28.4047985  21.7208409  61.6028786
  28.6528993  20.9586167  61.0797215  28.1736302  21.3591576  62.4584341
  18.2840538  12.8449631  30.8082557  17.9693866  12.8085804  31.7115235
  18.2020044  13.7665582  30.5629802  32.3028207  47.5379753  46.8452883
  31.7256927  46.7911816  46.6857624  32.4244022  47.9352236  45.9829378
  14.8880494  47.1680593  19.7560680  14.5784867  47.5605679  20.5723643
  14.9435771  47.9015446  19.1435778 117.9563999  41.1023951  57.6254559
 118.2025337  41.7390156  58.2965422 117.2586441  41.5328503  57.1314001
  25.8077097  23.6403584  48.0392504  25.3788233  23.4179902  48.8655949
  25.1047277  23.9881539  47.4905396   2.1492802  55.2155685  51.4176512
   2.4907035  54.7774696  50.6380749   1.6435267  54.5402479  51.8697453
  16.4009094  29.6957397  42.2936726  15.5125523  29.4103289  42.0801449
  16.8260396  28.9132190  42.6446104  24.0774417  63.6192322  45.4226542
  24.3364358  64.1513062  46.1750174  23.1848979  63.3380699  45.6240225
  18.7529790  37.2177863  43.3076096  19.2489290  36.9176483  44.0693045
  18.6600089  36.4382386  42.7599812  12.1079290  36.7726517  23.0649352
  11.2361133  36.3801527  23.1109190  11.9551671  37.7100372  23.1841183
  29.3554974  50.7530594  39.3670964  28.4335279  50.4972839  39.3950844
  29.6071911  50.8427191  40.2862501   4.4652182   4.3140572  43.8852739
   4.0685859   5.1831812  43.8257933   4.9142221   4.1978747  43.0479431
 112.0819950  51.3632298  58.9477968 112.5340462  50.6450510  59.3906307
 112.1198177  52.0898008  59.5698071  97.0437908 111.8065262  43.0598164
  96.2455273 111.6186905  43.5535049  97.2082043 111.0084057  42.5576210
  12.8785193  35.2100873  37.3635054  13.1070089  34.8782229  36.4952374
  13.7195671  35.3181767  37.8075624  13.5523701  18.0349123  41.6111374
  13.2393885  18.0766416  42.5147629  14.4435596  17.6928496  41.6818953
 118.8440926  16.9133234  55.8195925 118.0399966  16.4931834  55.5143976
 119.3384984  17.0935822  55.0200272 106.5707016  48.3217335  71.1292124
 106.1913490  49.1120768  70.7449245 105.9963703  48.1144094  71.8663645
  31.8738198  49.1537809  63.0082798  32.1201921  49.4141388  62.1207285
  31.1693501  48.5176849  62.8844404  12.0227742  63.1108332  39.3564773
  11.9232368  63.6522055  38.5733795  11.6151941  63.6228466  40.0550127
  10.9623849  62.9344225  31.7607999  11.0479045  62.3199606  31.0318565
  10.0249243  63.1222010  31.8070412  25.1696634  47.5051975  42.6232672
  25.7941389  46.8335199  42.8973341  25.5248547  47.8409386  41.8002558
   9.5935082  59.1218710  31.4620876  10.0081575  58.8977051  30.6289935
   8.7609470  59.5241737  31.2146449  37.8346825  76.4393997  40.4163074
  37.5741744  76.0502720  39.5814753  38.0877304  77.3354530  40.1943016
 113.0825520  70.7700920  52.2866440 112.2708416  71.0420513  51.8583965
 113.7570190  71.3262749  51.8967962   4.2500412  56.7537069  56.1548138
   3.6713129  56.0049820  56.2987518   4.0449759  57.0477962  55.2672958
  22.1314883  37.0045567  57.9366016  21.1776352  36.9463968  57.9915094
  22.3062253  37.2146583  57.0192385  31.2351966  37.6965976  42.4694204
  30.9549809  38.4771657  42.9473591  31.8460131  38.0258679  41.8100929
  30.4857850  65.4100990  63.2273817  29.7036242  64.8595428  63.2640696
  30.7043600  65.5770874  64.1442108  33.0729914  26.4894342  46.9246435
  33.7871432  25.8866644  46.7175531  33.1280518  26.6092896  47.8727102
   8.5336292  49.5992279  47.5474501   8.0428004  49.7565365  48.3540344
   9.3395495  50.1043320  47.6551294  24.9493289  50.9744883  61.2310266
  24.0869474  50.5716801  61.1296511  25.3555179  50.8911514  60.3682995
  38.8523865  73.0537987  45.1810598  38.9380908  72.7644253  46.0894394
  37.9979467  73.4838676  45.1462936  26.8909287  67.5576305  53.0951405
  27.4612641  68.1889677  53.5337353  27.2672892  66.7044449  53.3111382
  23.3198738  37.9247761  34.1429853  23.7206817  37.1139574  33.8296843
  23.1281519  37.7562833  35.0655293  31.9117665  47.8654337  49.5463991
  30.9717512  48.0414581  49.5061684  32.1897984  47.8385162  48.6308622
  19.0769327  37.2409797  46.8845224  19.0735960  38.0860138  46.4349222
  19.7034621  36.7103505  46.3924646  17.3566341  43.4141541  51.6150236
  16.8140256  44.1902781  51.7544365  18.1286502  43.5602951  52.1617079
 113.6800098  37.7702785  36.2412906 114.3878651  38.3385968  36.5448952
 113.0261707  37.8083372  36.9393468  34.6526790  62.7728605  37.2515726
  34.5358133  62.6859379  38.1976271  34.3874407  61.9236326  36.8984485
  24.4020104  40.3634214  48.5315561  23.9305329  41.0534573  48.9982367
  25.1670408  40.1841831  49.0782118  33.4490728  36.5516949  27.8897929
  33.6571097  36.7845273  28.7946367  33.6097479  35.6092906  27.8419757
  10.3434527  52.1971846  59.8820877   9.8498428  51.3776875  59.9137735
  10.9383917  52.0898962  59.1399479  33.0869389  38.2002544  40.2498484
  33.0000520  38.4073377  39.3193650  33.0589366  39.0507555  40.6881380
  27.3217869  47.5604677  53.7336922  27.6572323  48.0931664  53.0126238
  26.8337774  46.8573141  53.3051538  31.0374904  51.4014864  54.2701054
  30.0831985  51.3866901  54.1970348  31.2414241  52.2891569  54.5645237
  10.5794406  51.0647106  48.6994743  10.2942526  51.0502768  49.6130896
  11.4450216  51.4725590  48.7251759  28.4053278  80.4443932  45.4897976
  28.6023974  81.3500023  45.7291317  28.9638448  80.2698994  44.7322702
  39.7541809  56.0368443  15.0819898  40.2157068  55.7288599  15.8619726
  40.2794266  56.7728329  14.7678757  20.1618409  54.0497875  56.4702606
  20.7568240  54.7793436  56.6433954  20.6630635  53.2700825  56.7091513
  26.2835264  48.1119776  77.4613333  26.7137170  48.9504337  77.2935152
  25.3541803  48.3297205  77.5330257  28.1086850  51.1348152  29.2168236
  28.6789179  50.5545425  28.7124944  28.7053132  51.7645073  29.6214843
  29.7564459  47.5359774  62.4538374  29.2728376  46.7437458  62.6877546
  29.2764711  47.8985023  61.7092323  21.0990810  57.0250225  55.1205635
  21.7970586  57.6751852  55.2002287  21.2629580  56.5996027  54.2789030
  25.5957627  62.2723150  53.3989811  25.8831167  62.3098278  54.3112564
  24.7997379  62.8034210  53.3765697  15.6805408  63.1715870  59.8256159
  14.9240041  63.2536173  60.4062700  15.5959606  62.2978258  59.4440222
 118.5570335  35.2212524  41.8888664 117.6116657  35.2792382  42.0272732
 118.6505795  35.0096440  40.9600496  23.4949756  50.5362701  37.9101777
  23.9093733  49.9409056  37.2856426  24.1599536  50.6772661  38.5840893
   1.8619592  51.6171169  45.7693624   1.3841733  51.4701891  44.9530554
   2.0693792  50.7382965  46.0869884  17.9298937  38.6081719  71.6806364
  18.3632243  38.3993626  70.8530760  18.5808146  38.4003067  72.3509502
  18.2980180  76.5501022  35.8859682  18.8491726  77.2030592  35.4545689
  18.7857091  75.7309008  35.8005452   4.2609650  45.2865648  48.8948488
   4.4829121  44.9423027  48.0297136   3.3056027  45.2410698  48.9328575
  24.0702224  39.2206597  45.9477568  23.9190650  39.9598932  46.5367508
  24.8799300  39.4424486  45.4879522 114.8744202  40.2551842  59.6893120
 114.9252319  40.8090830  60.4683161 115.5650234  40.5858183  59.1148710
  29.3908238  51.5890646  42.2771645  28.5920978  51.9977903  42.6106548
  30.0944543  51.9814110  42.7940798  17.3508954  39.6664762  45.9899139
  16.8311870  39.0772247  45.4431772  17.2028601  40.5344486  45.6144905
  30.3098416  74.0639162  68.5758591  31.1938882  73.7152481  68.4612989
  29.8920918  73.4603786  69.1902351  26.5780306  65.7154465  63.6318684
  26.5722895  64.7583914  63.6160803  26.8948746  65.9674025  62.7644825
 119.0689182  31.6567898  67.5096035 119.8251915  31.8601871  66.9592333
 118.4543133  31.2197709  66.9201040  34.4377685  59.6106720  41.9827175
  33.5414433  59.3826532  41.7360592  34.9225402  59.6033144  41.1573839
   5.5593199  12.8673899  18.9934969   5.8658522  13.6664808  18.5648668
   6.3571370  12.3682642  19.1684055  43.0973387  71.2079239  44.6415949
  42.9387808  70.6481886  43.8814688  43.9323425  70.9011078  44.9949598
  17.2933352  55.4715395  53.2384205  17.7683163  56.1939478  52.8276253
  17.9563332  54.7941542  53.3718777   4.4220477  46.2194920  42.1350145
   4.3392795  47.0034409  41.5920544   3.5209864  45.9877014  42.3599434
  14.3342865  70.1837683  58.1182957  15.2513909  69.9148989  58.0647898
  13.8706136  69.5677519  57.5510502  18.1063652  47.2282457  11.6560161
  19.0432453  47.1256733  11.8232512  17.9324698  46.6562462  10.9084797
  13.5805070  56.3373947  47.3382664  13.3470821  55.5600166  46.8308973
  12.7726924  56.8493938  47.3773050  23.8794303  42.4444962  19.7431660
  23.1403589  43.0431271  19.6352541  23.5369015  41.5908670  19.4781697
  36.1124825  27.0783424  37.4374962  36.7236328  27.0156002  38.1715202
  35.6531477  27.9062295  37.5783706  21.8422985  58.5534525  42.3495150
  22.2826099  59.3301582  42.0044231  21.4231586  58.8541412  43.1558323
  13.3023036  52.6922226  27.5576210  13.7653875  52.7774239  26.7242408
  13.0966079  53.5922241  27.8104329  16.5718734  78.6181068  36.0057473
  17.2123945  77.9071617  36.0284877  15.9150493  78.3285666  35.3725171
  38.3095980  55.0808620  56.3565445  37.9859424  54.8374462  57.2238541
  37.9973817  55.9763956  56.2270355  16.8153334  47.6315451  49.5201969
  16.1780906  48.3386421  49.4193554  16.9667625  47.3166943  48.6290359
  42.3241901  62.0863438  54.3271065  42.7918386  62.9209614  54.3579292
  43.0154276  61.4262676  54.2749453  26.5599680  39.6978664  12.0615923
  27.1527696  39.0571642  12.4544263  25.7851195  39.1905355  11.8198180
  11.5105736  39.9054027  59.1768360  11.8365061  39.0227127  59.3525028
  11.4811528  39.9642277  58.2218981   1.6680375  43.2777786  51.9207668
   1.8876746  42.3797703  51.6726208   2.3822495  43.5483170  52.4977779
  27.5479150  67.6384306  42.2282934  27.0005560  68.3815193  42.4821663
  28.4150410  67.8506279  42.5736904  15.3067422  67.0259762  43.9307594
  15.3131437  67.9185343  43.5850334  14.6747077  66.5612221  43.3823395
  10.3820848  61.9214058  47.3973799   9.5355731  62.3301888  47.5777817
  10.3577125  61.7232323  46.4612389  44.6136284  67.4429750  60.6432819
  44.9411154  67.8917265  59.8637915  45.3119898  66.8323803  60.8792782
   3.3025825  25.9328008  42.4693441   3.3746397  25.0789404  42.0427704
   3.6291793  26.5540290  41.8184662 107.7952766  58.6635780  37.7986479
 108.4642315  58.1197023  37.3828101 108.2643509  59.1364431  38.4861064
   5.6362301  39.7285604  43.2165623   5.2950615  39.0885353  43.8412285
   5.2763999  39.4550586  42.3727942  12.6408398  64.4762087  58.4168816
  11.9537127  64.7180605  59.0378475  12.1952152  63.9345264  57.7655506
  11.7152333  46.9566345  46.5534973  12.5458992  46.4926529  46.4488697
  11.0473955  46.2794304  46.4456987  11.4485991  47.7507687  32.9784369
  11.6189742  48.5796547  32.5310516  10.7579815  47.9562426  33.6085653
  19.8209047  61.4613581  46.4319086  19.2517316  61.7336226  47.1517324
  20.2302599  60.6537914  46.7425489  37.7518106  61.1706877  52.8491068
  37.0999599  60.5354261  52.5528574  37.5574446  61.2979841  53.7776804
  38.9248490  76.1391735  55.5846882  39.2479944  77.0202398  55.3961897
  39.6136832  75.5575180  55.2630997  20.1678944  36.7313123  61.7038012
  20.7947683  37.4360275  61.5405846  20.5294847  36.2578702  62.4530268
  15.2169168  45.8944082  57.1553373  15.1275432  45.4728842  56.3006115
  15.2446616  46.8308115  56.9588566  14.2277706  65.5189943  36.3509774
  14.2407262  64.5829153  36.1514330  14.7741187  65.9160614  35.6726909
  25.6798863  39.1829371  20.6297636  26.2101698  39.5993876  21.3091755
  25.3236246  38.4002519  21.0501409   6.1298716  60.4698610  62.9506922
   6.7654353  61.1398649  63.2024479   6.2018257  60.4175472  61.9976330
   1.6138031  27.3997331  38.9563155   2.3257087  27.1744514  39.5552063
   2.0437729  27.5286508  38.1108952  23.3546185  72.1272659  65.7167625
  23.1261134  71.5355825  66.4336538  23.4375238  71.5568352  64.9525881
  28.6401939  63.8385773  78.8937092  27.9944301  63.1353092  78.8256168
  29.4559550  63.4455585  78.5833788  10.5853343  47.9623079  29.4104457
  10.7578516  48.6140203  30.0899649  10.2209115  48.4659243  28.6825728
  28.8820910  79.4799852  42.3515654  27.9292798  79.5200729  42.2692537
  29.1283298  80.3355312  42.7031708  17.9277587  45.8610630  32.8983808
  18.3335400  45.0937033  32.4949765  17.0308423  45.8612919  32.5640559
  37.9172540  55.2141857  50.1737452  37.4336386  55.9595776  49.8177433
  37.5534868  55.0892258  51.0502672  29.7941065  50.2566528  47.2502804
  29.1235399  49.8343563  46.7133999  29.6869612  51.1916733  47.0756674
  25.6182790  58.0653763  35.6931114  24.8461771  57.5210667  35.8474159
  25.3377342  58.6966991  35.0305676  15.0195813  52.6932478  67.0880175
  14.6841300  53.4650707  66.6319513  15.9305000  52.9097080  67.2870255
  10.1933587  67.4788237  50.5254316  10.6372154  67.8434992  51.2910891
  10.8793116  67.0070696  50.0530434  31.0130548  52.0875788  23.8540006
  31.4203024  52.8500223  23.4428334  30.0970387  52.1279716  23.5791993
   5.4367679  49.2819023  56.0481691   6.1529857  49.6521425  56.5640974
   5.8375865  48.5581398  55.5667734  34.0663981  59.3569708  54.1839647
  34.2024779  59.9132109  54.9509811  33.2726359  59.7023344  53.7754345
  43.7571383  38.5304737  23.0151367  43.1779003  39.2924738  23.0067086
  44.6001959  38.8737369  23.3112025  17.3753762  81.5133286  47.5827169
  17.8123009  81.8214512  46.7887449  17.9555726  81.7820454  48.2950306
 111.7478275  52.1217585  42.5157928 111.8162060  53.0346298  42.7954769
 111.0412121  51.7597389  43.0504560  18.2394373  56.6263580  12.8939652
  17.7710772  56.7716694  13.7160087  18.2700729  57.4888992  12.4800599
   8.9174962  41.2001562   9.7679901   9.4256991  41.8801880  10.2101588
   8.2603896  41.6811800   9.2649430  20.2086949  70.9552240  49.0281725
  19.9736905  71.8544626  49.2570353  19.4022667  70.5793810  48.6751127
  16.0482585  59.7145033  47.2905636  15.7709301  59.8922539  48.1893015
  16.0267413  60.5690384  46.8598270  20.6451511  36.2243843  68.6216974
  20.8853841  35.8048725  69.4478464  20.5891991  35.5035353  67.9944181
 113.9912605  41.5762472  48.4102774 113.2037544  41.1041737  48.1396770
 114.6864414  40.9188938  48.3811712 113.2835007  51.8805218  33.3804059
 114.0436363  51.5113735  32.9307914 112.6669121  51.1513615  33.4465599
  27.5252199  52.5199986  67.2145271  27.8750253  52.3166656  66.3470411
  27.8653526  53.3928013  67.4113846  10.7896364  56.4134693  60.0970173
  10.6247520  57.0608377  60.7825565  11.5096641  56.7835522  59.5863008
  14.9644244  62.1130228  26.5711069  14.6510100  63.0089140  26.6951466
  15.8985007  62.2095776  26.3856030  17.2399271  40.8453560  54.5743704
  17.7142000  41.3607979  53.9219761  16.6881990  40.2565336  54.0594769
  26.7672133  53.2910728  55.6944180  26.6180682  52.4241400  55.3170395
  25.9059286  53.7085629  55.6832409  19.4287634  62.1791887  31.5304446
  20.1699495  62.5840616  31.0799432  18.7967396  61.9963694  30.8352089
  33.1207824  58.1802416   4.5578936  32.3068619  57.8016520   4.2255765
  32.9691458  59.1252279   4.5425966  22.8026795  46.9996548  51.0851431
  22.1561384  46.6523647  51.6996384  23.5193157  46.3654995  51.1076593
  11.2699592  31.8074346  44.6938801  11.8916452  32.4096680  45.1026011
  11.5184116  31.7976022  43.7695408  36.6148782  83.2804108  60.7848215
  37.4511456  83.1576443  60.3355789  36.8565059  83.5164452  61.6804409
  18.7096155  71.4717484  39.1823268  18.3297384  70.7631016  39.7016954
  19.6136522  71.5362883  39.4901967  33.9661479  44.2049885  35.9587240
  33.5746074  44.4283915  36.8031311  34.8387671  43.8785124  36.1782146
 111.7859077  49.7864008  30.6538177 111.1706066  50.4222202  31.0190058
 111.7017555  49.0192032  31.2199903  31.8258834  45.0111008  32.1775460
  31.7849946  44.6833849  31.2791252  32.6992893  44.7654533  32.4825835
   4.8372063  37.2548032  44.8206186   4.5199549  36.9844675  45.6823063
   5.5007917  36.6031003  44.5944166   4.7684711  51.2547779  30.8632851
   5.6263757  50.8875895  31.0763693   4.9566835  51.9586229  30.2424717
  17.9186201  53.1116056  38.6149931  17.7603197  52.4299812  39.2681146
  18.0316496  52.6341677  37.7930975  27.7950621  49.8100138  25.3570151
  26.9963884  49.5406914  25.8106875  28.4661698  49.8206806  26.0394597
  22.5888515  45.8535433  47.7921486  23.0718136  46.4522362  48.3618402
  23.1206298  45.0578308  47.7751207  22.2208810  38.2386041  55.5503368
  21.8627596  38.4054494  54.6784782  21.9707251  39.0071750  56.0631275
  28.0067253  30.6382108  64.7907209  27.4075317  30.3122139  64.1192102
  28.0114603  29.9539828  65.4600763 114.5319843  58.3464909  29.1526771
 113.6426163  58.6715555  29.0127397 114.4218254  57.5848246  29.7218466
  18.4141672  53.8295841  48.1472540  18.1578743  54.2175579  48.9839268
  18.6368060  54.5784378  47.5941849   7.5146043  52.0954657  28.6152887
   6.9231153  52.6550007  28.1120062   8.1992465  52.6882744  28.9252496
  28.1111145  64.3810987  29.2152452  27.7342105  63.8651323  28.5025358
  27.5927925  65.1857090  29.2285323  18.5898268  85.7852268  28.6720490
  19.2567837  85.4900360  29.2919397  18.6571062  86.7399788  28.6844730
  25.0233126  77.8873777  40.2732325  24.9256158  77.0008421  40.6207228
  24.4260979  78.4183311  40.8001614  29.4931006  74.1059589  60.3902340
  30.2689767  74.2836142  60.9219170  29.2160606  74.9665356  60.0757647
  42.8175783  69.4087124  59.2248201  42.7386284  70.3548861  59.1033459
  43.6469555  69.2952108  59.6890211  18.8589168  67.3218155  52.6624441
  18.4973001  68.2069921  52.7063608  18.4016049  66.8417406  53.3528233
 110.1748371  59.0987873  58.0634737 109.9922466  58.3613443  57.4811792
 109.3514633  59.2460585  58.5288715  24.0686107  35.9717011  52.3423433
  23.5398293  36.7547035  52.4957418  24.5945621  35.8784819  53.1366444
  14.6705449  73.5830164  66.0774708  15.4687345  73.2848310  65.6413364
  14.8758125  73.5356331  67.0111990  19.8826778  35.4335475  45.0064230
  20.1705170  34.9273372  44.2467308  20.6526947  35.4730248  45.5736494
  39.3231940  50.8286476  63.4914827  38.5512280  50.7413816  62.9323053
  39.0134549  50.5926847  64.3659067  35.2190852  47.7883339  55.4798222
  34.3246794  47.7812004  55.8207273  35.7458663  48.1414795  56.1967754
   8.0166858  44.9838209  20.8436584   8.9447910  45.0579643  21.0658216
   7.8611100  44.0417719  20.7760406  15.7468569  49.4802618  58.2707834
  15.9533811  50.4099083  58.3674335  15.7121003  49.3397427  57.3245907
   5.5948442  59.0541124  29.4912338   4.7140664  59.0884209  29.1180229
   5.8935630  58.1612778  29.3184662   8.5209614  67.1568203  53.6035013
   8.3397692  67.0863628  52.6662540   9.2941487  67.7186203  53.6564016
  31.4765811  52.5199032  72.0263290  31.6694999  53.4303570  72.2501326
  30.9555697  52.5754023  71.2252712  19.5640254  66.4680815   2.3203044
  20.2127433  66.2533855   2.9906046  18.7334919  66.1607933   2.6836491
  29.8249745  52.9788399  30.6636810  29.6036839  52.6904583  31.5491724
  30.7346892  53.2698059  30.7268786  32.5748181  53.7176800  22.4564815
  33.3262420  54.2872858  22.6212311  32.5471616  53.6271763  21.5039706
  26.7237687  76.5430117  57.2591352  26.3853717  75.7038975  57.5715542
  26.1867976  76.7477751  56.4936543  33.5216379  42.7305126  51.3086557
  32.8629208  42.1808243  51.7331171  33.0923581  43.0488014  50.5145264
  44.4029045  60.4246521  54.6431732  44.3266010  60.8407402  55.5018234
  44.9888277  59.6817636  54.7882318  20.5869007  80.2920151  72.0492887
  20.4003096  79.5368052  71.4915466  20.2390695  81.0400581  71.5638256
   8.9737046  54.8122883  28.4516191   9.4272411  55.4702997  27.9247832
   9.0910721  55.1062441  29.3549705  32.4381304  62.5225735  14.6728444
  31.7736387  63.1982231  14.5380080  32.3631048  62.2943783  15.5994141
  33.4001112  56.8855572  35.7797503  33.2718253  56.7798901  34.8370886
  33.8899779  56.1066818  36.0435987  13.1100154  17.4985313  52.6922607
  12.2138071  17.4371696  53.0228329  13.0164313  17.4716675  51.7400265
  15.7213509  69.6601009  43.9418316  16.0956359  69.6578074  43.0608463
  15.7429278  70.5790520  44.2088413  18.0094469  47.7469826  34.7165394
  18.2319450  47.2038841  33.9603829  17.1606910  48.1300116  34.4948792
  94.2444992  56.3945436  75.2163887  94.9508953  56.9060040  74.8218632
  93.4518909  56.8983126  75.0314140  21.9691563  54.3379831  50.2105141
  21.4627099  55.0077486  50.6700277  22.3377776  54.7936344  49.4537258
  21.7315197  53.8803291  34.8117352  21.7066121  53.3070803  34.0455770
  21.7359185  53.2817650  35.5586815  26.8553948  48.3500767   8.6161792
  26.8009520  47.8977537   7.7743518  26.7507076  47.6567793   9.2678010
  29.1683888  30.7557392  22.6096892  28.3377647  31.1829257  22.8189898
  28.9468789  30.1232052  21.9262648  22.4023080  46.0970497  44.1990900
  23.2039666  45.5754042  44.2373705  22.4782467  46.5934420  43.3841896
  28.5402107  39.7809029  31.3287950  28.8384128  40.6851053  31.4274287
  27.7929640  39.7090077  31.9226694  20.2435327  40.9415770  46.9188118
  20.7230067  41.2684107  47.6800728  19.5489156  41.5851212  46.7788601
  11.2082827  61.9133902  63.1198025  10.7556498  61.1569452  62.7467775
  11.9136298  62.0999575  62.5002003  96.4978218  43.3771086  44.2976570
  96.1759472  43.8505411  43.5305262  95.7295990  43.2832384  44.8609114
  17.8197920  41.1711740  57.3535204  18.3425260  41.9729090  57.3676729
  17.7191436  40.9672594  56.4237261  22.3158336  60.4413414  49.1726065
  22.7410269  61.1882687  48.7512541  21.8268704  60.0155258  48.4684563
  24.5698619  41.5639305  54.8397684  24.9327040  42.0012331  54.0694761
  25.3229976  41.4271259  55.4144907  27.5741029  63.4093046  31.7934608
  28.1666398  62.7444124  32.1442485  27.9514027  63.6428976  30.9453416
   4.3319601  58.7557697  32.1396041   4.7943172  58.9515686  31.3246679
   4.1462269  57.8180599  32.0902514  12.7126646  40.1739740  33.9719653
  12.0268381  40.4430199  33.3608294  12.7108598  39.2177773  33.9281750
  14.8727274  56.7557764  70.0253153  15.0699830  57.6653957  69.8018980
  14.1698003  56.8150854  70.6723166   1.9649193  69.7364616  60.5848026
   2.5866461  69.1918516  60.1020145   1.2041578  69.1709805  60.7178688
  66.5486431  59.1660213  32.1884584  67.3355818  58.7183952  31.8776727
  66.5193272  59.9779940  31.6824222  37.4202085  53.8314581  37.5439525
  37.2458816  53.2658672  38.2962489  37.3469353  53.2513571  36.7860961
 109.3709660  59.1313601  21.0742545 108.5766220  59.4806623  20.6702375
 109.1984653  58.1948328  21.1711764  28.1023765  42.8377008  37.8706169
  27.1474648  42.8207541  37.8066754  28.3464003  41.9301510  38.0523825
  11.2216878  40.6063461  37.9263687  10.4578125  40.6366158  38.5023975
  11.3897419  41.5218544  37.7031159  38.9162016  74.1748190  50.9100819
  39.7404909  73.8181162  50.5791092  39.0752149  74.3195343  51.8428230
  47.2014189  60.3845596  72.6738787  47.6444483  60.1769400  73.4965897
  47.8730297  60.8102131  72.1409702 113.3687401  68.0359316  35.0866270
 113.6424541  67.6324749  35.9103560 112.4783707  67.7137423  34.9463582
  34.1585565  76.2835693  50.8892202  35.0947285  76.4296246  51.0251617
  34.0044022  76.5465212  49.9818468   6.9866848  34.5354128  59.0795422
   7.7526844  35.0592303  58.8448286   6.7002255  34.1463733  58.2532120
  22.1318483  73.9991188  28.8825393  21.8429255  74.8745632  29.1401172
  22.6819992  73.7051821  29.6086025  30.1171780  93.1490135  72.1564198
  29.7760105  92.8632164  71.3089752  30.2274442  92.3397064  72.6555014
  35.9870625  66.3948822  57.8557348  36.8050504  66.8418980  58.0732298
  35.8147073  65.8306599  58.6095142  30.6781197  65.9535837  20.3426361
  31.0061383  65.4701376  21.1008668  29.7256947  65.8837652  20.4077840
  22.2712660  74.3730068  43.7027264  23.0660486  74.9003792  43.7829113
  22.0950890  74.0684414  44.5929146  21.2931967  67.6598597  46.9784975
  21.1486936  67.3292446  47.8650904  20.5442452  67.3369884  46.4774418
  44.5555687  84.2858028  57.6977587  45.3843737  84.4425964  57.2452927
  44.8042440  83.8305473  58.5022068   3.1726599  78.1318998  31.7903876
   2.2181077  78.1567430  31.7237186   3.4596696  78.9721870  31.4329314
  25.3332710  50.2018642  52.2512054  24.7836781  50.6153727  51.5854788
  25.7009912  49.4334364  51.8147087  28.3745217  79.5644617  51.1263418
  29.0296268  79.3269014  50.4701138  28.8157439  80.2049541  51.6843081
  47.6506042  81.4247704  40.1941156  48.2776070  81.2320995  40.8912373
  48.1765175  81.4325142  39.3943739  52.5354528  64.8518324  52.8953075
  52.0263195  64.1100025  52.5686455  52.6905918  64.6482515  53.8176489
  24.1776872  47.8355074  53.9013100  25.0463390  48.2368565  53.8769674
  24.3489361  46.9004393  54.0133381  25.8234286  58.9816093  80.1366234
  26.2263703  59.7095394  79.6633577  25.1016760  59.3815804  80.6217384
  33.4708834  58.2343864  45.3691483  32.9223537  58.9968109  45.1846027
  33.5365200  57.7778912  44.5303774  42.7583838  91.1635494  75.4790306
  42.9960251  90.6166840  74.7302294  41.8758106  91.4747143  75.2778578
  38.0170417  62.4502468  50.4556322  38.0424905  61.7386150  51.0952950
  38.9091063  62.7972126  50.4477358  27.8859091  61.4855433  42.6600266
  27.2829366  61.5186310  41.9173574  27.6072574  62.2046614  43.2269955
  43.3875275  63.9776039  52.0790005  42.4897051  64.2481804  52.2711945
  43.7898636  63.8546085  52.9387856  49.5630646 106.9538403  54.2267370
  48.6449289 106.9339943  54.4966555  50.0517988 107.0348454  55.0457621
  12.9033780  84.6558571  42.9168224  12.6291203  85.5543041  43.1006813
  12.3612750  84.1172409  43.4932327  15.1342094 101.8401623  32.9403758
  15.3214359 101.1554718  33.5825372  14.3830764 101.5083218  32.4485326
  36.2184072  57.4269247  49.4556093  35.8490920  57.9281235  50.1826859
  35.7334685  57.7272701  48.6869335  22.0564866  49.5451069  52.3557091
  22.5605226  48.8504696  51.9318485  21.5755916  49.9623442  51.6409445
  15.5424666  73.8503647  60.0287914  16.2232280  74.2995834  60.5297947
  14.7263432  74.2652893  60.3081036  42.2212648  87.7471256  43.6173582
  41.6835785  88.3819485  43.1439257  42.4813175  87.1100330  42.9519892
  25.2185678  61.4685488  31.5202188  25.9053516  62.1353006  31.5198898
  25.2972174  61.0432720  30.6662941  48.9708233  72.2321177  56.2632370
  49.2228842  73.1117439  55.9822559  49.0482140  72.2539806  57.2170496
  49.4474888  92.6024342  22.4224854  49.2783165  92.0625496  21.6503835
  49.0058851  92.1435261  23.1370616  37.9107833  66.7916536  78.9487219
  37.9004264  66.2141895  78.1854057  37.9981613  66.1996126  79.6957731
  31.2503219  76.9358301  62.1822119  30.3663564  76.7486191  62.4981070
  31.1864018  77.8088760  61.7949963  50.3911686  66.9601870  35.9155679
  51.3153887  66.7301035  35.8200979  50.1257086  67.2521496  35.0434875
  39.1999865  81.7334843  36.0943913  40.0902128  81.9188213  36.3933611
  39.2809296  80.9256935  35.5872917  16.4583158  48.7716436  13.2737827
  16.9083929  48.2347822  12.6215219  17.0378876  48.7591457  14.0354741
  19.8321700  69.5347404  64.8379660  20.4077196  69.6605778  64.0835524
  19.8765278  70.3639841  65.3140163  12.0697081  65.6298256  63.0928659
  12.5033224  65.2520561  63.8580465  12.4077344  66.5239716  63.0431318
   8.6623031  50.3502512  61.2503719   9.4595921  49.8617458  61.4551306
   8.6219102  51.0339308  61.9190836  49.9440241  86.9765949  50.2477551
  50.8489656  87.0311260  49.9406195  49.4215965  86.9316673  49.4469500
  10.5792034  54.1431570  69.2071915  10.3255737  54.8710251  68.6396408
  11.3718963  53.7896729  68.8035583  49.0598202  61.6574764  46.0511923
  48.6009264  62.2235775  45.4305649  48.7340355  61.9291401  46.9092703
  30.7175970  70.5895710  58.0359936  30.9659910  70.9262228  58.8969231
  30.7804704  71.3477421  57.4550867  86.8465710  61.7217159  39.5508432
  87.1256065  62.0751429  38.7061787  87.6363850  61.7410660  40.0912762
  40.7336235  62.1124315  29.8584175  41.0049725  61.8800783  30.7464576
  40.8586311  61.3098097  29.3520522  17.4987638  63.1565523  55.2036858
  16.7829299  62.9444122  55.8026934  18.2774389  62.7881384  55.6210184
  36.3984632  70.1475239  59.4352865  36.6052246  70.5632448  60.2723360
  37.1798944  69.6376944  59.2215776  16.8308055  74.3298578  35.2284646
  17.5275934  74.9783373  35.3294110  16.3053620  74.4171047  36.0237813
  34.3383813  50.2183962  58.6204147  33.6092567  50.5840588  58.1195164
  35.1040459  50.3532219  58.0620146  35.6067300  54.2144060  61.9514942
  36.3121057  53.6830425  62.3207235  34.8571730  54.0480185  62.5230789
  35.5720806 100.4301643  53.6028385  35.1748323 101.2156105  53.9790201
  35.7332826 100.6583023  52.6873064  34.8681283  82.1879292  37.6685905
  35.0261855  81.2549686  37.8129554  33.9444518  82.2391319  37.4227571
  48.6822796  86.5265465  47.9801559  47.9316282  86.5399551  47.3863745
  49.1706038  85.7418156  47.7311993  23.3767605  57.1462536  59.4306993
  23.0727935  57.9960728  59.1118813  23.7879539  57.3396206  60.2731752
  22.7853870  85.3081799  66.4188337  23.4288216  85.9098434  66.7932987
  22.5402164  84.7365189  67.1463776  49.7202158  62.3949432  85.8686447
  49.3967962  63.0294180  85.2290535  48.9822149  62.2556448  86.4620876
  24.7109127  64.1012669  49.8600292  25.6302929  64.3675280  49.8513174
  24.3092775  64.6038580  49.1512823  34.1069269  61.0871029  56.4733410
  34.3439865  60.5769205  57.2477770  33.1527400  61.1522245  56.5122938
  52.7611113  69.4969988  55.0408697  53.3163548  69.2351389  54.3064547
  52.6103878  70.4325151  54.9055243  39.8840499  63.5161686  65.4346037
  40.1537466  63.1113195  64.6102285  40.6896210  63.8882923  65.7934999
  41.7599201  72.0340872  29.1210628  41.3579178  72.1660233  28.2624483
  41.2489319  71.3292789  29.5190167  41.4295721  73.5903931  54.0847015
  41.6039467  73.0185080  54.8322105  42.0616341  74.3034029  54.1760445
  53.4591293  66.4378643  38.3041239  54.2247486  66.8637514  37.9185271
  52.9806995  66.0817671  37.5554395  29.1366839  48.2848835  49.2346191
  29.1406178  48.9220715  48.5203362  29.0333843  47.4383831  48.7998772
  47.6605320  52.3327827  41.3337231  46.9705200  51.6698694  41.3594627
  47.1962261  53.1652880  41.4207983  47.3810959  88.4676647  51.3376236
  47.9953146  87.9153919  51.8213129  46.5389490  88.0206966  51.4226913
  29.7793937  67.1952724  37.3853540  29.6202135  68.0981922  37.6603603
  29.0732598  67.0049715  36.7677855  31.8071771  57.3085451  42.0142508
  32.6010585  57.5372648  41.5308523  31.1326408  57.8834963  41.6527700
  19.6003187  47.3985052  50.5651045  18.7431884  47.4774504  50.1463842
  19.9830937  48.2729483  50.4939461  27.1363401  71.1979008  49.1639185
  27.4868131  70.7251167  48.4090185  27.9085374  71.4360094  49.6769953
  45.0056458  57.1006966  50.2469730  44.8298740  57.4499750  51.1206675
  45.0408506  57.8731823  49.6828318  46.6553688  82.0319176  47.0552444
  46.9306183  81.6970825  46.2018061  47.4709654  82.2851753  47.4875546
   2.5516227  62.9598713  33.0020952   3.4934217  63.1124449  32.9248405
   2.3543923  63.1401157  33.9212489  29.5787120  57.5102901  75.2730989
  29.4027328  58.4249640  75.0525522  28.8237071  57.0318127  74.9306631
  29.8879385  88.4123802  37.6761007  30.3450871  88.0861950  36.9009542
  29.8732638  87.6672459  38.2767606  15.6197906  56.8221378  26.0485625
  15.3468919  57.7168703  26.2515712  16.3624930  56.9273472  25.4539561
  36.1292005  57.2293758  22.3361135  36.4521241  57.2801018  23.2357693
  36.5617752  57.9544449  21.8851280  49.1322374  56.2200832  37.9887509
  48.5253382  56.0687923  38.7133312  49.9648666  56.4273500  38.4130192
  31.9052887  60.9846306  53.8398981  31.1974740  61.3094759  53.2833815
  31.6796350  61.2915754  54.7180223  52.8088093  72.1077061  54.1173792
  52.8088093  72.7135897  53.3763409  53.3525515  72.5371027  54.7778320
  25.6411386  55.0676346  50.5136967  25.2610469  55.5846930  51.2239122
  25.7326722  55.6865644  49.7892761  30.2149701  90.7464027  54.7876835
  31.1368346  90.9793282  54.6774864  29.8013473  91.5492344  55.1048803
  48.9871311  68.3029366  51.0762596  48.4371901  67.5373888  50.9097290
  49.3242979  68.1675577  51.9618225  52.4500275  89.6159267  52.0613575
  51.9319439  90.0283241  51.3701630  52.4925041  88.6931324  51.8106222
  27.0885420  70.3479433  55.9711218  27.0362949  71.0654068  55.3396606
  26.1880636  70.0333929  56.0513020  23.7332869  64.0897226  42.5102472
  23.7911701  64.3155003  43.4386349  22.8002596  63.9397335  42.3579550
  18.0645347  79.2141724  51.0948896  17.6001108  79.6476936  50.3789330
  18.8906538  79.6920109  51.1685658   1.6881491  59.2800379  52.3335600
   0.7911153  59.0524435  52.5780249   1.6019106  59.7174263  51.4865160
   2.8635353  75.0311089  67.1975231   3.7663496  75.0030613  66.8807077
   2.6947689  75.9595394  67.3580503  44.2912102  90.2091312  54.5760965
  43.9513397  91.0701561  54.3324375  45.2221203  90.2482510  54.3567562
  43.8749981  68.4033155  56.7162514  44.3960047  68.0032396  57.4124718
  44.3640041  69.1893053  56.4726830  18.1491017  37.8943920  60.6367159
  18.7892079  37.3677492  61.1154032  18.2070470  38.7626290  61.0355091
  43.8706779  76.1545753  46.9537878  42.9219294  76.0309124  46.9252729
  44.2021370  75.6342983  46.2218857  20.1527667  98.4451103  50.8346748
  19.4622684  99.1016483  50.9262848  19.7712803  97.6444530  51.1947536
  17.6658928  94.4771004  50.5340481  18.4815693  93.9772129  50.5658245
  17.4312031  94.4937992  49.6062136  34.7651029  69.6547890  79.5002031
  35.7073545  69.7446203  79.6427584  34.6011829  68.7141800  79.5681763
  12.4435914  68.4401751  63.1274557  13.3544445  68.6736584  62.9483938
  12.2105527  68.9582205  63.8978815  28.9895964  71.0200691  22.9119611
  29.3567634  70.1679611  22.6767349  28.0626249  70.8449364  23.0740952
  25.1520300  51.5463161  82.7362633  25.5996323  52.3890972  82.8111458
  25.3325367  51.1046886  83.5660934  44.1706800  82.6755905  54.4175529
  43.6860228  82.7862835  55.2355242  44.6966839  81.8878651  54.5555353
  27.7436876  67.7320337  85.1775742  28.2927060  67.3412418  85.8573437
  28.0189776  68.6482000  85.1446724   3.8548023  94.9661446  58.0624580
   3.1124797  95.5704498  58.0604267   4.5578468  95.4489231  57.6278448
  32.7479482  57.7423143  57.3787689  33.2412410  58.1602240  58.0846357
  31.8485141  58.0452538  57.5031853 105.9748745  64.4681978  44.0632439
 105.3927803  64.2354584  43.3398914 106.2175179  65.3781843  43.8921404
  34.0708733  67.1393299  53.2562351  34.7325039  67.6767206  53.6917686
  34.2120552  66.2582111  53.6025381  25.2049327  77.5263405  55.2073669
  24.5171046  77.3800468  54.5579672  24.9264669  78.3117008  55.6784248
  30.6018925  97.9704857  42.8585863  30.5819392  97.3990440  43.6262369
  29.9102116  98.6122513  43.0196810  43.5904408 100.9145260  35.4839039
  43.4835243 101.7695904  35.9006524  43.3619928 101.0649204  34.5666122
  20.6809759  59.0840435  47.3011017  21.5713263  58.7813044  47.1226311
  20.1181746  58.4000587  46.9382715  28.7970567  69.9538422  68.5305309
  28.2625055  70.2571821  67.7967262  28.6763430  70.6206703  69.2065477
  29.4067883  93.0775452  47.3737383  30.2717161  93.1531525  46.9707298
  29.3998575  92.2034264  47.7637434  34.5509052  65.5368519  32.9292321
  34.8751783  65.9710073  32.1401906  35.2478647  65.6596041  33.5737586
  23.9162850  66.4912939  28.1700993  23.2182837  66.1291170  28.7158608
  23.6470461  66.2919950  27.2734261  13.7444127  73.6925602  71.4369583
  13.5714567  72.8862000  70.9510612  12.9431474  74.2071581  71.3400126
  59.6379328  71.2558508  41.3942051  60.1114130  71.0409927  40.5905342
  60.2383852  71.0116529  42.0985174  16.3180709  91.8972492  48.6388683
  15.3804421  91.8615246  48.4496355  16.6409898  92.6284695  48.1122971
   9.8330671  91.8198013  45.6527901   9.7889811  92.1138954  44.7429562
   8.9334071  91.8917847  45.9716320  45.1530218  71.9507551  51.9465494
  45.1318121  71.4880466  51.1088848  45.2906513  72.8680182  51.7100811
  41.2342882  88.2947636  53.0796385  41.5006065  88.8303471  53.8269424
  41.7616129  88.6215973  52.3507023  33.4312987  63.0580187  45.4486752
  33.8398457  63.4580898  44.6810389  34.1097331  62.4886274  45.8116531
  14.1272402  60.0675201  62.4462128  15.0303459  59.7927523  62.2876644
  13.8632739  59.5829725  63.2283688  24.6544480  94.9325275  45.5573416
  23.9581203  94.3291473  45.2979422  25.0922084  94.4937134  46.2867546
  51.0117865  89.0156841  55.8420420  50.1209068  88.7609959  55.6018305
  51.1001444  89.9121284  55.5182934   2.4769065  81.2370777  53.6324739
   1.9033328  80.8428192  54.2895889   3.2544613  81.5042973  54.1226101
  16.6524196  87.6334858  26.4260578  17.3271060  88.2553864  26.6985941
  16.3444471  87.9680729  25.5837750  29.7555447  45.9739733  71.2009382
  30.1740432  46.8321562  71.1330557  28.8615441  46.1182594  70.8908176
  39.3960881  56.6717815  68.7536955  38.6948752  57.1881485  68.3563328
  40.2023792  57.0790052  68.4369993  43.5236692  62.6212263  61.6872263
  43.4433699  62.8932858  60.7730246  44.4478130  62.3936129  61.7890978
  42.4681807  54.9739790  63.0768204  41.9290495  54.2963314  62.6689434
  42.0930386  55.7978964  62.7659178  65.0151825  78.0912066  52.7060461
  65.5462360  77.6766634  53.3860207  65.5158901  77.9639292  51.9002390
   6.3734031  32.8447556  56.9130707   5.9437585  33.0949926  56.0951376
   7.1989459  32.4461126  56.6377640  12.4949205  52.7020168  67.4793577
  13.4350538  52.5253773  67.4449968  12.0860267  51.8413305  67.3884964
  26.8741393  53.5830259  40.2859592  27.3586607  53.2026100  41.0185957
  26.0230541  53.1455708  40.3087473  33.6870623  72.5505972  10.0989878
  34.3921280  73.1208897  10.4053903  34.1373706  71.8003178   9.7110021
  44.4258356  77.7643442  36.7278862  44.1010618  78.5984468  36.3887262
  43.6477518  77.2097826  36.7850971  34.1098022  53.9118528  54.3163061
  34.1689730  54.6398211  53.6976004  34.0436530  54.3313694  55.1741314
  21.7230296  84.7708511  43.8710403  21.6903162  84.5425129  42.9420519
  20.8718252  85.1706219  44.0495396   9.1752130  56.6303301  48.4874201
   9.1385728  55.7252884  48.7969255   8.4832025  57.0780945  48.9741039
  24.6196818  63.4993267  25.3133178  24.7152257  63.4656143  26.2651396
  25.3050876  62.9184723  24.9830770  40.5971384  85.7955742  52.3223400
  40.3674936  85.4127312  53.1690550  40.8947039  86.6807365  52.5325012
  17.5382340  54.8718548  50.3230190  16.7983305  54.7930861  50.9251595
  17.6732469  55.8150625  50.2315664  28.3123922  49.2044544  60.7563305
  28.4588766  49.7991896  61.4919043  29.0206838  49.4023132  60.1436281
  35.0585413  42.4247456  28.8517118  34.1464210  42.2292900  28.6370826
  35.5466294  41.6628265  28.5394859  53.2714558  77.7832842  40.8888721
  54.0241814  78.2092667  40.4787731  52.7555561  77.4499369  40.1547337
  17.6757431  72.4795675  29.3578291  16.8535316  72.8379488  29.6921420
  17.7583063  71.6283035  29.7876668  29.1915226  60.0390768  47.5447083
  29.4105339  59.8922682  46.6245365  28.6762023  60.8457232  47.5425100
  49.8868799  54.4078159  28.6122465  50.7046843  54.3676186  29.1080451
  49.4736242  55.2227068  28.8975549  15.6968689  77.4007654  28.4105897
  15.7626784  76.4461231  28.4341955  15.3629732  77.6392841  29.2753744
  15.8084559  89.3524837  54.9423027  16.1596203  88.8543701  54.2041969
  16.2588072  88.9957523  55.7079124  33.4093714  58.8932467  62.0813417
  33.5406899  59.7496367  62.4882555  33.9417934  58.2948637  62.6054573
  35.1918983  72.9695702  42.2476482  34.6991301  72.1543932  42.3419619
  35.2572966  73.3143139  43.1382132  22.8966045  78.8154364  47.2952271
  23.6375356  79.3723202  47.0561981  22.1272206  79.3675518  47.1557713
  55.8866692  88.7238884  59.2305231  55.4219723  87.8920841  59.3221712
  56.5265274  88.5655594  58.5364437  46.0889482  70.4193258  32.8056145
  45.1545048  70.4692745  33.0069947  46.1245346  70.3375816  31.8525767
 115.9337902  94.2490864  74.4407797 115.0585461  94.5132828  74.7242975
 115.9515953  93.3009148  74.5707083  40.3631306  64.3431520  60.3316212
  40.6641865  65.2514935  60.3090048  41.0449839  63.8533163  59.8718786
  38.2086301  78.5007572  67.6812553  38.8874888  77.9137707  68.0141640
  37.7221251  77.9706478  67.0499659  40.1798153  86.9625187  35.8906412
  39.3251657  86.9337082  36.3207293  39.9888134  87.2478962  34.9971581
  13.3909643 107.2580528  38.0240154  13.7000370 107.2491455  37.1181321
  12.4404204 107.3446655  37.9519343  34.5580816  68.8145494  61.4338589
  34.7446394  67.8759861  61.4568996  35.4144382  69.2261887  61.3179398
  32.4455118  56.5390730  52.3516607  32.0589209  57.3722696  52.0822811
  32.2104311  56.4535570  53.2755947  39.5726800  71.6395426  58.0287647
  39.2118216  72.2293806  58.6906576  38.8046169  71.2558174  57.6056051
  51.6528273  61.1860085  47.8146696  52.2271252  61.9486189  47.7450895
  50.8928680  61.4086246  47.2769547  34.0661430  87.5416183  66.7428827
  33.5812116  86.7194366  66.8142986  34.9819589  87.2737217  66.6670895
   7.5809270  36.1995220  67.6129627   8.0975854  36.2071943  68.4187126
   8.2278603  36.2859249  66.9127893  25.3425765  75.3414202  41.5178156
  24.7266579  74.6206903  41.3858080  25.9784293  75.2460098  40.8087206
 106.5586948  56.0490990  32.8019881 106.7190075  56.5819645  33.5808253
 106.9214249  56.5636253  32.0809317  27.4595809  72.9256439  41.5931845
  28.0464864  73.3348608  42.2290421  26.6884303  72.6784182  42.1035147
  31.8946481  71.0722685  51.5885210  31.9841504  70.4089880  52.2728348
  32.7622867  71.4718819  51.5273476  15.0881505  21.7850804  62.2895908
  15.0352299  21.1374664  61.5867186  14.4276559  22.4395895  62.0624447
  26.3049841  71.7648983  28.9448881  26.8195128  72.5556326  28.7829375
  25.4760885  71.9216871  28.4925771   2.5954616  55.4356623  69.2296362
   3.1988576  56.0943604  68.8857412   2.7893001  55.3990555  70.1662874
  19.3432617  78.7166739  61.1814594  19.2063844  79.4718838  61.7534351
  19.8128676  78.0853605  61.7265749  68.1843185  43.7392139  22.2189403
  68.6120749  44.1249800  21.4544535  67.7068424  44.4662476  22.6185298
  51.6126776  41.9961643  44.3172836  52.5643015  42.0913553  44.2775774
  51.2760878  42.8701401  44.1195154  37.9268765  61.6742849  62.7439308
  37.3625565  62.3588037  62.3844767  37.5686693  60.8593225  62.3921490
  48.5288334  64.3460417  59.2783499  49.1687059  65.0178719  59.0428925
  49.0572309  63.5796642  59.5012760  31.4303899  56.7873859  46.8866396
  31.2252307  57.4170828  47.5777435  32.2005367  57.1524334  46.4509201
  36.5066385  78.2366133  49.1391802  35.7822418  78.5325718  49.6904373
  36.9015646  77.5155306  49.6293926   0.9376450  62.3127985  44.0609360
   1.8591031  62.3860121  44.3095016   0.4579109  62.4409580  44.8792648
  27.6920581  62.4950075  47.1757126  28.3307433  63.0860186  47.5744820
  27.5598073  62.8445864  46.2944984  14.4952166  96.5247631  67.0750141
  14.3138456  95.7094193  67.5425148  13.6320102  96.8555832  66.8266916
  41.3822746  58.7558126  38.5242271  41.3717031  57.8729343  38.1545758
  40.7445002  59.2419434  38.0015874  28.2126665  67.9086637  45.9236097
  28.8648391  68.1108236  45.2527618  28.6236358  67.2313213  46.4607716
  41.2714577  63.0690813  41.2502003  41.2814617  63.9353943  41.6571856
  41.8789530  63.1431913  40.5142021  30.2457166  66.9059420  33.5592675
  30.8500791  67.6478338  33.5352492  30.5794263  66.3035488  32.8944421
  42.3801088  77.2442293  78.5532188  42.9243183  76.7081261  79.1299915
  42.8316879  77.2225761  77.7095175  18.5027409  82.6759434  21.5274286
  17.6437461  82.2853947  21.6881490  18.8731742  82.8073788  22.4002028
  16.0359585  58.0596781  43.5804319  16.7184639  57.8249741  42.9516745
  16.1729968  57.4632454  44.3164444  43.5104609  79.2131042  67.1785069
  43.0616045  79.9195433  66.7140675  44.1526651  79.6594524  67.7303934
  30.6516504  76.4347887  46.7238617  30.1299024  76.0932589  45.9976578
  31.2429476  75.7174873  46.9520760  27.7274823  57.2887993  45.8434629
  28.4634256  57.8858423  45.7086945  28.1235456  56.4173889  45.8469772
  35.9116626  45.3953123  39.1436052  35.4071712  44.9887085  39.8481560
  35.2519178  45.7919025  38.5746741   2.5141367  81.2428379  40.2866936
   3.3520296  81.5237617  40.6544590   2.6150060  81.3621807  39.3423319
  29.5740795  49.1984892  27.5957441  29.2339587  48.7086630  28.3444905
  30.3598356  48.7191725  27.3329210  38.7494135  79.9504757  59.7445631
  39.1698790  79.0952301  59.6551657  38.3987474  80.1371765  58.8736963
  13.5268319  64.5917702  28.0504346  13.6085486  64.2974710  28.9575958
  13.6141956  65.5437517  28.0986834  51.1721373  59.6534300  33.7413073
  50.9722567  59.5582008  32.8100657  50.3920889  59.3251324  34.1884947
  20.7185292  52.1419382  48.8786936  21.2574172  52.6357746  49.4967222
  20.0904679  52.7820158  48.5439205  62.8168535  50.6320286  26.3982177
  63.3597946  49.8453140  26.3479567  63.2795286  51.2036037  27.0109677
  43.5950804  57.3289967  54.4066191  44.3888617  56.8096733  54.5348644
  43.4713793  57.3470211  53.4576130  41.2048054  63.2291698  73.9765072
  42.1371460  63.1512880  74.1787481  40.8220148  62.4106836  74.2923927
  43.3650541  55.4280996  48.8999414  44.0623045  55.9869528  49.2431068
  42.5891018  55.9885550  48.8957357  25.1919389  72.8405237  34.5628786
  24.9701643  71.9161415  34.4507837  24.4372272  73.2144594  35.0176454
  34.4732690  59.0824938  59.1657972  34.4683051  59.9812412  59.4951248
  34.6648073  58.5464716  59.9353600  28.7203717  52.8414392  47.2699642
  29.1421533  53.5820055  46.8341970  27.7834296  52.9911661  47.1436548
   5.8079171  55.8987665  40.6621933   5.4079014  55.6215858  41.4864445
   5.1405823  56.4419460  40.2428436  66.4463282  82.7381802  49.3166447
  66.4304924  83.5412121  49.8373318  66.8294716  83.0025482  48.4802580
  44.9601650  85.5410194  33.9659595  45.2645636  86.4217186  34.1849065
  45.5417156  85.2548027  33.2616043  53.4243870  98.4617805  41.8579435
  54.2702484  98.1061935  41.5853548  53.5416555  99.4111824  41.8244028
  38.4835815  70.0016212  44.5565462  39.0331197  70.4574156  45.1941109
  37.6220655  69.9571323  44.9713278  75.9730291   1.1641651  54.9224424
  75.8547688   1.7998378  54.2166328  76.7300797   0.6444172  54.6523190
  70.0463009  96.8844604  18.5639203  70.2196646  96.1668301  17.9546714
  70.3593826  96.5620613  19.4090641  61.7787600  86.9293404  33.2981086
  61.8828011  86.5453339  34.1687107  62.6009321  86.7319298  32.8494501
  60.1331329  84.0852451  51.1674738  60.1648283  83.5246372  51.9426823
  60.1807070  83.4769917  50.4299116  71.0611248  89.0836525  33.8694477
  70.5034542  89.3849087  34.5867205  71.9292355  89.4273090  34.0804243
  44.9898243 111.9954681  36.2966514  45.1150703 111.1131191  35.9473538
  45.3845882 111.9663239  37.1681690  59.4728994  77.9193163  52.6085472
  58.7115049  78.3485174  52.2182941  60.0515652  77.7382469  51.8678761
  63.5426044  92.1377754  45.8965254  63.8468552  92.3746586  46.7726278
  63.3159208  92.9730797  45.4877186  47.4755144  75.2214289  57.7337360
  47.6865625  76.1350346  57.9261303  46.9248915  74.9435329  58.4657383
  39.9380374  99.5299339  55.6729984  40.7924986  99.9368477  55.5296230
  40.0963736  98.8728619  56.3507986  34.1540146  56.2226105  25.5251837
  34.2274451  55.2687693  25.4931593  34.1052246  56.4278650  26.4588428
  35.7398486  92.3006344  40.6641912  36.4245057  91.6669750  40.8785295
  35.7762814  92.3793602  39.7109270  31.6112471  72.7508020  54.5357084
  31.9261289  72.0187616  54.0054274  31.8761134  73.5309267  54.0483809
  62.1939611  82.1800995  36.5130663  62.6607895  81.6831875  37.1849132
  61.9542360  83.0000496  36.9448590  25.7057333 105.3269291  35.8373809
  25.4656529 106.1740398  35.4618931  26.5989399 105.1730156  35.5296087
  61.6635561  84.8971272  59.9873304  61.3508606  84.2959213  59.3113136
  60.9423018  85.5140781  60.1114178  35.7641387  60.9922886  49.2005253
  36.4358974  61.5428495  49.6028328  35.0497890  60.9819698  49.8375702
  37.6073742  90.5694962  50.4510498  37.8718781  91.1294651  49.7211885
  38.2662535  89.8754501  50.4714584  48.6206675  83.9093113  63.2872534
  49.1476488  83.4078407  63.9093876  47.7889538  84.0527058  63.7388372
  43.1972837  83.4448719  49.5441103  43.6959362  83.7133980  48.7724447
  43.7159634  83.7577534  50.2852631  64.6221113  76.8738985  44.6010399
  64.6206665  77.7930927  44.3339968  65.5432177  76.6158533  44.5663643
  58.2464075  89.7958374  20.1131344  58.4004021  89.1441822  20.7971311
  57.9010820  89.2922974  19.3759596  42.2176790 101.0159206  55.0567913
  42.0148802 101.8977642  54.7446251  43.1728172 100.9634113  55.0223827
  41.2184286  75.6874323  57.9295444  41.0801458  74.7669220  57.7064562
  42.1648693  75.8115768  57.8583097  67.9981565  79.9040031  32.1366858
  68.8285685  79.4279814  32.1442103  67.7306414  79.9334621  33.0552721
  56.0822105  81.4577961  47.2060919  56.8621063  81.8316746  46.7959595
  56.3289595  81.3355064  48.1228209  67.5876904  92.4196720  40.3748465
  67.2747850  91.9464970  39.6038556  68.2590580  91.8495560  40.7496309
  59.5401907  81.3877201  55.1731682  59.2831182  82.1934319  54.7248697
  60.3876734  81.5931892  55.5678701  69.4774437  81.1864662  42.5397015
  69.8994923  81.1205769  43.3963013  69.0780735  82.0563602  42.5357437
  41.0575390  67.0720720  59.6448565  41.5169382  66.3359594  59.2407227
  41.7039919  67.7778006  59.6615458  74.2341948  89.9127865  34.8305511
  74.7941446  90.5365276  34.3683338  74.5196342  89.9649334  35.7427120
  30.9372568  95.0150013  49.5740318  31.5089321  95.7396126  49.8277330
  31.5344214  94.3414211  49.2485809  44.9981403  64.8314667  68.2519913
  44.8393059  65.6122255  67.7215052  45.5884981  65.1284266  68.9444685
  35.2066708  75.8215141  71.7623377  34.5554352  75.7184649  71.0684299
  34.8269939  76.4726210  72.3523664  44.4950533  93.0910015  43.8148212
  44.4187737  93.4332752  44.7054768  44.1023159  92.2191906  43.8588142
  55.3378725  70.5072737  53.4127283  55.7806301  70.9017420  52.6613331
  54.9172163  71.2436724  53.8565731  43.3446836  89.4833660  51.8130732
  43.7680769  89.2183495  50.9965324  44.0440893  89.4543362  52.4659252
  64.8091316  98.1290340  54.2423248  65.0050211  99.0149212  54.5474052
  63.8534927  98.0764771  54.2570877  49.7076225  94.1027355  41.7492151
  48.8329887  93.7387943  41.6120815  49.5499372  94.9848557  42.0856953
  61.8379211  84.7482872  37.8283453  62.3999500  84.9554157  38.5749698
  61.0150480  84.4573975  38.2214069  45.9610128  92.4984932  62.4777031
  45.4415178  92.1864605  61.7367649  46.6093445  93.0837536  62.0860863
  34.9585867  80.8626556  61.7614174  35.5538273  81.4917755  61.3538218
  34.1599536  81.3628101  61.9295502  25.7838488  90.6835365  30.4295349
  25.1124930  90.0805378  30.7487512  26.2675595  90.9407139  31.2144637
  47.7541161  94.6191788  57.2757959  47.4553823  93.9710903  56.6378498
  46.9971514  95.1893711  57.4103785  39.1421294  97.8154945  41.2993622
  40.0293875  98.1062317  41.5102577  39.2676473  97.0285034  40.7691526
  58.7179136   7.1921611  51.7455864  59.5565462   6.9609523  52.1449232
  58.9486408   7.7842760  51.0297680  39.7568130  88.5319519  58.3145952
  39.4156766  87.6383877  58.2772779  39.0050197  89.0844631  58.1006670
  34.0420938  88.0924797  47.2752619  34.4976807  88.5084343  46.5433741
  33.1134796  88.1799889  47.0601940  54.6440411  84.2514324  56.1454201
  54.2782116  83.3792496  55.9981060  54.8640490  84.5698738  55.2699661
  42.4710989  95.1332092  40.1400995  42.1480465  94.6934986  40.9265614
  42.0533800  95.9942627  40.1584244  27.7591085  74.3200636  48.7333822
  27.0657277  73.7509775  48.3993292  28.2674098  73.7595034  49.3195868
  20.6365299  63.8345766  41.7630577  19.9835348  64.3159056  41.2549734
  20.4723001  62.9149914  41.5541935  29.5267034  75.4256916  36.6989493
  29.7752333  74.7253609  37.3022747  29.1076446  74.9735308  35.9667134
  56.2797070  67.6627398  18.6499381  56.5574837  68.5538769  18.8619483
  55.8989096  67.3307467  19.4629586  27.5551438  80.4938316  62.7408981
  27.3967433  81.2928391  63.2436180  26.9002223  80.5160618  62.0431757
  17.5732315  54.4203854  57.9436922  18.2869661  54.2067862  57.3427010
  16.8449438  54.6657372  57.3730516  32.1832561  75.8982611  55.5235291
  31.9175363  75.7507038  54.6158648  31.3732362  75.8152962  56.0267353
  63.0038309  77.3255348  40.9687328  62.3075247  77.9638529  41.1234617
  62.5972462  76.6562843  40.4182577  64.5567560  78.7073708  42.7601862
  64.0902233  78.1867504  42.1063232  65.4081869  78.8861084  42.3610020
  46.6263390  84.9657822  21.4113832  47.5723553  85.0033283  21.2704134
  46.2641764  84.7542572  20.5509591  41.4991760  75.8591795  50.9038019
  42.4061823  76.0196352  50.6433582  41.0515785  76.6885233  50.7362461
  29.9070740  84.6785641  68.3804989  29.2534995  85.0504017  68.9727926
  29.4081497  84.0940571  67.8098392  33.6879921  60.7037878  50.9183836
  33.2835889  61.5709496  50.9450722  32.9517531  60.0988531  50.8276320
  38.6632228  73.6960697  41.0768032  39.4319677  74.1132593  41.4656639
  38.1181288  74.4256353  40.7821178  46.8196297  76.2877607  38.8861990
  46.7763233  76.9473505  39.5785141  46.9349384  76.7926741  38.0812144
  50.7145739  87.3818302  28.8001609  50.1574373  88.0726624  29.1587567
  50.3485107  86.5711784  29.1538000  55.7111073  81.8871212  20.8338332
  55.1233053  82.4331093  20.3116989  56.0401344  82.4732018  21.5153623
  58.3691502  85.3888226  37.8078628  57.7919674  85.0591755  37.1190739
  58.5011053  84.6395397  38.3887267  49.9461174  89.9178219  45.3085232
  49.5373249  89.6380329  46.1275673  50.8823490  89.7744942  45.4469299
  24.9110460  65.1399755  56.0127354  24.8098254  65.3676510  55.0885296
  25.3972864  65.8739471  56.3883495  53.1888008  89.3068409  36.9566607
  53.7018871  89.5243168  37.7349114  53.0888319  88.3556080  36.9937944
  32.3573971  90.5308819  35.8777785  32.3297691  89.5863438  35.7250810
  31.8181276  90.9022522  35.1795626  59.4395399  57.6172495  49.5311499
  59.3353033  57.8257084  48.6027575  58.6560106  57.1142149  49.7531128
  46.3892508  76.0446262  53.5487986  46.0876465  76.7703724  54.0952063
  47.1449089  75.6900454  54.0172863  47.7730942  98.7003326  32.4161768
  48.2524633  99.1045570  31.6929626  48.3930063  98.7029076  33.1455135
  17.7884781  74.2579699  27.2467232  18.3931077  73.8354921  26.6366649
  17.6957250  73.6314774  27.9644513  18.0598903  88.5208893  39.9583864
  17.8406131  89.2969990  40.4739571  17.2158003  88.1932735  39.6478844
  21.6078758 104.4894600  51.1383581  21.1000752 104.8282051  50.4010487
  21.2559032 104.9469852  51.9019127  68.9754486  68.7696886  43.7129116
  68.3311081  68.7047720  44.4177818  68.4762764  69.0877628  42.9606533
  56.1993551  76.6107988  20.0882697  56.8132257  75.9998512  19.6806681
  56.4782143  77.4726391  19.7789097  34.0769243  83.1363106  58.2427788
  34.0598106  82.1810150  58.1848764  33.1560588  83.3949947  58.2064581
  53.5183430  62.6180840  57.6748705  54.4125223  62.9121017  57.5010157
  53.4365702  61.7985773  57.1870661  38.5256624  83.4146786  40.7036352
  38.2896781  83.3174992  39.7810841  37.7008700  83.2987118  41.1753368
  60.6796026  81.6971111  48.6962175  60.6426382  80.8023643  48.3581543
  61.5284109  81.7524147  49.1351986  69.5947504  82.6764774  47.2115517
  69.8798275  81.9305611  46.6837597  68.6869144  82.8243446  46.9466019
  23.2766151  90.5333996  56.2225294  23.1920934  89.8538208  56.8913126
  24.2154121  90.5747128  56.0403633  84.2399025   1.0224163  32.1171212
  83.6103249   1.5479842  31.6235232  83.7401104   0.6861308  32.8609991
  59.3580914  67.1009159  46.5320969  59.3556643  67.8957653  47.0654297
  59.1141129  66.4034557  47.1405792  23.4778881  48.3744907  78.1318521
  22.8687406  48.6048651  78.8333464  23.1219792  48.8050747  77.3545742
  31.0587049  87.3782444  47.3224211  30.5543590  86.5969753  47.0955133
  30.7945490  87.5816250  48.2196903  33.3952451  85.6599236  48.9370108
  33.7382126  86.4737892  48.5679197  32.8335881  85.9422779  49.6588516
  32.0431781  86.8212700  71.6792154  31.9695234  87.0345116  72.6094532
  32.9703188  86.9472408  71.4772940  37.5769925  97.4305820  44.7563744
  37.5690937  96.9934845  45.6079102  37.5648808  96.7156315  44.1200399
  43.7980461  89.9949074  43.9710665  43.5108089  89.0941715  43.8214302
  44.7201729  89.9980259  43.7143469  42.0211554  97.8112602  43.4530306
  42.7882004  97.3761559  43.0808020  41.2997007  97.2027206  43.2935953
  70.3699112 104.2230606  50.5956125  69.8819542 104.7935104  51.1895180
  71.2830877 104.4883060  50.7051039  40.1950121  64.4194460  49.7619295
  39.5827770  65.0184917  49.3346786  40.9584570  64.9605989  49.9632740
  72.5062180 107.6803875  54.3536091  72.9047537 108.1846428  53.6442947
  72.2670174 106.8463039  53.9494848  42.4252319  86.1947346  41.0563660
  41.6878748  85.5934811  41.1613989  43.1851530  85.6240940  40.9418297
  34.1259980 109.6763515  79.9137115  34.9183702 110.1098824  80.2306175
  33.5274696 109.6956158  80.6604576  45.8533144  88.8414288  42.4692059
  45.4942083  88.7356567  41.5882444  46.7094946  89.2467594  42.3317766
  45.6092787  77.6857471  55.9279919  45.1268625  78.4134674  56.3203287
  46.3697863  77.5679827  56.4971972  35.9123087  82.5802994  51.9376516
  35.9398222  82.7710533  52.8752470  36.7911601  82.7935028  51.6239643
  40.5093861  84.4634438  42.0673800  40.2043676  85.0159359  42.7870703
  39.7076893  84.1682529  41.6356611  57.4311161 103.1057644  30.1722598
  56.6904497 103.6159420  30.4999304  57.8251886 103.6607456  29.4992566
  42.5196648  72.8241014  66.2405491  42.2645473  72.6397562  65.3365803
  43.2562017  73.4304667  66.1626482  46.2210464  82.6398849  73.0365801
  46.4639235  81.7146301  73.0026054  45.3587437  82.6460552  73.4520626
  57.9368830  77.4424648  54.9302483  57.4812603  76.7171860  55.3575754
  57.7699995  77.3132992  53.9965963  28.0607224 107.9868698  42.4251890
  28.4685183 108.7639809  42.0430422  27.2272968 108.3014393  42.7754450
  43.8830853  75.5181599  55.8595800  43.2484579  75.7506943  55.1817894
  44.4902134  76.2578058  55.8831167  34.0888810  58.3750868  48.0539942
  33.1838298  58.4879065  48.3444929  34.0292788  58.3207655  47.1001959
  71.1590433  81.5622520  33.3251381  71.4371395  81.3940334  34.2254710
  71.1787033  80.7029533  32.9038763  39.9451637 110.6701088  48.8196421
  39.4503427 111.4605331  48.6037493  40.5247593 110.9377003  49.5328712
  60.4642391  91.5683460  29.9598980  60.9105396  91.3065243  30.7651901
  60.7738543  92.4585915  29.7930527  44.2329693  67.0808411  66.9681120
  44.3499660  68.0104828  66.7723799  43.3273602  67.0118332  67.2703409
  35.3392196 101.5764523  46.5627432  35.9619188 101.9078922  47.2097588
  34.4807196 101.7207527  46.9607258  57.2742510  79.0624571  51.9914198
  57.0273829  79.7560692  51.3797092  57.1059656  79.4352579  52.8568316
  77.4369669  93.1888866  35.0595021  76.6478682  93.0413914  34.5381594
  77.1099377  93.4505653  35.9202075  68.1231833  95.8597088  48.0385256
  67.2552204  95.7136631  48.4147501  68.2084990  96.8121338  47.9956961
  25.6861877  79.0153742  50.0763035  25.8706927  78.1523132  49.7057390
  26.4511681  79.2124605  50.6168509  35.0854445 107.2215939  47.8157711
  35.2316475 106.4665222  47.2459173  34.1343784 107.2669506  47.9139757
  71.9253254  15.1197958  33.1776476  71.2419367  14.8906088  32.5478172
  72.2387552  14.2778373  33.5079503  46.1901093 112.5253201  47.8511858
  46.2279177 111.6934490  48.3231974  46.2907076 112.2831440  46.9306087
  54.5591354  61.5862656  40.8724260  54.9225044  60.9526443  41.4910650
  54.2857742  62.3238468  41.4178419  26.6325402  73.2626867  51.4895773
  25.9479165  73.9316368  51.4840603  26.2205696  72.4950695  51.0929966
  49.3939304  85.8274651  68.4252548  49.8639870  85.2584934  67.8157043
  49.1976833  85.2653313  69.1747379  26.0088754  77.5469398  61.7591715
  25.6571412  78.0708694  62.4789000  25.2750373  76.9989586  61.4809084
  62.1998978 109.9658108  54.9051237  62.2565413 109.2208862  54.3067026
  61.6756487 110.6128502  54.4331694  19.7106576  56.7972374  23.4674406
  19.0631199  57.1632624  24.0698957  19.5269203  57.2236013  22.6303720
  51.4199877  91.0643387  50.0581884  51.8811274  91.6143990  49.4249296
  50.6804991  90.7040119  49.5687389  41.4824057  58.2738781  46.4269018
  40.8112001  58.1954765  47.1048212  41.5251637  57.4037027  46.0304165
  31.2115121  83.4722805  50.1684380  31.4335775  82.7810001  50.7921743
  31.6561818  83.2173634  49.3600368  19.0732157  66.2007332  45.7866859
  18.3567727  66.7446089  45.4593658  18.6725533  65.6620264  46.4689589
  56.4714813 108.0269146  42.1846628  56.1972046 107.2637081  42.6931095
  57.1569633 107.6947784  41.6049814  54.0554762  89.0079308  25.4067540
  54.3975258  89.7716808  25.8714128  53.1510639  88.9283276  25.7099676
  28.0432487  57.3127937  34.7618318  27.2286797  57.5370646  35.2117324
  28.0504107  57.8731918  33.9858627  37.6429605  90.1793861  66.9015694
  37.3023915  91.0602379  66.7455482  37.4710298  90.0169277  67.8290844
  39.6722937  71.4244652  39.7957206  40.4861832  71.9020224  39.9562240
  39.0053511  71.9220400  40.2688360  39.6771574  80.9661293  41.6215658
  39.2960978  81.8428612  41.5728474  40.5274868  81.0975266  42.0409727
  49.7989750  73.4289646  37.7371597  50.2215958  74.1395092  38.2196021
  49.7766495  72.6992512  38.3562350 116.3643360   2.2630030  35.1910591
 115.7265949   2.2083360  35.9027743 117.1427631   2.6456577  35.5958438
  57.4663591  80.5697441  39.9455476  57.1985626  81.3803673  40.3784466
  57.0439005  79.8765230  40.4527092  40.2297592  95.3629684  49.7577238
  40.3789043  96.3078213  49.7927904  39.2843127  95.2653599  49.8710346
  45.4895258  70.3583670  45.5569553  46.3671207  70.6490278  45.3088236
  45.5820513  70.0636768  46.4629555  31.8470335 106.8301010  27.4063349
  31.6885924 107.6101589  26.8747044  32.2188044 106.1947346  26.7945099
  26.3172030  58.7847948  21.1654186  25.8611798  59.1864681  20.4258680
  26.6837835  57.9752779  20.8097076  44.8386908  80.1447678  69.3257856
  45.4792023  80.7725716  68.9913607  45.1772308  79.8916721  70.1845980
  37.1637392  76.2712336  42.9854250  37.6124239  77.0206070  43.3770227
  37.4380994  76.2802172  42.0684290  10.8841312  53.5487795  65.4265594
  10.1034820  53.4943390  65.9777927  11.6012716  53.2772112  65.9994411
  60.3657818  86.9464016  28.9918995  59.7677565  86.8935204  29.7374201
  60.0975800  87.7380276  28.5253954  64.3273830  91.1248302  58.0787563
  64.3333054  91.1443806  59.0357351  65.1005888  90.6113243  57.8448915
  47.4189854  92.9677963  36.2509155  47.6710701  93.8905525  36.2163305
  47.7724409  92.6539803  37.0832729  54.3499088 109.8012447  42.5401545
  55.0318146 109.2430973  42.1663761  54.6025610 110.6894398  42.2881365
  65.1806259 110.6006432  36.3451028  65.5686331 111.1620045  37.0163298
  65.7089090 110.7618618  35.5633354  22.6163340 104.3461800  63.4297705
  22.0401239 103.8185501  62.8767633  23.1749773 104.8180008  62.8120899
  47.1412325  74.3707228  46.9641161  48.0704880  74.1503620  47.0286179
  47.1260929  75.2156878  46.5146303  52.5664282  91.7621994  44.3824100
  51.9107676  91.6950130  43.6882782  52.6138210  90.8810139  44.7532177
  53.2978868  86.7438793  56.9455528  53.9796257  86.0759449  57.0185757
  52.6684284  86.5195751  57.6309013  48.1560707  91.8614674  69.1644716
  47.9778767  91.3013935  68.4089613  47.8648901  92.7315235  68.8916063
  58.0811024  72.9738808  45.4256296  58.2078075  73.3136034  44.5397615
  58.7836266  73.3737612  45.9382629  48.2247496  91.5588856  54.7411823
  49.1187859  91.8784428  54.6194887  47.7276993  92.3328876  55.0059271
  66.4891958  88.9640141  42.3292875  66.2896585  89.8969078  42.2510147
  65.7014179  88.5822487  42.7164459  66.3445425  84.7669315  31.3790655
  67.0347023  85.0474453  30.7780457  66.7592859  84.0989971  31.9250369
  63.5128736  97.1152687  39.0525460  63.7989664  97.9836082  38.7690496
  64.3146038  96.5925980  39.0693974  32.4800730  56.0121822  60.9052420
  32.6416016  56.4275789  61.7523432  31.7353773  56.4912319  60.5416870
  50.6369734  71.7533445  43.4051514  50.1241207  71.1692429  42.8465414
  51.5180492  71.3793278  43.3977461  37.7503014  71.1725950  28.0901623
  36.9387531  71.0329914  28.5781479  37.6847029  70.5796289  27.3416185
  56.6434908  85.0719643  57.7761507  55.9220362  84.6430302  57.3159885
  57.4316120  84.7511101  57.3378038  52.2840881  87.3938084  48.8561010
  52.9379940  88.0651665  48.6613798  52.0635843  87.0196819  48.0030823
  22.7202916  76.8832779  28.8247561  21.8477011  77.1287394  28.5172391
  23.2324362  76.7672777  28.0244541  63.1148624  65.7691908  40.6647587
  62.9545212  66.5513611  40.1368093  64.0620661  65.7633162  40.8026314
  59.6434927  73.7209320  39.1180539  59.2820740  72.8718615  38.8637185
  58.8784981  74.2463684  39.3524313  40.5740404  90.4627609  11.9075882
  40.3154755  90.9523678  12.6883948  41.3100576  90.9575367  11.5474474
  68.0455875  82.1836281  20.1997447  68.3753586  82.2615337  21.0949612
  68.2080841  81.2704468  19.9632609  42.8144884  80.8045673  40.6787395
  43.3286572  81.5395927  40.3446627  42.4867773  81.1068821  41.5257597
  46.8492889  76.9115734  68.6733532  46.0845566  77.1542025  69.1954136
  46.6128874  77.1501780  67.7770185  26.6461706  66.8610716  57.2572184
  26.1058044  67.2087049  57.9667139  27.3064780  67.5372791  57.1056652
  48.7011003  86.7674351  65.1208162  49.5256901  86.4989567  65.5260324
  48.0241823  86.3838196  65.6783676  67.2845268  72.7842903  56.9606447
  66.6297579  72.9470587  57.6396227  67.5456381  71.8729925  57.0932484
  55.5520439  90.1753998  32.2237873  56.4874744  90.2288437  32.0279670
  55.4950809  90.3347015  33.1659198  40.1549578  62.3350763  21.3548183
  40.7726097  61.6039181  21.3427591  39.4664598  62.0771313  20.7419038
  38.5441971  99.4860458  48.1737232  37.7810812  98.9747524  47.9045105
  38.3979821 100.3525257  47.7941656  43.7999153  75.4328203  58.6391926
  44.5313931  75.0364971  59.1125822  43.9802647  75.2441502  57.7182674
  48.1384659  60.3754807  22.4548078  48.2719803  61.0520220  23.1186581
  48.4598064  59.5719051  22.8637648  38.4722042  86.1791134  60.7284355
  39.0392971  85.7160378  60.1118326  38.6048484  85.7271099  61.5617037
  47.1757269  97.6557541  80.8861637  46.3570309  97.6286507  81.3813877
  47.7927685  97.1506500  81.4156628  32.6919103  65.3742123  22.4047565
  33.0755496  66.2238550  22.1875858  33.4418392  64.7833681  22.4736214
  28.3805943  64.6774721  39.5560479  28.8136172  65.3071356  40.1324606
  27.4559522  64.7273016  39.7985077  33.8515615  70.0384378  58.3547497
  33.2314682  70.7293129  58.5879993  34.5906615  70.1694393  58.9487219
  51.8314886  66.8084812  55.3063107  52.4992037  66.2097359  55.6408119
  52.2484779  67.6697493  55.3301954  18.5995817  81.8728065  50.0258923
  19.4784617  81.5093422  49.9177599  18.5785115  82.1833134  50.9310865
  39.4970369  86.8482971  70.8782291  39.3957543  87.5162697  71.5563011
  40.3401756  87.0465565  70.4707479  40.2997017  73.8129187  60.5680704
  40.1643801  74.3284225  59.7729778  41.0756397  74.1988277  60.9745598
  27.7034092  78.9860296  54.1599941  28.1854463  78.6701679  53.3957291
  27.1471524  78.2494688  54.4135427  55.1856613  69.8809862  50.3746605
  54.3290949  70.1620674  50.6964016  55.8129930  70.3941774  50.8838987
  49.8529911  85.2347851  42.0744753  50.4768181  85.2621078  41.3489962
  49.0129423  85.4636478  41.6767597  52.6038408  73.7173557  51.8334389
  52.0046377  73.6394358  51.0910654  52.6498461  74.6576691  52.0064306
  69.8512173  12.7853858  20.4710364  69.8907566  12.1393478  19.7658384
  70.7048273  12.7244318  20.8998394  58.2749128  86.6444016  53.0547047
  57.3192930  86.6972160  53.0699110  58.5152340  86.9076157  52.1663380
  64.4810724 106.0621166  31.6029739  64.8872995 105.4071045  31.0353804
  64.2598820 106.7843914  31.0150671  51.4550543  76.0660076  21.8764257
  51.4494848  76.7410946  21.1978531  52.3106527  75.6457949  21.7892027
  56.7821789  79.0119267  26.5042019  56.7093372  78.9467478  27.4563980
  55.9281206  78.7276268  26.1786389  55.6582499  86.7696667  51.0710955
  56.0489893  87.3961353  50.4619169  54.7154617  86.9152737  50.9924507
  43.6100531  76.7040777  42.4322414  44.1472530  77.4927330  42.5074911
  42.8084469  76.9136715  42.9115438  35.2390814  82.1882248  29.6402478
  35.5743575  81.5507507  30.2706909  35.0684500  81.6762543  28.8496733
  34.9439859  76.5968037  29.6206760  34.3291497  77.0009613  29.0084124
  35.7876587  76.6298580  29.1697240  56.0387421  85.3260803  47.9695082
  56.6711664  85.3972435  47.2545242  56.2955523  86.0121727  48.5856009
  39.3072271  54.6458006  39.9186397  39.5353818  54.1810417  39.1135430
  38.5361981  54.1857624  40.2504683  46.2516356  88.3498192  65.8805132
  46.6343832  88.9937782  65.2846527  45.3346252  88.6124802  65.9601021
  39.6389222  88.5441399  39.4160652  40.0031471  88.9342213  38.6214495
  39.4050360  87.6521206  39.1594911  11.5622008  69.9894476  56.7094469
  11.4340031  70.0706863  57.6545382  10.7121730  70.2159214  56.3320923
  24.7232318  70.2462530  78.6504555  23.9879847  70.5630875  79.1751051
  25.2545238  69.7391319  79.2642879  61.2460566 103.3754158  47.9242468
  60.6990004 103.1429768  47.1739626  61.9441509 102.7205181  47.9237032
  60.0358152 106.3810444  45.1355267  59.6365643 107.1198750  45.5948305
  59.7895098 105.6151962  45.6542206  44.1849613  87.6131630  70.3426313
  45.1045847  87.8780365  70.3232718  44.1771269  86.8132305  70.8682442
  93.9431477 102.9392719  34.5120883  93.8164425 103.6708641  35.1161981
  93.7271309 102.1624756  35.0279927  27.6253438  89.5777512  34.7988963
  28.2975817  90.2387047  34.9646354  27.6479506  89.4455528  33.8511372
  52.5512123  91.2212276  28.9108992  52.5107479  91.8014240  29.6711397
  52.8442717  90.3818321  29.2655373  56.2249851  87.6087570  56.3048315
  55.8965731  87.7220058  55.4128981  56.8368244  86.8751907  56.2434530
  59.8452806 101.0269451  57.6416016  60.5996084 100.4909039  57.8862906
  59.7465372 101.6459179  58.3650398  38.3473635  78.5483456  43.9500999
  38.4730124  78.8113403  44.8618412  39.2345500  78.4622383  43.6012173
  55.8129263  91.9982529  40.7905197  56.7658424  91.9081688  40.7824898
  55.5826426  92.0245266  41.7192364  46.8092203  78.4907150  40.5537558
  46.5931320  79.1087341  39.8554778  46.0353565  78.4856606  41.1170816
  64.1668224  91.3536644  36.3161325  64.3530607  90.4605103  36.0265946
  63.5212088  91.6790867  35.6888223  58.1737471  94.0401268  54.2779589
  57.7780151  93.1690311  54.2494202  58.5091400  94.1799641  53.3924150
  82.4009228  93.8467407  19.7881329  83.3008575  93.5336685  19.6968508
  81.8651676  93.1489754  19.4108784  71.9653368  10.4882264  49.8812485
  71.7502403  11.4155257  49.7808409  71.3328648  10.1636934  50.5222559
  39.8337483  78.6693048  47.9420996  39.7741771  77.7192545  47.8417110
  40.3052855  78.7940216  48.7657118  58.6924458  93.5434246  29.1845798
  59.1150236  92.6899052  29.2802930  57.7552605  93.3488274  29.1916776
  11.5508854   6.7599851  44.5256090  10.9982264   7.1655852  43.8575602
  11.7974865   5.9142286  44.1512871  19.2977798 107.0792294  44.7083139
  18.5496068 107.5415707  44.3305492  19.6531069 107.6877117  45.3561783
  73.9544487  95.3422546  38.2126927  73.2301569  95.4464722  37.5956273
  74.6749353  95.8367634  37.8220630  84.6349335  84.5258808  31.3603640
  83.7563419  84.5630836  31.7384219  85.2192116  84.4746876  32.1168232
  70.1151419  14.7699928  47.7218962  69.7527027  14.7486651  46.8362236
  69.3627357  14.6131456  48.2924366  26.1959672 107.2642040  25.2245259
  26.5506148 106.3752842  25.2412677  26.6844082 107.7297688  25.9034252
  45.4156494  94.2555237  66.4327097  44.9272919  93.6332607  65.8936977
  46.1386633  94.5405579  65.8739233  97.5067711 101.1989689  48.8526678
  97.5070381 101.2627697  49.8077393  98.4023285 101.4206219  48.5975647
  59.7867346  85.1324463  26.9789743  59.1652489  84.4044590  26.9841361
  59.7659874  85.4714298  27.8738999  69.0631771  90.4391479  27.3140740
  69.4562435  90.0230122  26.5468955  68.1821585  90.0681114  27.3627782
  54.4653940  89.9309444  39.9207234  54.9143934  90.7229996  40.2161646
  53.8201046  89.7521591  40.6047344  54.1005421  86.2172890  33.3649898
  53.8937807  85.3166676  33.1152630  55.0560474  86.2377357  33.4181762
  53.3679533  97.8648090  54.8869228  54.1898680  98.3222103  54.7095156
  52.7799702  98.5463905  55.2124310  75.2344275  92.8705215  41.7901802
  75.5334187  93.0642891  42.6786041  74.5782089  93.5426998  41.6063690
  93.0803299   5.8854383  35.4510641  93.2944298   5.1078671  34.9355292
  93.8025856   6.4906609  35.2828646  46.2347651  74.4995165  51.0811853
  46.1740732  75.0880289  51.8336487  46.0508633  75.0573492  50.3253841
  60.6950521  96.1306477  58.2638359  60.4676723  96.7256069  58.9783716
  59.9764681  95.4987240  58.2404900  49.5607233 100.0317478  54.9458456
  49.3398762  99.1680336  55.2943468  50.5069733 100.1053524  55.0700617
  75.3274441  69.8633957  26.2546468  76.1147833  69.8780727  26.7988086
  75.2503347  68.9529228  25.9694648  39.4856501  85.9453678  46.8785334
  38.9385462  86.3924503  47.5243092  39.3240213  85.0143337  47.0311594
  63.3729124  83.2149506  49.9678612  63.2674885  82.3172855  50.2829981
  64.3166494  83.3713436  50.0015736  53.3809090 104.6041584  61.5775490
  52.7655363 104.8416424  60.8838940  54.0762663 104.1248131  61.1270714
  40.8676052  90.7507515  37.8322077  39.9699068  90.8657646  37.5205350
  41.3792706  90.5981636  37.0377588  23.7810493  86.8015099  56.3099527
  23.4940481  86.8339825  55.3973722  23.0699396  87.2148800  56.7995214
  66.6325855  91.1362839  48.9865923  66.2955093  91.9720840  49.3091631
  66.7928123  90.6213760  49.7774363  60.2816248  84.8583317  21.5359855
  60.3928185  84.4914722  22.4130726  61.1628246  85.1255989  21.2746716
  96.0302258  10.0288975  41.9326544  95.5834198  10.8722222  41.8591785
  95.3466988   9.3802500  41.7644787  73.4564972   3.6870247  19.5950127
  74.3570471   3.5554123  19.8915172  73.0181980   4.1027129  20.3375292
  49.0451956 102.0932961  28.6609888  49.3553448 102.8983879  29.0755653
  48.5828495 102.3902416  27.8772211  39.1930389  78.2110643  31.2743163
  38.6162758  78.9503527  31.4667535  38.6278796  77.5736666  30.8377981
  57.7890825  96.1776733  33.5221839  57.3413706  96.8996811  33.0811810
  58.5014486  96.5967751  34.0050054  71.3484573  78.2091856  43.6943054
  71.9909143  77.4999523  43.7159538  71.6500092  78.7841272  42.9909325
  33.3881140  91.5698147  60.2300119  33.9554191  91.1763096  59.5670271
  33.9592242  91.7004204  60.9869814  61.5779114 100.0709057  62.3499823
  61.3098907  99.1539192  62.2906017  60.9892988 100.4507256  63.0022860
  67.0191574  89.1290379  57.9507732  67.3929596  88.2788658  57.7190256
  67.6518250  89.5110512  58.5590744  75.1164103   2.0585005  16.3750172
  75.9110928   1.5257707  16.3447976  75.4226685   2.9318345  16.6194081
  61.3881159  99.6972561  45.8770561  61.2709379  99.4504166  44.9596882
  61.6946650  98.8968468  46.3031912  70.6103086  88.2415962  21.1696792
  71.1372662  88.0340195  21.9413352  70.9053516  87.6203060  20.5039620
  41.5687227  84.8236752  60.1285505  42.3251629  84.2497063  60.0077581
  41.9450426  85.6639767  60.3903055  48.9571095  73.7320280  51.6875267
  48.0150414  73.8231945  51.8304539  49.2684364  73.2416153  52.4483156
  43.7881422  93.2555199  38.8004637  43.3803701  93.8352871  39.4437504
  43.7487316  93.7444019  37.9784751  66.8097162  63.8597488  45.5372667
  66.4610863  64.7119999  45.7987118  66.6189861  63.7998867  44.6011734
  95.1587677  93.6893272  53.0660105  95.6107903  92.8517723  53.1679869
  94.3853760  93.4818077  52.5415754  70.7718611  72.7756310  37.1691608
  70.6121635  72.3092461  37.9896593  70.5043125  72.1593428  36.4873648
  64.0415430  96.9526768  36.3750005  63.1034279  97.0918846  36.2454295
  64.1556311  96.9591713  37.3253536  99.3349743  14.9053609   5.9002304
  98.5702991  15.4178679   5.6378454  98.9736748  14.0684116   6.1921394
  59.7170067  89.3140793  28.1751132  59.5382404  89.5695972  27.2701335
  59.7695065  90.1423931  28.6519456  55.7904720  87.9031944  53.5627508
  55.0835609  87.3073387  53.3148432  55.4032278  88.7758827  53.4942389
  60.9640980 107.0749474  23.4183908  61.2409115 107.9168415  23.7800837
  60.1348352 106.8865299  23.8577628  99.7195435  17.0026934  61.9132948
  99.2937756  16.5699279  61.1732483 100.3904629  16.3828826  62.1995497
  53.2059956 107.4424076  38.0821562  53.0948877 106.6164589  38.5529995
  52.5206280 107.4313068  37.4140382  49.0065002  86.3263893  36.1360884
  49.0214014  85.8330917  35.3159261  49.6490192  85.8858490  36.6922593
  59.3875027  75.3898430  42.5784159  59.8593473  75.0358868  43.3322811
  59.2314196  74.6313047  42.0158434  56.3663292  84.4548225  36.3164210
  55.7163000  84.3726158  37.0142269  56.0361719  83.8942719  35.6142783
  57.9990482  66.4712620  40.2765036  57.9763365  65.6672239  40.7953835
  58.1195974  67.1687984  40.9208202  62.7787447 109.4098759  42.9600954
  62.5972414 110.3034401  42.6688147  63.0996513 109.5106220  43.8562536
  57.2110844  91.5316010  57.8376055  56.5843534  92.1020603  57.3926163
  57.5486755  92.0630264  58.5586119  21.3328433 101.1329746  38.6276531
  22.2408652 101.1643887  38.9288878  21.0412025 102.0443726  38.6506462
  37.0755744 102.9255772  68.0748415  36.7895651 102.0380592  68.2910299
  37.8346825 103.0764580  68.6380625  82.6582527   3.7297249  15.6042802
  81.7981529   3.3305037  15.7350302  82.6038361   4.5701978  16.0591161
  71.2981129  95.5239582  28.8526726  71.6411018  95.1109600  28.0601931
  70.6919146  94.8784161  29.2160273  27.7702928  98.6474800  24.2818499
  27.4578166  97.8444481  24.6986723  28.6865258  98.4672356  24.0714550
  41.0206461  95.2948189  77.9872799  41.4149904  95.9949780  78.5073805
  41.0420275  95.6230640  77.0883799  57.4123907  90.1128674  48.1286192
  57.2067404  90.9469604  47.7064323  57.8385162  90.3586864  48.9497280
  75.8438969  71.9266844  42.6914740  75.0161552  72.3779058  42.8572130
  75.8496571  71.7763948  41.7461634  54.9701548  82.3982239  30.7322574
  54.3338919  82.2400379  30.0348496  55.2076721  81.5244007  31.0424948
  32.1643090  81.2432575  68.7218332  32.0460606  80.5922699  69.4135380
  33.0996776  81.4456463  68.7407637  89.6062183   0.0011438  35.1758909
  90.2467632   0.1858920  34.4890118  88.8316441   0.5031189  34.9223495
  15.2727330 107.3348999  42.1942186  14.5843148 106.7387295  42.4889946
  14.8039448 108.1175900  41.9046307  64.2754555  96.1124420  51.9425249
  63.6972666  95.3507137  51.9836187  63.6835432  96.8641853  51.9700098
  67.5651979  95.9623146  42.6465654  68.3002710  96.0788822  43.2484865
  66.9203472  96.6115475  42.9274559  66.9611359  95.6440639  53.7590027
  66.3583755  96.3363171  54.0304804  66.7033958  94.8839283  54.2805433
  52.0999098  92.6137352  34.8081994  52.2173738  92.3897552  33.8850164
  51.2442970  93.0413818  34.8439193  46.5310049  91.4018250  44.7016525
  45.9105062  92.0908356  44.4639826  46.3063383  91.1783218  45.6048679
 111.7720699  13.0104637  40.7829952 110.9274197  13.2875443  41.1380148
 111.5528679  12.3288846  40.1476717  61.7434883  86.0157585  53.2509804
  60.8216953  85.7580853  53.2390976  62.1775532  85.3292942  53.7575245
  55.0525951 101.4447784  52.7194929  55.1608849 101.0739899  53.5952950
  55.5358505 102.2705555  52.7475739  60.6636524  78.3476162  42.2339439
  60.6779432  79.0678644  41.6036463  60.1805353  77.6505518  41.7901802
  55.7907391  83.6664581  44.4114637  56.4519167  84.2079926  44.8425245
  56.2864685  82.9427147  44.0284729  92.1340179   3.3822152  48.0662298
  92.7652550   2.6741660  48.1944323  91.2842274   2.9815739  48.2494497
  47.9622269  90.8095264  49.7634983  48.3981180  91.3570595  50.4165173
  47.7180958  90.0163364  50.2404451  57.7047014 109.1423416  31.2411594
  57.7695274 109.2174149  30.2891135  58.5014486 109.5593166  31.5691066
  58.7375164  71.2558556  37.4746799  59.6865225  71.3709354  37.4259043
  58.4415770  71.3192511  36.5665865  94.0830994   5.4469174  47.9363871
  93.6265278   6.2872565  47.9764128  93.3828735   4.7946176  47.9160213
  26.9536638  96.1164665  54.8383808  26.1880302  96.6788673  54.9556255
  27.6300478  96.7009640  54.4961834  37.0661569 102.2111130  48.5420322
  36.9277215 101.4854050  49.1506481  37.4601102 102.9003525  49.0768003
  71.7057133  97.9329205  32.9609752  70.9559345  98.0462456  33.5451174
  71.3223171  97.6467228  32.1319175  38.8491082 107.3307896  39.0550971
  38.1716824 107.6774597  38.4744525  38.3648777 106.9525146  39.7890282
  59.4583321  81.9570732  31.4297462  59.8188639  82.1662807  32.2914195
  58.9166546  81.1820316  31.5785027  56.4837217  88.2193851  26.5043402
  56.6109753  88.7254906  27.3067713  55.7995319  88.6912537  26.0295177
  63.4975481 101.4504910  40.2122402  62.6964808 100.9756756  40.4337740
  63.7947416 101.8199062  41.0437679  90.2711678   0.6643452  42.7884531
  91.0472584   1.1725636  43.0243015  90.6001854  -0.0172704  42.2024679
  83.8958263  99.8466110  67.1411896  84.5803738  99.2652512  67.4723148
  84.3055820 100.3059196  66.4081335  63.5054207 100.2137089  35.7841182
  62.5849342 100.3282452  36.0203838  63.9158821  99.8721027  36.5785098
  99.9256229   1.3212952  44.1129684  99.4492626   1.0710959  43.3213139
  99.6706963   2.2307117  44.2685461  62.3177767  98.3496475  52.1423244
  62.9855347  98.9638996  51.8373394  61.5030193  98.8515949  52.1210957
  98.3350945  21.1455011  50.8707094  98.1653500  21.9512510  50.3826714
  97.5146103  20.9662890  51.3299656  89.2831898  90.0663376  31.6568613
  89.4155598  90.2953243  30.7369280  89.3209648  90.9032726  32.1198368
 100.9771824   8.5187989  44.0474415 100.1485538   8.2678705  43.6392212
 101.6457081   8.0781585  43.5229015  53.0639553  88.0061817  79.8553753
  53.1486797  87.3966217  79.1222334  53.3661413  88.8445377  79.5059681
  43.9297152  93.1406403  71.5541697  44.1584969  92.2335911  71.3512993
  44.7638083  93.5538960  71.7771864  57.0996284  74.9458742  39.2668009
  56.2488222  74.9092484  39.7038603  56.8900681  74.9298477  38.3329606
  49.0092707 109.3600559  29.8453665  49.1219664 109.5790958  30.7703280
  49.6615601 109.8937988  29.3916392  33.9865017 100.1278591  51.1689806
  34.4950652 100.1807117  50.3597832  33.1395149 100.5135536  50.9451818
  39.4127774  94.3380260  59.5748138  38.8191938  94.6719360  60.2474165
  39.4818401  95.0516605  58.9406300  43.9115715  97.0781517  37.5025344
  43.2167482  97.6065159  37.1097350  43.7691212  96.1980152  37.1542668
  49.3970776  82.0283985  59.6607685  49.7521162  82.3783588  58.8436365
  50.0176954  81.3470078  59.9191666  61.6510248  99.1606522  56.1550570
  60.9458113  98.5235214  56.0411358  61.3356972  99.9486446  55.7124805
   7.9843402  -0.1390274  16.1690295   8.5072166   0.3074612  16.8349719
   7.4816197   0.5599795  15.7508278  33.5273194  96.9530773  35.4590583
  34.3856716  97.3472691  35.6142378  33.0239129  97.6397991  35.0217676
  58.3299685  90.7027817  37.3817277  57.7738810  89.9373817  37.2362876
  59.0912247  90.5559158  36.8203521  42.0088530 106.6928101  47.3898172
  42.7104330 107.3033524  47.1634197  41.2036943 107.1594048  47.1656752
  58.4414768  88.1695557  45.8922529  59.2827415  88.3362103  45.4671288
  58.1586981  89.0276623  46.2083435  40.0068140 100.9575081  36.1971402
  40.8150625 101.4499569  36.3401771  39.6851683 100.7641029  37.0776916
  56.8035030  98.0782986  31.8464708  56.5977430  97.4457836  31.1581278
  55.9502029  98.3889580  32.1491385  66.7156315  82.4196720  46.3480043
  65.9427404  81.8574142  46.4002705  66.4597416  83.1237888  45.7522106
  70.4723549 107.9468727  17.2239292  70.6821871 107.4632740  16.4249730
  69.5173979 108.0122852  17.2204816  59.1934586 100.8034515  49.5997143
  58.7073898 100.7222939  50.4203129  59.7938061 101.5340519  49.7482061
  54.5158672  67.2224569  50.8518314  53.6272717  67.1235609  51.1936712
  54.5794058  68.1474447  50.6139421  57.2908735  87.5574398  49.1484165
  57.5702333  88.2902718  48.5996437  58.1020451  87.2197151  49.5281219
  63.3107090  93.6371994  30.7501078  63.9909315  94.0657234  30.2305984
  62.4914360  94.0151691  30.4304671  49.7101927  99.1660595  34.5337176
  49.0963078  99.5391846  35.1662946  50.5545473  99.5554733  34.7610068
  52.5116158  96.6684246  52.4878073  51.6218996  97.0174026  52.4344540
  52.9235649  97.1693707  53.1917858  52.0403433 100.0270557  56.4005804
  51.5588617 100.7085896  56.8695354  52.9043579 100.0176716  56.8124390
  16.5039647 111.1275959  55.0325727  17.3772776 111.4193249  54.7709465
  15.9092033 111.5991879  54.4493961  54.6665812 109.2511463  62.3522186
  55.0611973 108.4513569  62.0045853  54.1652536 109.6089268  61.6194916
  69.9474239  75.3266478  36.6478801  70.3622818  74.5147800  36.9394255
  69.0161943  75.1978874  36.8280697  84.0088844  98.2954502  32.5083709
  84.0196323  98.8537979  33.2857776  83.3479691  97.6302052  32.7003980
  65.9815550 111.6455650  46.8683529  66.1893940 110.8018208  47.2697735
  65.1986742 111.4752483  46.3445950  80.8048344  88.5846329  21.4681602
  81.7387009  88.7942600  21.4546824  80.4695415  89.0345001  22.2436810
  73.4045506 104.6806526  56.5460587  73.3976936 105.3402138  57.2397184
  72.5252247 104.7195339  56.1698866  79.6007442   9.9493045  34.3067265
  78.9368105  10.5656505  33.9976239  80.3268337  10.0508606  33.6913300
  99.9610710   5.1717633  59.3965816 100.2451801   4.4319862  59.9334669
 100.2141380   5.9449190  59.9009800  80.6521893 110.3506088  58.0995464
  81.2818718 109.6391201  58.2158089  80.7560349 110.6153965  57.1855783
  32.6838946 106.2382221  32.0426917  32.1953797 105.4199314  31.9533300
  32.8850126 106.4965534  31.1432195  90.5182266   6.9376034  25.0007176
  90.4848671   7.3896194  25.8438087  89.8128700   7.3332924  24.4887304
  58.0867290  97.2973156  47.8977394  58.2303286  96.5147114  48.4298420
  57.3854446  97.7679062  48.3482742  31.2116098 105.0393963  65.2996302
  31.4382434 105.5149555  66.0988235  31.6706920 104.2033291  65.3800821
  67.0834541  91.8027306  57.2556543  67.3497248  91.9492817  58.1633186
  67.0608616  90.8502388  57.1634912  86.0539150  97.6421833  56.7956209
  85.2837372  98.0084324  56.3609648  85.9688473  96.6962147  56.6766977
  68.5170507 112.5458431  36.9526029  67.8404284 112.2968102  37.5822043
  68.2539606 112.1193790  36.1370420  66.3198519  87.3113918  38.4768701
  66.0359764  87.0099068  39.3398643  66.7819643  86.5619278  38.1013966
  36.5155220  86.0029507  35.2684855  35.7880330  85.4404259  35.0028539
  36.1332893  86.6020107  35.9097743  67.7640343  71.5542984  39.1295958
  67.4844551  71.4224672  38.2236767  67.6461983  72.4918127  39.2826009
  88.6111641   2.5287992  17.9578817  88.0619907   3.2996660  18.1007314
  88.6508846   2.4360788  17.0060110  66.1598635  93.1586742  55.0935411
  66.4478493  92.5189114  55.7446861  65.2934408  93.4329128  55.3940964
  72.1516895  84.5703411  38.1952906  72.4962950  83.9502144  38.8378811
  72.0088577  85.3757763  38.6923909  50.5042648 108.6949539   3.1263718
  49.5472956 108.6784554   3.1395054  50.7574558 107.7843571   2.9749200
  53.5906744 107.3921490  10.8319438  54.4561768 107.1406460  10.5096471
  53.0748129 106.5871525  10.7861650  52.3413754 103.3544350  35.7511139
  51.6765499 103.7635708  36.3050532  52.8847075 104.0831470  35.4511142
  62.0726442 103.6657238  63.3431864  62.3012686 103.3143997  64.2037296
  61.2196875 103.2789326  63.1454706  59.6267271  86.8963337  50.4637194
  60.2192068  87.5555229  50.1022482  60.1912212  86.1484814  50.6594133
  62.6509476  93.9890289  51.3789082  61.9131041  94.4793797  51.0164595
  62.4054146  93.8250542  52.2894335  66.9939899  78.1808424   2.9219428
  66.4822388  77.6648283   3.5448980  67.7779675  77.6552725   2.7626106
  83.9286518  77.3877811  34.5756721  83.4057999  77.4853134  35.3715062
  83.4785843  76.7070913  34.0753341  62.8309059  93.1820393  40.9382010
  61.9498348  92.9182720  41.2034798  62.9496908  92.7861309  40.0748491
  58.5190058  64.6964455  31.4569998  57.9050207  64.1504383  31.9480515
  58.4283543  65.5669212  31.8446708  34.5717168  80.4134846  27.5468516
  35.4429674  80.0257492  27.6293921  33.9699960  79.6900797  27.7224731
  57.5818777  70.4605198  46.5884972  57.9442787  71.3099051  46.3366222
  57.4607754  69.9966097  45.7600307  37.5967336 103.7384129  45.1682758
  38.3828592 104.1257381  44.7832823  37.6328683 102.8172016  44.9107790
  72.0640278  66.9974422  50.5344677  71.2999344  67.3608017  50.0868559
  72.6939392  66.8281269  49.8339128  65.1995325  74.9963427  41.1772537
  64.3483591  75.4287052  41.2465143  65.3490400  74.6213818  42.0451736
  35.4699516 105.0768089  46.3011265  36.2360096 104.5490837  46.0755444
  34.7822547 104.7642803  45.7132244  44.2109585 110.2586365  43.0067539
  44.9273491 110.6620121  42.5165510  44.0202379 110.8814049  43.7081909
  49.0981340  81.0394669  50.3342247  48.8172245  80.5463886  51.1050606
  48.9446306  80.4444981  49.6002817  66.5536213 109.2002392  59.2211533
  66.2889910 108.4993172  58.6254072  66.0338163 109.9560356  58.9476490
  61.9477797  72.0244312  46.4591551  62.4573755  71.2252188  46.3257408
  62.5435400  72.6139832  46.9214678  74.4838905  86.2713337  40.0600767
  74.3030548  85.6431484  40.7593012  74.7657156  85.7324123  39.3209100
  55.7444143  91.2449646  17.4206102  55.4335356  92.0825291  17.0769978
  56.3385677  90.9152031  16.7464650  72.2439241   5.2331632   4.8661011
  71.6684484   5.0161517   5.5995625  71.8740320   4.7572693   4.1225043
  77.9875135  98.3111763  32.8934979  77.8347588  98.7115097  33.7494349
  77.6236153  97.4294281  32.9731083  63.8516474   5.5117822  69.5242453
  63.0139303   5.9407562  69.3497658  64.5004416   6.2106687  69.4414711
  63.8238382  72.3657942  40.4065084  63.2684803  72.8859329  40.9872580
  64.2451906  73.0100679  39.8376441  24.1796446 101.9530582   4.6043825
  24.8129320 101.4005470   4.1462255  23.8761473 101.4142704   5.3350192
  74.8024416  86.2313271  17.4090385  73.9442968  85.8766174  17.6414263
  74.9821854  86.8853188  18.0844736  65.8527708  85.1351166  45.6211185
  64.9496984  84.8912430  45.4181099  65.9089041  86.0617065  45.3876162
  33.8515091  94.7194004  57.3235178  33.7540483  95.2087402  56.5066433
  33.5259652  93.8430309  57.1180344  84.0550613  94.0812588  60.2553844
  83.5363197  93.8449764  61.0243511  83.6094761  93.6523247  59.5248413
  56.4721584 104.9031544  27.9374337  57.2270489 104.5201778  27.4905491
  56.6041946 105.8483219  27.8635001  52.7146912  92.1988106  31.8792534
  53.3474159  92.9170609  31.8799853  53.1770372  91.4719009  32.2964668
  31.7632294  85.1660442  36.7335439  31.0503173  84.6118259  37.0510888
  32.0743895  85.6261158  37.5131202  57.6151371  85.6167030  45.5800390
  57.9559326  86.4769459  45.8251572  58.0320930  85.4243279  44.7401762
  44.0825748  87.1458721  73.5556793  44.0148783  87.3923016  74.4781351
  44.8993683  87.5477409  73.2597303 117.5162315   0.9493028  23.3401918
 117.2755527   1.4716786  24.1053247 118.4208012   1.2005839  23.1535411
  50.7280970  91.4232159  42.1705866  50.7201576  92.1804237  41.5850925
  49.8120642  91.1502361  42.2215319  38.2135677 100.0672436  25.5615330
  38.7212825 100.4040813  26.2997723  37.6912856  99.3569469  25.9342599
  87.0903778  31.9954753  76.1718988  86.6036034  32.7735329  76.4437580
  86.8705463  31.3340497  76.8279648  68.7393379 109.0816689  69.9110365
  69.3984795 108.8694191  70.5718756  67.9039097 108.9992619  70.3709221
   7.3059839  26.7118812  53.2879257   7.6315099  25.8134508  53.3434963
   8.0720961  27.2292948  53.0397558  28.5735822  84.5650005  41.6900444
  27.9750395  84.8473835  40.9984970  28.4426212  83.6186028  41.7484617
  40.3387785 100.4464626  58.4122801  39.6501875  99.7831631  58.4581852
  40.1737642 100.9064484  57.5892258  55.9149599 109.5164204  55.7728672
  56.7759037 109.3858051  55.3754425  55.7248878 108.6867142  56.2106848
  56.9920969 104.8831749  33.4415793  57.7771902 105.1524258  33.9184093
  56.2660694 105.2273369  33.9618397  81.2783718   9.2179960  44.8096371
  81.4261532   8.2723689  44.7961569  80.7600021   9.3906355  44.0236950
   2.9909849   2.9313216  36.4756298   2.1197152   2.9460385  36.8717432
   3.4250727   2.1799013  36.8795705  98.4486580  99.9884892  37.2060251
  98.4774399  99.4700432  36.4019036  98.5768032 100.8909607  36.9138598
  48.1461906 106.5528679  23.3854651  48.1386805 106.9513607  24.2557383
  48.7148857 107.1216297  22.8665018  56.5111971 106.6132164  46.1277437
  56.4202356 105.9236431  46.7853546  57.3906374 106.9639206  46.2685108
  65.6660271 104.0749264  29.8311710  66.6119862 104.2095184  29.8884082
  65.5703211 103.2357693  29.3807364  51.5375090 110.1871204  58.0643749
  52.2466850 110.6510925  57.6193619  51.2349606 110.7990360  58.7353897
  75.0386095   9.9113667  55.7347250  74.6264315  10.4097903  55.0290966
  74.4935226   9.1298389  55.8259916  53.2650280  82.0106220  55.9352970
  53.8849545  81.4002895  56.3345718  52.5733900  82.1115685  56.5892696
  52.5896025  89.3842506  45.8377266  53.1915903  89.5437241  46.5646410
  52.6976871  88.4546471  45.6367636   7.9432142   1.8680604  12.7985203
   8.4338266   1.9037713  11.9773901   8.4034252   2.4742123  13.3790517
  57.6410151 107.9568100  39.0193725  57.4067783 107.9631233  38.0912971
  58.0326080 107.0950508  39.1617084  75.3417587 107.9841423  36.0869765
  75.6028366 107.0853233  35.8864880  75.9894848 108.5274696  35.6381178
 100.8484745  20.4075742  54.8982334 100.0044346  19.9573660  54.8644638
 100.9857178  20.7264137  54.0061903  79.9740314  93.1221962  42.7714443
  80.4952335  93.4676170  42.0466948  80.2478123  93.6374569  43.5302448
  73.4872866  92.8956604  22.9922175  72.5744915  93.0552578  22.7523017
  73.6082458  93.3793068  23.8093400  29.7970510  99.6564484  75.4456425
  30.3214717 100.4535103  75.3688049  30.3154945  98.9849758  75.0022840
  92.6023769  15.5574119  59.5858240  92.0491409  15.2668297  60.3108883
  92.1396542  16.3104665  59.2183638  73.7254477 107.7623272  20.7456350
  72.7921629 107.8635788  20.5586600  73.9288664 106.8678951  20.4720759
  46.7814636  96.1676025  44.3971395  46.9629669  95.4916859  45.0501490
  47.3705292  95.9632969  43.6708498  95.5143833   6.9559783  61.7941380
  95.6163597   6.4470655  60.9898710  96.3470078   7.4178016  61.8925381
  76.5057850 102.9605675  41.3947201  77.1312523 102.7417564  40.7039642
  75.7939100 103.4103298  40.9395552  31.3403869 110.5751133  65.9376431
  32.2526145 110.3860855  65.7177687  30.9343410 110.8016491  65.1009607
  43.7872219  95.0700474  48.9910889  44.5337772  95.6659698  49.0524721
  43.0337906  95.6030655  49.2449999 103.6479473   7.7394646  55.2946615
 102.9492283   7.2573960  55.7369661 104.4557762   7.3388940  55.6158924
  68.5775852  76.8455553  42.8981304  68.1778574  76.6052055  43.7340021
  69.3646193  77.3334646  43.1405210  53.8294888 102.5522041  25.6608534
  54.1739178 102.4854565  26.5514398  54.6073103 102.5574970  25.1030040
  58.7488222  98.9532948  73.6727619  59.6045113  99.3154430  73.4428072
  58.5664940  98.3138371  72.9842186  94.2952728  11.8193495  49.8409033
  94.6399879  12.1956635  50.6507063  94.2924786  12.5481224  49.2203236
 108.3135033   7.5611091  56.4309692 107.5611019   7.0809990  56.0851145
 108.7397575   6.9429684  57.0246410  39.3283749 111.0099506  34.9883986
  39.1123843 110.2384472  34.4646072  40.0604963 110.7293606  35.5374861
  52.5110579  86.4947605  46.3523006  52.7780151  85.6750011  46.7681742
  51.9291925  86.2245560  45.6419134  36.3740277 104.6998978  52.3033190
  36.3210940 105.3730392  51.6248512  35.6519961 104.9022007  52.8982782
  15.7981801  13.1684399  48.9999676  16.0582650  13.4163570  48.1127691
  16.6211176  13.1219709  49.4866371 105.8941936  16.0876822  43.1540871
 105.3231144  16.6514504  42.6322985 105.6717587  15.1989698  42.8767014
  51.9808245 111.7362976  40.9535742  51.2787628 112.0381641  40.3771877
  52.7245522 112.3000050  40.7406616  88.1912613  10.0730085  56.3690376
  88.8582802   9.4080293  56.5396690  87.4200726   9.5747656  56.0983849
 101.6621494   5.9293348  40.3666306 102.6101208   5.9088576  40.4976082
 101.3651276   5.0582784  40.6298256 105.1291943   1.3069786  68.6277676
 105.8089447   0.6686796  68.8439798 104.3541336   1.0001215  69.0982389
  98.5673237  -0.2230450  71.7999220  97.7340603  -0.3666349  72.2485685
  98.5023975   0.6667527  71.4531136  65.3158903  10.9830809  82.7492046
  65.2801847  11.1290514  83.6945343  65.5640888  10.0631177  82.6581192
  97.1708870  25.4177809  36.7141390  97.9422092  25.9420443  36.9296455
  97.3600769  25.0584388  35.8473563 110.1119614   7.6433724  67.7849579
 109.2250633   7.3267400  67.6135445 110.0781250   7.9768175  68.6815643
  73.8948536 101.2522602  53.7398481  73.1780338 101.8707466  53.5989094
  74.4818163 101.7006111  54.3486929  70.8731651  96.2984180  48.9829826
  71.2686157  95.7263470  48.3252621  70.0020170  95.9294891  49.1286564
 114.4033623   0.4021465  26.2812662 113.6046124   0.4098728  25.7538438
 114.1632080  -0.0798906  27.0725918  38.6167669 101.5501118  52.9558229
  39.3353653 101.1707020  53.4616756  38.6007500 102.4710941  53.2161427
  69.6949148  85.5796051  46.8693733  68.8377523  85.6987762  47.2784042
  69.8469067  84.6351337  46.9025755  85.6502914  96.4930820  39.3636680
  85.0652695  96.0679531  39.9907565  86.4960289  96.5277863  39.8106122
 100.3845406   9.9879634  38.3194160 100.1292133   9.0654957  38.3098173
 100.1593971  10.2896523  39.1994858 101.6215134  26.3597918  41.6105366
 101.4532948  27.3020911  41.6133070 100.7548714  25.9620285  41.5271378
  96.2593555  20.6430745  34.2645597  96.3507462  19.6908772  34.2299628
  97.0707703  20.9469509  34.6713614 101.3964176   1.2094690  31.4703035
 100.8408260   0.6070469  30.9756994 101.8316841   0.6561367  32.1188402
  70.1023388 107.1340561  43.3347321  70.1021767 106.7327213  42.4657297
  69.5193529 106.5805244  43.8543081  50.3791189  80.1587391  52.7802038
  51.1559629  79.6606350  52.5259638  50.6769562  81.0679150  52.8107595
  65.8060312 106.7192173  58.0968380  66.5117884 106.0821724  58.2077837
  65.6726837 106.7664909  57.1501493  99.5320225   0.4090319  29.5296931
  98.6874485   0.6035610  29.9360085  99.6082401   1.0457403  28.8190413
  62.0768976 107.2338104  31.3978314  61.1693239 106.9894028  31.5789580
  62.5932121 106.7060089  32.0069933  78.0399036 104.5169830  52.6374197
  77.5892973 104.0316963  53.3285618  77.4445391 105.2347279  52.4215126
  72.1485472 107.3972321  12.0677006  72.4203444 106.7763519  12.7436256
  72.2138882 106.9045162  11.2496579  42.9193449  93.5578632  33.9432001
  43.5184193  92.9185104  33.5577488  42.1018505  93.4424782  33.4588194
  55.3245115 106.9845486  56.2300444  54.3754864 107.0528221  56.3345432
  55.4415369 106.5303135  55.3956556 102.8734303  13.5841203  48.5060453
 102.3057747  14.3006766  48.2222414 103.1334972  13.1486773  47.6942635
  89.7563076   8.9312518  66.6703987  90.6610489   8.6242777  66.7291594
  89.6501064   9.5096475  67.4256516  83.0979538  98.6284637  35.5234480
  83.7630272  99.3166542  35.5059218  83.3305264  98.0898190  36.2797523
  52.0968866 110.1307106  48.4069633  52.4626207 110.5269051  47.6160812
  52.3474264 110.7278633  49.1118574  69.4440174  94.1307163  44.2174292
  69.4328260  95.0392246  44.5186329  68.5239887  93.9197254  44.0584898
  97.1851254   3.0851257  26.7901826  97.2192764   2.2441196  26.3343573
  96.9779396   3.7206566  26.1050487  56.9623137 105.5338478  63.9629889
  56.6766024 104.6204472  63.9456940  56.1610556 106.0324478  64.1230297
  65.5199957 106.2360573  55.2668381  65.9612370 105.8458424  54.5123386
  64.8261261 105.6143284  55.4864597  72.5841951 101.2707710  39.7430468
  71.7908907 101.3358307  39.2113829  72.8754425 100.3661156  39.6289968
  98.4978390   3.6069867  38.7601304  98.4950638   4.5337898  38.5208392
  97.8330517   3.2119739  38.1959939  65.7835245  93.5352802  50.1907969
  66.1427879  94.4221401  50.2160597  64.9104881  93.6411953  49.8128796
  85.5340672  33.3979750  54.7896814  86.1601257  33.3153105  55.5090189
  85.5355453  34.3312287  54.5769262  54.7107792  97.8540230  49.2954922
  54.3654776  98.4685612  49.9430656  55.3952980  98.3447933  48.8407326
 100.7613182   9.0219402  74.2008066 100.0274277   9.3485057  74.7213745
 101.0791683   8.2605791  74.6861219  63.4595203  94.5781422  44.7458887
  63.3404207  94.7320652  43.8086843  64.3597031  94.8523521  44.9211502
   6.0589725  32.3012614  37.0953083   6.9110018  31.8736863  37.0089507
   5.4814386  31.6178966  37.4354553  44.4124269  96.5678310  67.5798321
  43.6889505  96.3380432  68.1629372  44.6888685  95.7334614  67.2008371
  65.6291914  92.1902752  31.5665960  64.7416544  92.5308704  31.4548135
  66.0565615  92.8209782  32.1460772  43.0714035 111.3249588  49.1814232
  42.7607870 111.8683720  48.4572315  43.9880896 111.1468697  48.9711857
   6.8071520  14.1687834  53.9499903   7.6880318  14.3195641  53.6071348
   6.3075894  14.9368429  53.6729479  63.5140228 109.3107700  65.0524807
  63.4365892 109.8202705  64.2458534  64.2413282 109.7172832  65.5236530
  40.2729273 105.1840878  52.6601076  39.5290852 104.6764374  52.3357201
  39.8822236 105.9852409  53.0090189  46.8176365 108.1560707  55.1179647
  46.4832163 107.8945732  54.2600536  46.0879517 108.6203671  55.5281162
  38.7386012 105.6961250  55.9685373  37.9119706 105.7654572  56.4461422
  38.8423491 106.5479374  55.5444241 107.3770237   4.6472406  41.4669609
 107.4416351   4.2110318  40.6173849 108.1802750   4.3997478  41.9249725
  53.4265947 104.1115475  47.6723957  52.8927040 104.4584560  46.9576597
  52.8466749 104.1268349  48.4337664  49.3293476 104.5518112  58.3880615
  48.8204813 104.2884731  59.1548300  48.7854910 105.2089977  57.9538345
 100.7139015   8.2256824  34.5561934 100.7485771   8.7741572  33.7724805
 100.6412125   8.8472366  35.2804971  57.2450209 105.4980183  67.8710985
  57.8676081 105.9643745  67.3133183  56.6360712 105.0861740  67.2580814
  66.4364862 109.5599842  62.9776382  66.4064789 108.9749718  63.7346649
  67.1254349 110.1900005  63.1889629  62.1418047 109.0729809  57.6487064
  61.3130188 109.4308567  57.9669333  62.1438456 109.2700005  56.7120075
  62.4792051 108.0488873   5.3101981  62.4669504 108.9714050   5.5652314
  62.2817945 107.5744915   6.1177909 114.9267960  11.5105844  67.3927927
 114.2867470  11.2278700  68.0459690 114.5011520  12.2384751  66.9397640
  71.8724585 102.7054405  52.4834633  72.5037384 102.3977852  51.8330288
  71.1164618 102.9877377  51.9686747 104.4497490   0.0322149  58.6425495
 104.5039368   0.7017030  57.9605818 105.3484154  -0.0609071  58.9587116
  96.5358543  13.3312416  44.6606970  95.9397507  12.7713275  45.1580811
  95.9814072  13.7412333  43.9968204 107.7315426  10.1395345  39.8650503
 107.6063538  10.4733253  38.9767122 106.9227314  10.3682292  40.3230429
  93.3592796  92.7164173  24.2533278  94.3153286  92.6759148  24.2298079
  93.1625080  93.6395359  24.4126248 110.6872940  16.0246766  58.9665890
 111.6199398  16.2018466  59.0891123 110.2482319  16.7999005  59.3165731
  89.7542286  12.9732859  23.9359713  89.4588470  13.5351777  23.2195473
  88.9467812  12.6703346  24.3512821  63.6339045  95.5202293  42.2520494
  63.5647106  94.9539661  41.4834261  64.4207096  96.0422325  42.0949268
  92.1104813  10.0737846  48.8268423  91.4017105  10.6738281  48.5948420
  92.7393723  10.6178474  49.3008852 118.5073090   5.4161549  59.2976284
 118.9484596   6.0137898  59.9013281 118.9349461   4.5719022  59.4411516
 103.2518005   1.9782142  53.9412880 103.4454060   1.9655374  53.0039597
 102.8250504   2.8226599  54.0863132   0.8979709  12.5429356  29.6761560
   0.9211678  13.3517718  29.1648078  -0.0194869  12.2709906  29.6527267
  70.0030804 108.8413715  45.7940149  69.7845745 108.3416843  45.0073767
  70.8547640 108.4995079  46.0660410  67.8908396  87.7630138  44.6551275
  67.2274446  87.7192593  45.3437662  67.7658796  88.6242676  44.2565584
  43.5370636  96.6619587  45.9980583  42.9744625  97.2506428  45.4949141
  43.7828255  95.9764481  45.3768444 107.5856876   9.4244474  68.4710979
 108.2106686   9.3425405  69.1914558 107.8206730  10.2474642  68.0425453
  65.8696985 108.2099724  75.1766968  66.1715221 109.1097832  75.3010511
  65.2066612 108.0837822  75.8554459  86.6155529  21.8511963  43.5615826
  86.1361980  22.0659637  44.3617868  86.3819695  22.5478959  42.9481649
  86.0094070   8.9550984  78.4260225  85.4298019   8.2084650  78.5771275
  85.5093575   9.5338714  77.8505230  82.0588684   5.5021709  20.5046058
  81.9914055   5.2525550  21.4262199  81.8920326   4.6913451  20.0240231
  80.5934906 111.6917896  46.6139698  80.6065273 112.3300266  45.9007263
  79.8392677 111.1342907  46.4227486 108.6294842   2.6530764  56.8765402
 109.0757084   3.0161688  57.6415825 109.3311882   2.2729446  56.3480091
 110.7631779  26.0461235  89.6921539 109.9201775  26.3685012  90.0109959
 110.6262779  25.9032321  88.7556362 106.5751266   5.5760640  72.8110933
 107.4518204   5.4629368  73.1783104 106.6921806   5.4522759  71.8691778
  52.7195597 101.9721317  16.2469983  53.0798197 101.0984612  16.3991106
  53.4814405 102.5513840  16.2623930  53.7052250  99.5411110  46.1048269
  54.0864992 100.1573277  46.7302418  53.5499668 100.0636768  45.3180265
  73.5713387  88.5211658  28.4251165  73.9542627  88.9496231  27.6595950
  73.4968424  87.6009655  28.1723022 117.5968552   5.1560849  49.2098284
 118.1628704   5.8891755  49.4515753 118.1792831   4.3965238  49.2011642
  61.8037701  99.9191189  59.5455170  61.3481569  99.0894890  59.6881962
  61.9854307 100.2471638  60.4262066  53.2562733 105.2698612  39.6756506
  53.3443308 104.7524452  38.8751721  53.9277983 104.9206829  40.2616215
  64.1000509  34.7375631  65.5216742  63.3795929  34.1916132  65.8364868
  63.7854385  35.0934958  64.6906757  53.8566780  86.0139275  29.4514441
  53.7837744  85.3844261  28.7340593  53.7754011  85.4839230  30.2443624
 107.2104073   0.8518328  40.8320093 107.2539425   1.7557779  40.5202055
 108.0937672   0.6653602  41.1500311  56.6311264  97.7922344  62.1352625
  56.6367340  98.2841682  62.9563618  57.1762371  98.3095455  61.5424061
  67.8777933  99.4877148  37.6518917  68.1354380  98.6986542  38.1285954
  67.2441244  99.1798592  37.0038772  93.2716846 103.5513783  18.7452161
  93.4258461 104.0281296  19.5607972  92.5046158 103.0082893  18.9265764
 105.4424763   4.6909678  51.2176657 105.6976700   5.3464013  51.8669081
 105.8329582   4.9991953  50.3998947  72.2798872  92.0492077  46.6769505
  73.2078362  91.9278526  46.4759064  72.2503138  92.8532600  47.1954632
  84.9994183 109.0174484  53.6896086  84.9101734 109.3573284  52.7992439
  85.6300926 109.6037197  54.1076708  74.7986269  89.7721577  37.4372458
  74.4946766  89.3775940  38.2546616  75.4946709  90.3721237  37.7051973
  64.2854261 102.5373840  42.9364920  65.1461601 102.8894329  43.1632614
  63.9719391 102.1318913  43.7449026  91.7864323  13.9053011  46.3891411
  91.4260960  14.7915864  46.3593388  92.1872520  13.8387263  47.2558260
  65.7885695  98.0340958  43.0504084  66.1573839  98.5625458  42.3426390
  65.0384808  98.5407162  43.3617401 107.8894711  14.3940437  39.6271420
 107.2154999  13.7519622  39.4041467 108.1072903  14.8118436  38.7939358
   6.7357874  13.0174649  29.8489738   7.0642453  13.2115352  28.9710855
   7.2033012  12.2239113  30.1096153   5.7931310  24.8188043  65.3995895
   6.4542252  24.2161775  65.0589657   5.0836098  24.7834969  64.7580576
  47.0592690 101.0527897  55.7701874  48.0031300 101.0078239  55.6174469
  46.9444418 100.7189178  56.6598892  85.3305149  91.8308544  34.7347164
  85.5393791  91.8043232  35.6684732  84.6075439  91.2117672  34.6333170
 101.6249371   3.9792845  54.7747660 101.5858650   3.9023954  55.7280684
 101.1873341   4.8087752  54.5832396 104.0807915  23.5991526  32.2234726
 103.6630344  22.8254366  31.8452239 104.1748524  24.2043138  31.4878321
  96.8400669   1.0610086  30.2642298  96.6415882   0.6481411  31.1046934
  96.2584209   1.8203151  30.2270937  71.9674444 106.9727325  39.6559644
  71.7112732 107.0683765  38.7386537  71.1930227 106.6077709  40.0841045
  60.9320641 105.9992599  26.9578266  61.6969633 106.4698601  27.2890282
  60.5245781 105.6247616  27.7388120 100.9422016   0.5793489  59.6508169
 101.3720322  -0.2559105  59.4669199 101.2925911   0.8470959  60.5003881
   1.5599999  23.1197214  42.6967049   2.3793510  23.2961106  42.2343397
   0.8790317  23.4560227  42.1141100  73.1125307  98.6075306  42.6517439
  73.4533358  98.3097076  41.8083096  73.8667965  99.0029716  43.0887079
  56.0018158 104.6110153  70.7441187  55.1533842 104.4440842  70.3336048
  56.4209795 105.2557182  70.1741266 106.9391155  12.7647293  49.3670893
 106.3538456  12.0950282  49.7209072 107.7815247  12.3203719  49.2715311
 113.7574863  19.5450473  92.9423714 114.2299747  19.7896314  92.1466541
 114.4091797  19.0934849  93.4786606  31.8136001 101.1366367  50.2974367
  30.9231329 101.2245178  50.6374025  31.7711830 100.3850174  49.7062588
 112.4059200  19.3998706  49.9994707 112.3942566  20.1289058  50.6196356
 111.5272427  19.0242434  50.0548458  73.7313271 102.7132416  50.5005741
  74.5979834 102.6427937  50.9008026  73.9042330 102.9997540  49.6037769
  71.3633156   5.9998035  45.4966307  71.8835831   6.8006074  45.4313135
  72.0077229   5.2925670  45.4685736  59.3442106  96.3263226  52.5182199
  59.1119671  97.0543098  53.0946970  60.1307821  95.9498024  52.9128933
  89.3641567 107.4278259  42.1390390  88.4969521 107.2015572  41.8028831
  89.7641373 107.9458237  41.4405203  78.5247278  96.2334728  46.5443182
  78.2764387  96.9449615  47.1345472  78.5430527  96.6373825  45.6767082
   1.9817095  11.3447523  50.7477331   1.3944642  10.6055832  50.9058571
   2.8273863  11.0565329  51.0912323  41.7124033  90.8342648  65.8201838
  41.6104364  91.5884972  65.2397013  40.8998632  90.3393745  65.7148457
  48.6925030 105.2528286  61.0497379  48.5234976 106.1929417  60.9876156
  48.7082958 105.0739288  61.9899368  63.7417221 106.3590336  41.9538212
  63.1404161 106.9625378  41.5174198  64.4052839 106.1621857  41.2926340
  94.8249435  18.8826287  40.7968616  94.9833298  19.8123527  40.6332827
  94.3670082  18.5763288  40.0141048   3.3595544   5.3010547  40.4690456
   4.1960421   5.1134443  40.8948612   3.5499462   6.0289866  39.8773527
  74.0402079 109.9542809  65.2874804  73.9792919 109.4265556  66.0837412
  74.8563910 110.4443932  65.3868198  81.4710999 104.7186279  82.3618031
  80.9963036 105.0747871  83.1127644  80.8094597 104.2344379  81.8678188
   7.9260659   9.8247862  52.7364254   7.4966729  10.6225157  52.4274254
   8.7880522  10.1163960  53.0333662 112.4745178   0.5886343  40.3451252
 112.7446747   1.4792615  40.1214457 111.8341923   0.3565357  39.6725583
  75.1184893 100.1706505  58.3325434  75.6625271  99.7139168  57.6909447
  75.7146358 100.7887745  58.7553453 106.2083912  25.8743143  45.9273052
 106.5917492  26.7485142  45.8563042 106.7773247  25.3192496  45.3939772
 108.5699844   4.6072203  51.0865974 108.1401634   5.1209396  50.4027987
 108.8736725   3.8180211  50.6380796  46.4654827  96.2357044  37.9619551
  46.4213610  96.0722065  38.9040565  45.6131124  96.6128540  37.7441335
 116.6365337   5.8564317  51.5893078 117.3818302   5.5773544  52.1211672
 116.7336369   5.3733313  50.7686853  84.9335957  96.2225342  63.2677078
  84.3469048  95.4877949  63.4471083  85.4244137  95.9530926  62.4913502
  68.8945293  95.7416153  36.9300199  68.4563351  96.1594105  37.6714134
  68.8594675  96.3953304  36.2316871  46.4096308 110.8313179  66.8479586
  45.6391573 111.3616848  66.6447210  46.0525942 110.0078678  67.1806622
  31.0484934 107.7830029  56.9758034  30.1984954 108.0940247  57.2872543
  31.6859651 108.2323551  57.5307322  24.9902678 103.6778545  49.6377230
  24.5339155 102.8503609  49.4853067  24.5267081 104.3114281  49.0900707
  61.8040705  92.8291512  53.7230206  61.8011761  93.2989311  54.5570087
  61.6004276  91.9237232  53.9574385  63.0970192 104.5055962  33.5018563
  63.6188555 104.9244976  32.8174281  63.5113382 103.6523533  33.6304927
  79.1218758  99.8888206  42.6451826  78.5716772 100.3992081  42.0510292
  79.9503613 100.3673172  42.6748800  55.1109409 103.8541222  41.2148237
  55.6732464 103.3707714  41.8201447  55.7191420 104.2753410  40.6074524
  47.3435497 108.7626266  25.1944184  47.3499727 108.9756584  26.1275911
  46.8006849 109.4435215  24.7970390 114.9527645  10.5017483  79.8300743
 114.7097683  10.1879871  80.7011318 114.2680359  11.1306739  79.6024036
  15.8427012   7.2442460  60.6920862  15.3347993   7.9864717  60.3644180
  15.2282286   6.7573100  61.2412214  91.9068336   3.1959239  55.4978037
  91.4018250   3.9915341  55.3298712  92.8194046   3.4845507  55.4861116
  84.4682980  94.2259693  31.6899705  83.9566708  94.0600014  32.4817562
  84.4180870  93.4073830  31.1963892  45.3927135 109.7204208  48.6239910
  45.3369713 109.3412018  47.7468824  45.8121967 109.0413570  49.1523170
  81.6486549  11.7604995  39.0359163  80.7989407  11.7815518  38.5957170
  82.1016026  11.0124850  38.6466289   7.8298968  23.8897514  43.1524134
   7.2689492  23.7103415  43.9069891   7.4642795  24.6855116  42.7659893
 105.5415821  25.9229040  16.3244307 106.0345078  25.6923914  15.5369556
 105.5107021  25.1128030  16.8333673  88.0538845 109.3474007  27.7840090
  87.3460484 109.7669506  28.2730603  88.8547802 109.6770763  28.1915951
  51.8591833 108.5079861  42.3342228  52.6264668 109.0800571  42.3185873
  51.3327837 108.8332081  43.0645370 110.7596684   6.1918604  51.6776323
 109.8145008   6.1659145  51.5286207 111.0391045   5.2794307  51.6026449
 106.7182636   3.9361963  64.0185595 107.4121761   4.3311775  63.4906197
 106.9260025   3.0018473  64.0268183  58.2651997  99.3102837  60.7559586
  59.1611481  98.9769173  60.7072639  58.3662510 100.2597618  60.8230686
 102.0193672   9.4549137  71.5224552 101.5752029  10.1167107  70.9923840
 101.7037678   9.6097833  72.4127626  83.7971592  98.0443478  45.1343679
  84.1128254  97.1647358  45.3414154  82.8454781  97.9526234  45.0883913
  93.2781219  26.4680576  77.0354939  93.7741470  26.8084550  76.2909603
  92.4126434  26.2715173  76.6769600  12.8478372  32.1333694  64.6164274
  12.5833046  32.9485106  64.1900492  12.8017938  32.3269272  65.5527210
  88.1964874  96.9460869  40.5259800  88.2422352  96.6163540  41.4234304
  89.0527344  96.7398357  40.1510906  79.3114138   8.1965685  38.9292216
  78.9616156   8.0206633  38.0557632  79.9189043   8.9252096  38.8016677
   3.0054647   9.8408008  45.1367092   3.0518100   9.8218501  46.0925961
   2.0781142   9.7094500  44.9392271  72.2202635  95.0876141  47.0593357
  72.3830557  95.0163937  46.1187744  73.0927610  95.1121235  47.4522448
   7.0808530   6.6132253  56.7054892   7.0771265   5.9697837  55.9968281
   6.2381560   7.0604312  56.6273832  94.3678856   1.2165805  26.5179563
  94.5560169   2.1317804  26.7259240  93.7914276   1.2579599  25.7549286
  91.7579460  92.6916313  65.8627367  92.7135181  92.7386856  65.8326435
  91.5018368  92.4510670  64.9723625  22.6722956  15.7268846  70.9374428
  22.7457047  14.9054885  70.4514837  23.5558558  15.8895552  71.2677288
  90.3526878 105.0936794  60.0589037  89.4819069 104.9047565  59.7092295
  90.7438278 105.6885529  59.4190836  70.8658981 109.9707508  42.7002382
  70.4881144 109.0916443  42.6739931  71.7965937 109.8369408  42.5209951
  11.6694510   2.0119551  44.9926901  11.5792036   2.5849593  44.2312717
  10.7703984   1.7818502  45.2271843  73.1836271 109.4554043  36.6789865
  73.8783455 108.8073158  36.5624452  73.5226202 110.0526333  37.3457932
  67.8354740 101.7422676  14.3053257  67.9580021 102.6799202  14.4537389
  68.2701588 101.3233852  15.0481689  93.5307884   7.1378177  75.8844185
  93.5812569   6.7351919  76.7513514  92.6531696   6.9204676  75.5701208
  72.5957537 107.7563953  46.0613203  73.2743454 108.0206966  45.4401159
  72.9774714 107.9308796  46.9215965  85.1623821 100.0801277  34.5436692
  85.3621483 100.9907532  34.3266678  85.6132507  99.5692539  33.8713980
 109.2938900  13.4384835  42.0351982 109.3771458  14.0986443  42.7233028
 108.7121773  13.8383913  41.3887358 107.3396206   4.1860515  32.2932577
 107.0881653   3.8622898  31.4282846 107.5416565   3.3964121  32.7951384
  28.2528543   6.9819224  21.8249035  28.6652446   6.3041151  21.2894177
  28.8103056   7.7512920  21.7084908   3.8417843  11.3115788  57.4633694
   3.3865517  12.1473360  57.3608780   3.6072963  10.8135104  56.6803169
 100.5690765   0.9213528  54.4947386 100.5134106   1.0511543  55.4414606
 101.5062618   0.9555371  54.3030024 113.8387680  13.9843988  75.8124971
 113.3882523  13.1402111  75.8371830 113.8816261  14.2598796  76.7281961
 114.4220734  16.0139823  52.9910183 113.7325668  15.5609095  52.5056982
 113.9642620  16.7068529  53.4670115  22.1458769  20.7001257  58.9507580
  21.7893600  19.8866522  58.5938406  21.3752031  21.2119007  59.1964865
 113.8863373  35.5449653  57.6338434 114.3453979  34.7755694  57.2969055
 113.5926247  35.2852869  58.5070753 114.8056316   3.1956485  61.9567871
 114.7631550   3.6811975  61.1329699 114.9669170   3.8653046  62.6214504
 116.6793060   1.2640624  54.2056799 117.2404957   1.2364587  53.4307337
 117.0992851   1.9017255  54.7829437 100.3878593   0.3580492  75.1682949
 100.0888538   1.2661329  75.2153254 101.1569023   0.3293268  75.7374859
  16.8964159  13.2953227  46.1821747  17.3663652  12.7847993  45.5228233
  15.9851635  13.2836807  45.8894062  99.1057491 108.2411957  44.2275810
  99.5440006 109.0196228  44.5714235  99.0251160 107.6585197  44.9827051
 105.5920124   4.9786809  60.7898426 105.3970051   4.5757931  59.9437428
 105.2511501   5.8699930  60.7149458  84.8280811  95.7943439  43.1469870
  84.5362854  94.9537086  42.7942657  84.8769379  95.6533909  44.0924883
 101.8024921   0.8578472  62.1322966 102.6789665   1.1967137  61.9500971
 101.8697739   0.4783871  63.0084896   8.7785679   3.9000794  23.9381170
   9.0653539   4.8015589  24.0841317   8.0244982   3.9802638  23.3540082
  95.6330776   7.8199208  44.3398952  95.1345062   8.6365497  44.3119621
  95.3911686   7.3639256  43.5338020 104.1181946  31.5465236  29.5535493
 104.3243599  30.6556630  29.2705345 103.1792927  31.5277243  29.7388315
  99.6141720  22.7131820  37.0007610  99.2270470  22.7802753  36.1279130
 100.5208015  22.4509120  36.8411493  48.2259226  99.7904110  43.4306812
  47.5924015  99.4878864  44.0813446  49.0665674  99.7715282  43.8880491
  90.6426716  16.4150226  47.2455025  90.9478760  17.2782719  46.9664288
  89.7128391  16.5396225  47.4355221   3.4691581  15.2153909  73.2444048
   2.5209054  15.0899923  73.2080173   3.8296360  14.3296039  73.2035542
  92.5297832  28.3651447  51.6250229  92.7035236  29.2514205  51.9421291
  91.6113758  28.2080555  51.8442917  99.9682617  21.4712715  29.3546510
 100.5784798  22.2086906  29.3630099  99.1018486  21.8769956  29.3853951
  92.1152306  96.5300751  22.3508978  91.5948391  97.3235607  22.2251844
  91.6625214  95.8625793  21.8353891  76.0884714 110.8213615  43.1416512
  75.2701807 110.7172966  42.6560593  76.7263651 110.3044224  42.6496172
  13.7888837  30.0106907  39.5439053  13.7898183  29.3867660  38.8179946
  13.1113064  30.6460571  39.3127561  97.4788857   7.4202007  58.3063984
  97.4802589   8.1091547  58.9709044  97.0743752   6.6692609  58.7407923
  90.8903408 101.7010975  73.3174753  91.3467216 101.0960293  73.9021444
  91.5583324 102.3375511  73.0626106 118.3263969  19.3430150  46.0821915
 119.0045166  18.8049722  46.4907217 118.2740688  19.0201235  45.1826143
  75.6389284  92.7623844  48.9150095  76.0841179  93.5375309  49.2573309
  75.0899124  92.4620628  49.6393156  89.7878933 105.8247280  51.9322729
  89.1409016 105.7041264  51.2372255  89.4368553 106.5382481  52.4650860
 100.8657455  15.0733471  63.3572674 101.3318920  14.4371092  62.8149223
 101.0491085  14.8014677  64.2565393  13.6422384  12.5901091  50.3174019
  14.4522941  12.6870763  49.8167658  13.0858028  13.3074069  50.0139332
  89.3126106  14.8738325  43.4313345  89.4323254  14.8789978  44.3810081
  88.9741325  13.9997435  43.2373476  98.6225319 108.6773586  78.9218187
  99.0789604 107.8374577  78.9715862  98.6021519 108.8838673  77.9873848
 110.8168697  31.9698000  37.8524041 110.0366497  32.2659230  37.3835826
 111.2124348  32.7731800  38.1905508 118.9132309  16.5418136  68.9684916
 118.6836052  17.4080610  69.3048191 118.0997658  16.2085748  68.5897303
  23.1640387  15.6230187  57.2207689  23.9528966  16.1640036  57.1851158
  23.2646894  15.1051068  58.0194378  63.2172394 109.8043633  47.6641846
  64.0826273 109.6330166  48.0356312  63.2516956 110.7206249  47.3893785
 103.2634449   7.1836084  62.1013117 103.2146454   8.1286150  61.9570398
 103.9520264   7.0767474  62.7575588  63.3975554 103.4626675  60.8056498
  64.2335749 103.9245892  60.7429075  63.0614138 103.6923885  61.6719437
  41.2384701 110.0771236   8.1467783  42.1680164 110.0666809   7.9185843
  41.0707855 110.9768200   8.4272307  84.5393658 104.1652966  54.5308256
  84.7471809 103.4619617  53.9157152  84.3581772 104.9234962  53.9753723
   3.3953819   3.3853945  60.5292368   3.8158476   3.9246544  59.8594332
   3.8670164   3.5940972  61.3356113  89.6038342 107.5241280  65.5422974
  89.2044735 108.1375313  64.9254704  89.1585827 106.6932774  65.3760099
 101.9584751  12.0990765  34.6228147 101.1525536  11.8374705  35.0681090
 102.1822548  12.9453254  35.0101376  59.9656868 100.5825901  64.7581530
  59.8528957 101.5330887  64.7663307  59.8157215 100.3157997  65.6651068
  91.5955734  14.8243904  62.2015238  91.3360977  13.9290023  61.9843006
  91.9952774  14.7542906  63.0684471 101.9124699  27.2599792  24.2243814
 102.3911285  27.3929620  23.4061933 101.5012932  28.1060147  24.4015479
 114.5667839  28.0935740  30.5242586 114.4472885  27.2210431  30.8992815
 113.7198639  28.5234547  30.6432295 103.7702179  18.3691227  53.2199812
 104.3316555  17.7043438  53.6188316 102.8819084  18.0301440  53.3306122
 102.6587486   1.5156315  44.7235537 102.9315567   2.4329081  44.7031975
 101.7159748   1.5424573  44.5602036  77.7749872  98.3601093  38.6723495
  78.4843206  98.6255360  38.0870056  78.0685711  97.5275230  39.0422606
  79.2379808 108.6658096  54.1596794  78.8448811 107.8858852  54.5513868
  79.4487429 108.4034729  53.2635832  73.0034637  95.4218864  44.4303131
  73.8970947  95.1691818  44.1983652  72.5455236  95.4794121  43.5917330
 115.5441189  15.0558043  48.8401031 115.7314014  15.6240189  49.5872927
 114.6577263  14.7324753  49.0013361  96.3981056   4.9886021  53.7801504
  96.1152077   4.2548221  54.3258381  96.1331558   5.7672763  54.2697430
  93.6871243  21.9728923  34.2962623  93.8875961  22.8063822  34.7220993
  94.4667530  21.4366126  34.4405103 111.4393044   2.4107191  59.2715263
 111.8096924   1.6352382  58.8500214 111.9409657   3.1418994  58.9110565
  96.3974476  14.4349647  33.6521173  96.5254021  13.6195576  33.1673789
  97.2561073  14.8578095  33.6404443 102.8812408  18.8377404  47.4167585
 103.6751556  19.2218530  47.0447493 102.1837521  19.1010761  46.8164253
  10.7532966  20.4856682  26.2052679  11.3173974  20.5069757  25.4322410
  10.6064987  21.4068198  26.4201117  81.5831089 107.6744175  58.1792164
  82.4749660 107.3458099  58.2925034  81.2859344 107.2824574  57.3580647
  70.5511284 104.7706985  55.7211876  70.2803564 105.5984688  56.1183071
  70.5273819 104.9379730  54.7790146  85.5514908  32.7632785  42.6877069
  85.9847927  31.9758391  42.3584270  84.7771358  32.8601098  42.1334314
  83.3830929 102.6238728  52.1726656  83.7105560 103.1051159  51.4127922
  83.8852310 101.8089581  52.1746731  96.1917019   2.1778159  59.9280310
  97.1296120   2.3644400  59.9696302  96.1275005   1.2362999  60.0882101
  61.6630888 112.0688534  36.9129944  62.3009968 112.3767567  37.5568104
  61.2503862 111.3114643  37.3280382  75.8386421 110.7937431  48.7598610
  76.6311026 110.2816963  48.9212799  75.9629011 111.1574173  47.8832006
  64.1799736 106.8931103  37.8201747  64.5653486 106.7644596  36.9534731
  64.7131634 107.5803280  38.2197666  84.5449638 109.3025303  58.0128145
  85.1749802 108.5821247  57.9945707  84.3743229 109.4479656  58.9433813
 106.7399979   8.0680317  37.8023529 105.8166027   7.9719013  38.0354452
 106.8886185   9.0136111  37.7975225   5.7215798  34.3126297  68.7092972
   6.2648404  35.0528693  68.9797544   5.8153176  33.6754131  69.4173908
 108.2008934   3.2590416  39.1423225 109.0798569   3.6365876  39.1757560
 107.6730156   3.9203659  38.6948514 102.4645424  15.0743043  44.0614986
 102.7806282  14.3665981  44.6231699 102.6363468  14.7682250  43.1709766
  27.1305132   7.0450020  29.8463583  26.4935350   6.4834744  30.2881479
  26.8070889   7.9341751  29.9912691   4.5302105   7.9236090  35.4597020
   5.3997982   8.1508255  35.1304269   4.0000349   7.8022116  34.6720409
  78.0972195 110.7254601  45.8809996  77.2712088 111.2015629  45.9663153
  78.4386635 110.9894180  45.0266171  76.0469151 103.6943436  46.2188530
  75.6388283 104.5120525  45.9341526  76.7236805 103.5236549  45.5638075
 113.9739227  24.2618704  38.7400913 113.0887890  24.1254330  38.4022236
 114.0794659  23.5898614  39.4135118  63.9926529 108.9601517  26.1415052
  64.6087027 108.2419205  25.9971023  63.8800955 108.9918041  27.0915365
 101.0845470  19.3657458  63.0505037 101.4807606  20.0036693  62.4569511
 100.6323051  18.7503409  62.4734592  13.5508180  20.1683879  46.7538404
  13.0439115  19.9878168  47.5454664  13.1406748  20.9480262  46.3794422
  69.8955202 111.5483570  20.6433201  70.2068663 112.4532127  20.6666327
  69.1624784 111.5630722  20.0279641  17.3009551   2.7296609  19.4783545
  16.8174660   2.2121213  18.8344419  17.2473884   2.2182183  20.2856874
 109.7358799  38.2930470  22.3722529 109.8406315  39.1527367  22.7799225
 110.3539276  37.7300310  22.8383541   6.6436213  22.0378900  28.3620691
   7.2754693  22.4145031  28.9745736   7.1261346  21.3398004  27.9192543
  11.0633886  17.5084162  44.8074341  10.5169594  17.4692690  44.0225029
  11.9259560  17.7708220  44.4859457 102.5329685  24.6104312  48.6345434
 103.3301735  24.8278403  48.1514025 102.1016502  23.9453125  48.0980635
 109.1134930   7.8880739  39.3925929 108.5880375   7.5161409  38.6842155
 108.7494373   8.7631035  39.5268416 115.1741886   7.0600766  53.6109686
 114.2828655   7.3914391  53.5015631 115.4429722   6.8002480  52.7297878
  98.1672668  37.7015352  48.3269405  98.4799004  36.8549299  48.6459255
  98.2664108  37.6507425  47.3762417  12.8663599  13.6835742  34.0133548
  13.1347454  14.5123720  34.4099593  13.1634259  13.7451899  33.1055069
  77.4537039 108.8111687  25.1421547  77.3116589 109.7353935  25.3467441
  76.8034744 108.3465481  25.6690049   6.2900257  15.2483845  47.5223780
   6.1897719  14.9813211  48.4360838   6.0453510  14.4726038  47.0178699
 103.4543705   6.8381143  35.4384398 102.7945518   7.3801941  35.0059867
 103.6679840   6.1621165  34.7952986 109.2865372   8.0974782  73.8357687
 108.7875271   7.9104990  73.0406237 109.4536018   9.0392208  73.7977982
  95.5178738 111.8577957  33.8642907  95.3365040 111.3699341  33.0609632
  96.1957455 112.4860001  33.6151314  37.2382236   7.6112831  16.5001786
  36.5479636   8.1334490  16.9089758  37.4183464   8.0579454  15.6729662
  90.3894615  99.4221020  50.6207991  90.1268864  99.2844009  49.7106743
  90.7830811  98.5905361  50.8849573 118.5256290  25.3907800  62.6783371
 118.1596375  25.4418278  63.5613298 117.9527950  25.9458208  62.1491718
 114.5699787   3.4684879  52.7437401 114.3805981   2.8638011  53.4611845
 115.1318264   4.1369134  53.1358624  46.8532085 105.1347637  93.5677814
  47.0262432 106.0120773  93.9092731  47.6353121 104.6312618  93.7936592
 107.8036499  18.9999044  48.3171844 107.1269035  18.4438598  47.9310942
 108.4638119  19.0862525  47.6294708  10.5515456  28.0216980  59.1000748
   9.8034143  28.4267616  58.6613750  10.5077529  28.3481860  59.9988079
 115.7012272   6.9374365  22.1224403 115.2499008   7.4805540  21.4762497
 115.7879734   7.5016105  22.8908253  23.5363245   4.6240824  38.5688543
  22.6312947   4.4659096  38.3002782  23.7876105   3.8312289  39.0426397
  78.0584526  97.1227551  10.2841353  78.6598396  97.8645611  10.3496099
  77.3254108  97.4537849   9.7651899 118.4178448   8.9018220  57.4133921
 118.0417824   8.6496234  58.2567215 117.6667786   8.9542687  56.8223095
   9.5699757   2.2818293  47.9807997   9.5415014   2.3732531  47.0283985
   9.5612866   1.3365330  48.1310368 104.0818787  17.5630009  41.2393761
 103.2420444  17.3475027  41.6449165 104.2675495  16.8207884  40.6641483
  12.9284489  29.8375893  31.9172931  13.7077463  30.3462458  32.1413374
  13.0189443  29.0273285  32.4188113  34.5735812  22.7622032  30.7433796
  34.5325804  22.5229788  31.6692948  35.1750708  23.5062575  30.7146478
 102.4249554 105.9173203  58.7397623 102.9262638 106.3764095  59.4136715
 102.3389149 106.5537739  58.0300045  42.0558214  24.3164492  38.9337111
  41.8348837  23.3856177  38.9648867  42.2500849  24.5470643  39.8421764
 117.0516491  28.9429927  31.6865897 116.3310623  28.8319468  31.0663891
 117.1769619  28.0733395  32.0663667   0.3371409  22.5484896  20.6260109
   0.9355715  22.5029492  21.3716936   0.3933028  23.4566975  20.3289628
  17.9035246  15.5734146  67.4586821  18.1644738  16.3828027  67.8980303
  18.6931181  15.0323606  67.4646378  77.6776600  97.8506660  26.7864943
  77.5131989  98.7646294  26.5544033  77.0547199  97.3531914  26.2566924
  20.0416875  18.7864149  38.6164284  19.3785942  18.4438741  38.0170918
  19.5675015  18.9457738  39.4325066  12.0014513  48.6880875  53.1099272
  11.2818170  48.1324387  53.4092855  11.7075455  49.5803261  53.2936668
   4.1406098  42.6765633  60.7539654   3.2473487  43.0185652  60.7907486
   4.3666062  42.4983072  61.6668653 114.6386337 109.8269939  20.9354019
 113.7936687 109.5197773  20.6069446 114.5330334 109.8467445  21.8865538
  16.2543869  10.7445765  15.7186031  16.8830442  10.0632226  15.4803193
  16.7947865  11.5062249  15.9285843  85.6156540 107.8020763  43.7511015
  86.5524864 107.9658890  43.8594723  85.2128410 108.6685181  43.8080931
  28.3940625  18.8993323   4.7226968  27.5040841  18.5526395   4.6596372
  28.2757688  19.8278868   4.9227607  17.0966077  10.0001442  23.1669736
  17.6155877   9.6800375  23.9048243  17.5436151  10.7994819  22.8886294
   8.9398080  19.3796206  22.8958178   8.1389451  19.8022020  23.2061028
   8.6615831  18.5019100  22.6341987  91.3845348 111.6755867  39.5965743
  92.2619629 111.4537430  39.2849064  90.9158611 111.9584846  38.8113666
   5.8425534   6.4033782  51.2173367   6.3696551   7.1612066  50.9641695
   6.2407166   5.6682146  50.7512522 116.7823124 101.8425083   6.0478288
 116.7305374 101.7104435   6.9944596 117.4272346 102.5413132   5.9384066
   7.3747367  30.6588387  52.1275139   7.0965326  31.5586329  52.2984028
   6.8358672  30.1263213  52.7125597  18.6391044  34.7896814  55.4329348
  18.6814177  35.6856537  55.0987530  17.8565192  34.7762775  55.9839439
  92.7698517  95.1957226  42.3989010  93.2871437  95.6571484  43.0590057
  92.8068733  95.7610798  41.6273880 117.6980782  42.0667553  37.6821232
 117.8440857  41.7610598  36.7868781 118.5194874  42.4930763  37.9265976
  10.4492211   2.9110825  59.1989756  10.1255095   2.8861120  60.0994301
   9.7439462   2.5243175  58.6801004  16.6239178  22.1340251   5.6770706
  17.3600030  21.9828415   6.2699902  15.9362125  22.4953532   6.2362975
   1.7168544  20.4317975  41.4004421   1.6930997  21.1932087  41.9800282
   1.6414721  20.7988262  40.5196238  23.5994816  40.8232212  39.1727996
  22.8112149  40.3177118  39.3711162  24.3220139  40.2258158  39.3659091
  17.5433123   6.5932536  44.5101023  16.9665456   6.4676112  45.2636194
  17.5446653   7.5393343  44.3646336  89.0149498  93.6418438  43.7331820
  88.9500332  93.6762714  44.6875572  89.9453640  93.4966278  43.5614872
  32.3554468  33.9071751  45.5739450  32.0527291  34.2081952  44.7172213
  31.7290354  34.2804408  46.1940384  18.6762762  27.6959634  44.0868044
  18.2939959  28.4305429  44.5668936  18.7932956  27.0130992  44.7472858
  27.8944588  47.3315287  29.2120600  27.0319223  47.7438307  29.1644096
  28.0026484  47.1086693  30.1366472   0.4285898  17.7305269  28.6339188
   0.2779490  16.8070829  28.4319496   1.3770339  17.8393102  28.5642600
   7.3243552  29.4972062  22.7088714   7.9164290  29.9742675  22.1274137
   6.6704583  30.1458383  22.9694986  26.0073304  36.0553050  23.3863187
  25.4701948  36.6788244  23.8751340  25.5080438  35.8833885  22.5879526
   1.1874715  13.3432555  54.3258619   0.3829153  13.2185495  54.8292208
   0.8983991  13.3644378  53.4136009  41.9247961  41.3677883  26.7204666
  41.5435219  41.4941072  25.8516121  41.1772585  41.4019299  27.3173332
 115.0841999 109.3379593  24.2162108 115.6745243 108.6185360  23.9921904
 114.2809486 108.9067268  24.5078373 102.9098511 100.9667778  49.9839592
 103.3991146 100.1705170  49.7770214 103.1903172 101.1968231  50.8697653
  68.5159731 111.0199261  44.0797567  69.2244482 110.4746151  43.7378025
  68.9449787 111.6078377  44.7014809  25.3984022  12.9784083  18.5091054
  24.8165154  12.6145411  17.8418410  25.5230284  13.8904512  18.2466614
  15.4090345  11.5712285  32.4423504  14.8279500  12.3316574  32.4244976
  14.8553586  10.8402050  32.1679783   0.3144965  29.5182872  59.4470358
   1.2708825  29.5048857  59.4841528   0.1026985  30.3529787  59.0291023
  77.7027130  97.9174519  48.5790443  77.2102642  97.2455502  49.0505075
  78.4208393  98.1463528  49.1690731 108.9565372  28.6171603  40.1638508
 108.4886837  29.4507384  40.2137756 109.8816013  28.8624239  40.1454926
   5.1343405  32.1545148  53.5210800   4.3909469  31.8481159  54.0404224
   5.1511115  33.1011200  53.6621094  22.2607613  32.4220896  55.7974911
  22.1134162  31.5517402  56.1676455  22.9819679  32.7827573  56.3132572
  18.5432148  15.4692292  46.7873335  19.2311311  14.9786019  47.2370958
  17.9429817  14.7977567  46.4631748  21.3028526  30.3286481  38.4226513
  20.8810568  31.0138535  37.9041815  21.2261105  30.6314468  39.3274474
 106.9599056  17.2449708  32.0275640 106.5626335  16.4845145  31.6031647
 107.3746490  16.8907797  32.8141809 117.0865631  14.2440927  62.5240040
 118.0385399  14.3231165  62.4629402 116.7724800  14.4454944  61.6425180
 109.7554779  26.2333369  51.8441916 110.1173115  25.4215717  52.1996403
 108.8828754  26.2968254  52.2324753  62.6962757   0.8152321  27.4494815
  62.3170376   1.5249868  26.9311595  63.0455732   0.2047288  26.8002439
  45.9232426  94.4010258  96.9495296  45.6209421  93.6509418  96.4374447
  46.1773109  95.0513172  96.2947083  11.0344374  30.2780366   3.9671111
  10.7701230  30.3492451   4.8843348  10.3092122  30.6666875   3.4780005
   8.7481862  32.8239965  40.3285837   9.3942714  33.1305385  40.9648561
   9.1252416  33.0475974  39.4776654   9.8408282  26.6762900  33.0454969
  10.4584146  27.4050784  33.1062055   9.0958053  26.9484186  33.5813308
 101.1410999  20.3918195  51.8946457 101.3997078  19.7587037  51.2249327
 100.1946068  20.4832649  51.7850351  66.5816545  78.8361311  84.2678261
  66.0867500  79.3712473  83.6473846  65.9480047  78.6117744  84.9492836
  29.8205757  11.4742684  42.9721642  30.3945875  11.6970444  43.7050438
  29.7813058  12.2736490  42.4471092  15.5580127  15.8859289  52.3338270
  16.0463786  16.5008175  51.7864323  14.6970594  16.2907422  52.4392653
  17.9126453  22.9648066  33.7141156  17.7410507  23.8641620  33.9933062
  17.1191311  22.4848747  33.9512467  12.2410810  27.1123505  46.0837507
  11.8386006  26.3224602  46.4447403  12.0294070  27.7993131  46.7158175
  99.6922970 110.8903599  39.1582394  99.8159981 110.0983620  39.6813679
  98.7423801 110.9914398  39.0976405 108.2510471  78.9862204  41.3892698
 107.5779152  79.6303701  41.1697006 108.0236149  78.2154083  40.8693123
  23.8601542  21.8816614  32.7017760  23.7322807  22.1255994  31.7850566
  24.0172267  20.9377170  32.6787710  33.4186864  11.7086208  25.3809333
  34.1310358  11.6752768  24.7424388  33.8252068  12.0545626  26.1754751
  20.1705265  23.6588645  58.4385967  20.7476902  23.4930921  57.6931858
  20.7533503  23.6567879  59.1978979  15.2040493  19.5856416  23.8498569
  15.6261659  20.3525352  24.2370582  15.8366776  18.8775206  23.9705944
  26.4306021   6.2552780  44.4249249  26.1877298   6.2258244  45.3503323
  26.9044089   5.4371035  44.2754936  34.5482969  20.8116436  16.2363088
  35.1159477  20.5704498  16.9683123  34.4185567  19.9947500  15.7545578
   7.8477055  24.6606588  26.7639947   7.2710907  24.8749137  27.4973726
   7.9079264  25.4730606  26.2613940  87.4362564 106.4847183  29.6072006
  87.8591442 107.1982288  30.0850177  86.7534828 106.9135571  29.0913057
 107.9490089  18.1430817  44.0131330 108.1861687  18.7086391  44.7480726
 107.1816158  17.6603806  44.3202782  56.5992117 108.4443665  52.1482182
  57.4688339 108.3090973  52.5246429  56.7130232 109.1730881  51.5381050
 109.5971489  43.6139107  59.0979242 110.1534081  42.8415012  59.1988325
 108.7182808  43.2599926  58.9616823  10.6102884  10.4255855  52.2453499
  11.1141026  10.0863218  51.5055513  10.7751465  11.3684261  52.2351408
  17.0212650  25.7386184  47.4660826  17.6063406  26.3002777  47.9744673
  16.3599288  26.3358021  47.1164608  11.3463378  18.8250768  21.7059755
  11.6719067  17.9292834  21.6177177  10.4657233  18.7253225  22.0676351
  17.5015795   6.6355824  37.6828694  18.0538821   6.1828440  38.3202243
  17.4094737   7.5218570  38.0325341   0.1601389  29.7870946  43.5683489
   0.4913500  29.8716950  42.6742697   0.2509955  28.8558626  43.7703037
  26.8280816  10.8803487  38.8573956  27.2449064  11.0741699  39.6969938
  27.2669291  11.4581668  38.2330775 113.4552097  37.0392823  15.8666039
 113.3528328  36.5335631  16.6728282 112.8308964  37.7594876  15.9547234
   2.0718025  31.4545178  30.5410075   2.1044086  31.2107253  31.4660645
   2.9542804  31.2772727  30.2153563   4.3738949  12.0851707  47.2531748
   5.2648538  11.7559528  47.3716640   4.0720484  11.6732883  46.4435625
  57.8371429 100.0069809  95.0548267  58.0138206  99.3408298  95.7190990
  57.7277565  99.5122910  94.2426968  19.7022247  23.1631207  23.8826227
  19.0197742  22.8022861  24.4485664  19.9624074  22.4305320  23.3241868
  19.5234716  16.5712357  30.2529526  20.4306030  16.5407574  29.9489498
  19.0630281  15.9434438  29.6960855  13.1126332  26.7156458  24.8216891
  14.0203607  26.9373298  24.6140385  12.9083145  25.9787750  24.2459226
  35.0259519   8.1742346  53.0684233  34.6394753   7.4460846  53.5549068
  34.8556256   8.9430600  53.6126041  12.2166824  32.0830798  41.9220352
  12.2316635  32.9517937  42.3237133  12.8195441  32.1511102  41.1816597
  46.8983173  14.4906139  32.9311895  46.2110758  15.0737894  33.2534242
  47.7153635  14.9279833  33.1707215  40.6131792  21.5844202  36.1510420
  40.2108574  20.8782554  36.6567111  40.0539637  22.3440814  36.3135982
   5.3466272  49.0295601  44.1885996   5.4079205  49.2821026  45.1098490
   4.4067335  48.9596128  44.0214491  32.7972198  44.0560579  49.1886234
  31.9064355  44.3910074  49.0859413  33.1484270  44.0327358  48.2984877
  31.5719724  25.4604316  16.0658026  32.2518778  24.8259068  16.2923717
  30.8240843  25.2148175  16.6103840  47.3108530  21.6579890  40.6723785
  46.5327263  21.3747025  40.1922750  46.9694567  22.0169210  41.4914322
  15.8904612  44.3327951  24.1204572  15.5681419  45.1182508  24.5624995
  15.8906913  44.5637798  23.1915474  23.4022260  25.7220292  56.8270969
  24.2172360  25.8019471  57.3226833  22.7135229  25.8928847  57.4695396
  17.8693938  16.8443632   3.8218972  18.2032228  16.9156361   2.9276320
  18.5038996  16.2855148   4.2705858  16.5290034  12.0972562  36.7606139
  17.0434487  11.3889003  36.3735604  15.6404555  11.9535494  36.4349413
 107.4527264 103.8588810  19.9543273 106.7075253 103.3811283  20.3185749
 108.1492805 103.2052422  19.8926795  59.3865013  36.5556002  29.7618628
  59.1848564  35.9572482  29.0424562  59.2358685  36.0382938  30.5530238
  26.9773674  25.0016022  18.2705879  26.4433241  24.2083549  18.2282794
  26.3975382  25.6606221  18.6523187  78.2243681  96.3343716  83.0183697
  78.2619715  95.4718971  83.4318447  78.1161833  96.1483288  82.0856762
  21.7623353  28.4981513  41.1441612  22.6526737  28.3507848  40.8250761
  21.3461685  27.6373386  41.0989857 116.7413425  26.1781478   8.2259160
 116.0823154  25.5056858   8.0535531 117.0974636  26.3911605   7.3633409
  38.5256839  33.9509583  19.0152705  39.0428209  33.5925078  19.7365987
  37.6178551  33.8684320  19.3072736  87.2050190 108.3982849  91.0040855
  86.9949150 107.7939796  90.2921104  87.7338791 107.8795719  91.6102886
 113.6364555  39.1757154  22.4751306 113.2993889  38.7872243  21.6678548
 114.2570972  38.5291004  22.8111601   3.1685445  18.6284769  26.5833497
   3.4383899  19.4289672  26.1332035   3.2346442  17.9448640  25.9166145
  19.4041085  27.4398518  20.9951377  19.1333663  27.0857239  21.8422055
  18.6856616  27.2188926  20.4024792  24.0361452  63.0119181  16.5673125
  23.5925841  62.1693945  16.6654897  24.9679279  62.7928638  16.5620518
  17.3851275  31.0422540  68.1115532  16.9052291  30.6527925  68.8424778
  17.0091605  30.6322598  67.3325872  22.6640821  33.7651992  48.3867121
  22.8699064  33.7647605  49.3215179  22.8601146  32.8739190  48.0978823
  40.1350880  17.6353812   4.5271227  40.2435255  18.5248625   4.8637164
  40.8034468  17.1236944   4.9828643  18.6601961  20.9685278  40.9195995
  17.7947903  20.5711198  40.8227968  18.5795689  21.5338778  41.6877842
  32.2310328  49.6756983  29.8993015  32.3211837  50.4464722  29.3389320
  31.5298867  49.1655254  29.4939017  53.4514904  30.7972288  30.6921721
  53.1381798  31.7016435  30.6819010  53.4722137  30.5404472  29.7702909
  20.6984854  33.9473200  66.8489361  20.9690213  33.1028366  67.2093344
  20.2896810  33.7302685  66.0110807 118.0550480  44.7799683  35.3245783
 117.6127148  43.9391375  35.2080679 117.5635433  45.3877497  34.7720766
   4.0348959  27.2348285  37.1201158   4.3256316  26.8279505  36.3039327
   4.2437288  28.1627846  37.0128012 116.1534691  38.4090686  17.4651003
 116.0992622  39.1789961  18.0312312 117.0389080  38.4400439  17.1027946
  12.5354469  34.8062110  42.9199553  12.9338694  34.5720887  43.7582159
  11.9949996  35.5712724  43.1170082  14.9734592  26.0483360  40.2133465
  14.2916822  26.1090398  40.8824682  15.1755857  25.1141620  40.1614141
  15.1775277  28.3055305  16.0132658  15.0647020  28.1318760  16.9477963
  14.4387805  28.8691664  15.7834899   2.0677271   6.9286311  23.6881828
   1.2639055   7.2658527  23.2927299   1.8662664   6.0172105  23.9002156
 106.6778755  30.9475136  56.5296888 106.7666245  30.4453516  55.7196331
 106.0796356  31.6602612  56.3053274  16.5907443  19.4538033  40.4290438
  16.5413570  19.1549301  39.5210409  16.2716258  18.7120485  40.9430408
  33.2353377  31.2487936  27.5370789  32.4975562  31.1523533  28.1392503
  32.8564000  31.1076856  26.6694808  27.6717997   3.4105763  17.2128010
  28.2805562   2.7189878  17.4723244  27.7381086   3.4423047  16.2584269
   7.6067537  17.9736066  38.3975458   7.6614648  18.2153141  39.3221068
   7.2154641  18.7371433  37.9731202  22.6602674  27.5772929  22.8214526
  22.0490813  26.8641400  23.0061030  22.2352338  28.3560586  23.1807613
  24.5138097  26.3711143  16.2256145  24.3530488  25.4845428  15.9025371
  24.5095634  26.9170022  15.4393458  10.3820300  41.9829893  19.3680811
  10.0171685  41.9982004  18.4832788   9.6347964  41.7829990  19.9318862
  96.7626286  18.3774006  51.9376135  97.0502567  17.6180375  52.4444389
  96.3821793  18.0044448  51.1423826  43.5662079   3.4783378  31.8863368
  43.3688831   3.5366350  30.9515119  42.9663849   4.1010499  32.2970295
  16.4253366  11.9876122   8.4186405  16.2504506  11.8424535   7.4888152
  17.2692585  12.4389720   8.4360111  22.4403381  47.4974632  34.0048003
  22.7606153  47.1074247  34.8181415  23.1552720  47.3713827  33.3809376
   1.3842025  24.5444584  33.3538890   2.1147221  23.9730668  33.5907102
   0.9673761  24.1054702  32.6124215  27.9037809   5.2973795  14.4431615
  28.7173128   5.3571373  13.9423347  27.3098397   4.8041719  13.8772905
 100.2938843  10.5861652  29.8296571 100.1758862  11.4093602  29.3556762
 100.5281830   9.9514061  29.1525912  36.0106659  45.0959635   1.7979966
  36.6311812  45.0461817   1.0708691  36.4732099  45.5910826   2.4741194
 112.2714996  21.9024706  23.5846710 113.1643772  22.0805788  23.8801003
 112.3457527  21.1001539  23.0679417  11.8608093  43.7850428  27.2719908
  10.9206700  43.9077282  27.4035859  12.1725631  43.4179974  28.0992246
 116.2467861   5.3536522  38.4021115 115.3186798   5.1194936  38.4064531
 116.4607525   5.5017304  39.3232632  44.7937918  24.5775437  12.4315810
  45.7126904  24.4024801  12.2285807  44.4569016  23.7424421  12.7561438
  20.1466227  17.7832448  32.5491738  19.6338916  17.3278880  31.8813491
  20.7676768  18.3159411  32.0524287  22.3367023  24.0055704  36.3394284
  22.0978832  23.3220935  35.7132864  21.6972923  23.9169359  37.0462036
  22.1411204  18.4552038  40.2713299  21.4581704  18.8717437  39.7456837
  22.8773260  19.0658641  40.2348709  22.1955323  13.6694646  23.9643192
  22.0651269  14.4415021  23.4136987  23.1450415  13.6067939  24.0679383
  20.4107690  14.8316133  33.4220839  21.0747886  14.8770654  34.1100121
  20.3255153  15.7330203  33.1115556  36.3092685  28.9029551  24.3844295
  35.7429218  29.0652633  23.6300159  37.1558547  29.2715216  24.1320777
   9.9861163   7.7650911  52.7193260   9.0335172   7.6968175  52.6550961
  10.1872575   8.6368245  52.3789549  33.6181569  30.5408692   8.5622007
  32.8427339  30.8072567   9.0561551  33.5542607  29.5871186   8.5121179
 109.1532326  55.3705740   6.6414857 108.4214115  54.7808266   6.8227673
 108.8946819  56.2022305   7.0386362  10.4559803  56.3993979  24.0254712
  10.3039825  55.4550934  24.0630794  10.6959879  56.5672541  23.1141782
  33.6503911  44.7019386  10.9746945  33.8036060  44.3333435  11.8446922
  32.6987386  44.6877623  10.8727646  42.2720289  19.2737162  12.8832257
  41.6969156  18.5842085  12.5514781  41.6772079  19.9768019  13.1441677
  40.2784300  31.9667840  17.3033810  39.6310496  32.4279499  16.7700374
  40.2509308  32.4110723  18.1507778 104.7385883  29.2107439  69.4414330
 104.5421982  30.1242661  69.6491385 104.5648289  29.1357613  68.5031319
  17.0185649  41.8380356  32.1632981  16.9484425  41.3108110  32.9591274
  16.2108898  42.3513842  32.1441388  23.8284254   6.9918084  43.8865137
  24.7294354   7.0139837  44.2088842  23.7536240   6.1471200  43.4425116
  18.6068666  34.1116643  22.4851131  18.9361072  34.8120499  21.9218254
  17.6981938  33.9901042  22.2098517  72.7506161  85.9446144  92.0298767
  72.7722836  85.6036854  92.9240513  72.2311068  85.3053570  91.5423393
  22.0261955  26.0921407  31.0383105  21.7769122  27.0049429  30.8938098
  22.1057510  26.0131931  31.9889259  37.4103403  16.0932028  17.0489395
  37.7834439  15.2119291  17.0684421  36.8175626  16.0857534  16.2974143
  21.1724162  49.7691441   2.7629787  21.9993162  49.6421576   3.2281056
  20.8123636  50.5762959   3.1305435   5.2231801  21.0752153  40.9972191
   5.0298983  20.5096245  40.2495670   4.7030801  20.7112622  41.7136431
  36.4527225  12.8493404  31.4313459  35.7370353  13.3092594  30.9926009
  37.2237849  13.0417323  30.8977938  19.9591708  12.8305769  39.7955894
  19.4081974  12.1281004  40.1408243  19.3571818  13.5622466  39.6595669
  46.2492609  49.3093348  21.5203166  45.9469080  49.4948053  20.6312633
  46.8318701  48.5561323  21.4229250  32.0773435  22.1713448  38.8921118
  31.7288041  21.8395233  39.7195435  31.8983507  23.1113410  38.9165998
   5.5643111  42.4707413  43.4236860   4.6572989  42.6468372  43.6737919
   5.6476927  41.5188265  43.4796381  28.8847256  14.8943460  37.6121068
  29.7098064  15.2413452  37.2728920  28.2442594  15.0871539  36.9273710
  21.8144321  27.7701902  44.2727804  20.8970356  27.9336452  44.0539265
  22.2871947  28.5097432  43.8909531  33.1464815  21.9517326  43.5348225
  32.2216392  21.7325020  43.4215403  33.1565475  22.9037142  43.6341238
  27.9170084   1.8958262  32.8001285  28.2123995   1.0944681  32.3679233
  27.7775836   2.5163478  32.0847631  10.9069633  12.9414308  36.9331574
  10.7107842  13.6679637  36.3416362  10.0749624  12.7556205  37.3684502
  38.6205530  38.2335949  10.4598248  37.7997208  38.1551123  10.9459388
  38.9043951  37.3299599  10.3215945  42.7667952  18.5735381  48.0710506
  42.5291777  17.7537739  48.5043573  43.5754871  18.8474965  48.5037136
  35.0390363  33.4597874  36.1576939  35.8567739  33.8861680  36.4140868
  34.7816014  32.9527926  36.9277048  27.8665566  48.7588406  45.5729628
  27.9892874  48.7542295  44.6236753  26.9605398  48.4767866  45.6987047
  21.6178226  38.2182765   2.4880292  21.4174271  38.0726171   1.5634441
  20.7642436  38.3526707   2.8998223   6.6862786  25.9385800  58.6114311
   5.8604056  25.9953427  58.1308651   6.7203987  26.7455101  59.1251707
  13.9273107  29.0990901  60.0021839  14.5173311  29.5086503  59.3694401
  13.4536135  29.8313212  60.3967524   5.2107680  33.7024546  31.9454956
   4.2618921  33.5999584  31.8722773   5.5700022  33.0081272  31.3931441
  56.0809612  38.0993247  36.3279915  56.9986773  38.3117104  36.4980340
  55.6679773  38.9448404  36.1525512  30.6059170  20.3801584  40.8478308
  30.2817369  20.2200007  41.7341089  29.9239850  20.9104681  40.4355526
  23.5050535  34.7196126  17.6552618  23.8772202  35.1354694  18.4329426
  22.8062963  35.3121495  17.3780048  18.0721962  69.8460579  32.7591300
  18.3404160  70.3477049  33.5289621  17.6466227  69.0670347  33.1172371
  88.3489609 108.1065083  52.9153395  89.1234207 108.5787010  52.6095867
  87.7852154 108.0462265  52.1441174  11.4862263  22.6454639  47.2115135
  12.0661449  22.7698231  47.9628229  12.0694304  22.6661205  46.4527798
  16.8913054  29.3842292  38.2880855  17.7501345  29.0376067  38.5299516
  16.8815279  30.2716565  38.6467075  26.7265749  47.9137087   5.9676880
  27.4647903  47.7074480   5.3943402  26.6780400  48.8696527   5.9611613
 117.9369450  36.8812776  52.8170443 118.2863712  37.7707958  52.8708172
 118.4100437  36.3967991  53.4935760  30.3340673  39.4886923  39.5145202
  31.0132337  40.0187683  39.0974092  30.3630829  38.6527705  39.0490913
  25.7002950  54.4120502  29.4479322  26.5371847  54.1123152  29.0929532
  25.6270790  55.3201771  29.1543627  20.7221198  30.6918144  42.5049877
  21.2752366  30.1013851  41.9934368  21.0813069  30.6487799  43.3911943
  39.1295075  31.8300080  33.4997225  38.2585192  32.0553827  33.8265491
  39.6652818  31.7404246  34.2878556  11.0876751  37.5247169  42.2732210
  11.2359881  38.3685541  42.7000380  11.3734317  37.6598001  41.3697147
  15.6024086  55.2062607  28.3295369  14.7923326  55.5175924  28.7333703
  15.8659720  55.9157515  27.7435422  21.8503141  37.0408654  19.3129683
  21.2864685  37.7830839  19.5307374  21.2480831  36.3670254  18.9975452
  12.7729023  13.7814903  14.4162285  13.1632137  14.4093287  15.0242639
  13.5182309  13.2978439  14.0601337  20.1453829  29.4471765  32.6995277
  20.2522802  29.3482637  33.6455846  19.2207384  29.2564774  32.5417352
  38.2250404  29.7396708  31.8460917  37.9983830  30.2421403  31.0635448
  38.7869954  30.3259611  32.3527479  24.1491318  19.8869336  19.6926594
  24.1689658  19.5937884  20.6036496  23.2504725  19.7217655  19.4074142
  32.9237342   6.4140368  36.6297555  33.1817389   6.7664707  35.7780170
  32.1978116   6.9716007  36.9097376  12.9376543  19.1297626  17.9033959
  13.7536335  18.6904132  17.6638520  12.7816916  19.7501516  17.1913385
  41.7829370  65.2992249  54.0168333  40.9750986  65.7691956  54.2236185
  42.4803925  65.8632326  54.3510294  11.4114702  16.5410244  40.3507042
  12.0451355  17.2083235  40.6141663  11.2438667  16.7217875  39.4257879
  21.2673855  29.0914154  14.1217685  21.5129924  28.3724809  14.7040391
  20.3428340  28.9372563  13.9276767  86.9969082 108.4054184  60.3344965
  87.2587299 109.3112564  60.1697588  87.1329021 107.9608536  59.4977713
 116.1559677  31.3819909  43.8540459 116.9635868  30.8711696  43.9091730
 115.9740067  31.4419150  42.9162169  10.7424283  20.0261784  30.9847260
  10.9501576  19.2268527  30.5008292  10.2457798  19.7236574  31.7450261
  16.6737139  22.2406077  19.1641045  16.4859843  21.8937373  18.2919407
  17.0014322  23.1256700  19.0044272  30.8843684  35.9978318  18.0236220
  31.3639522  36.0288596  18.8514316  31.4853811  36.3800597  17.3841560
   8.5727888  29.4707751  37.1544075   9.4567859  29.5323110  37.5163388
   7.9961681  29.5890641  37.9092240 114.3738747  30.3203273  23.4703302
 113.4852886  30.0969148  23.7473369 114.8703861  30.3834057  24.2862582
  87.7424717 111.1324596  50.4060555  87.4906731 110.2230453  50.2454662
  87.9989815 111.1507225  51.3280630  92.0189667 112.2771072  43.4694719
  91.5596676 111.4490509  43.6095142  91.8032932 112.8037643  44.2391109
  25.3298402  43.4001970  12.4374700  25.7677960  43.8272858  11.7012501
  25.9282589  43.5207129  13.1747663  28.1578732  16.0121560  19.8031044
  27.7541518  16.7874551  19.4130385  27.4496913  15.5941379  20.2929735
  47.1991730  38.1623530  29.7237802  47.8797722  38.7635159  30.0264692
  46.5572691  38.7254906  29.2912674  18.1151426  22.9097629  42.6340914
  17.2630751  22.8134584  42.2087193  17.9230595  23.3623886  43.4553480
  26.0139132  25.4462624  42.6567793  25.1015902  25.4818392  42.9442406
  26.0351276  25.9775209  41.8608189 115.4171371  17.3147893  14.4607687
 115.8548355  16.6144347  13.9768696 116.0197830  17.5261223  15.1737821
  30.3797245  19.9894595  29.4906306  31.1714530  20.4914093  29.2971277
  29.7245526  20.6513548  29.7117114  21.2608361  24.5068121  47.7971315
  20.5000615  24.5417571  48.3769894  21.6455579  25.3814626  47.8538036
 114.2506599  19.0618193  16.8094945 114.4930458  19.7625971  17.4147975
 114.7063828  19.2794013  15.9963500  34.3515730  14.6367347  40.8651733
  34.1507888  14.3203366  39.9843717  33.4976101  14.7246325  41.2885523
  55.7157183  34.3374324  19.7577822  54.8544598  34.3462443  19.3401849
  55.9818172  33.4181666  19.7385788  20.1453829  11.0181022  19.6437967
  20.7734966  11.3160288  18.9858103  20.5754852  11.1912739  20.4812074
  23.8048244  20.4278278  22.2373509  23.6905122  20.4158688  23.1876254
  23.7635994  21.3549304  22.0028043 112.2572899  30.9157467  19.1767573
 112.8802299  30.3877401  19.6761417 112.7504826  31.2061715  18.4095228
  33.9113665  18.5161197  13.7235260  33.4783340  19.3697667  13.7229240
  33.1961775  17.8847003  13.6457872  47.2346258   6.8155921  19.9218726
  47.0427799   7.6188040  20.4058957  48.0563259   6.4998591  20.2978420
  21.2906551  23.2870078  26.3962317  21.3698888  23.5408640  25.4767156
  20.8129716  24.0094352  26.8038440  47.7807426  27.5138688  25.5857015
  48.0883551  27.9780674  26.3642430  47.2542620  26.7921901  25.9295392
  18.3101130  14.4807470  26.2123728  18.1122553  14.8370695  25.3462791
  17.9962039  13.5771728  26.1770487   7.6559377  49.1625309  33.3049631
   7.6877785  49.8413992  33.9790225   7.5992453  49.6458864  32.4807143
  27.3135853  35.8225083  27.1573591  26.8976927  35.1735353  26.5898252
  27.9820538  35.3304720  27.6341033   7.8075033  10.0317788  36.4928508
   8.4141278   9.6688646  37.1382451   7.6102495  10.9105015  36.8171501
 109.2793465  31.8860507  43.1569099 109.1913891  32.8171897  43.3605623
 108.6064816  31.7207146  42.4964952  18.7012374  60.0203228  39.5797944
  19.3465638  60.2297306  38.9045668  18.9237356  60.5968571  40.3107738
  14.8411214  34.1115808  23.9412808  15.0625420  34.9904513  24.2491627
  15.0635529  33.5378337  24.6744752  63.4142256  18.9079893  26.7482734
  63.1996679  18.8809800  27.6807261  64.1932917  18.3580136  26.6657400
  11.3526773  27.2836208  37.0455337  11.5002513  27.7810574  36.2411642
  11.9733119  26.5566564  36.9948506  23.2469201  12.0429647  56.4785910
  23.5322833  12.8568709  56.0634375  22.8071952  12.3246443  57.2807980
   0.7472341  18.3990836  32.3475480   0.4957312  17.4936104  32.5294685
   1.6822287  18.3524716  32.1479368  32.1529865  32.5430202  17.2279942
  31.8451524  31.6439128  17.3423374  31.5014195  32.9483199  16.6557848
  21.5229893  40.4060936  57.1015501  21.9569778  41.1932278  57.4306488
  20.8519077  40.2113295  57.7557278  19.6551442  44.2121696  35.6871080
  20.3180432  44.3953562  35.0213456  20.0254393  44.5635080  36.4968443
  22.2228909  38.1310391  36.7973304  22.2761846  37.2776747  37.2276354
  21.3274837  38.4267116  36.9618082  47.4915361  20.1869845  33.3610463
  46.6734171  19.7711527  33.0890179  48.1093693  19.9818325  32.6593161
   8.7789142  16.6504133  47.9471827   8.5269040  17.4967706  47.5778532
   7.9895306  16.1136532  47.8765202  33.7689662  43.1202745  22.0004702
  34.1529322  43.7313843  21.3717055  33.6912942  43.6261606  22.8093433
  13.8188708  12.6257861   8.8150066  14.7503483  12.4682391   8.6608648
  13.7920654  13.4544218   9.2934173  19.8522437  41.2613773  25.1656675
  19.2096269  40.7520247  25.6594682  20.3921008  40.6043530  24.7262287
  38.7248230  27.1385026  13.9173400  38.3614421  28.0061054  13.7400007
  39.0174222  27.1828723  14.8276424  46.3623238  24.4315791  15.5479693
  46.6004944  25.2658653  15.1436555  46.1186886  23.8697910  14.8122597
  30.3084874  41.5510368  35.7803965  29.8525476  41.0006142  36.4170957
  30.1859975  42.4434710  36.1041069  43.0604887  32.9847264  18.7630725
  43.6771154  33.6674714  19.0273893  42.2197485  33.4364772  18.6901784
  40.8946180  35.2934647   6.6572022  41.3810778  34.4696307   6.6869998
  40.0090790  35.0588965   6.9347519  11.4741802  13.0470705  25.6220794
  10.9387624  12.4152315  25.1421428  12.0890355  12.5096118  26.1214018
  12.9198551  21.4795470  30.0652051  12.1392322  21.0427618  30.4059076
  13.2489061  20.8882666  29.3881941  48.8215160  19.9832535  37.9169774
  48.4286261  20.6216121  37.3216915  49.1771841  20.5102682  38.6325097
  35.9736872  65.6143808  45.7342529  36.6615772  65.7871103  45.0914431
  35.1642966  65.8752251  45.2948475  24.3446803  18.7556672   8.7120265
  24.1047955  19.4891417   9.2783326  24.8237324  19.1587949   7.9879886
  11.5318763  49.8957729  31.5593982  10.9092522  50.5209303  31.1882544
  12.2189116  50.4409313  31.9428277   1.7450891  44.7951794  34.6648717
   0.7925870  44.8209858  34.7560072   1.8920532  44.4624472  33.7794781
  11.6591656   4.5092162  17.1715283  11.5359569   5.4581922  17.1938050
  12.0505881   4.3385574  16.3148510  12.0711708  18.6426246  34.7846007
  11.1940241  19.0231657  34.8296976  12.4795592  19.0706754  34.0321207
   3.2597491  34.3481421  52.4543619   3.7714374  34.3229461  51.6458035
   2.5056073  33.7855911  52.2781849 105.1146126   7.9597229  48.5234118
 104.9022675   8.6823893  49.1140842 104.3545246   7.3799020  48.5714197
  18.0083501  31.9017434  55.3163052  18.4413719  32.7418447  55.4678249
  17.3343670  32.0938349  54.6643257   6.6318619   1.4102064  24.2237449
   7.4661195   1.6590318  23.8258338   6.3556123   0.6345184  23.7356591
  34.5492506  21.5025210  46.3793516  33.9571786  21.6941524  45.6520557
  34.1846848  20.7153630  46.7839527  20.4361868  33.5093427  37.7593565
  21.1593843  34.0928650  37.9889560  19.6523726  33.9701605  38.0585480
  24.2491293  45.2897167  26.4054465  25.0638580  45.2061272  25.9100080
  24.3478632  44.6767521  27.1339750  17.5939775  27.2195506  16.7217183
  17.8993249  28.0224538  16.2994146  16.8120003  27.4857616  17.2053242
  43.0203867  26.0815811  37.1252728  42.4538040  26.8283391  37.3190999
  42.7046204  25.3854513  37.7014017  20.4569101  47.5954533  46.2866926
  20.7088327  46.8854380  45.6962299  20.9019041  47.3920584  47.1093988
   9.0883607  26.1433411  37.9142904   9.9640429  26.2684822  37.5485682
   8.5040474  26.1882734  37.1574616  53.1533289 100.7545090  95.0904274
  52.5357533 100.5914116  95.8033371  53.4954453 101.6311169  95.2657604
  29.4787836  26.1040568  25.2660537  28.5674095  25.8732867  25.4459763
  29.8195148  26.4078355  26.1073947  20.7041669  50.9251165  39.6047783
  21.0723615  51.7178059  39.2145133  19.9755287  51.2382221  40.1407671
  18.4762168  17.2601783  36.5325546  18.5877693  16.3250029  36.3615727
  19.2290461  17.6725757  36.1089897 112.6006699  52.5406313  28.8997531
 111.7301464  52.2111082  28.6764956 113.1512260  51.7583847  28.9345169
  24.6235251  52.7355480  33.9858603  25.1690698  53.2173634  33.3641934
  23.9349580  52.3450232  33.4477186   1.3813096  24.8186111  28.0019093
   1.2575129  25.7427049  27.7852058   0.5257320  24.4191074  27.8450155
  27.6098561  22.9841089  23.7978244  27.9901242  23.2415605  24.6376753
  27.5405574  22.0307660  23.8484645  10.2833605  43.7814999  55.2190208
  10.1389337  43.4523153  56.1061525   9.9014729  43.1129265  54.6503353
  19.3765318  64.4350052  34.4153833  18.9793682  63.5647392  34.4490504
  18.6393118  65.0384712  34.5079470  36.9313765  43.9902401   5.8377582
  37.5589395  44.7035313   5.9544086  36.0755658  44.4025564   5.9552860
  12.8176451  40.0021648  42.7708387  13.4309828  39.5231962  42.2134924
  12.8719294  40.9072590  42.4641085  16.3979542  41.4955235  29.4329381
  16.3005829  40.6527567  28.9896607  16.5505278  41.2675810  30.3499937
  48.0327654  45.2800035  19.4055283  47.7200603  44.5957851  18.8136756
  48.7789392  45.6688213  18.9491522  13.1021595  42.8955364  42.4725151
  12.2643769  43.2980442  42.2437334  13.7508988  43.5776472  42.2990465
  33.2148886  42.2772503  33.1028032  32.3880577  41.9311523  32.7669430
  33.7644100  42.3807573  32.3259211  40.1714611  60.7731867  32.6771379
  40.8394480  60.2256775  33.0897546  39.4097972  60.6956387  33.2516718
 105.0727844  35.2875543  33.0535221 104.3236732  35.1547742  32.4726295
 105.8068562  34.8787642  32.5949860  23.9022064  50.6758356  56.4584827
  22.9921937  50.5188799  56.2065411  24.0098596  50.1950407  57.2791386
  26.2702823  70.6478691  23.5464430  26.2596846  71.3809109  24.1618824
  25.4237866  70.6958675  23.1021786   3.2716224  43.2209492  24.0667367
   3.5156405  43.4614515  23.1729555   2.3148686  43.2500029  24.0698504
  45.7646036  21.8618155  22.6195192  45.4418039  22.1481919  21.7651057
  44.9752045  21.7547727  23.1502032  41.2962675  59.5198250   4.4189999
  40.5238008  60.0666571   4.5621711  42.0141459  60.1433897   4.3092489
  42.4364519  63.6429262  26.8790293  42.8628969  62.8624821  26.5250850
  42.9397678  64.3741226  26.5208960  15.2544916  61.8733931  32.5757813
  15.9838033  61.9298887  31.9584107  15.5526936  62.3604059  33.3439755
  31.9980955  32.3812032  14.0845644  31.3891912  33.0785012  14.3279576
  32.4181247  32.6982832  13.2850230  29.2818189  55.4396772  11.5757847
  29.1177750  54.4978476  11.6235566  29.5388961  55.5921984  10.6664550
  20.4552770  40.5620718  31.8274069  19.8894238  39.9923992  32.3484802
  20.6195283  40.0671530  31.0247183  42.0811939  48.8863993  28.5952473
  42.0001602  48.4958839  29.4653988  42.7233696  48.3374739  28.1452250
  31.5198874  24.5796061  24.1352701  30.8295608  24.9531269  24.6831441
  31.6988564  25.2554870  23.4815240  28.2401252  46.6003704  31.7506719
  28.6071491  45.8425045  32.2058225  27.8874898  47.1516371  32.4492335
   1.1854815  41.1348963  26.4407873   0.6283914  40.7358074  27.1090794
   2.0094731  40.6508827  26.4955759  23.9631605  31.4524865  22.7210474
  23.3214164  30.9152746  23.1855893  23.8780785  31.1886406  21.8048716
  70.7196283  55.3257608  18.0641186  71.4915037  55.8791971  18.1830716
  70.2211285  55.7560778  17.3694551  41.7473364  59.7240353  41.1960936
  41.5773487  59.1991377  40.4139042  41.8841028  60.6113195  40.8640528
  15.6669748  21.9918299  50.9396744  16.2114561  22.2103763  51.6959858
  15.1398420  22.7765250  50.7892895  53.4059191  34.4535065  25.2444530
  53.6741066  35.3039074  25.5924845  52.4501514  34.4971704  25.2155185
  24.6733499  45.0841761  39.4288135  24.8844171  44.3056250  39.9441171
  24.0154362  45.5449104  39.9494934  46.6107035  63.5026598  41.3831854
  46.2920666  64.4026327  41.3142443  46.8755054  63.2734299  40.4923630
  39.4930863  32.7129173  25.1416564  38.8945675  32.6455355  24.3977046
  39.7146702  33.6429977  25.1873136  26.8274355  43.0530357  33.9468980
  26.9429970  42.2058392  34.3771696  27.7110267  43.3106279  33.6839485
  25.9914732  48.0536604  50.4909277  26.9116831  48.2516718  50.3170300
  25.9380984  47.0993042  50.4401445   2.6050091  50.4228497  17.1063924
   3.1401253  50.1254272  16.3705790   1.8950765  50.9203768  16.7005658
   9.5528632  84.1022301  41.7236948  10.3121018  84.0236568  42.3012924
   8.8093305  84.2036247  42.3179245  41.3073874  47.9630423  36.4710236
  41.5877581  47.0627451  36.3064432  40.4795599  47.8735781  36.9431758
  59.4442034  28.0635810  44.1773081  60.1228189  27.7397799  43.5849714
  59.1123009  27.2786689  44.6131802  27.0727777  59.5697498  37.4848866
  26.4625597  59.0380573  36.9738340  27.9029632  59.5013762  37.0133495
  46.3634634  45.9037924  44.6772766  46.7776489  46.7637444  44.6054220
  47.0953178  45.2892637  44.7317886  19.2152405  74.5322800  39.5833516
  18.5041595  73.9034653  39.7065949  19.5968318  74.6362019  40.4550266
  25.8985925  17.7630448  45.9965706  25.9585881  18.6710978  46.2933445
  26.8084550  17.4775338  45.9137154  20.0025177  59.1913652  34.8754954
  19.8046565  58.2751274  34.6816278  20.4951811  59.4964027  34.1136122
  35.7983351  53.6841106  33.4958911  35.6797290  53.2528067  32.6496434
  36.7205477  53.9403009  33.5069823  19.1576445  42.7791452  49.2485666
  18.6936879  42.7943945  50.0856686  19.2587185  43.7016153  49.0139103
  21.1647153  29.4880390  30.1859808  22.0341420  29.8882508  30.1734471
  20.8798456  29.5625734  31.0967636  15.2595317  47.2202587   3.2364964
  14.5585179  47.7894354   3.5540625  14.8218918  46.3949728   3.0276608
  18.0879438  47.9911613  24.0194774  18.1292856  47.4972343  24.8383546
  18.3315516  48.8835573  24.2654800  37.6950026  37.3388338  22.3449874
  38.2172060  36.9602585  21.6377282  37.9390121  36.8329549  23.1200862
  20.4909968  39.3840933  43.1565094  20.8748293  39.1579819  44.0037298
  19.9734223  38.6158490  42.9153633  28.7102365  17.7604949  46.1472368
  29.6257329  17.4956942  46.0579062  28.7517309  18.6678302  46.4493179
   5.5997801  46.5700293  33.3242249   5.9398544  47.3053646  33.8339877
   5.3832519  45.9052038  33.9779496  34.3390036  28.3804035  22.4605560
  33.8511539  28.6117411  21.6701651  34.5153236  27.4441695  22.3677611
  33.5580111  51.6546965  33.3112860  34.0451431  51.1886454  33.9907932
  34.1087008  51.5852070  32.5314498  43.1802511  47.1589279   6.1887646
  42.7132988  46.3826561   6.4979440  42.7755451  47.3617935   5.3453833
  22.1825743  36.0369754  46.6842270  22.1123910  35.3516626  47.3487949
  22.0474029  36.8528104  47.1662760  66.7857742  16.2467730  17.9239321
  67.5678396  15.7352090  18.1310749  66.7402267  16.2381625  16.9678557
  26.7633724  29.9730682  24.5848155  26.5045810  29.4887280  25.3688264
  27.7200961  29.9432850  24.5897961  61.7155695  24.8623395  39.1570830
  62.5344372  24.7447443  39.6386075  61.9886780  24.9990630  38.2499170
  20.9851718  39.1649055  23.8660812  21.4580679  38.3551788  23.6738753
  21.5826130  39.8615313  23.5940385  45.2437019  66.3331890   1.1307265
  46.0084963  66.8189573   0.8219367  45.5811357  65.7756329   1.8317972
  18.1749928  48.2984734  30.5593514  18.5676312  48.4626484  31.4167380
  17.2330809  48.2740450  30.7279801  34.4893551  33.9138556   7.8312182
  33.8468504  34.1042471   7.1477211  33.9681411  33.8076329   8.6270088
  31.2884331  37.6982760  26.5692186  30.9361744  38.1427145  27.3403358
  32.1154428  37.3199201  26.8677688  43.1709480  33.2724929  25.2225423
  43.4907675  33.1932187  26.1212420  42.4967480  32.5971413  25.1477933
  35.0938940  31.4546585  22.2745275  34.4321728  32.1461153  22.2902060
  34.6082354  30.6636262  22.0407820  64.6886730  56.4580536  40.3918409
  64.1967678  57.2518826  40.1818609  64.1104221  55.9648466  40.9737349
  28.9613819  44.5202398  33.3238411  28.8930440  44.9690199  34.1665483
  29.9028301  44.4463301  33.1674933  13.2747555  52.2170734  48.3750153
  13.2290399  51.4420176  47.8151703  14.2099977  52.4098682  48.4412479
  23.9847827  48.4169769  48.4681892  24.3817425  48.4479856  49.3386459
  23.4497499  49.2092562  48.4205770  39.6476626  39.9204230  33.4167075
  39.0711522  39.4245076  32.8353834  39.0530777  40.4423285  33.9555168
  18.2197869  38.5620546  23.3968806  19.1516221  38.7478399  23.5126328
  17.9999149  37.9784298  24.1230130  43.7634754  50.3291368  22.5087976
  44.6806765  50.2032614  22.2656393  43.5051346  51.1343575  22.0603395
  65.7116556  14.9852729  12.8102469  66.5298748  15.1772034  13.2684064
  65.7396126  14.0410864  12.6554549  32.7465749  39.8259711  29.2130613
  33.1038570  39.7323060  28.3299947  31.9576240  39.2839527  29.2109704
  51.4519596  51.6936207  30.5926275  51.9598961  51.0088778  30.1574731
  51.8768644  52.5102758  30.3303981  38.1761646  39.9407077  22.9697680
  39.0089417  40.0624704  22.5138235  37.9534125  39.0218544  22.8203583
  52.0110846  54.6082973  30.4481411  52.4862385  54.2994595  31.2195563
  52.0339537  55.5626059  30.5189180  18.8784623  60.2364826  51.2213087
  19.7711706  59.9356556  51.3910246  18.5013604  60.3701210  52.0908880
 116.1797428  35.7263994  38.4909153 115.3906822  36.0030842  38.9568114
 115.8907413  35.5938840  37.5880599  52.9768515  58.4760189  45.9509373
  52.2405291  58.7826777  45.4217720  53.5302877  59.2490578  46.0620785
  24.5947933  37.7951455  24.9732423  23.6511254  37.8317690  24.8170972
  24.6759439  37.5213265  25.8868432  42.6168013  40.3435278  30.7316589
  42.2517633  41.2214661  30.8421421  42.8554201  40.0701427  31.6174078
 114.7444248  34.6348023  27.9152250 114.5302582  34.5978427  26.9830227
 115.4771614  35.2483869  27.9684949  33.2486415  72.8042793  29.3082666
  32.3933816  73.0402184  28.9489746  33.2007003  73.0611038  30.2291226
  38.5418272  45.5247736  24.9057579  38.9285421  45.2065849  25.7215047
  37.6724863  45.1249504  24.8808837  32.2957015  31.3233256  42.9504681
  33.1441236  31.2390041  43.3855534  31.7175436  31.6865063  43.6213398
  34.3356037  50.2531099  35.4515934  33.8945341  49.5569563  34.9647069
  34.2404819  50.0004292  36.3699245  29.4478559   3.8280377   1.6899984
  28.6480188   3.8945407   1.1683938  30.1442218   3.7014714   1.0455718
  16.4527702  37.2907805  39.4348097  16.6542912  36.5338898  39.9850273
  16.2605500  36.9172573  38.5747147  24.1078019  55.5924845  35.5202413
  23.4859443  56.1828136  35.0947547  23.8138580  54.7158861  35.2724552
  21.2360358  31.9466472  35.4915428  21.0978746  32.6429868  36.1336112
  20.4399085  31.9494534  34.9601221  37.0573258  60.6214809  22.3624849
  37.2470117  60.0331116  21.6316772  37.7002907  60.3871393  23.0317450
  41.4088488  57.8186178  27.0668697  41.1470270  58.6304617  26.6326022
  42.0829916  57.4487162  26.4968371 115.5895996  17.9008329  94.6149635
 116.4434147  17.4940515  94.7625065 115.0661278  17.6405942  95.3729057
  51.0594749  48.4803581  31.8565512  51.5728807  48.1996107  31.0990381
  50.4039288  47.7921486  31.9699669  56.5496349  31.2355924  16.2947154
  56.3436079  30.3228831  16.4965713  55.7055569  31.6854763  16.3316083
  60.8582306  49.4607449   9.3738323  60.7023001  49.5377445  10.3151023
  60.1343918  49.9404478   8.9711189  28.0646920  34.6653414  47.1884918
  27.6472664  34.8088336  46.3391399  28.4251070  33.7804031  47.1317816
  24.3603444  52.7144051  30.8524108  24.8552322  53.3474445  30.3322411
  24.0680599  52.0596743  30.2182722  47.7268028  48.6682081  44.5867729
  46.9718027  48.8275385  44.0203571  48.3478308  48.1971264  44.0312195
  21.9370008  29.4486618  27.5984573  21.7798948  30.3210235  27.9597521
  21.7667842  28.8529968  28.3281422  39.2677689  47.0331478  11.7501318
  40.1450729  46.6663027  11.6405904  38.6783981  46.2952423  11.5940154
  29.2418599  38.8927484  34.5972180  28.5643721  39.2669559  34.0340042
  29.3710184  39.5471692  35.2837181  15.5702651  39.3622017  27.9021525
  15.5628979  38.4083986  27.8219056  16.3422799  39.6381688  27.4081206
  16.3322020  14.5018148  38.6107039  16.4571059  14.2743444  39.5320559
  16.2831259  13.6586046  38.1603479  40.8310127  53.0995321  27.3999786
  41.2754536  52.5426865  28.0392218  40.4855061  52.4884605  26.7492485
  26.8271875  44.8843861  22.7790952  26.5167952  45.6927919  22.3712063
  27.7719641  44.8859882  22.6253819  41.5970421  42.3402405  14.9457979
  41.1915922  41.4859009  14.7976506  41.9260263  42.2967720  15.8436346
  38.9265466  48.2708836  24.8285174  39.7937560  48.6070728  24.6023464
  38.9386463  47.3600054  24.5346022   8.7330031  46.6850519  32.0436454
   8.4087294  47.3570395  32.6432347   9.5764023  47.0212889  31.7405725
  37.7856827  60.8126163  34.9985981  37.7485275  59.8612595  35.0974441
  36.8712759  61.0931730  35.0357533 117.1069527  37.1765351  34.6267891
 117.8684139  36.8095160  34.1776800 116.8201351  37.8953624  34.0635324
  46.1087513  34.1973472   7.3787671  46.0263395  34.6824622   8.1998032
  45.2532053  34.2891240   6.9594282  32.7530670  43.1156874  40.2794600
  33.4187269  43.7854862  40.1229525  32.2131705  43.4745216  40.9837198
  63.8451767  42.8462219  34.6270299  63.2079935  43.4364510  35.0293493
  64.6312666  42.9396248  35.1651406  43.4712553  49.9641895  16.8207276
  43.8822365  49.7429037  15.9850502  42.6835680  50.4512358  16.5787196
  24.1973186  50.0737715   5.6130648  23.7994099  49.3283606   5.1633304
  24.2053652  49.8201847   6.5360272  37.1504617  59.5004129  47.2584677
  37.0302033  60.0741005  46.5017271  36.4463305  59.7451878  47.8588915
  22.7790046  43.5186768  30.9696174  22.1475816  43.5307932  31.6889167
  22.4752855  44.2025900  30.3727531  90.9694767  90.4916382  95.0668621
  91.2591171  89.7976494  94.4746494  90.1279545  90.7754898  94.7097969
  39.2764211  52.1308994  15.6727350  39.2220044  52.9271412  16.2011945
  38.6131787  51.5501404  16.0456502  28.3217335  33.6152387  41.8047762
  28.0638528  32.6934624  41.7971134  28.6662841  33.7602353  42.6859617
  20.6414723  46.6772652  32.1768236  21.0539055  47.0518732  32.9551554
  19.7566664  46.4483213  32.4613166  37.4680233  46.7144060  27.3665071
  37.4022293  47.0129681  26.4594436  36.9369435  47.3372269  27.8627801
  32.8660345  43.5004997   6.3076681  32.5266862  44.0920353   5.6359839
  32.8722525  42.6401472   5.8881581  45.6592226  57.3397970  41.0918188
  44.7686100  57.4799347  41.4133883  46.2155247  57.4818516  41.8577051
  27.5228739  44.1598606  52.6927614  27.1070218  43.4074354  52.2718620
  27.1689820  44.1626453  53.5821342  53.5139036  41.6669178  25.3129148
  52.7199984  41.9398022  25.7727861  53.3100796  41.7950439  24.3864846
  20.8618832  47.3127365  15.6509376  21.6497159  46.9726324  16.0750628
  20.5991507  48.0557299  16.1942267  36.4250994  56.4205360  37.0331788
  35.6204271  56.0056257  36.7224002  37.0015097  55.6891966  37.2548127
  20.3707170  46.6516447   9.7068101  21.1862135  46.6027832   9.2080015
  20.2974892  47.5728083   9.9564683   5.5234617  49.3801832  46.7477751
   6.4233726  49.4225788  47.0711851   5.0783473  50.1078463  47.1820641
  32.9645658  41.3394499  36.0248470  32.0417929  41.1583662  35.8461666
  33.2431507  41.9002342  35.3008652  26.5564084  41.8481827  19.4231403
  25.7208872  42.2434044  19.1742706  26.3141918  41.0347509  19.8657393
  20.0189471  35.1897478  24.8474145  19.4018102  34.9934053  24.1425562
  20.4739904  34.3624473  25.0047088   8.6921120  48.4509850  15.5999172
   9.6025026  48.2841110  15.3558373   8.5640180  47.9488659  16.4047158
  53.2686043  17.9783356  43.7449455  52.6588964  17.4612784  43.2184982
  52.7381849  18.3091557  44.4698191  21.9998884  49.5155096  42.3091745
  21.5876532  49.5779705  43.1707954  21.3146710  49.1639423  41.7407417
  23.3629036  65.4909992   5.8439487  23.7686062  66.2473583   6.2676907
  24.0898848  64.8907661   5.6782615   4.6422103  31.7296624  29.4317269
   5.4137081  31.4193225  29.9057651   4.6097547  31.1856914  28.6447883
  36.0275054  41.7205954  34.8077297  36.4671636  41.4450693  34.0033555
  35.2200127  42.1383524  34.5082855  22.6100993  45.0026894  17.1761942
  23.4338212  44.5790672  16.9348240  22.2324705  44.4294786  17.8433204
  42.0159054  51.4598131  29.2251706  42.0936918  50.5495977  28.9393544
  41.4813709  51.4170313  30.0180602  28.7316990  44.8796797  36.1791348
  27.8219938  45.1763201  36.1531925  28.7417173  44.1961432  36.8491411
  43.4029293  52.2655630  43.4210539  44.1518116  52.5546694  42.8996849
  43.7426710  52.2022867  44.3136930  47.7905750  55.0342560   6.7433292
  46.9866371  54.9501991   6.2306362  48.0290699  55.9579611   6.6650790
  50.7054043  66.4567709  20.9301043  50.5081129  65.5391264  21.1178136
  50.0973845  66.9499826  21.4808154  37.9660463  38.6924601  31.8160558
  38.3525252  38.0380964  31.2340999  37.0473576  38.7360978  31.5508366
  51.5883446  42.2342110  40.5417919  51.9898033  42.5744247  41.3413668
  51.3273478  41.3410282  40.7661533  53.6271095  30.3018665  27.9868913
  53.8357544  29.4245625  27.6658988  54.3058205  30.8622599  27.6106739
  76.1937857  94.0985966  84.4076538  75.4477215  93.5755253  84.1143799
  76.6642380  93.5261345  85.0136185  23.6458540  47.9818535   3.9927161
  23.4363699  47.4499178   3.2249951  23.8065100  47.3448372   4.6888736
  30.7283020  55.9854984  24.0594864  31.2607360  56.7046738  23.7195897
  30.0470138  55.8589983  23.3991241   1.8727401  21.0043669  18.2750940
   1.3399684  21.3979530  18.9660907   1.2518249  20.4939747  17.7552891
  37.9826808  30.9622622  29.2900586  37.0911098  30.6877279  29.5044446
  37.8774285  31.8235326  28.8858724  19.0419817  43.9943647  31.2107444
  18.5430980  43.2395172  31.5230775  19.0396237  43.9052963  30.2576995
   9.4656676  52.4455690  46.7334652   9.9730664  52.4075317  47.5442266
   8.5582268  52.3243523  47.0129108  23.7686276  32.1386957  34.6393991
  22.8369880  32.3025656  34.7857785  23.7928247  31.3205886  34.1430664
  47.8706360  36.2892938  26.8167591  48.4669924  35.6238461  27.1599364
  47.0362616  36.1095214  27.2500443  18.0657065  39.4243169  39.2492890
  17.9372096  39.6435666  40.1721382  17.3631799  38.8054442  39.0500736
  41.5366220  62.8447914  35.0423598  41.7006302  63.2948732  34.2136502
  42.2044706  62.1600676  35.0792980  22.5913405  60.5100489  64.8549318
  22.0228219  60.7517147  65.5861044  22.1180058  59.8105240  64.4045448
  37.3874879  34.8135877  36.5714979  38.1647778  34.3302560  36.8515754
  37.2366905  35.4502678  37.2701597  52.6393270  40.7800865  34.2092729
  52.0765829  40.1584387  33.7476420  52.1256351  41.0481024  34.9711943
  48.2567167  39.9462914   9.7467589  47.8512478  40.6663513   9.2637044
  48.5667229  39.3469906   9.0678126  38.4426618  62.8533268  58.4068394
  37.7097321  63.2621622  57.9465151  39.1522861  63.4925079  58.3427048
  26.2065291  38.3982825  41.4011812  26.3651347  39.2662430  41.0300732
  27.0429707  37.9420328  41.3093472  35.4553890  59.1965961  33.4641981
  36.0989690  58.5176563  33.2615185  34.8967409  58.8043928  34.1352582
  56.2658644  24.4371390  34.5610714  55.9193087  23.6460924  34.9738407
  55.5017614  24.8537779  34.1625857  49.6309376  26.7442703  34.0728188
  49.8050976  27.6323676  33.7610793  49.8362541  26.7738676  35.0072694
   9.7932154  54.5496941  56.3136482   9.0437460  54.7349930  56.8795013
   9.9113995  55.3504944  55.8027840  58.1440210  56.0552979  18.9646184
  58.1923437  57.0003366  19.1088259  57.6679182  55.7210541  19.7247756
  44.4361687  38.9373922  10.0427580  45.0637674  38.7602997   9.3420517
  44.3520403  39.8908257  10.0536287  25.1703358  56.8447924  45.0494242
  26.0639787  57.0733213  45.3051758  25.1978803  56.8036652  44.0935040
  56.9122791  24.3795586  17.3852015  57.2280121  23.7802148  18.0614650
  56.4455128  23.8179398  16.7663753  29.1239095  52.9286051  12.4621272
  28.6445856  52.1071386  12.5701702  29.9933720  52.7473116  12.8190565
  16.5553820  62.5867176  40.9509563  17.2006297  62.2714567  40.3181076
  17.0093906  63.2791805  41.4311695  50.1862431  29.9098468  25.6911039
  49.5559740  29.8458838  24.9735379  51.0068274  30.1615453  25.2674103
  50.7809162  84.5063496  37.4532843  51.1259747  83.7024498  37.0648170
  50.9005690  84.3875790  38.3955216  33.8163781  70.4360533  48.5853720
  34.3506074  70.1510572  47.8440189  33.5233665  69.6226501  48.9961672
  37.1432686  73.4426880  25.2598739  37.8960991  73.0632257  25.7131743
  36.9691825  72.8389168  24.5378017  47.4218369  62.4993610  38.5487461
  47.8477287  63.2391405  38.1156445  47.8672218  61.7279291  38.1983805
  68.2082176  61.3165045  50.7955551  67.6027966  62.0545912  50.8657503
  67.8363132  60.6463051  51.3689232  52.4788523  68.3549452  14.6036768
  53.2700777  68.7627459  14.9556613  51.8121433  68.5085249  15.2731097
  38.2593966  65.9902048  43.6051464  38.8119626  65.4766941  43.0159044
  37.7261639  66.5311956  43.0227184  33.2930923  79.7254848  58.8766670
  33.4613848  78.7985182  58.7074327  33.0043650  79.7538567  59.7888422
  37.8857207  33.2851529  27.9301596  37.4317908  33.4483075  27.1033812
  38.0732775  34.1575146  28.2766271  72.0749950  62.5749731  22.7994370
  72.7226019  63.2751226  22.8808475  71.4325094  62.9142570  22.1762729
  35.2475691  88.7549591  44.9785137  35.8426619  89.5038891  45.0132036
  35.7234311  88.0940151  44.4755745  45.0328875  41.5255356   3.7016615
  45.6720066  40.8568239   3.9478001  44.9300957  41.4219284   2.7556539
  27.7864051  63.8162613  10.9070563  26.9440269  63.8624573  11.3592720
  28.4262872  64.0904093  11.5640378  51.8704796  77.3983526  35.3236556
  52.2187424  78.2815742  35.4456067  52.6108980  76.8932104  34.9877334
  37.2894788  38.5110593  14.2684770  36.8216968  37.9613304  13.6398196
  37.1259618  38.0977702  15.1162314  32.3003078  65.2957153  50.7505369
  31.7991519  65.4186964  51.5567303  33.0267143  64.7264671  51.0045576
  42.4700451  54.8641300  26.1901951  41.8907309  54.2390680  26.6260052
  43.3025360  54.3995476  26.1044216  67.4701595  64.1935539  35.4181623
  68.2377768  64.2222691  34.8470497  67.1872187  65.1055241  35.4851484
  36.8990183  65.0568771  51.0637569  37.3220134  65.2670765  51.8963003
  37.2792315  64.2166901  50.8073378  60.6297731  51.0428190  38.9781165
  60.1657581  51.7512941  39.4241905  61.2208033  50.6881380  39.6422815
  52.6663160  50.4678869  39.0715694  52.8067350  50.3941393  38.1276011
  53.5133266  50.2451515  39.4578338  32.1492648  60.3328371  44.0018177
  32.9096580  60.4672289  43.4361553  32.0479250  61.1626530  44.4680405
  57.9205179  77.0726967  30.5154300  58.6113262  77.7102709  30.3351283
  58.1671858  76.3014841  30.0049233  50.7218599  40.0039959  42.6608753
  51.1152267  40.6662369  43.2291460  49.7829056  40.0646544  42.8367090
  60.5735874  72.3535204  33.2164693  60.0515509  72.0833683  32.4610066
  61.3377285  71.7773438  33.1979465  41.7273331  73.3665037  40.1976347
  42.4386644  73.8429785  39.7695994  41.6780710  73.7467718  41.0746765
  48.1507540  61.1093283  57.4158764  48.1073189  60.1534891  57.4426222
  48.7685776  61.3405180  58.1094742  55.6609488  34.8694181  38.0120087
  55.0519419  35.1874971  37.3455477  55.5020905  35.4322410  38.7697840
  79.4890165  69.0649462  37.0390463  80.2842236  69.0724754  36.5063047
  79.7945786  68.8595009  37.9225922  22.3841286  76.7545557  38.9512730
  22.2021675  77.1114063  39.8206282  22.5877881  77.5211763  38.4155059
  41.5101957  73.3747244  44.2383385  42.0303774  72.6039171  44.4652700
  40.6103182  73.1275749  44.4513273  35.0446129  54.1062403  68.3684063
  34.6963215  53.2820225  68.7083817  35.9336185  54.1537666  68.7200356
  44.1019964  45.0247049  23.9154243  44.0967655  44.0874624  24.1098070
  43.2100010  45.3140926  24.1073322  59.3548918  52.7379417  30.3562331
  58.4638262  52.5876236  30.0405836  59.3596363  52.3750591  31.2419677
  61.6828156  55.6053925  46.5295696  61.1582422  56.3846207  46.3455677
  61.6543198  55.5169487  47.4822521  36.7049265  82.0266533  16.3456559
  36.3222194  81.5020275  17.0488882  37.0912099  82.7801704  16.7920065
  28.0292845  88.3531475  51.5909529  27.8563309  89.1443062  52.1012306
  27.1712112  88.0907631  51.2576389  44.5972109  79.3245602  42.2737312
  44.7594786  80.0466442  42.8807640  44.0632963  79.7107124  41.5794325
  69.4708109  63.2341909   1.1670719  69.8973083  63.4751987   1.9894156
  68.5800028  62.9929113   1.4209981  12.6742768  62.1302128  36.6618681
  13.4846914  62.2284269  37.1616817  12.9576957  61.8041945  35.8076930
  42.7557325  43.7304306  34.0040874  42.0159531  43.3271742  33.5498357
  43.4744787  43.1085920  33.8902950  63.5837269  72.9689407  52.2050333
  64.3163443  72.4779844  51.8329191  63.9543533  73.8243198  52.4222708
  52.9958725  41.8439722  10.0435960  53.8543701  41.4263058  10.1126242
  52.6695490  41.8707895  10.9430552  49.4257689  34.0276122  27.4388170
  50.1359558  33.4420419  27.7014470  48.6666679  33.7208962  27.9347205
  21.4831901  82.2329521  50.3217840  21.3059473  82.5026226  49.4206238
  21.8809056  83.0028534  50.7283592  37.0525217  59.6739483  61.3805342
  37.3788548  59.5893288  60.4846668  36.1904883  59.2582846  61.3616991
  57.5072336  55.4256821  24.5863032  56.7343903  55.8239031  24.9867511
  58.1865788  55.4937696  25.2571893  50.0543308  41.3719320  29.1245818
  50.2933645  42.1500826  28.6210155  49.9302626  40.6889296  28.4655333
  89.0493202  54.6181250  30.0507975  89.9514484  54.9330997  30.1072788
  88.6961269  54.7439289  30.9315133  34.7650647  60.9676695  23.5230708
  35.6246519  60.7458639  23.1650996  34.1705036  60.9033203  22.7756858
  46.9816685  38.6161828  33.4673715  46.5801001  38.0891919  32.7765369
  47.5598288  39.2206860  33.0020285  47.7662086  47.7803278  16.1882007
  48.0262327  48.0355930  15.3030694  48.0422926  48.5125160  16.7394781
  60.3621197  57.3237658  41.6864491  60.2284479  58.1551838  41.2313509
  59.7333288  56.7257643  41.2824059  42.2956419  51.4287424  36.5774179
  42.3788929  50.5204773  36.8678498  43.1980419  51.7316818  36.4767456
  63.7003040  43.3525753  31.8594956  63.4358358  44.2645884  31.7390013
  63.7663984  43.2457304  32.8084159  38.1449056  45.4790688  37.7073598
  38.0215764  45.0167418  36.8783426  37.3317313  45.3279305  38.1891656
  45.9958935  40.5715466  35.4446769  46.7212629  40.0678730  35.0753713
  45.7281828  40.0744343  36.2176204  47.4385595  55.9532547  32.1317601
  46.8524122  55.1965284  32.1263194  47.4640751  56.2430143  31.2198281
  44.7394753  53.0348110  26.1880898  45.6167507  53.3934259  26.3222766
  44.7595406  52.1831226  26.6245008  56.9639301  59.9274588  50.1019049
  56.9951105  60.8425760  50.3808784  57.2901344  59.9401283  49.2020893
  40.4392576  40.5083609  11.4742780  40.1405287  39.6090436  11.3392758
  39.7990394  40.8853531  12.0777953  38.7990069  61.8385744  41.0188007
  38.4655476  62.6374245  40.6102943  39.7136140  62.0363998  41.2202787
  60.6636190  63.5137796  30.3423548  59.9331379  64.0005827  30.7240009
  60.7169771  63.8299608  29.4404602  52.2537088  75.5375671  42.5336266
  51.9338608  74.6643734  42.3067808  52.9991150  75.6787157  41.9499493
  40.0395250  69.8846292  29.5935678  39.5415330  69.4792080  30.3034067
  39.3726778  70.2256966  28.9975619  53.8759995  76.8992376  33.0638504
  54.8253155  76.8088388  32.9810166  53.7544870  77.4517870  33.8359618
  36.9480395  63.0425549   8.7840974  37.8194594  63.4059811   8.9415258
  36.4924741  63.7203550   8.2848167  61.0896111  65.2425575  50.5029631
  61.0594273  65.9412336  51.1565447  61.4248943  64.4831276  50.9794998
  46.3539982  56.2962866  22.2503161  45.8638525  56.3627338  23.0698133
  45.9149742  56.9071627  21.6584396  76.2763786  81.3715458  28.4684420
  75.8671427  82.2180367  28.2889628  75.7110977  80.9669399  29.1264582
  49.8896074  54.2232037  32.8829241  49.6560287  53.4580469  32.3573685
  49.1273022  54.7986841  32.8201032  38.1638145  58.6572599  27.2850275
  38.3234930  58.5256386  28.2195902  37.5665641  59.4043064  27.2469735
  17.1876252  65.3536367  11.7148507  17.8869963  65.1975393  11.0802281
  17.6453340  65.5646944  12.5286007  39.1674876  86.4484310  33.2167315
  39.1402888  86.1188602  32.3184705  38.9677525  85.6847763  33.7581897
  48.1448317  61.6515636  30.5740261  48.8450623  62.0109940  30.0293040
  47.7585506  60.9572506  30.0402141  27.2066832  91.9551182  50.7451677
  27.7124786  91.8287563  51.5479374  27.3338366  92.8778648  50.5247164
  52.4928617  54.3028212  38.6363816  52.7702093  54.9345207  37.9728580
  52.6046658  54.7639894  39.4676805  44.5843410  77.4176025  31.7330742
  44.4559622  78.2902718  32.1048331  45.4762697  77.4339390  31.3860512
  27.5672507  49.6348572  56.1899471  27.0712376  50.2097034  55.6070614
  27.7001595  48.8349533  55.6813002  51.5701628  73.2137966  40.5646181
  51.2739658  72.4123621  40.9961271  50.8107853  73.7958384  40.5930758
  36.9461083  55.3735113  30.4122448  36.8845963  55.1153088  29.4925833
  37.7847719  55.0172806  30.7054543  38.6524153  68.0958509  59.5372868
  38.7740588  68.1873417  58.5922623  39.4178486  67.6015425  59.8305559
  40.6443596  52.3236370  21.3425493  39.9795485  52.0352316  21.9679117
  41.3097382  51.6359234  21.3661361   6.7648900  53.8258600  32.5276542
   7.5208420  53.4550762  32.0723629   6.6711444  54.7046137  32.1599030
  58.0120564  52.5853682  32.8823876  57.4049139  52.5997829  33.6222553
  58.1054163  51.6573524  32.6672173  45.7574224  49.3779278  31.5542221
  45.6658602  50.0208712  32.2574115  46.0927582  48.5937738  31.9888258
  17.5948167  72.8028345  41.5905285  17.0009470  73.4811306  41.9121838
  18.3670580  72.8749466  42.1514845  23.1939888  84.0701199  46.1188173
  23.8211155  84.7723866  46.2913513  22.7615595  84.3296909  45.3052711
  16.4187872  63.3122158  52.5654745  16.7177916  63.4934235  53.4565353
  16.5543282  62.3712349  52.4540615  41.8355703  63.1333447  16.2468958
  41.3220406  62.3313856  16.1500251  41.5183783  63.5239744  17.0611608
  30.8888102  79.9508142  48.1131935  31.7787933  80.2997971  48.0644989
  30.3607011  80.5704308  47.6097965  49.7592306  76.0186148  36.3707471
  50.5484343  76.5149450  36.1538482  50.0261593  75.1020002  36.3014841
  39.4022346  78.8865185  55.8210802  40.0189114  79.4525766  55.3568411
  39.8041654  78.7468338  56.6785049  35.3905773  60.8993006  31.4494443
  36.3324356  61.0608530  31.3943410  35.2861166  60.3554821  32.2302008
  23.7618256  48.5437346  30.4787159  24.2288756  48.3294010  31.2862778
  24.4535899  48.6884642  29.8331571  34.8329210  58.7396717  19.5763528
  35.7163239  58.6628294  19.9368095  34.9498773  58.6372852  18.6318588
  38.4052324  53.8838625  33.2679892  38.7424970  54.0539265  32.3884678
  39.0186071  53.2510138  33.6414957  37.7556133  71.0805702  33.5893250
  38.6634159  71.3720846  33.5047889  37.6326919  70.9495544  34.5295143
  35.4748106  62.8947115  34.3329024  36.2462163  63.2573318  33.8973880
  35.3090763  63.4915257  35.0626802  55.6445789  70.9160471  37.6465821
  55.8268833  70.1840258  38.2357740  56.4378357  71.0010815  37.1176744
  44.8024607  66.8524170  54.4057035  45.6881571  66.5845919  54.1606617
  44.7452259  66.6624069  55.3421068  44.9722290 102.4055767  26.0007787
  45.2810240 103.2762718  26.2513137  45.0024748 101.8981552  26.8118548
  36.2044930  71.1951256  51.0371923  36.0832000  71.0257483  50.1029348
  35.4516363  70.7779121  51.4559650  49.2732716  46.4109612  48.0195332
  49.7679758  45.8318377  48.5992908  49.8157454  47.1961164  47.9454899
  72.9543972  81.6068554  25.4720163  72.4481106  82.4177170  25.5211186
  72.9272699  81.2533379  26.3611293  41.6774321  66.7498589  68.0253506
  40.7332230  66.8248367  67.8872108  41.9223738  67.5691605  68.4554434
  59.9016953  52.2123957  23.3564782  59.8696280  53.1682920  23.3947301
  59.2717600  51.9787073  22.6747131  36.8328214  86.5069389  43.7972832
  36.4444828  85.7241535  44.1880083  37.7766442  86.3538170  43.8418055
  33.7781739  66.5276575  44.2759371  33.0613804  66.1002779  43.8071203
  33.3530879  66.9731045  45.0088167  32.9774094  58.4382296  39.7713685
  32.1159530  58.7463903  39.4900084  33.5821724  58.7869072  39.1164494
  62.5853491  63.6924791  20.7569385  62.1033001  62.9011917  20.5166793
  63.2885265  63.7502432  20.1100755  51.3927269  48.6824799  40.7761669
  52.3326063  48.8610411  40.8073664  51.0789490  49.1818762  40.0222588
  42.2807741  37.1841288  10.5624342  42.9225969  37.8613853  10.3488553
  42.7407646  36.5997219  11.1650193  80.6050301  65.6246090  41.4925241
  81.4136791  65.4685450  41.0047054  80.2490807  64.7504950  41.6521025
  34.6136713  36.8472648  32.7095842  34.3033218  37.5818062  33.2390809
  35.2998757  36.4425683  33.2402229  35.9457350  72.9092503  39.5605159
  36.3010120  73.6829329  39.1229939  35.9221578  73.1478071  40.4872131
  48.1427574  64.8371506  52.7489376  47.3335648  64.6707773  52.2654533
  48.8395977  64.6701384  52.1143103  49.6188211  48.9847183  36.7794657
  50.3501606  49.4657707  36.3922095  49.5023441  49.3805265  37.6431775
  66.6060781  88.9949226  27.2743654  66.1020756  88.8917065  26.4671707
  66.1406755  89.6744537  27.7620816  21.4076066  43.4886169  19.1193712
  20.8979797  43.3167601  19.9111915  20.9262085  43.0418491  18.4230340
  61.4738607  63.6550570  41.6078520  62.0474100  63.0704355  42.1033192
  62.0556307  64.3417692  41.2819672  35.7404304  67.2340775  12.2605383
  35.0439668  66.7435217  12.6970315  36.4261794  66.5856600  12.1007466
  25.1903033  44.9529886  32.0075417  24.6165872  44.4748402  31.4088297
  25.6240869  44.2705822  32.5197816  25.4573393  53.1761694  37.0769000
  24.7855711  52.5215864  36.8858910  25.3737855  53.8179493  36.3716555
  56.2992191  52.8512383  24.5095587  56.6888762  53.7211943  24.5965624
  56.9881058  52.2506857  24.7941685  23.0474973  78.6517811  36.9220734
  23.1569219  79.5721769  36.6830492  23.6397409  78.1801701  36.3363576
  32.9723525  48.1762505  34.3320417  32.3626947  48.4153605  33.6339188
  32.4334145  47.7107573  34.9716496  36.4044309  43.7250805  25.3793979
  36.3369298  43.7517357  26.3338423  35.5632615  44.0614319  25.0703120
  51.4809418  39.1470933  37.5270033  51.4567041  40.0243044  37.1447110
  51.3958979  38.5570264  36.7781234  36.7264128  69.6734619  31.3384175
  36.2963223  68.8348627  31.5057683  37.2811103  69.8154354  32.1054816
  44.5539427  46.6852427  41.6563368  44.7977972  47.5550890  41.9727755
  45.3890228  46.2417364  41.5074348  61.8579817  76.6277361  35.3906298
  61.0548162  76.5608549  35.9070468  61.9673443  75.7588387  35.0042415
  23.2052755  54.8064232  53.7420607  23.0912352  53.9350557  53.3626604
  23.5241985  54.6414471  54.6293640  56.6003799  50.7852030  27.2167397
  56.8363523  49.9352121  26.8451762  57.1570539  51.4116478  26.7542315
  14.6850741  62.2250557  38.7989664  13.8368022  62.4792290  39.1623712
  15.3266644  62.6409721  39.3748212  58.1861544  51.4866686  42.0256758
  58.5028553  52.1604443  41.4240408  58.9497232  51.2624454  42.5575733
  64.5620108  69.0975285  14.7478783  64.6389055  68.1470442  14.8309267
  63.7338495  69.2314625  14.2869627  72.8950548  60.8154917  14.7053218
  73.3258820  61.0570145  15.5252528  73.0554962  59.8758650  14.6181917
  46.7251205  49.2014217  36.2787271  47.5468206  48.9861012  35.8375096
  46.9743299  49.3471050  37.1913600  50.3963232  59.1362858  29.4030404
  50.6323051  59.5499611  28.5727310  50.8557081  59.6513176  30.0663185
  21.4183617  43.0777693   8.7774593  21.4011574  43.2663345   9.7157443
  20.7218361  42.4337292   8.6497808  27.6293302  45.5798388   2.0635320
  28.5618281  45.5872440   1.8476012  27.2143602  46.0642576   1.3498323
  51.7524862  34.6907234  37.8353786  51.9480944  35.4733825  37.3201966
  52.2328043  33.9887524  37.3963332  56.6531706  65.5070782  50.3510046
  57.2597313  65.6436634  51.0787821  55.9471369  66.1343813  50.5067015
  35.8041096  72.5211048  48.3375454  34.8752451  72.5799608  48.1139946
  36.0364389  73.4024906  48.6298037  27.0722580  65.4303932   6.6003644
  26.3219976  65.1954842   6.0543239  27.6394105  65.9400320   6.0217106
  48.9295912  36.4858222  42.8055382  49.4003963  37.1498084  42.3018503
  48.0096245  36.6201234  42.5778341  24.2051935  50.9533119  23.7112331
  23.5333037  50.6012917  23.1273866  24.2049885  51.8944645  23.5366869
  63.4701872  58.9638281  44.1892719  64.1399193  59.3953085  44.7198486
  63.6810160  59.2120600  43.2891798  69.9257708  61.9836473  36.3392067
  69.7635508  61.4647818  35.5513644  69.0530300  62.2032166  36.6653061
  51.8696785  63.7803507  62.5357437  51.5157890  64.6566534  62.6876831
  51.8629217  63.6810637  61.5837336  47.0977688  51.7796469  44.1746569
  46.8115664  51.0805225  43.5868216  46.3822365  51.8715048  44.8037863
  40.0413132  60.5638170   0.4576823  40.7696056  59.9581909   0.5956790
  40.1565266  60.8764458  -0.4396582  11.0308003  67.5646496  14.6399260
  11.3403475  68.1825495  13.9776492  10.2037799  67.9365158  14.9464953
  18.1496990  54.6163988  33.2574868  18.3884251  54.6039724  32.3306155
  17.8062856  53.7393713  33.4281445  39.1019011  92.3718452  61.8551731
  40.0391245  92.2959709  61.6760445  38.6811042  92.1666431  61.0202742
  32.0352197  91.5542603  62.8514385  32.7221608  90.9016037  62.9870319
  31.9841051  91.6542435  61.9008493  70.8887339  57.6272726  40.6779528
  70.8370495  58.4033632  40.1200628  70.2918625  56.9994259  40.2707767
  18.4227884  58.0679417  37.7258801  18.6881995  58.5163784  38.5288072
  18.6412168  57.1490526  37.8813505  52.8718567  56.1635256  47.4841022
  52.9461813  56.9875431  47.0027447  51.9295692  56.0083103  47.5491858
  60.6877041  67.3935509  31.8313837  60.5181360  67.3804140  30.8894134
  61.6199017  67.5983620  31.9041014  76.0313320  48.1009960  12.9351747
  75.7492542  48.9403248  12.5715888  76.9447708  48.2425404  13.1838191
  35.4638958  55.7229471  47.0836830  36.3916183  55.6375074  46.8639946
  35.0811291  56.1783075  46.3337708  61.6539097  62.9256630  35.4689670
  60.9989643  62.2799683  35.2037168  61.2766171  63.7678432  35.2147746
  58.5301399  50.0086164  32.6678514  58.0602646  49.1768312  32.7276826
  59.4523859  49.7590637  32.6093960  58.6155796  54.0178299  36.2231636
  59.4154263  54.2595816  36.6900969  58.2943153  54.8414040  35.8560896
  40.4615593  61.2417269  51.9149733  39.8017812  61.6687870  52.4613667
  40.0276995  60.4539776  51.5871954  30.3021646  59.3014526  15.8915317
  29.7733331  58.5118914  15.7768214  30.9079790  59.0831661  16.5997493
  55.0089693  45.2470875  35.6842494  54.4876003  44.4734049  35.8983064
  55.2316904  45.1375484  34.7597861  57.3587751  24.2909837  31.8331480
  56.7742395  24.7012210  32.4705338  57.4439859  23.3862662  32.1339059
  43.2076931  61.5356493  25.1917768  42.9607153  61.9204760  24.3508577
  44.1346121  61.3183022  25.0927067  42.9609680  55.2882481  21.5305114
  43.2552528  54.3798399  21.4639854  42.1369362  55.3093052  21.0439301
  35.2815509  76.8784618  36.1240411  35.0346112  76.2100983  35.4848671
  34.9186468  77.6915407  35.7727170  54.7805452  67.1939325  24.3195176
  55.3393078  66.4526701  24.0859675  55.3808784  67.9371262  24.3786240
  54.0239382  36.9657469  26.0979891  53.9127827  37.8841543  26.3437629
  54.9160337  36.7511225  26.3706350  39.2608118  57.0976305  52.1429968
  39.2198825  56.1418295  52.1113539  39.2048502  57.3702097  51.2271404
  29.9708438  71.3804579  26.8782091  30.7806873  70.8794880  26.7811918
  29.2741871  70.7380104  26.7434502  64.0939522  65.6597185  33.7373567
  64.9220800  66.0510492  33.4593320  64.2575216  64.7167253  33.7218785
  63.0005980  59.0561056  39.7693491  62.0437098  59.0519476  39.7934222
  63.2191467  59.6252346  39.0314054  73.1855249  59.6716118  36.7866206
  72.4166298  59.1041374  36.8414879  72.9108858  60.3930044  36.2205863
  46.2597656  75.8463049  34.6399426  46.4028645  76.6960287  35.0567484
  45.5386686  75.4557705  35.1336360  28.3281851  73.5247421  26.4482331
  28.7993455  74.3577099  26.4280343  29.0155244  72.8597546  26.4083910
  44.2476463  56.1958933  43.7904882  44.1695356  57.1471357  43.7179041
  44.4944859  56.0447741  44.7028828  77.1234465  62.3578978   5.8071184
  77.0704746  61.4035606   5.7554555  78.0573702  62.5507641   5.7244849
  83.0903816  54.2249393  24.1932487  83.5520744  53.4268904  24.4505239
  82.4884129  53.9420509  23.5048890  61.0571289  53.5136032  43.9464998
  61.4008427  54.0814924  43.2568645  61.1561012  54.0251207  44.7494841
  35.0178695  85.2265358  40.2380228  34.5912790  84.7762585  40.9670687
  35.1321602  84.5487690  39.5718336  38.7399435  68.0625534  32.9812050
  39.5563555  68.5300207  32.8046417  38.7491465  67.9131365  33.9266276
  63.4517717  62.1055841  42.4734545  63.4622049  61.1790752  42.2332382
  64.3749475  62.3368931  42.5757885  50.4734039  45.3492069  38.1732345
  50.8164549  45.7888460  37.3952460  49.8147106  44.7427511  37.8347659
  53.5158730  60.3781748  19.7700298  52.9188013  59.6358013  19.8628342
  53.0611515  61.1057663  20.1943779  42.7336168  62.9646683  44.7992277
  42.7959871  63.8980961  44.5966005  43.0919886  62.5274324  44.0268087
  41.8963528  58.1241226  34.7537494  41.7839622  57.7968502  33.8612843
  41.5965796  57.4063635  35.3115916  57.7926779  47.6579762  35.9289145
  57.2954321  47.0908213  36.5182519  58.4845734  48.0264139  36.4782476
  59.7758150 108.2287025  50.8688879  60.2872992 107.5329399  50.4559517
  59.6554804 108.8799381  50.1777649  57.8284931  72.2535086  28.7936068
  57.2314548  72.9732275  28.9980078  57.8886795  71.7536831  29.6077228
  57.0649099  73.0594730  48.9861107  56.4377832  73.6907244  48.6333084
  56.8302870  72.2303009  48.5693932  57.1502447  63.3058691  47.0049572
  57.5424194  63.6562443  46.2051630  57.8975058  63.0686426  47.5540972
  47.1086216  93.0544472  42.0027971  46.6838837  92.6282978  41.2583351
  46.5850353  92.7917862  42.7598286  43.0982113  55.6233835  30.9350681
  42.9014587  54.7041988  31.1156774  43.7143803  55.5970716  30.2030325
  49.7153425  62.5271559  28.4098554  49.8481512  61.9376564  27.6675010
  49.6366453  63.3955622  28.0150104  40.7456827  70.9369850  52.5027657
  40.9241533  71.5435314  51.7841005  41.4973688  71.0310841  53.0878687
  65.0000334  80.7036018  23.7106895  64.7294521  80.1902294  24.4719195
  64.7894430  80.1481819  22.9600930  32.6552534  82.4532795  35.8626270
  32.2847986  83.3293056  35.9702420  31.9395399  81.8606853  36.0924315
  53.0413151  86.9333744  52.0113468  52.8083467  86.2850094  51.3468313
  52.5815487  86.6443253  52.7995682  68.2442856  67.8012085  35.3629184
  68.1215811  67.9281807  36.3036919  69.1468143  68.0752754  35.1999497
  59.3863678  46.7801285  21.2300968  59.3172312  47.3090267  22.0249033
  60.1107979  47.1730280  20.7432103  71.0575294  62.2873831  47.0463848
  70.5884933  62.7038336  47.7694368  71.4976692  63.0099201  46.5986729
  57.9466105  58.2501268  28.5040021  57.6750231  58.3496046  29.4164562
  58.2906485  57.3583889  28.4523654  75.1727772  59.8932934  34.0254164
  75.9343100  59.5557165  33.5538864  74.5112324  59.2075396  33.9341545
  58.1775331  75.6334734  15.9199524  58.2080793  74.9885559  15.2132833
  58.4163666  76.4600086  15.5003941  63.3831835  76.0161448  48.6165333
  62.7745962  76.2806273  49.3063879  64.2146063  76.4219379  48.8621044
  48.4536076  58.0890608  33.4009886  48.3437824  57.1855402  33.1046462
  47.5669575  58.3811998  33.6125016  45.2107954  55.2392197  46.1752558
  45.8108664  55.6955004  46.7651367  44.6347284  54.7428131  46.7566013
  56.6470623  57.7509737  51.9048357  56.8507385  56.8837929  51.5544796
  56.9817162  58.3599329  51.2465000  36.5532517  86.4065838  24.2260790
  35.7547021  86.4621735  24.7509193  36.3894272  86.9821835  23.4790349
  66.4006805  57.7364731  14.9432683  66.7800426  57.4363232  14.1172993
  65.5388212  57.3213005  14.9758554  61.2476063  60.4569626  46.2834358
  61.9147539  61.1432409  46.2705564  61.4413834  59.9201012  45.5150175
  69.6117163  51.7116356  35.0666213  68.6902428  51.6340065  35.3137875
  70.0868797  51.6664171  35.8963251  57.9718256  79.7829485  32.4708557
  57.7553368  78.8666821  32.2981668  58.6456108  79.7460175  33.1497335
  38.7966323  57.6614857  54.7234535  39.0858650  57.5422812  53.8188171
  37.8690338  57.8862047  54.6506977  61.1453724  73.6968613  55.3279400
  61.1715269  73.0703020  56.0511112  61.7563677  74.3868017  55.5865860
  40.0831890  67.7451038  44.6456528  39.6641421  68.6046696  44.6878529
  39.3841434  67.1510077  44.3725014  69.4111872  77.3022223  23.2363725
  69.9349880  78.0995512  23.1580806  69.9595261  76.6169453  22.8543353
  53.2599068  71.5623236  33.4615445  53.6687231  72.4120617  33.2970881
  52.3876524  71.7762518  33.7926507  59.1773939  84.6892452  56.7653656
  59.4940186  85.5924511  56.7796326  59.9011850  84.1760159  57.1244621
  74.5259523  78.0437994  28.0458760  75.4236937  78.1642103  27.7363729
  74.1286850  78.9115191  27.9718947  49.2647648  72.9520750  47.9978895
  49.6899700  73.2934666  48.7845802  49.9821377  72.5976658  47.4725294
  35.3130388  87.3246861  37.2746992  34.4051886  87.0509911  37.4055862
  35.2471304  88.2110023  36.9192743  49.1897058  72.4826765  30.4868197
  49.1131878  71.8603277  29.7635913  49.8646593  73.0988359  30.2021909
  60.3230000  97.3008728  34.7415543  59.9798155  98.0895805  35.1615405
  60.8821154  96.8993092  35.4066658  34.9680471  69.5572138  44.1023302
  35.4327154  69.7223616  44.9227190  35.0498533  68.6132240  43.9665699
  44.9831247  66.0687923  42.1869040  45.2383614  66.8591785  42.6626873
  44.4249678  66.3862848  41.4770460  71.0587263  66.4857054  27.3910832
  70.5151129  65.9541607  27.9726100  71.8999481  66.5511847  27.8430724
  42.2985983  99.4983578  27.2094655  43.0805492 100.0251007  27.3747730
  42.5251484  98.9661407  26.4468050  48.8779449  64.3289566  46.6673231
  48.7244701  64.3785667  47.6108360  49.6871281  64.8215199  46.5300655
  25.9244847  55.2957964  16.6754377  25.7928729  54.9147987  17.5436246
  26.5812588  54.7337961  16.2643003  69.8625422  78.9404249  36.6002417
  70.3418207  79.7294903  36.8530202  69.4724989  78.6255598  37.4156904
  43.7246227  69.0263319  52.7545595  43.1099367  69.5585918  53.2596254
  44.2648220  68.5926437  53.4151125  52.1816063  67.3397779  52.0039558
  52.1212769  66.6055584  52.6151133  51.4915228  67.9413652  52.2834349
  48.9100885  65.7699203  24.7118068  49.5809984  65.9073925  25.3805470
  48.0870676  65.7445335  25.1998901  57.0025063  62.1611595  43.3071280
  57.6477242  61.9038200  43.9656878  56.4094543  62.7522135  43.7709999
  48.3005810  64.8820162  37.3758745  47.9161835  65.5872869  37.8965163
  48.9939976  65.3073168  36.8713665  26.3664126  56.4007092  40.6067944
  26.9479132  56.3477802  41.3652706  26.5125155  55.5806112  40.1352835
  47.7876806  64.1361141  55.8117104  47.5014591  63.5537720  55.1080179
  48.4023523  63.6098385  56.3230228  52.8635025 101.1630630  44.0830994
  52.8235531 101.8256187  43.3934212  51.9749355 101.1325932  44.4377184
  61.3717127  60.8172798  53.3056736  61.3021421  60.1825953  54.0188074
  60.4648304  61.0239077  53.0796194  25.8192539  95.3540611  58.4235096
  25.9434724  95.0063133  59.3066120  26.6457653  95.7919121  58.2200623
  63.1110716  70.4550362  60.0819540  62.7914381  70.3440714  60.9773588
  63.5828400  69.6437073  59.8937702  52.4774456  87.6418018  20.4121757
  52.2858477  86.9955635  19.7325468  52.8123522  88.4002876  19.9338734
   9.3972242   1.6837175  96.7519474  10.2293801   1.5895034  97.2154903
   9.4129300   0.9935427  96.0888863  58.3013248  62.5666618  55.4394436
  58.8217640  62.0290661  56.0364056  58.4893703  62.2107983  54.5709801
  46.4374495  16.8914115  94.0242195  47.1250963  17.4131191  94.4379711
  45.6626558  17.0442200  94.5651245  46.8441677  55.7653236  26.9647241
  47.6542139  55.7704496  26.4547896  46.9342327  55.0131369  27.5498199
  72.4474621  73.6579800  24.2522669  72.0061970  73.1823730  24.9560547
  73.3189344  73.2646227  24.2070961  44.7581768  74.4539070  38.9377880
  45.4072189  75.1453876  38.8080692  44.0738964  74.6442604  38.2961059
  59.3430138  97.5929737  56.2115955  59.5944643  96.9474983  56.8721771
  58.5857964  97.2046566  55.7733440  76.1790943  70.5460310  45.0362349
  76.1134434  70.9418869  44.1672039  75.3026867  70.2024889  45.2097702
  31.8190837  55.9879160  16.0118115  31.0009909  56.2916183  16.4051592
  31.5569258  55.6196070  15.1680982  62.6907539  48.1791735  37.3397064
  61.8634462  48.0628014  36.8725324  63.0992079  48.9355850  36.9187045
  51.1894178  64.6096039  39.5084500  50.6765366  65.1950979  40.0655651
  51.2284756  65.0567198  38.6629963  54.3051767  38.8278008  45.9021854
  53.5822773  38.2381940  45.6876659  55.0059891  38.2485271  46.2014103
  41.9924307  56.0321379   9.7361720  41.3553619  55.3975439   9.4080508
  42.5050545  56.2770987   8.9658201  77.4854136 105.7284737  57.2366858
  78.0543470 106.4586830  57.4802971  76.9059849 106.0897541  56.5658903
  62.0947409  73.4592962  41.9082642  61.5299892  74.1552210  41.5721369
  61.5309620  72.9561377  42.4958134  66.1184740  73.7249613  34.6845412
  65.6537008  74.5079470  34.9797583  66.8187428  74.0591717  34.1240382
  75.5995417  59.0393686  26.2414527  75.3404379  58.6063766  27.0548487
  76.3530779  58.5366869  25.9320450  34.3499374 103.1410599  26.6372156
  34.8301530 102.4811363  27.1373391  34.9094582 103.3235073  25.8823109
  52.3261118  65.6566334  49.1540384  52.1773529  66.5741777  48.9255285
  52.8963280  65.6905031  49.9221087  67.7184916  74.1294384  13.8784492
  67.6745892  73.4610081  14.5621920  68.2482958  73.7311935  13.1878412
  69.2660666  89.9276924  35.6218743  68.8416100  90.2919769  34.8451090
  69.3516111  90.6710052  36.2188697  56.6205454  75.5993271  42.2390699
  55.7511950  75.4144192  41.8837309  57.0776939  74.7591209  42.2030544
  53.8511038  51.6098404  34.1216397  54.6731710  51.1478472  34.2859650
  53.8349867  51.7401552  33.1734896  45.9144258  71.1920929  10.5281007
  46.6163921  71.7662811  10.2218628  46.2679672  70.7814217  11.3171434
  78.2562637  96.1047268  35.7955670  79.1708755  96.3399029  35.6393218
  78.0305862  95.5245018  35.0684905  49.8730087  64.5024347  50.5217171
  50.7895851  64.6747637  50.3062630  49.3965340  64.6974325  49.7147608
  49.0767288  81.1135006  31.5598750  48.3052063  81.6681194  31.6755557
  48.7757063  80.3982735  30.9994555  64.3018961  86.4811897  31.9456291
  64.3477869  86.9196606  31.0960007  65.0335503  85.8640766  31.9365120
  58.9264822  61.9194555  45.0885725  59.2559624  62.6317644  44.5405817
  59.7141504  61.4866114  45.4178905  64.2165995 100.3654003  50.9814072
  64.6462584 100.4761028  51.8295622  64.6944523  99.6495914  50.5624628
  49.4271898  75.0161362  40.4302216  49.3982649  75.8540487  40.8920670
  48.7157011  75.0696659  39.7921395  56.5857172  61.8090057  31.3524985
  56.0288906  61.1216593  30.9867978  57.0449352  61.3848639  32.0773816
  28.4060717  63.3954620  63.6193562  27.6303053  62.9558134  63.9673853
  28.3780265  63.2216120  62.6784945  72.9391336  81.9394588  14.1515946
  72.8461599  81.2597466  13.4840810  73.6431932  81.6240311  14.7181916
  69.1698027  60.1629734  34.1212678  69.5541000  59.3537998  33.7839556
  68.4906387  60.3887129  33.4856486  96.7386341  85.2828217  14.7079754
  95.9445953  85.2922344  14.1735148  96.8820095  84.3577194  14.9076343
  71.2853432  82.3150921  29.9355555  70.3418779  82.1873760  29.8365855
  71.4089823  83.2606888  29.8531389  47.5191545  64.8762894  49.0372705
  47.2818708  65.7534266  48.7363291  46.7261982  64.5450497  49.4588566
  52.7531862  69.8912191  42.9536200  53.1244993  69.4842672  43.7364006
  52.8286743  69.2196131  42.2757721  51.7052603 100.6272030  35.5303216
  51.8574953  99.9163246  36.1529851  52.2466040 101.3478661  35.8525324
  36.8420482  75.9726524  19.5072877  37.3011637  76.7665243  19.7815251
  35.9835529  76.2806702  19.2168713  65.2458668  66.0024786  46.6055536
  64.5113468  65.9034109  47.2112751  65.2490616  66.9334936  46.3832092
  35.9842539  78.2222891  65.8713198  35.7302189  79.1319418  65.7156420
  36.4474154  77.9632664  65.0746918  29.0840816  13.2922018  93.3816433
  29.9242377  13.1930232  92.9338264  28.5073948  13.6829042  92.7251244
  65.1662445  80.4527187  50.0189590  65.6935883  81.2359238  49.8617315
  64.9697733  80.1167297  49.1444635  76.5796900  86.8164635  37.1374989
  76.4164543  85.9125233  36.8682742  75.7336330  87.1267605  37.4601912
  62.9157209  65.4646015  48.1235886  62.0852900  65.6492662  48.5623550
  63.0574179  64.5283175  48.2633162  72.1585274  89.1636372  39.5874453
  72.8022099  89.4977856  40.2121449  71.4277601  89.7792625  39.6441293
  41.5412951  63.7528133  11.7706621  41.6543055  63.4946537  10.8558869
  42.1633863  63.2073879  12.2520590  72.9031897  72.5702333  40.5365372
  72.5921249  71.7608356  40.9419346  73.2865572  72.2898960  39.7054696
  32.6550603  87.0267200  33.0456233  31.8348956  86.6969872  32.6784205
  33.3305097  86.7095661  32.4461102  13.0994856  74.8241854  60.3987694
  13.3128452  75.5628109  59.8285532  12.4331117  74.3342972  59.9169159
  60.8741522  96.5923977  21.6674948  61.0197020  95.7133102  22.0171523
  60.3310728  97.0252800  22.3262119  33.6828303  81.6501141  40.5483103
  33.3453655  80.7545471  40.5657482  34.1887617  81.6996765  39.7372556
  72.5274086  69.7112370  37.5597811  73.1728888  70.4089117  37.6730847
  71.6937304  70.1146841  37.8015304  44.7894526  65.7762527  22.3158765
  45.4273701  66.4503860  22.5500584  44.1082096  66.2474537  21.8361807
  71.1229658  83.7953281  25.5402684  71.0750580  84.7512722  25.5304003
  70.2984715  83.5183048  25.9399009  46.7328978  91.9012642  47.5486898
  46.8718719  91.3748741  48.3359814  45.7821417  91.9231796  47.4399757
  49.4019747  65.5353832  42.3472500  48.6502457  65.1504183  41.8967581
  49.3110323  65.2460766  43.2551384  45.7805967  57.7898455  29.7846174
  45.3403902  57.4951458  28.9873695  45.0740862  58.1173611  30.3412223
  35.0534058  65.9182882  39.9576569  35.2747059  66.0880709  39.0419984
  34.3477321  65.2727890  39.9177957  65.7615709  88.0689621  49.5144796
  64.9960852  88.6415863  49.5631218  66.3712072  88.4288311  50.1587391
  82.6242352  62.1747780  25.2711821  82.3114109  62.9780149  24.8550248
  81.9673347  61.5163374  25.0449800  68.4034157  61.6303253  40.1232815
  69.0510416  61.8781710  40.7831192  68.1044769  62.4624681  39.7566748
  31.4943814  60.9521627   9.9070466  31.8904328  61.1991978   9.0713751
  30.6887412  60.4956484   9.6646178  24.1113949  72.0407057  27.2584677
  23.4453225  72.7119017  27.1099019  23.7316251  71.2414742  26.8934488
  62.1481466  78.5816431  46.4972973  61.4875984  78.8376331  45.8535814
  62.2457647  77.6369858  46.3776016  47.5736570  65.3371429  44.5144701
  47.1861553  66.1988640  44.6677971  47.5986481  64.9283886  45.3796434
  41.2251425  84.2418861  17.3124170  41.3165951  84.4464779  18.2430124
  40.2809238  84.2553806  17.1558845  58.0854273  63.4236526  34.4922161
  58.3689308  63.4834528  35.4045129  58.3390856  62.5417614  34.2198992
  53.1620502  88.6239624  32.4361086  53.3942223  87.6967335  32.3852777
  53.6284590  88.9457130  33.2075810  47.8191233  54.0498447  36.6586018
  48.0679083  54.9179840  36.9758940  48.6365843  53.5518599  36.6576076
  25.4801321  69.6462440  69.7265148  25.3333974  70.5799961  69.8775339
  25.5220866  69.5613623  68.7740088  81.3955784  88.8946533  35.2828240
  81.2786007  89.8034191  35.5597401  80.5829430  88.4593010  35.5403781
  32.3411679  70.0227308  27.3372388  32.0189428  69.7553396  28.1979966
  33.2120967  69.6304941  27.2750759  56.4557314  67.8263855  53.1900883
  55.8675003  67.5191402  52.5002909  56.1010408  68.6779308  53.4456205
  46.8693924  69.3055439  56.3535595  46.5989637  69.9007559  55.6544018
  47.1288919  68.5041952  55.8988857  60.2207088  61.3889170  56.9939327
  60.7555246  60.7697010  56.4971638  60.8368397  61.8109798  57.5926638
  40.0153732  46.6047192  41.8693447  40.2424526  46.9484568  41.0053349
  39.0698218  46.4613676  41.8291473  45.5383158  59.9365330  44.6708155
  46.1592293  60.2579021  45.3245878  45.2000856  60.7281399  44.2522478
  56.3675451  74.6110916  29.8924279  56.3376665  74.7324467  28.9434218
  55.8049202  75.3030014  30.2401996  62.5398016  60.0750637   4.2361745
  62.6553392  61.0250759   4.2171046  63.4279680  59.7273397   4.3166879
  61.9885683  70.7262659  50.3452778  61.2379217  70.6389618  49.7577906
  62.6017380  70.0521898  50.0522280  40.9139919  69.2228031  32.2447586
  40.8629131  70.0382614  32.7434087  41.8521738  69.0572071  32.1518993
  50.0041342  72.3291016  53.6665535  49.5045853  72.0721340  54.4415665
  50.8972406  72.4535370  53.9876652  59.4850826  63.3975077  39.6524525
  60.3011179  63.3471727  40.1502323  58.8576365  63.7890768  40.2600861
  96.8878555  93.1875896  26.5640640  96.6719913  94.0717030  26.8606567
  96.6493702  93.1810188  25.6370735  44.7864914  84.1269970  51.8666697
  45.6451035  83.7138653  51.9579697  44.4056845  84.0843487  52.7438211
  58.4567213  63.3755827  37.0935655  59.0388680  63.3917284  37.8532219
  57.7947187  64.0399218  37.2849655  79.3671274  74.7436905  32.1941662
  79.7418404  74.8255968  31.3171744  78.4255409  74.6573591  32.0452094
  33.4147978  82.1737289  15.0109780  33.6272430  81.6300678  15.7696176
  34.2072654  82.1563339  14.4743931  46.4048815  71.0326147  54.3444347
  45.8379841  71.3517094  53.6422682  46.5833473  71.8066072  54.8785877
  67.5874090  73.7554979  30.5444050  66.9569206  74.4504690  30.7334352
  67.0802164  73.0931425  30.0750732  57.4066162  64.2724180  41.7345953
  57.5098848  63.6058569  42.4137592  56.6291380  63.9995575  41.2474537
  53.2603168  70.9909439  23.6906981  52.5249577  71.4683628  23.3065748
  53.0468845  70.0685549  23.5497117  22.2681141  78.3477879  41.1885309
  22.5413752  78.9287853  41.8984604  21.6574073  78.8726950  40.6710911
  45.1513863  61.6273260  57.1812916  45.2370024  62.4015379  57.7376175
  46.0529947  61.3672924  56.9923162  73.2520962  76.2551308  43.9877653
  73.3049774  75.4546022  43.4656620  74.1237545  76.3484049  44.3721437
  44.4195080  91.5357494  32.8453135  45.3742123  91.4666557  32.8453326
  44.1168547  90.6720448  33.1257463  58.6826420 112.4796200  19.7460639
  58.8399649 112.0317459  20.5772567  59.4580317 112.2861290  19.2192185
  53.3193731  81.9046497  28.9962864  53.3847904  81.3993073  28.1859899
  52.8924370  82.7207947  28.7357616  43.2850552  80.3730011  58.6665726
  44.1674948  80.0335884  58.8160181  42.7084303  79.7331333  59.0840769
  29.9374866  71.5418768  41.1915445  29.0359068  71.8634033  41.1941624
  30.4356551  72.2220516  41.6447830  40.1052761  60.0995493  36.6121697
  39.6548223  59.3612719  36.2019587  40.1116800  60.7801437  35.9391308
  60.0604439  59.7625256  36.8941784  60.2206516  60.6424570  37.2351813
  60.9034920  59.4884109  36.5331173  79.2590809  72.3993015  40.7605314
  79.6842527  73.2476330  40.6348658  78.7195921  72.2835732  39.9783611
  42.9931211  90.4337120  24.2770743  43.3151102  89.6510601  23.8298392
  43.5645914  91.1373901  23.9697027  55.8865643  59.3966722  26.7697859
  56.7112350  59.2314053  27.2267771  55.2509356  59.5470095  27.4695086
  42.7582693 103.4346581  35.9634161  42.4262953 104.0056324  36.6562414
  42.3423433 103.7600327  35.1650620  42.3054934  85.0094795  34.7300315
  41.8397903  85.6870365  35.2202106  43.2008648  85.3398132  34.6563911
  63.5664797  75.6613159  30.6442142  63.6050320  76.1883020  31.4423561
  63.3236694  76.2830925  29.9581623  49.2232227  68.8713312  37.6119876
  49.8084402  68.3493423  37.0630980  48.3703279  68.8060474  37.1824098
  54.5551157  64.8964167  21.8283439  54.5901823  64.6610069  22.7554822
  55.0387430  65.7205343  21.7720270  39.6922207  73.5541201  63.9964247
  38.9406657  73.2883406  63.4665585  39.3087006  73.8705301  64.8143673
  44.8189306  59.4474125  16.5067184  45.5847692  59.9847078  16.3041532
  44.4101715  59.8849058  17.2535443  42.5198698  67.5980806  46.3216639
  43.0936241  66.8857479  46.0395002  41.8791199  67.6834726  45.6157064
  52.8095484  75.5089283  17.4334002  53.2873583  74.7519016  17.7722907
  53.4367418  75.9517241  16.8617463  62.8641701  79.3996716  34.1150618
  62.5974274  78.6631680  34.6651864  62.1618986  80.0419521  34.2176747
  38.9487457  58.8711357  50.0584602  39.2518902  59.5560646  49.4624662
  38.0003762  58.8455057  49.9312973  68.2700777  79.1193819  14.7364545
  68.6516714  79.6514225  15.4347026  67.7859926  78.4330511  15.1956308
  65.9040594  48.1953382  40.7108116  66.1176157  47.6459932  39.9565959
  66.5117455  47.9113626  41.3936853  55.8495188  63.8467026  53.1035423
  56.5789938  64.2102194  53.6054945  55.2143955  64.5610142  53.0525017
  64.7942019  76.1025047   2.6620272  64.7103405  76.8482542   2.0678440
  63.9579582  75.6425619   2.5886267  44.8295498  57.3553514  35.8551264
  45.0626040  56.8228626  36.6156340  44.3801403  56.7487478  35.2666593
  48.2029867  60.8277559  34.9939632  48.3202410  61.2705374  34.1534710
  47.5489330  60.1511145  34.8190236  72.9995871  68.7190676  42.6587296
  72.7221489  68.7537479  41.7432785  73.5728931  67.9540396  42.7064371
  66.9739628  59.6987057  47.1500349  67.8751373  59.3764496  47.1661615
  67.0376253  60.6034803  47.4559164  65.6590176  85.1662540  50.4585314
  65.5075359  86.0562229  50.1403427  65.3040743  85.1660633  51.3474894
  48.4522390  61.8370819   8.8108283  48.9630175  61.0777473   9.0914446
  48.9903307  62.5906229   9.0534407  44.3271494  58.1116247  46.9601965
  44.7430944  57.5407362  46.3142061  43.4388924  58.2418060  46.6281080
  54.4843483  71.1283302  40.6518269  53.9106083  70.6336451  41.2369251
  55.2225065  70.5414772  40.4876471  28.0115175  51.9568825  51.6257811
  28.0745888  52.8412676  51.9865084  27.0710182  51.7944622  51.5528727
  45.5612469  54.3459320  42.0782185  45.1476002  54.9112797  42.7305317
  45.1129103  54.5572281  41.2593317  64.8992872  72.5070858  58.7501669
  64.1736126  72.9139423  58.2767773  64.5466757  71.6718102  59.0571117
  17.3406148   5.4222012  91.3574982  17.9490280   4.7728673  91.7102432
  17.9033589   6.0858548  90.9586048  26.6487813  78.2904959  44.9642324
  25.9497261  78.7092161  45.4664564  27.3425698  78.9487648  44.9246216
  73.0519867  63.5564995  25.6594896  72.6434326  64.3733597  25.3730392
  73.8024664  63.4464455  25.0756216  44.3400669  71.6728687  56.9781113
  45.0618362  71.3576174  57.5220776  44.7444677  72.3101234  56.3893843
  67.3827314  86.2465572  48.1198359  67.1138430  87.1385002  48.3397627
  66.7023611  85.6907272  48.4998178  42.3410702  90.4374123  26.9402051
  41.9683552  89.5564842  26.9760633  42.5537014  90.5700970  26.0163999
  41.8822289  93.3764935  64.3957758  41.8326902  93.1226254  63.4741831
  42.7666235  93.7274075  64.5003366  54.2001295  62.2604418  38.0198789
  54.1544962  62.1629620  38.9710093  54.1482019  63.2048988  37.8731441
  83.6745071  58.3999586  34.2327666  84.0614128  58.4702921  35.1054573
  84.1822624  57.7133894  33.8002825  78.7028074  71.4038944  43.1173992
  77.8701496  71.7827511  43.3991480  78.8170528  71.7171192  42.2201443
  58.6138391  81.5427113  22.5696850  58.9170170  80.6905842  22.2563243
  57.7385235  81.3723946  22.9175973  32.3686218  86.8865871  51.4486027
  32.0942378  87.1701050  52.3207045  33.2976389  87.1128750  51.4044476
  44.7913265  81.6615868  43.6059141  43.9259100  81.8865204  43.2643175
  44.9804115  82.3454952  44.2483664  65.9711647  60.8072233  14.9806392
  65.6460714  60.5929375  15.8550692  66.4466524  60.0241232  14.7033286
  57.2109938  71.4705896  35.3678656  57.2275734  70.7491446  34.7389984
  56.8021393  72.1936274  34.8921680  37.7984095  70.1618433  42.0210457
  38.2606983  70.9690762  41.7954540  37.8923392  70.0894880  42.9708767
  69.1350460  55.1084805  32.6057792  69.4779062  54.7245264  33.4127855
  69.6659136  54.7191477  31.9109178  71.5187740  75.6857347  14.0513861
  71.2468243  76.5485430  13.7386072  71.0040808  75.5459356  14.8462319
  98.4624290  99.1161060  96.3561249  98.0003929  98.5979748  97.0151424
  98.3516788  98.6232185  95.5430889  56.3324928  49.5287371   8.9795607
  56.4215517  48.7256765   9.4927794  57.0877361  49.5221710   8.3915168
  37.9611993  70.1655340  52.9482651  38.8790703  70.4298592  52.8860235
  37.5114560  70.7072306  52.2997856  79.0600872  31.6153288  22.1679044
  78.1067276  31.5313315  22.1846008  79.2686081  32.1326685  22.9457951
  36.5193677  66.2496710  37.3850965  36.6893101  66.0262489  36.4699817
  36.9220614  67.1103716  37.5002670  56.1496592  29.7312236  24.3781137
  55.7919693  30.4048848  24.9564481  55.6232595  29.7955179  23.5812426
  66.0261059  61.8599319  31.5572739  66.6107702  62.3504734  30.9795451
  65.8907461  62.4381018  32.3080277  43.8992739  54.8915672  39.9086118
  43.7329483  53.9793301  39.6711373  43.0531311  55.2172613  40.2155352
  72.0427132 106.6911983  25.3639793  72.2152472 106.8446064  26.2929177
  72.6887226 106.0337543  25.1057696  68.8064480  92.7521610  36.7607617
  67.9037046  92.4534321  36.8705392  68.7746048  93.6882877  36.9579577
  56.6479301  78.9681959  29.1565633  56.0613298  79.3723726  29.7959161
  56.9311523  78.1539726  29.5725632  64.7334290  78.3426714  38.8756990
  65.2463961  77.7013493  38.3839631  64.2432356  77.8208923  39.5110655
  58.4396553  82.7964497  47.4225903  57.8758049  82.7840042  48.1959915
  59.2817783  82.4654007  47.7347851  64.1130686 103.5839367  21.2400651
  63.7415075 104.4657993  21.2623668  63.9973736 103.2981300  20.3338861
  77.5225830  82.0024776  35.9599829  77.5356340  81.5299892  36.7923355
  76.6227627  81.9109058  35.6466722  81.7312050  96.8861961  42.2411060
  81.2085915  96.9265842  43.0420303  82.6248837  96.7291451  42.5459099
  60.0822496  92.1560001  35.1934743  60.1258707  92.5990295  36.0408545
  60.9657240  92.2383022  34.8344135  41.7622852 110.1009464  36.2227011
  41.7905283 110.8601952  36.8049169  41.5740824 109.3621540  36.8014932
  86.6821003  59.8495960  23.9429641  87.3268986  59.3659925  24.4592977
  86.0139370  60.1098108  24.5770597  67.9986191  83.2385349  25.6186175
  67.8015280  83.4176540  24.6992159  67.3142195  83.6988354  26.1043692
  81.5503120  86.6922474  28.7922883  82.1173382  85.9214878  28.7669325
  80.7342529  86.4027596  28.3842659  65.5013609  89.2028236  11.1168230
  66.2599945  89.3873882  11.6705751  65.7757902  88.4645367  10.5729079
  57.0840645  80.0353813  54.4418287  57.6955700  80.7157516  54.7235775
  57.2098351  79.3249035  55.0708246  58.8565350  84.0452003  34.2039013
  58.9789152  84.4680023  35.0539017  59.6351528  83.4994984  34.0935183
  88.0205059  85.5015087  37.4713302  87.4223137  86.1851788  37.7729797
  88.4715939  85.8912849  36.7224479 101.9984436   2.8600177  48.2914686
 102.7515697   2.6264203  47.7488232 102.1462631   3.7765613  48.5245562
  67.9416227  81.6504288  35.0996637  68.8228559  81.7632484  35.4559374
  67.4312639  81.2997341  35.8295774  70.6477785  83.0528164  36.0038733
  70.4121256  83.9784241  35.9411097  71.1680365  82.9919052  36.8050313
  59.8188829  79.7310019  35.0299287  59.9494457  80.4249573  35.6761575
  59.9670410  78.9199352  35.5161905  70.3364849  93.5478783  22.9986215
  69.9986792  94.1538715  23.6580849  69.9421215  92.7051449  23.2233667
 109.1185665   1.8026580  20.0940704 108.9609432   2.6763341  20.4519486
 109.6975613   1.9509679  19.3464041  80.2183437  85.1995277  34.0787148
  80.4353619  84.4535637  33.5195470  79.7880888  85.8215046  33.4919810
  80.3661537  90.7268333  19.9269199  80.8026505  89.9440193  20.2629328
  80.7149029  90.8343315  19.0420187  65.3619576  84.8208809  37.5070238
  66.1227465  84.3470097  37.8430009  64.7362661  84.8137283  38.2313776
  88.8131046  88.6815453  39.6394277  89.0996265  87.7722836  39.5536065
  89.6246910  89.1808701  39.7301102  83.1367970  93.4775734  33.9438176
  82.7093124  93.1439114  33.1550479  83.7155056  92.7673817  34.2212534
  78.1055880  98.9886284  20.1823425  77.1607924  98.9590073  20.0316286
  78.4667349  99.3432045  19.3698871  77.6862383  93.5599804  23.4428883
  77.8174496  93.3342457  22.5219870  78.5406017  93.4144688  23.8492393
  68.3814192 108.7913895  36.1547327  69.2470312 108.5315037  35.8394480
  67.9727745 109.2228222  35.4043269  67.5410414  71.0945845  32.8718400
  68.1600571  71.8230963  32.9200315  66.6793203  71.5109730  32.8886795
  68.3843422  73.2655048  24.1390753  68.9526367  73.9545822  23.7949109
  68.6491108  73.1714535  25.0541067  60.2317429  89.4304371  16.9192493
  60.0304270  90.1053333  16.2710094  59.4826651  88.8354397  16.8860888
  59.6958303 108.9544296  40.4471397  60.2665091 108.2718182  40.8001328
  58.8611364 108.5122967  40.2921200  75.3878117  91.4516258  17.4131858
  74.7197533  90.8052349  17.6414740  76.0666323  90.9466171  16.9655240
  48.8844681  85.2426815  25.0081372  49.0561390  84.6113873  25.7068706
  48.9412451  84.7293091  24.2022514  47.2780228  56.7133999  47.3514462
  48.1229877  56.3267565  47.1217251  47.4017859  57.0494032  48.2391453
 110.9767246   6.6200936  29.6308613 110.7138443   6.2450278  28.7903547
 110.4871273   6.1167401  30.2813697  89.5623589  98.9421463  48.1899405
  90.0283623  98.9326668  47.3538876  88.6613464  98.7105942  47.9645824
  73.0633688  98.3888912  39.5035195  72.8869247  98.2365608  38.5751367
  73.9970684  98.2032776  39.6034670  62.3305416  74.5447969   8.1197959
  62.8665113  74.2348719   8.8498062  61.9189405  75.3444624   8.4474397
  66.1409998  89.0212727  46.7066717  65.5349016  89.2515564  46.0025120
  65.9311199  89.6324730  47.4127960  82.4334240  74.5525885  27.3998046
  83.3247948  74.2796087  27.6169658  81.8933773  74.1859531  28.0999184
  13.5416889   9.6415973  31.9261742  13.9314711   9.1597021  32.6556110
  13.0882406   8.9731425  31.4125729  61.3708115  81.3466549  43.4900522
  61.4001036  80.4556179  43.8385057  61.1023951  81.8860149  44.2338848
  50.1194000  97.0927620  25.7517266  50.2402592  96.3036919  25.2235222
  49.1722918  97.1554565  25.8753920  67.5443983 102.0623875  39.3821573
  67.4796772 101.5080452  38.6045003  66.6690540 102.4362278  39.4833326
  72.0816565  82.0987225  49.0083933  71.7992163  81.3742828  49.5666361
  71.2671852  82.4807549  48.6814070  67.8234911  97.7391243  14.9155200
  67.9799175  98.2666492  14.1322672  68.5785484  97.1528149  14.9641371
  92.8824997   4.1995838  51.3749886  91.9318390   4.0961835  51.4172125
  93.1243420   3.8440573  50.5198002  62.8039265 101.9858742  45.6360340
  63.1879568 102.0429325  46.5109587  62.4063396 101.1156940  45.6052685
  98.2456493   7.8601515  48.0098581  99.1642952   7.8053957  48.2731533
  97.7651119   7.4541616  48.7313080  75.3128052  92.5648403  33.2751274
  74.8649740  93.3222198  32.8982306  75.2593231  91.8925095  32.5958991
  70.2708340  73.6058807  30.5281806  69.3317842  73.6391354  30.3456450
  70.6817484  73.5733032  29.6642852  48.6532021  92.7363873  38.8050532
  48.0509949  92.9211426  39.5257807  49.5191050  92.7268124  39.2129159
  62.7822638  90.8992863  31.8217373  63.1483555  91.4679146  31.1443377
  63.5447359  90.4786873  32.2191834  43.0747700  94.4874859  36.5444517
  42.1775532  94.3830013  36.8611908  43.0493307  94.1669750  35.6428623
  83.0634022  93.9433670  26.4817381  83.2817650  93.0115986  26.5005589
  83.8322067  94.3770695  26.8519735  76.2565994  76.6064024  34.7494602
  76.0705233  77.2889757  34.1047096  75.6567478  76.7899370  35.4724574
 105.8314133  71.6522837  35.5367517 105.2760410  71.5372133  36.3078284
 106.6646004  71.2482548  35.7792377 100.6187820   2.6448944  33.9296484
 100.8629417   2.1200331  33.1673217 101.4382553   3.0494639  34.2143011
  84.0868664  15.5569160  18.1339371  83.6569786  14.8549616  17.6453781
  83.5702896  16.3379562  17.9355466  22.1804261  19.2580855  87.4380016
  21.2601948  19.4186521  87.2291279  22.4692297  20.0576663  87.8778839
  51.2982845  64.4917774   6.9554865  52.2481823  64.5811224   7.0326155
  50.9998751  64.3263435   7.8498095 106.1620903   1.5808953  24.1864729
 107.0500088   1.8768436  24.3870687 106.2837601   0.8598629  23.5687828
  73.2593822  82.5389290  31.8906426  72.7825928  82.2792530  32.6789737
  72.6188040  82.4541283  31.1844587  66.6427135  56.4523649  35.0060034
  66.2241745  57.2830248  35.2319789  66.3218069  56.2539959  34.1262889
  29.2718172  78.8210440  19.9886668  28.7701058  79.5720625  19.6716690
  28.6194468  78.1311655  20.1099539  95.7953167  90.9447479  18.7759292
  96.6794682  90.6658840  18.5377431  95.5485344  90.3673649  19.4983971
  58.9843416  92.8672218  51.2763023  58.1752539  92.3624229  51.3586903
  59.6675205  92.2788525  51.5977287  73.2330561  80.1036453  43.0672216
  73.4212017  81.0421753  43.0688667  73.6137533  79.7816181  43.8842916
  80.7419491  70.3698254  12.4828672  79.9006891  69.9137926  12.5060105
  81.2107277  69.9705935  11.7500019  81.5463352  91.6906929  40.3937531
  82.2042179  91.0739422  40.7147408  81.0433674  91.1911583  39.7505498
  64.4941378  83.0666065  34.7187281  64.0106010  83.3361530  35.4996061
  65.1056242  83.7847996  34.5558786  73.4269667  95.6221581  22.2456622
  73.5828733  94.8285103  21.7337561  73.5922432  96.3387203  21.6329169
  20.9453630  12.3824823  92.5006866  21.2877154  11.5049934  92.6710892
  20.5987358  12.6723838  93.3445072  74.2860222  83.8440514  22.7067518
  75.1782179  83.5018635  22.7626491  73.7448406  83.0743122  22.5311184
  79.7941065  93.3634853  27.0538378  79.8883343  94.3118000  26.9641638
  79.6021080  93.0570030  26.1675906  73.3435059  94.8936939  40.7370377
  73.5192156  94.9743748  39.7995687  73.8576269  95.5943584  41.1382532
  64.9105835  78.6991596  31.9032240  64.2381763  78.6449194  32.5823116
  65.1594305  79.6232843  31.8858314  78.2288027  83.7183762   2.9137340
  77.4074459  84.1287518   3.1842649  78.0245256  82.7846336   2.8625163
  88.9866447  84.2628193  25.3011131  88.6589241  84.0357208  26.1713195
  88.8460922  83.4731865  24.7786593  83.7653828  98.1473255  27.9651022
  83.0136013  97.9190445  27.4183440  83.5318375  98.9904308  28.3535171
  32.6590753  71.8684196  39.3003964  33.4081388  72.4643040  39.2931199
  33.0449104  70.9975100  39.2061353  90.0952721 107.6609325  33.3817577
  89.5734215 108.1848145  32.7739406  90.9876919 107.9909039  33.2771420
  94.1246223   3.6519444  41.2403536  93.7933350   4.0123415  40.4177999
  93.8388538   4.2759567  41.9075727  33.8546991 108.0547905  39.1992879
  34.1921759 108.9492512  39.1515183  34.4247961 107.5522995  38.6172843
  80.9075356  98.1747150  38.2380509  81.0392284  98.5566330  39.1058207
  80.3748989  98.8186550  37.7712798  41.7356682  86.0135651  13.6720240
  41.7857647  86.9581032  13.5251772  40.9170103  85.8889008  14.1521144
  52.8154850  66.6898441  26.5973139  53.4278011  66.9502687  25.9092164
  53.2793045  66.0098314  27.0858693  85.4131413 103.7648582  46.6185760
  85.7314205 103.3164501  45.8350849  85.5331326 103.1289482  47.3238802
  74.9850845 104.5698166  39.8992324  74.7077942 105.3942776  39.4997168
  75.0174379 103.9496517  39.1708231  68.0071545  70.4029846   2.1752152
  68.4642220  69.8073721   2.7689886  68.4069920  70.2426004   1.3204423
  75.8720493  78.4532690  42.2658253  76.2070417  78.9525318  41.5210104
  75.0851488  78.9261723  42.5367117  38.9929032  90.7512856  35.7318735
  38.5633373  91.5575409  35.4461193  38.3540821  90.0620747  35.5498791
  57.2515535  90.6689167  24.0874696  57.1709156  89.8145485  23.6634445
  57.3270035  91.2897682  23.3628488  79.4354725  92.3957920  47.0519876
  80.3450966  92.1193218  46.9407272  79.4551706  92.9870033  47.8045225
  66.1399794 102.8125381  45.3129530  66.1664534 101.8571663  45.3659153
  66.9881105 103.0949879  45.6551933 104.9743652 110.8245659  37.3763680
 104.4244957 110.0486279  37.4849534 104.5435905 111.3286877  36.6860580
  60.1663351  73.5853338  12.4844790  60.7925606  72.9665136  12.8601611
  59.8595667  73.1594229  11.6840267  56.8868399  80.6753540  44.2205048
  56.1159611  80.8018970  44.7736454  56.8094444  79.7752810  43.9040947
  60.4355621  86.7732906  41.4278078  60.8359718  87.6406097  41.4882946
  59.7417831  86.8746948  40.7761765 105.5456829  16.5395486  54.2350483
 106.4600468  16.8213201  54.2071342 105.5068588  15.7926977  53.6376047
  70.7999611  68.3399916  35.0097442  71.3755751  67.9347992  35.6583714
  71.1187744  69.2394590  34.9352503  90.3232384  97.5164986  56.1000252
  90.4823303  97.5482559  55.1566696  90.2253437  98.4332275  56.3574076
  70.8719969  78.8684320  32.6288843  70.7717085  78.3123779  33.4015274
  71.1702442  78.2723475  31.9418859  73.2424545  90.6391525  20.6708455
  73.4031677  91.5699863  20.5160809  72.9841948  90.5904770  21.5912604
  60.5975866  89.2001057  31.6618443  61.2045956  89.7730160  32.1303988
  60.5995464  88.3860493  32.1653724  55.9653568 107.2433567   2.7482200
  55.5435419 106.6490459   3.3687803  56.9019842 107.0799732   2.8589571
  61.5428019  87.9605389  22.7065277  62.0284796  87.6419926  23.4673691
  61.9281673  87.4949455  21.9642735  62.4485826  76.0166454  45.8769894
  62.9407883  75.8404446  46.6788149  63.1179523  76.2316895  45.2274275
  80.3077602  62.4391317  18.1607533  79.7521830  62.8341866  17.4888206
  80.4560471  63.1424761  18.7928569  10.6966066   6.1415392  37.8910255
  10.7795560   6.2203950  36.9406939  11.5062273   5.7120997  38.1673026
  54.6387815  86.6556072  18.1601250  54.4755983  86.7396832  17.2206914
  54.2656851  87.4509716  18.5401559  78.0917072  79.2636538  30.5254388
  77.7058458  79.6352243  31.3187099  77.5237703  78.5250092  30.3061581
  59.2618227  90.2477074  25.8540726  59.7667265  89.7531605  25.2085304
  58.3764696  90.2804089  25.4916954  62.3639917 109.5443344  39.4845128
  61.7410898 110.0630188  39.9936247  63.2115650 109.9568081  39.6509814
  79.6075916  78.5924149  18.7814629  79.2438841  78.3408785  17.9325342
  79.1369867  79.3922186  19.0161633  82.5607395 103.5433865  30.8709502
  83.3404827 103.4200191  30.3296447  81.8365765 103.5689354  30.2455139
  26.8450880  88.9219189  61.6134357  27.6762414  88.4492111  61.6577816
  26.9372344  89.4977188  60.8543587  63.3961296 107.9316235  17.4536908
  63.3821774 108.7964725  17.8636515  64.1681576 107.9471302  16.8880343
  68.3630991  91.6337585  23.4523845  67.4787521  91.9493198  23.6383462
  68.2951736  91.2255096  22.5892758  57.5614119  92.0210266  21.5901279
  57.6940441  91.2201500  21.0829353  56.7568302  92.3989105  21.2350464
 113.0564022   1.3176978  33.1145811 113.4683418   2.1788594  33.1848526
 113.6249542   0.7381316  33.6216140  61.2080479  96.5776157  37.5355959
  60.3141165  96.5952110  37.8773737  61.7627096  96.6608334  38.3112621
  67.3555374  76.7748642  53.3949423  68.2466269  77.1232462  53.4236193
  67.3183012  76.1522579  54.1210318  62.0424986  83.5385418  29.6440458
  62.1795225  83.4820843  30.5897045  61.2503433  84.0672112  29.5479584
  66.4026451  76.6826057  37.6472640  67.0055580  76.7691231  36.9088626
  66.5949440  75.8194542  38.0136251  65.7014322  95.3200626  34.7587824
  64.9065161  95.2537918  34.2296767  65.5132341  96.0168171  35.3875518
  65.4308224  89.0161133  33.2619190  65.2444267  88.0773735  33.2779527
  65.7225227  89.1871166  32.3664331  49.3785095 103.1996250  52.6517487
  50.1955700 103.3316231  53.1326008  49.2229748 104.0344715  52.2100782
 109.6133900 103.7644482  27.0771456 110.4237080 104.2690659  27.0065784
 108.9395809 104.4182205  27.2636938  62.3189068  68.2441759  39.5831490
  61.8719435  67.7502394  38.8957787  62.0471382  69.1510296  39.4417429
  46.9994020  86.7129326  37.8740692  46.3350630  86.1192226  37.5242138
  47.6548052  86.7751598  37.1792245  76.8224192  96.1321163  23.8181973
  77.3836374  96.3957119  23.0889630  76.8852472  95.1771355  23.8357353
   5.5296791  29.0728760  96.9250870   4.8355070  29.4949770  96.4189434
   5.3698218  29.3489909  97.8275490  87.9587364  65.6658077  42.1259069
  87.2027111  65.1576853  42.4199677  88.3818531  65.1091337  41.4722109
  68.0054331  64.2122507  23.3457994  68.8557625  64.4585228  23.7098289
  67.5885153  63.6984539  24.0374827  89.6541119  71.8236732  32.2034574
  90.0106144  72.5755358  31.7303491  89.6305370  71.1211157  31.5537739
  82.4347782  95.6915665  24.6561670  83.1357861  95.2578259  24.1696644
  82.3296165  95.1629257  25.4471827  65.1771498  88.7826729  36.6972017
  65.5080509  88.3518505  35.9090853  65.6086588  88.3256340  37.4191117
  83.5340405  86.9843674  36.3227487  84.3803692  87.2952366  36.0012984
  83.0800533  87.7774429  36.6076469  41.6121054  70.2443933  36.2367892
  42.2315836  69.6256161  35.8500075  41.2440538  69.7775030  36.9869781
  56.6013050  77.9310799  43.6480951  55.6505680  78.0290699  43.7003326
  56.7344189  77.0172644  43.3962011  60.8378792 102.7879238  55.0796413
  60.6894922 102.6109314  56.0085583  60.0404263 103.2310390  54.7898865
  69.6170473 111.0263252  53.4134769  69.0352917 111.1325645  54.1661406
  70.4803371 111.2794685  53.7404060  53.9647961  73.3905172  18.9033675
  54.7266006  72.8109598  18.9038682  53.3046770  72.9188347  19.4112980
  61.4717817  73.7419844  50.1803541  62.0584011  73.6327267  50.9288025
  61.2966299  72.8498077  49.8810768  96.2697506  84.7339821  36.5911055
  95.6666374  84.9513149  37.3019171  97.0687199  85.2187061  36.7982721
  58.5754395 104.2272472  54.1932106  57.7755404 103.7046528  54.1359329
  58.9065218 104.2575645  53.2956028  45.7453537 106.0976505  21.0844755
  46.2227869 105.3578568  21.4599729  44.8227882 105.8784294  21.2150431
 116.2288666   3.8728696  17.9978573 116.8212414   3.1325072  18.1289899
 116.5919304   4.3397072  17.2452080  67.3013926 106.7826939  47.0405197
  67.4900675 106.6116333  46.1178207  68.1598330 106.7856884  47.4639654
  85.2908516  96.9964218  20.4886365  85.9587193  96.6686153  19.8863602
  85.6512451  96.8298149  21.3596082  56.7172194 105.6030178  24.8494434
  57.4536753 106.1607265  25.1000738  56.2407017 106.1148834  24.1958761
  48.2349253  82.5041103  27.6682496  48.0808020  81.6144657  27.3504305
  47.5228310  83.0201817  27.2903299  55.7016420  94.8454952  27.4290943
  56.0049915  94.1131687  26.8925190  55.6478500  94.4871330  28.3150482
  65.3659964  79.1943836  35.3328133  64.5336771  79.3469143  34.8853683
  65.4215145  79.8963308  35.9812093  59.4745111  95.3915977  26.9009733
  58.8764429  95.0657272  27.5735474  58.9433289  95.4282665  26.1055303
  67.7258682  83.0351543  32.7120924  68.6576605  83.1997299  32.5674868
  67.6822090  82.6633644  33.5930586  44.9009991  92.0679283   2.6523888
  43.9602470  92.2330093   2.7153763  44.9654865  91.1906147   2.2750244
  61.0421371  78.9392662  48.7156296  60.7893658  78.1858349  49.2491865
  61.3314819  78.5590935  47.8861856  74.6492910 108.1350422  39.9810266
  73.7600470 107.8225708  39.8141813  74.9102402 108.5618687  39.1649652
  80.3409481 101.9747925  41.3311195  80.3750324 101.1809921  40.7973146
  80.9070206 101.7848206  42.0792532  47.7827549  95.7193947  19.1913378
  48.0706120  95.3175259  20.0110126  48.4071541  96.4290047  19.0402722
  64.6308517  99.5445728  19.5651805  64.0557814  99.7049046  20.3133917
  64.0716362  99.1082001  18.9224648  34.9430037  91.9542408  23.4895730
  35.3840852  91.5751743  22.7293181  34.1039133  91.4956760  23.5329533
  72.0609713  79.3376541  15.5992663  72.2837639  80.1707935  16.0145688
  72.6131439  78.6937332  16.0427797  70.0341654  97.2161579  30.8230686
  70.5077171  96.9991398  30.0200224  69.1990566  96.7557049  30.7405281
  62.2636318  63.0860233  51.7802334  62.6179600  62.2962904  51.3715744
  61.5373087  62.7718067  52.3187113  67.5906754  86.5648651  41.6404819
  68.3356380  86.1840630  42.1055031  67.4689007  87.4234867  42.0456743
  77.5517559  84.9303818  35.3972125  78.5004330  85.0072289  35.2955174
  77.4175119  84.0423107  35.7281852  89.6395206 102.9239655  24.4820404
  89.6533680 103.0951023  25.4237175  89.1103840 103.6334038  24.1174316
  83.8459110  90.5210114  41.0960150  84.7846985  90.4552650  41.2709427
  83.4319592  90.0962448  41.8473101  70.3647423  63.8855648  16.4109659
  70.8038712  63.3554983  17.0761168  70.7850122  64.7433710  16.4724290
  53.5541868  72.7555227  38.1063795  53.1952190  72.3025131  38.8693714
  54.2348385  72.1683359  37.7775025  82.2864723  52.1891308  46.5735054
  81.3430691  52.0698023  46.4640236  82.3663044  52.8362131  47.2743225
  61.1827374  88.9828205  44.6138096  61.1143064  88.0524254  44.8280764
  60.7347631  89.4278526  45.3331852  46.3180399  94.0123081  34.0859914
  46.7054653  93.4510899  34.7576809  45.4539728  93.6328125  33.9259839
  59.1228533 103.6749649  43.5322666  58.9115572 103.8903809  44.4406605
  60.0795698 103.6596394  43.5060549  72.3623800  94.3665886  31.5374279
  72.7483940  95.0592136  31.0012364  72.1875000  93.6556816  30.9207845
  41.7567110  73.0853462   9.3108976  40.8909464  73.4212112   9.0787834
  42.2566843  73.8629818   9.5589828  60.3038931 105.4233742  19.5114458
  59.4141102 105.6029129  19.8152399  60.1950836 104.7596645  18.8303554
  52.4823523  98.6711597  37.4067187  53.3793306  98.9896107  37.3054790
  52.5677204  97.7180576  37.4296808  62.7191401  85.7324791  42.6958752
  62.1753645  85.9674644  41.9439936  62.8096628  84.7813225  42.6380587
  47.5004959  98.7527657  45.8521843  46.5567303  98.9039707  45.8003807
  47.6111460  97.8381729  45.5923605  48.8813543  84.4195557  29.6689844
  48.4262419  83.6171913  29.4134283  48.3751011  85.1222610  29.2613792
  44.2837238  95.8258724  43.4475613  45.1639032  95.9985638  43.7817621
  44.2924643  94.8964500  43.2188082  50.0306940  65.6951284  30.3382587
  50.7436943  65.3102255  30.8478761  49.9214840  66.5728760  30.7041335
  53.4829569  82.8673553  34.8436213  54.2263222  82.7920246  34.2453218
  52.7135611  82.8325367  34.2752481  68.4485292  97.4678230  39.0676546
  69.3296957  97.6977730  39.3624449  68.1400299  96.8290710  39.7103477
  51.2962341  91.7976379  39.4830036  51.8403625  92.0491314  38.7367392
  51.4894676  90.8699894  39.6184945  67.9987717  87.4941349  32.7358246
  68.9231443  87.2816181  32.6069570  67.5417948  86.9963455  32.0578790
  64.6816587  97.1897793  30.1370811  64.0534925  97.2802448  30.8536386
  65.1382065  98.0306816  30.1111937  73.7712479  73.9486742  42.8194857
  73.4581947  73.4726858  43.5886860  73.3008194  73.5535336  42.0854616
  71.5532494  74.8938131  39.7946119  70.7262945  75.0119734  40.2619648
  71.9693279  74.1489935  40.2286005  63.6439228  82.9519558  42.8572559
  63.0825520  82.4181843  43.4195566  64.4910192  82.5064945  42.8723812
  66.8005180  93.6625481  27.5227833  66.0155916  94.1798592  27.7031207
  66.6388512  92.8236103  27.9543781  48.9159584  83.5912323  35.1645017
  49.3653488  83.5858345  36.0096359  48.2429552  82.9155731  35.2467775
  72.4099874  87.4232292  43.0458403  72.3733473  88.3512306  42.8140974
  72.0109224  87.3773861  43.9146757  95.0610828  77.5656605  49.5133114
  94.8810005  78.3647203  49.0180302  94.2055607  77.1482944  49.6139145
  51.4595556  88.0185223  39.5485353  50.5152082  88.1255150  39.4345331
  51.6704750  88.5530472  40.3140593  48.6818504  88.1052876  41.0535383
  48.7417364  88.7376022  41.7696524  48.6393785  88.6425972  40.2625084
  86.0112381  97.6325321  49.3527317  86.1772919  98.3818150  49.9247646
  86.1522865  96.8684769  49.9118090  18.9533603  78.3952188  42.3119450
  19.2840719  77.8693914  43.0402040  19.0312707  79.2998505  42.6149273
  60.0542593  79.1322327  44.6534634  59.1043806  79.0774250  44.5487833
  60.4060316  78.6601400  43.8987303 102.3551178  86.1393547  10.8435440
 101.4589405  86.2292290  10.5194795 102.4975967  86.9230652  11.3743305
 112.0085621   4.5995042  21.4743114 112.7007961   4.7179836  20.8239245
 112.3988438   4.0316901  22.1387672  55.7086992  80.8272076  36.9717693
  56.5677595  81.1197662  37.2761679  55.8914518  80.3476048  36.1638021
  58.5278654  75.9971237  45.7412100  58.8032532  76.9079018  45.8455038
  59.3442965  75.4975367  45.7500029  80.5093861 107.6160431  42.0778275
  80.4585552 106.6606998  42.0467758  81.3293171 107.7974606  42.5372171
 113.0778599  10.9144974   8.6911213 112.6361179  11.6764665   9.0659630
 112.4599648  10.1941335   8.8156754  77.4114466  92.3657417   4.0953907
  77.8009224  93.1486988   3.7061369  76.5871429  92.6712513   4.4741040
  68.5133219 102.0078373  46.9133568  69.1735888 102.2081661  47.5767946
  68.9296150 101.3549328  46.3506413  66.9656134 110.8640385  34.3946099
  67.0364237 110.4160786  33.5516667  66.9620657 111.7948914  34.1716099
  84.9372387  95.5431080  27.5405240  84.7796822  96.0508633  28.3365083
  84.9574566  96.1954784  26.8403554  52.6852989  89.2522621  41.6262102
  52.8076792  88.5491848  42.2641230  52.0933867  89.8677349  42.0587206
  82.7950191 101.0728550  47.6265717  82.4213600 101.7563248  48.1828833
  82.0582867 100.4939365  47.4308586  66.2804937 111.5050411  42.7723312
  66.5208006 112.2545147  42.2275639  67.0252132 111.3892841  43.3624363
   3.6537197   6.0177195  20.4306865   2.7860489   5.6798887  20.6526089
   4.1739503   5.8802378  21.2223244  70.1391840 111.8332005  50.8317757
  69.7973061 111.7261314  51.7194033  70.5771637 111.0034847  50.6420946
  43.3306074 100.5472565  16.9817650  43.3943367 101.3736248  17.4605989
  42.5738001 100.6612873  16.4069033  85.6419754 101.5340424  48.7673616
  86.2321091 101.1347580  48.1281853  84.8680878 100.9707355  48.7634277
 116.2928772   2.2005776  32.1745944 116.2075615   2.1304858  33.1254053
 116.5352821   3.1140074  32.0225620   0.6685745   3.4721139  27.6495218
   1.0688379   3.8798943  28.4174657  -0.2733960   3.5463455  27.8025365
   1.5358530   4.6430948  21.2726402   0.7123077   4.3880424  21.6885185
   1.4226623   4.4064462  20.3520894 107.8344250  12.7697206  25.3543878
 107.3065090  12.9661107  26.1283135 107.2218037  12.8404319  24.6223211
  98.2111549   8.2564437  42.6139784  98.2062912   8.2825214  43.5708141
  97.5609398   8.9087498  42.3532963  78.2823372 105.2654266   9.0941560
  78.1996727 104.3169975   9.1935474  78.3824205 105.5921268   9.9882913
  16.8546617   4.8284203  42.2057104  17.0532680   5.5237377  42.8328609
  16.2722623   4.2360866  42.6812983 117.6766205   2.1623139  60.0000715
 118.5522270   2.3069902  59.6414232 117.7422714   2.4430305  60.9128237
 102.9678917   2.2670926  41.5817499 102.1510601   2.7585214  41.4950657
 103.4341335   2.7015176  42.2959805 109.9003315  12.3072445  34.8597646
 109.8103428  12.5501370  35.7812500 110.7423115  12.6779914  34.5954752
  94.2947578  85.7508564  32.1382213  93.4962940  85.6671524  31.6169834
  94.6101475  84.8527527  32.2391295  77.6127291  90.1259136  33.8161969
  78.4982300  90.3554153  33.5343266  77.3048401  89.5045567  33.1563878
 112.3998356  15.6161594  11.5188754 112.7418423  16.3206434  10.9684515
 112.0916557  16.0583723  12.3098922  71.1240339 112.3494625  46.7428017
  71.7244005 112.3252296  45.9976864  71.6345787 112.0000648  47.4732113
  88.3516884  72.1510172  34.7182107  88.7336254  72.1167850  33.8411760
  87.8280544  71.3523483  34.7827506  93.0154514   2.6212946  34.5050144
  92.8600597   1.8269625  35.0160170  93.8539028   2.4661157  34.0701103
  88.2437515  92.5686741  22.1664190  88.1615257  93.4320450  21.7613626
  87.9530525  92.6989269  23.0690575 118.2456112  15.1403236  28.4513879
 117.6178837  15.1797271  27.7298307 119.0520382  14.8167551  28.0498862
  74.1812372 109.1724110  52.5085306  74.9078083 109.1282558  53.1301212
  74.4353819 109.8585320  51.8913698   6.5144271  20.2110934  37.3742795
   5.6719244  20.1352882  37.8222466   6.9497722  20.9463477  37.8056836
  80.9083557  96.6714382  48.6315775  80.5201054  95.8039570  48.5176420
  81.8160248  96.4968109  48.8803482  89.4735432 103.9350414  18.7060928
  90.0555229 103.4670925  18.1072986  88.9839172 104.5354176  18.1439078
  64.0252590 103.5608006  52.6316357  63.7276459 104.4705582  52.6324081
  63.9443922 103.2815647  53.5436201  67.7818918  90.1069641  18.5654688
  68.4028673  90.2686405  17.8551984  67.9784203  89.2168140  18.8574457
  91.3101673  96.5466785  49.1247416  90.3826904  96.7716312  49.0512705
  91.5670204  96.2966537  48.2371902  95.9387302   3.9156312  29.1100931
  96.4841366   3.4369284  28.4859061  95.7797718   4.7609878  28.6901689
  77.0200205 111.2570763  62.1789169  77.8620958 110.8022499  62.1953106
  77.2264099 112.1528625  62.4457598  82.2047138  77.0780277  26.5579128
  81.8215752  76.9964266  25.6845427  82.3745060  76.1762142  26.8301845
  62.0071220  96.3325214  46.4140177  61.0661936  96.2628746  46.2526608
  62.4081135  95.8022308  45.7253742  69.1178465 108.5284424  59.4306374
  68.2804680 108.9819336  59.3337822  69.7633219 109.1385746  59.0737963
  33.4395456   3.9403874   2.8304756  32.8098536   4.6592686   2.8846082
  34.2605710   4.3599942   2.5734228  92.4480343   8.9297104  14.6282184
  91.9176960   9.4444722  15.2364838  92.9896355   8.3768171  15.1914334
  45.6943464  95.8105183  28.1167936  45.4495096  96.1277485  28.9860773
  45.6765079  94.8567772  28.1960869  90.9805489 103.1696701  33.9932227
  91.8196297 103.2604790  34.4448209  90.9845161 102.2729111  33.6585021
  65.1304865  91.5668106  42.0978260  64.3175364  91.9144535  41.7311001
  65.8055973  92.1804047  41.8080711  64.9859381 110.8437729  31.3419437
  65.5125809 110.0896835  31.6069412  64.0864944 110.5941010  31.5538287
 117.2560120   5.3135735  41.2488461 118.1060791   5.1256019  41.6466904
 117.0938873   6.2343532  41.4540529  84.9540710 109.4771862  31.5017700
  85.1763630 108.6125946  31.8471694  84.0039635 109.4526672  31.3881016
  75.3698778 106.3525772  55.2770424  74.8887062 105.5916119  55.6020689
  74.7165871 106.8622494  54.7978020  98.1756496  98.3775330  57.2795057
  97.4091530  98.3515739  57.8522491  98.7624931  99.0104961  57.6932812
  71.2277603  77.0939493  34.6500278  70.4996967  76.5089321  34.8595691
  71.2165213  77.7495909  35.3473377  62.7992678  90.6936932  16.0376501
  62.8115034  90.7898712  16.9899273  63.0210590  91.5638351  15.7061601
  74.3513680 111.2224674  38.6036158  73.6952400 111.5528393  39.2172790
  75.1375723 111.7336655  38.7954259  72.7009535  98.1062412  25.9888887
  72.5193453  98.4518433  25.1149249  72.9456711  97.1930313  25.8392406
 112.2160435  98.4737301  28.6581492 112.5386810  98.7470341  27.7994037
 111.2675285  98.5915089  28.6062360  83.7936592  87.1143818  39.4219279
  82.9309273  86.7823315  39.6702814  83.6158752  87.9622746  39.0148664
  75.4447269  90.7013893  44.4962311  76.1756849  90.9306431  43.9223242
  75.6310511  91.1592484  45.3159142  51.2789679 107.5794315  36.2135649
  51.3763237 107.8551769  35.3021312  50.4355764 107.1274185  36.2382627
  67.0502567   7.8887409  16.2976134  67.5351572   7.0956624  16.0692930
  66.4869690   7.6240486  17.0248532 115.8765221  15.0349426  40.1576090
 116.1576843  14.7041416  39.3045259 116.5282345  15.6985152  40.3838348
 101.5552998  88.7522125  24.8994708 100.9650707  88.1610298  24.4321704
 102.2766304  88.9027691  24.2885280  78.5096788 104.0133190  38.9323807
  77.7371216 103.4687328  38.7813091  79.2203379 103.5487652  38.4903502
  82.5895405  99.1725349  17.0520878  81.9358063  99.1317177  17.7500820
  83.2023239  98.4661007  17.2562575  40.8746481  79.7644997  38.8676167
  39.9477625  80.0029659  38.8832903  41.2464762  80.1978588  39.6358490
  51.0536289  63.2716465  89.9033833  50.5378771  62.6819754  89.3533611
  51.5233564  62.6910830  90.5021572 114.8937607   1.1395619  59.6655273
 114.9040031   1.5334584  60.5378628 114.9715614   0.1991936  59.8264170
  24.4779181  58.3776569  94.3101311  24.4029808  58.7755728  95.1774788
  24.3749738  57.4391079  94.4674969  65.4075384  85.0895977  41.8741179
  66.0561180  85.7609272  41.6622305  64.9397564  85.4393768  42.6324463
   7.4386966  12.7791691  43.6394215   8.0790818  12.4073565  44.2459631
   7.7125621  13.6898708  43.5305595  77.8016615  93.0193710  40.2519131
  78.2104111  92.1876144  40.4913807  77.2472143  93.2381630  41.0008764
  41.7682600  10.7800901  45.8510733  42.4773169  10.7502818  45.2087498
  40.9953690  10.4870045  45.3683996  85.6938553  88.5184002  32.0057416
  86.2168121  88.8159943  32.7501822  86.0938358  87.6875687  31.7489243
  54.9284077 110.2534008  32.1788359  55.5010653 109.8238277  31.5434146
  54.1486597 110.4903221  31.6767430  81.9768524 101.4184856  43.4754276
  81.7532730 101.9456291  44.2424774  82.8744221 101.1281872  43.6376619
  83.3671951  95.0908184  36.0432768  82.4668598  95.4080486  35.9725499
  83.5158920  94.6087646  35.2297974   0.3776849  83.1295872  47.6510286
   1.0199460  82.8327179  48.2956982   0.8861575  83.2658577  46.8515778
  92.5803661   1.6358519  24.5346379  92.7104568   1.3557604  23.6286259
  92.0322418   0.9524193  24.9202633 119.2027092  11.5176702  56.6730118
 118.9359188  12.0058346  57.4519539 119.0080643  10.6045854  56.8842554
  74.1035032 108.4007549  48.2333803  73.5874653 109.1989613  48.3465719
  74.9467611 108.7061405  47.8988791  67.2407246 106.0152245  28.1691051
  67.4631310 105.0921154  28.2901287  68.0857515 106.4547539  28.0744004
 104.8735046 112.5462246  23.7279773 105.3640747 112.1404266  24.4427538
 104.7591686 111.8443489  23.0872416   5.7801330   3.5352707  46.1227942
   5.2167958   3.8800055  45.4299450   6.3983625   4.2433828  46.3033533
  79.7308111 105.8175468  29.9286819  79.5897865 105.0458431  30.4771471
  80.5925560 106.1425114  30.1894927   0.2812553   8.6216766  27.9858327
   0.5997617   9.2589355  27.3465466   0.1159044   7.8303671  27.4732709
  65.5679560  95.5168819  38.7377691  65.5387259  94.7274303  38.1972718
  66.2147474  95.3195286  39.4152212  58.7554264 108.2282066  46.4663601
  58.5442352 108.8629723  45.7817411  59.0965223 108.7578201  47.1870518
  98.8328075 103.5213947  24.2592478  98.2679558 104.1180038  24.7503972
  98.8712406 103.8974571  23.3798552  82.6317406  93.8640118  42.2516584
  82.7044010  94.3868065  41.4531374  82.4298191  92.9809856  41.9422674
 109.1280842  19.9711335  45.7765341 109.3344116  20.8846164  45.5785179
 109.9275970  19.6256423  46.1735821   6.5100086   4.2825133  58.4647369
   6.6552871   5.1095599  58.0052614   5.6751239   3.9622390  58.1232357
 106.2488365 104.4292355  36.1390615 105.9258938 103.5813904  35.8339214
 107.1803379 104.2849255  36.3055158  25.8224154  16.7993784  22.4989629
  25.8865643  15.8980775  22.1830940  24.9497724  16.8551743  22.8883410
 109.8230553  21.7689753  53.3948040 110.6015205  21.4591432  52.9319620
 109.2275715  21.0195637  53.3902407  79.9704885  95.1358891  32.1954751
  79.2864275  94.4668007  32.2202754  80.5393410  94.8701668  31.4729571
  85.3801155 110.6083965  35.0550127  84.5084667 110.8465290  35.3708339
  85.9054661 110.5147266  35.8496618  90.8529568 107.4781799  36.1551762
  90.6732178 107.4502850  35.2154160  90.0085068 107.2931099  36.5661383
  10.0783277  40.2266312  34.9173999  10.5722237  40.4799318  35.6972313
   9.9445409  39.2838049  35.0143838  90.9393692  92.2043705   6.9473618
  90.5638695  91.6001129   7.5877517  91.7929459  91.8273258   6.7340904
  57.2350168  97.4470234  37.3442435  56.7573071  96.6212845  37.4228835
  56.5938473  98.0615997  36.9872785  80.2517128  75.2805996  29.5187306
  79.4306087  75.0763750  29.0711665  80.2631378  76.2361336  29.5739961
  93.5956097 110.1348686  57.5779915  94.3623257 110.6845093  57.7400827
  93.1809139 110.0432491  58.4358168 100.2980804 103.9043140  34.0953207
 101.0367012 103.5054302  34.5552707 100.6952572 104.5778179  33.5431552
  76.7327356  91.0051250  47.1889639  76.2868977  91.4919662  47.8821087
  77.6574993  91.2273502  47.2969389  83.6358833 100.3467369   7.1825689
  83.8321304 100.6613922   6.3001257  83.3080482 101.1182880   7.6445854
  65.6034851  91.4671898  28.9495039  65.5302954  91.4198112  29.9027252
  64.6988440  91.4377594  28.6380696  79.8009491 102.5487423  49.3346119
  79.8856258 102.5929642  50.2870321  79.2105150 103.2687950  49.1129541
  74.0991879 105.1667881  26.9729805  73.4432554 104.4995880  27.1750236
  74.9156094 104.8153400  27.3281884   2.7424276   6.0137790  51.3158369
   2.5180340   6.5074730  52.1046019   3.6546272   5.7549375  51.4467001
  65.9039497 102.0145226  27.9926205  66.3008738 101.1500835  27.8857136
  65.7292557 102.3100281  27.0990944  92.1734715 103.7207127  27.2740507
  92.4224949 104.5103455  26.7937350  92.9183197 103.5452461  27.8490615
  88.1767464  76.9050646  27.6980209  87.3967743  77.2337532  27.2509956
  88.1405163  77.3039436  28.5673976 111.1054325  10.3092694  28.6141133
 111.1637211   9.8798877  27.7606106 110.4586697  11.0037625  28.4891629
  88.9990044 100.7447243  44.4040060  88.8084030 100.4735756  43.5060167
  89.8205948 100.3028202  44.6183586  52.8044367  92.3593903  48.1001139
  52.6769924  92.7591515  47.2397757  53.0044794  93.0951405  48.6788177
  82.6250458  97.7976227  55.6575632  81.7630577  97.6553154  55.2664709
  83.1733131  97.1059895  55.2870512  82.9537201 105.1696682  26.9568038
  83.6337185 104.5104218  26.8181109  82.4569321 105.1771259  26.1386490
  69.5524359  94.2767429  34.3198681  69.4592953  93.5644531  34.9524736
  70.4513454  94.1975307  34.0006185  80.6756401 108.3294964  34.7336435
  81.1747169 108.4713650  35.5380177  80.1408863 109.1180038  34.6413374
 118.7185383   2.0033900  70.7969856 118.9133930   2.4361034  69.9657059
 119.1805172   1.1666390  70.7455063   5.8563924   1.4040799  47.6524258
   5.8588046   2.2324994  47.1728945   6.2707412   0.7807515  47.0557594
   7.5772744  50.2378845  94.6327591   7.4086636  49.5169497  95.2394295
   6.7078036  50.5647039  94.4015884  88.6321831  33.4979844  30.9200215
  87.6964378  33.6858559  30.8471227  88.9832497  34.2255044  31.4335394
  77.4895573  81.3238049  39.3442678  77.1481991  81.2474823  40.2352667
  78.4396076  81.2665367  39.4460368  68.1106615  84.4213009  37.9799891
  68.5576582  84.1812229  37.1683288  68.4657907  85.2816010  38.2035637
  16.5591490   6.1195558  31.0320830  15.8294046   6.2139505  31.6442871
  16.3079667   5.3855735  30.4713607  68.8760376  75.5197763  18.7686145
  68.2428598  74.9817991  19.2439067  69.7278309  75.2385044  19.1026378
 112.3627758   7.5961179  53.9810801 111.9002533   7.3597431  53.1770706
 111.6858864   7.9687041  54.5460844  63.9754152 107.1256065  22.5610137
  63.2161951 107.2128868  23.1373811  63.6010838 106.9775867  21.6925693
  97.3932743 102.0133209  59.5784283  97.0345116 101.7301273  60.4194546
  97.2431660 102.9584980  59.5600653  94.8721790  93.9844131  40.1857662
  94.3551445  94.7810173  40.0660658  94.9016666  93.8582706  41.1341572
  79.2968225 107.0658207  16.7851710  79.7802544 107.6278400  16.1796486
  79.3322420 107.5290871  17.6220477  59.3641233 100.8343315  13.9050543
  59.9262571 100.8589554  13.1306970  58.5167742 100.5339241  13.5764444
  85.0704384  69.3027544  15.5124331  85.9209728  69.3422174  15.9497666
  84.7979736  70.2171373  15.4355919  74.6361542 111.8344307  35.4986429
  75.3157568 111.2804127  35.1146674  74.5902109 111.5576172  36.4137912
 102.8679848   0.6672683  39.4211674 103.1073380  -0.1088248  39.9277472
 102.9284191   1.3894667  40.0464725  96.3524151  86.3209534  51.8111658
  96.2486458  86.9501591  51.0973263  96.0158730  86.7765236  52.5828075
  50.8203840  50.1465130  92.8308296  49.9487638  50.3817272  92.5127316
  50.6558275  49.5531702  93.5636997  92.2340965 111.8716431  33.9156318
  91.6558552 111.3347054  33.3738089  92.8548050 111.2487030  34.2936492
  70.4734707  74.6193790  22.4228787  71.2566280  74.6269846  22.9731870
  70.8057785  74.4858360  21.5352035  80.3654289  93.2435703  24.2523861
  81.2592793  93.2910061  24.5915127  80.4467487  93.4812832  23.3287477
  66.1093807  95.3135777  45.3133821  66.8059683  95.8937740  45.0061750
  66.0912466  95.4423428  46.2617111  98.3226776  21.5923309   7.5943935
  98.8399124  21.1656547   8.2775098  98.9620781  22.0920539   7.0867771
  60.7820082 108.3276081  35.2402091  61.7096472 108.5635662  35.2332711
  60.5236340 108.3987713  36.1591291  74.5047998  80.1961231  30.4345798
  74.6862841  79.6796703  31.2198043  74.1641951  81.0264397  30.7674384
  87.9164600  88.3981705  18.9466107  87.9846001  89.3526649  18.9238703
  88.8203239  88.0955410  19.0342188  67.8518391 105.1531315  38.4869766
  67.6801920 104.2604351  38.1872010  67.1158838 105.3577614  39.0638065
  92.6795864  82.8630733  31.7779541  92.7405739  82.9482079  30.8265018
  92.0638561  82.1431255  31.9150233  85.3878498  18.8284302  18.5329413
  85.8864498  18.0909610  18.1811368  84.9104881  19.1759622  17.7795577
   3.2513598   2.8560364  11.0393620   3.7811282   2.0837812  10.8413744
   2.8488410   3.0911174  10.2033317  63.7063932  85.0989437  39.7512889
  63.3860588  85.9924793  39.6279716  64.0368032  85.0847912  40.6495428
   6.6942811   4.0583330  38.7739682   6.7424369   3.2006600  38.3517003
   6.1290681   4.5761469  38.2007027  68.0973005  90.9266949  33.2612777
  67.6351833  91.3520622  32.5389600  68.6825132  90.3002930  32.8353882
  84.0387726 105.4167652  44.7833300  84.8110104 105.1851177  45.2992821
  84.2478657 106.2732410  44.4105530  25.0422668 104.0835190  11.9016778
  24.6199727 103.9897060  11.0478044  25.5873656 103.3012772  11.9865251
  90.9289074 104.8280144  31.7967057  91.0482502 104.0333557  32.3168111
  91.3084412 105.5243397  32.3327231 114.7948551   8.6104751  57.8140926
 115.1403427   9.0034682  57.0125771 114.2359924   9.2894357  58.1921387
 113.3352375   4.8207575  38.6854982 112.5842476   5.3740197  38.4706831
 113.4255791   4.2366600  37.9325700  94.4518375 101.1220264  27.1461105
  95.1738453 101.0462475  27.7699614  93.7045670 100.7272243  27.5955081
 116.4686489   1.1067697  43.7643433 116.2337780   0.2114709  43.5204029
 115.9092712   1.3049524  44.5153809  55.6209517  99.9150658  54.9322319
  56.5500879  99.9854279  55.1512909  55.2175713  99.5425034  55.7162666
  15.6013227   8.0392045  57.4684238  16.1168718   7.7968508  56.6991997
  14.7530115   7.6177400  57.3306990  84.1208267 108.0750656  49.8768044
  83.8515186 107.4583435  50.5575085  84.3869305 107.5208282  49.1431475
 114.5311165  89.9336338  45.4013157 114.2196560  89.7263145  46.2823629
 115.0804234  90.7088375  45.5177021 115.8844185   9.6353537  15.4088259
 115.0579166  10.0966477  15.2662194 116.5070248  10.0748348  14.8296487
  94.7929668 100.2126312  39.0702605  95.1121235 100.9882355  38.6089444
  95.5331707  99.6058369  39.0591288   6.2719768  23.5957813   7.9932255
   6.5767777  24.4863224   7.8192544   6.9314957  23.2274556   8.5811055
  48.7462664  70.9594822  32.9284430  48.9743328  71.7673016  32.4683952
  47.7929544  70.9906101  33.0088496  75.0336599  94.8003292  27.3905540
  75.0471926  93.9411926  26.9687510  74.7513342  95.4012489  26.7010450
 107.5739288  89.8190975  46.2407780 107.5384712  88.9439297  46.6268539
 107.4941063  90.4134178  46.9868612   4.0303880  10.8364725  27.2107911
   3.2523927  10.5875230  26.7118144   4.2462105  10.0569594  27.7226639
  58.6583376  94.6648121  18.1754029  58.2358789  94.6399403  17.3168325
  58.5642815  93.7746429  18.5144937  77.4327278  93.8146782  45.8261156
  77.8057432  94.6538925  46.0959435  77.8052282  93.1793404  46.4375257
  21.5019512   4.5709461   6.3998652  22.1200871   3.8609850   6.2263870
  20.6400704   4.1602510   6.3311440  75.9698391  92.7660942  20.1210594
  75.8755732  92.5779343  19.1872811  76.4932632  93.5668945  20.1523781
 105.2735424 102.7771282  21.2546873 104.5073032 103.3162403  21.0585690
 105.0631046 102.3559475  22.0880890  39.4656610   5.6609070  26.3323855
  38.9064169   4.8841926  26.3462496  40.1098394   5.4800379  25.6478786
  91.1641121  99.2277813  71.2713575  91.5696716  99.0304947  72.1156502
  91.6853333  99.9486351  70.9178877  80.5699539 109.2312050  39.7887635
  80.4095650 108.7106800  40.5758905  80.7820511 108.5861206  39.1141343
  88.4057617 105.5976486  14.5503223  87.8035259 106.0383701  13.9509118
  87.8691292 105.3811741  15.3128135  94.8667717  90.3345203  37.6061034
  95.4279804  91.0632706  37.3411369  93.9782906  90.6878185  37.5612187
  91.9919777  92.9536057  43.3276606  92.7776718  92.8247738  43.8589907
  92.1730328  93.7448311  42.8203011  68.0261564 105.6897545  44.3110752
  68.1101322 104.8554325  43.8494682  67.1138382 105.9467030  44.1773415
  79.5426512 104.9604607  41.4823580  79.2411852 105.0812244  40.5819368
  79.9037647 104.0741158  41.4971972  92.4097061 100.4280090  24.6593595
  93.0640602 100.4268837  23.9607549  92.7532101 101.0421181  25.3082848
  50.1686382  36.7295003  86.1069393  51.0685062  36.8384624  85.7993698
  49.6405077  36.7336702  85.3086376  63.4575701 111.0155201  22.9965734
  62.7048445 111.6011238  23.0784035  63.3111525 110.3428841  23.6616707
  75.4028988  74.2317152  26.3390613  75.6304836  75.0620842  25.9208250
  75.4211235  74.4229364  27.2767901  52.9073620  83.3167744  41.9377041
  53.1837559  82.4267292  41.7193794  52.7910852  83.3052158  42.8877449
  64.1061354  89.5990467  44.9756432  63.9765644  90.5206966  44.7520208
  63.2203388  89.2469311  45.0628901  68.3257914 104.2936325  30.4714298
  68.3920527 104.9183464  31.1936307  69.1859484 104.3199635  30.0522947
 104.2744541   3.3957660  46.7738152 105.1256752   3.5115093  47.1960115
 104.1694641   4.1755497  46.2287045  69.1349077 110.0269413  38.4868360
  68.9677858 109.3161201  37.8679323  69.1032934 109.6080399  39.3469238
 112.6291561  94.1974640  24.7149253 112.5522232  93.7300205  23.8831687
 111.9059277  93.8630962  25.2453685  88.0552197  96.5489388   5.4849726
  88.1922245  96.0809517   6.3086510  87.7230644  95.8826637   4.8833248
  81.7470360  83.1793880  33.0137444  82.4838734  83.0697155  33.6148047
  81.0823631  82.5706673  33.3360767 106.0201645  16.1252582   9.3080145
 106.7010689  16.7409372   9.5792043 105.2064037  16.5088725   9.6349090
  69.7232866  85.6418037  35.9527898  70.4400682  86.1725235  36.3003421
  68.9546061  86.2091160  36.0121608  80.7435226 102.5363064  37.5252748
  81.6281033 102.7183056  37.8424716  80.6593990 103.0665874  36.7328405
 101.9403744   5.0006223  26.2134671 102.1168041   4.3818089  25.5048251
 102.5524998   4.7523406  26.9062042 105.5187130   7.9352957  17.2401881
 104.6769905   7.7325749  16.8319714 105.9980488   8.4236795  16.5708983
   4.9495175   3.4634066  24.9054956   5.4856366   2.7950859  24.4787002
   4.4555455   2.9849806  25.5713272  60.2102852 100.5449390  28.2227206
  60.3111982 101.0133266  29.0513730  60.0861454  99.6307659  28.4778953
  87.7218056  91.2120914  18.8668180  87.2459698  91.0429764  19.6799660
  87.2445583  91.9326782  18.4554601  63.1930971  87.4874687  38.9125347
  62.5246429  88.1633377  38.8003421  63.9583588  87.8282452  38.4494209
   7.8888828   6.3952136  33.9881682   7.5708658   7.2949952  34.0622616
   8.3106703   6.3601887  33.1296229  90.3647900  90.8650494  42.4759865
  90.2394962  90.0822639  43.0124378  91.0398293  91.3646507  42.9352856
  20.2842999   7.7843285  40.6665707  19.6928704   7.0486492  40.8253717
  21.0186672   7.4019068  40.1862669  92.7668095   7.2967976  37.6898885
  92.4493313   8.1822038  37.5124240  92.7567673   6.8632311  36.8365717
  48.6561489 105.8707333  36.2828374  48.3758593 105.1136684  35.7685137
  47.8438044 106.3308907  36.4939570  71.6275454 101.9823074  32.5889754
  72.3646975 102.4570084  32.2049260  71.5187311 101.2144279  32.0279384
  25.0277138  16.6193354  40.7317114  24.8707891  16.4578056  41.6620398
  24.8012114  17.5409651  40.6070948 100.4401684 106.1464310  42.6910448
 100.9288406 105.7227135  43.3966637  99.8423100 106.7445946  43.1393766
 118.3515358   6.9767630  31.5724730 119.1957951   6.5490210  31.7156649
 118.1655788   7.4223763  32.3989582 104.8290730  37.8826332  51.4601040
 105.6553936  38.3190370  51.6674089 105.0872993  37.0118165  51.1580658
  90.7681847  30.5955887  18.3886313  91.4065933  30.3476214  17.7199113
  90.6370163  29.7983336  18.9018679  76.3854885 106.5546608  52.3270416
  76.2739325 106.6696835  53.2707357  76.4457083 107.4457169  51.9826126
   5.1077151   7.8804439   3.9054966   4.4973257   8.5026383   4.3011367
   4.6231282   7.5035894   3.1710660  88.4445858  17.7390933   4.7532830
  88.4237385  18.6890674   4.8688039  89.2604828  17.4647486   5.1719320
  98.8419628 106.8207932  48.6617279  98.7720490 106.2447834  47.9004431
  98.8923264 107.7020454  48.2914734  90.0958824  10.1559818  35.6171465
  89.8663807  10.8121526  34.9591184  90.6742287   9.5475757  35.1571488
  71.4591169 111.9701004  70.5214357  70.8208179 112.0744038  71.2270784
  72.1814775 112.5492573  70.7643509  65.3441668  85.7397938  34.8946023
  65.7059193  85.3568172  35.6937838  65.9844398  86.4024734  34.6354795
  85.9768677  17.3179793  52.3575974  86.3899517  18.0866551  52.7509546
  86.7086124  16.7504466  52.1153593  14.6121478   4.8903817  37.3043704
  15.5086112   4.7077599  37.0228839  14.0737748   4.6782303  36.5418887
 102.9448986   4.2982143  21.6445160 103.3187103   4.9175432  21.0176730
 102.6314640   4.8457831  22.3643470  64.4891357  99.4904709  38.5676622
  65.3016329  99.4281673  39.0698528  64.0131617 100.2162647  38.9712691
  60.1802731  90.5135918  46.6242743  60.6931067  91.3203049  46.6738367
  59.4180632  90.6798744  47.1789074 109.2003059  28.4038377  30.9962821
 109.1389561  28.9823771  30.2361774 108.3766079  28.5366321  31.4654565
  99.3544865 103.7365246  15.6807041  98.8893604 104.5225430  15.3942370
 100.1303196 103.7000465  15.1212525  16.6025722   0.6719095  27.5767708
  17.2188771   1.4012185  27.6439095  15.9535122   0.9649287  26.9371653
  99.2403603  22.6004577  42.8477287  99.4023132  23.5398555  42.7609158
  99.7348785  22.2048211  42.1299887  86.2099552   0.8234721  30.4287648
  86.5161991   0.0013045  30.8115029  85.5828476   1.1653768  31.0659933
   1.9787046  24.9593258  20.9957385   1.9610839  25.5071735  21.7804551
   2.8425932  24.5473695  21.0105848   5.4317862   6.3873595  37.5964785
   5.0773019   6.8637127  36.8457055   5.6387305   7.0685339  38.2363272
   3.1328067  27.4210310  46.2736654   2.9069868  27.3514628  47.2012377
   3.9806288  26.9828439  46.2000418 112.8974342   1.0914236  43.1331825
 113.0200768   0.8010709  42.2293615 112.7322006   2.0315921  43.0623865
  81.0643864  96.6639614  36.0024333  81.5943146  97.3784447  35.6489992
  80.7898140  96.9736767  36.8655181  95.9082794 106.0866928  53.1209135
  96.0490131 105.5429268  52.3458385  96.6918182 106.6338444  53.1751108
  92.3417187 111.6432095  27.3329520  93.0086136 111.8929958  27.9725552
  92.8038692 111.0790730  26.7129493 112.2611046  20.0958443  59.2682219
 112.5833035  19.5624936  58.5416174 112.9280376  20.7728744  59.3825197
  88.6240005 111.9300079  48.0439091  88.4169483 111.6688251  48.9412117
  87.8104019 111.7892361  47.5597000 112.7124691 105.7411098  59.4471359
 112.8145504 105.1338291  60.1799440 113.5175228 106.2588978  59.4512272
 107.0064259  28.5736918   3.8930234 107.7120399  28.4415936   3.2598662
 106.2219906  28.2533431   3.4477445  18.2869613  13.8210177  51.9891787
  17.4503887  13.4406018  52.2568798  18.0577457  14.4397891  51.2957716
  94.5136833 111.2724304  44.0315676  94.2788696 110.3448009  44.0558529
  93.7144947 111.7143726  43.7448168  71.8716669 109.9472427  60.0521660
  72.0364857 110.6176758  60.7151747  72.7411127 109.6208668  59.8202705
  82.9972744 111.6860199   8.7168938  82.3338032 111.4207077   8.0799866
  82.5021648 111.8743801   9.5141494  62.8760576  92.1796131  27.8246784
  62.8912401  93.1366062  27.8374386  62.7381134  91.9545078  26.9046068
   8.6088079  16.9077539  51.1347437   7.8614086  17.3946893  50.7875824
   9.2424923  16.8981457  50.4173994  95.5703259  82.5490761  24.5669675
  95.2084923  81.8540764  25.1167750  94.9637985  83.2814312  24.6765876
  19.0098059  30.9724641  29.3403125  19.2498112  31.0466766  28.4166670
  19.7710168  30.5650401  29.7535896  79.5537758 102.5845432  28.7443209
  78.9724541 102.1059132  29.3352652  79.3062449 102.2843742  27.8697562
  93.7603760 106.2128544  40.5339336  92.9927635 106.0200691  41.0722971
  94.3411636 106.7064667  41.1129475  20.6732726  20.0471830  30.7671428
  20.4189110  20.4125667  29.9197793  20.1581717  20.5409074  31.4052176
 116.7056942   2.2134247  41.1894417 116.6111088   3.1607723  41.2885237
 116.6149330   1.8694198  42.0780659  78.2250834 108.6846447  32.8252459
  78.1158972 108.2319260  31.9889665  77.9533434 109.5850658  32.6474309
   9.7368342  23.5745668  37.8484011   9.3714422  24.4455218  38.0038333
  10.3926980  23.7085938  37.1642137  95.7603073 103.0330563  47.6806021
  96.3711357 102.4192429  48.0884600  95.2866650 103.4233189  48.4151697
  16.4973938   6.4103103  35.1184964  15.7578468   7.0128965  35.1971865
  16.8083692   6.2942636  36.0163045  23.8302708  22.6214218  39.3994164
  24.5742345  22.6033640  38.7974000  23.0912066  22.3111224  38.8762236
 112.7786350   3.7467813  44.1291952 111.8981934   4.0685666  44.3229008
 113.1089878   4.3428266  43.4570122   8.9761102   6.8036836  24.9841309
   9.7199690   7.3226333  24.6781945   8.3418357   6.8492985  24.2686987
  11.6531205  25.5945826  27.1686029  12.0622420  26.1254478  26.4852047
  11.0468686  26.1926150  27.6056933 105.9834957   0.4712680   5.1077306
 105.8034134   1.3285610   5.4935420 105.1772881   0.2426886   4.6451086
 114.9106979  19.0140867  40.4971552 115.3793240  18.6726665  41.2587643
 114.0510464  18.5950029  40.5372190  83.7594509  96.3391781  48.4287262
  83.8982964  95.6242466  47.8075743  84.6327782  96.7029476  48.5743380
  87.2248650 103.9751816  41.7082691  87.3896217 103.3235741  41.0267305
  87.6466846 103.6168480  42.4892282 117.7039146  30.3260875  23.6111665
 117.3073006  29.7239637  22.9815817 116.9809341  30.5861449  24.1820431
 100.9406185 104.0673828  10.5696845 100.2647114 104.6831322  10.8529460
 101.7185593 104.3203545  11.0667181  18.1127608   1.6519985  41.2159920
  17.3068738   2.0403989  41.5564680  18.2123363   0.8370078  41.7080355
   6.3132715  13.9698422  50.0561571   6.8953770  14.3354023  50.7223034
   5.4660803  14.3815827  50.2263546 112.7018547   0.3460892  57.6327753
 113.1340408  -0.0533715  58.3876753 113.4113312   0.7619785  57.1429682
  86.6719913   3.6915454  58.7967587  87.5574398   4.0309232  58.9272976
  86.7056561   3.2557380  57.9451895   1.1505106   7.2691083  34.6550632
   0.7972819   8.0760753  35.0295854   0.4248629   6.6464978  34.7000432
  23.1520748   7.4818850  35.7618666  22.5580549   7.9149169  35.1487970
  23.7249136   6.9526052  35.2069330   5.1276118  15.8764219  25.6168270
   4.7071138  15.8272290  24.7583437   5.4367012  14.9859655  25.7835078
  73.5962963 103.3383465  30.5676556  73.4566879 102.8156471  29.7780228
  74.4328308 103.0288315  30.9149814  61.7941046 104.2429447  43.2927513
  62.0593071 104.9962330  42.7650642  62.5502157 103.6564255  43.2699537
  72.6947737 107.9785919   7.3135984  71.8749332 108.3767700   7.0211208
  73.1168222 107.6800632   6.5079999 111.0044861  17.0692444  44.8009920
 111.8885708  16.7802715  44.5749092 110.9901428  17.9983819  44.5713568
  38.9663935 100.4815006  41.0315275  38.9112830  99.5272160  40.9810686
  39.8810124 100.6572342  41.2524796  85.0677109 110.4027748  43.3641052
  84.2977715 110.7437897  43.8192225  85.0920868 110.8870029  42.5387812
   8.0110139   6.4352030  29.3240261   7.6004004   5.6088555  29.0695095
   7.4610710   7.1090192  28.9243174  85.8392906 112.0412064  56.8912172
  86.3061237 111.7197132  56.1198902  85.2963734 111.3029003  57.1675825
  70.5277395  91.3125420  38.7120318  69.8680639  91.6928387  38.1320047
  71.3618135  91.6332340  38.3689499  40.4109335  14.4339013  25.8477950
  40.0739193  15.2958775  26.0920310  39.8948050  13.8185740  26.3685799
  70.1960421 106.6060352  31.3598156  70.2907753 107.4206543  30.8662033
  70.9388208 106.0699463  31.0821128  99.2274094 106.7617321  31.3614869
 100.1507092 106.5298843  31.2614894  98.8252640 105.9830379  31.7463851
   7.1592128  15.3185105  37.8158736   7.5533408  16.1838579  37.9257321
   6.3120115  15.4915559  37.4053407 114.3672943  31.5828919  17.2506392
 114.8990822  32.2771907  16.8615532 114.1001129  31.0411978  16.5080702
   3.0986738  21.2737823  36.4780879   2.6982498  20.8857369  35.7000685
   3.4252554  22.1231103  36.1810684   8.3788592  17.7297509  12.9647970
   8.3054781  17.8013813  13.9164889   7.9122293  16.9224191  12.7486849
  36.0808897   6.6161495  11.0494161  35.8689618   7.5246620  11.2637162
  36.4559150   6.2611735  11.8553817  99.4523182 112.2668663  25.7541490
 100.0601377 112.0485332  25.0476646 100.0103297 112.6065552  26.4537644
   3.6142951   1.6893160  43.6606884   4.3209952   1.2269196  43.2101393
   3.7267882   2.6051477  43.4060717  79.4986057 100.0980663  36.9802356
  79.7873211 101.0009480  37.1131825  79.9041891  99.8361588  36.1537123
  11.1207831 105.4339981  34.1670418  10.5214715 104.7286892  34.4111776
  10.5495203 106.1389065  33.8620877  12.2206581   1.0742344  55.8049917
  12.0549059   1.9189104  55.3863239  13.1738222   0.9866582  55.7985353
  80.9995556 108.9007568  50.1399469  81.1021519 109.6593285  50.7146502
  81.8952656 108.6367702  49.9295759  90.0916195 100.6012154  28.4258723
  89.7980690  99.7350788  28.1432700  90.0685883 101.1332417  27.6304746
 114.4948006  31.5077972  52.6138878 115.3082561  31.5105748  53.1183767
 113.9408684  32.1558809  53.0490589  63.7092257  99.6710873  24.7309422
  63.2119513 100.1654243  25.3825355  64.6254873  99.8308182  24.9571753
  28.4429455  23.5248566  26.5283680  27.5940299  23.3124900  26.9162774
  28.9364839  23.9319992  27.2403264   5.8567470   4.7765422  41.2820673
   6.5796185   5.2931684  41.6381407   6.2348759   4.3228713  40.5287886
  31.5989923   6.4528018  51.5541887  30.7263350   6.5893936  51.9230270
  31.4521646   5.8908963  50.7933140  18.2913375   3.0597886  44.1535425
  18.6099243   3.0827731  43.2512093  17.3411763   3.1443295  44.0742970
   1.6298310   7.2111017  41.6834116   1.0425690   6.4715236  41.5272760
   2.4820405   6.9111556  41.3671827  86.3268375  87.6984596  35.4699326
  86.7139435  87.9186726  36.3172174  87.0598507  87.7334595  34.8553610
   7.8102219  15.5219841  63.1356335   7.9876095  15.1226366  63.9872694
   7.6976621  14.7797251  62.5418186 108.2401657  10.2658153  35.1867747
 108.7188625   9.4455010  35.0677609 108.8194847  10.9359729  34.8241353
  12.0641363   1.1038436  31.6662550  12.1371651   1.0605416  32.6196837
  12.3431695   0.2391425  31.3651514 104.2710209   2.2860622  62.2405672
 104.9297047   2.9664072  62.1009493 104.7786331   1.4910239  62.4032831
   7.1851540  17.9621172  32.5801826   6.5098977  17.6185167  31.9952059
   6.7412496  18.6445129  33.0836868   3.1275371  20.8360362  25.0684118
   3.7944639  21.5067363  24.9214387   2.3094895  21.2461185  24.7875905
  13.6528659   4.3164194  34.4720078  14.3419957   3.6667946  34.3330097
  12.8393734   3.8129011  34.4414806  81.5116215 105.2177334  24.6971989
  81.2282372 104.3737888  24.3455076  80.7064915 105.7307148  24.7668338
  33.0003190  11.3133383  18.8775945  33.5073519  11.5125227  18.0905271
  32.6388121  10.4419804  18.7154794  13.5262454  22.4029946  26.8395400
  13.1683159  21.6144300  27.2473192  13.4612715  23.0744076  27.5186682
  26.0688448   8.1460422  33.3667946  25.5692911   7.3357266  33.2664633
  25.5400729   8.8097817  32.9239821 100.1846981 106.1047554   7.4763000
 101.1056042 106.3634109   7.4408257 100.1231003 105.5437374   8.2494080
  24.8610234   3.0381626  10.0196052  24.1314983   2.8903493   9.4177926
  24.4466829   3.1513461  10.8750248  94.3134975 109.7159100  21.0304093
  94.6341705 110.2120686  21.7835522  94.7117138 108.8507843  21.1263824
  86.3859558 102.9407215  51.2482691  86.5040398 102.2557831  51.9064093
  86.3005829 102.4661732  50.4213762 117.4043941   1.5085331  18.5929263
 118.3065033   1.5424126  18.9111853 117.0796394   0.6563815  18.8837945
   0.3913404 110.7191086  27.3325062  -0.2501439 110.4323769  26.6824961
   1.1387969 111.0190678  26.8152404  18.5063279 109.7731304   6.4851344
  18.5527599 109.9904346   7.4161839  19.4045615 109.8747826   6.1703730
  25.9285426  23.6350107  33.2399678  25.4784870  22.8050876  33.0821443
  25.2981997  24.1590977  33.7341690 109.6453762  48.0932808  28.0888295
 110.5296326  47.7294874  28.1333852 109.4773197  48.4230995  28.9715576
  41.3314152  32.0708227  35.0544572  42.0919943  31.7267680  35.5228400
  41.7037821  32.5937057  34.3444085  13.7435710  20.4804635  13.0744231
  13.9162374  20.3996396  14.0124452  12.8327096  20.7700872  13.0226362
  12.5173926   4.3456057  38.7042451  13.3865190   4.5280197  38.3470654
  12.6585174   4.2631209  39.6473837  27.9261565  16.4332736  48.6890030
  27.0181942  16.1565447  48.5654926  28.2845831  16.4812827  47.8027439
  45.8791971   7.0301569  24.1173458  45.9077883   6.5218127  24.9278998
  46.7895603   7.0638621  23.8235259  28.5294342  19.4749188  13.6988723
  29.0827870  19.4290173  12.9191756  27.7873898  20.0185966  13.4342742
  40.7677317  19.2985177  29.6779251  39.8614168  19.3023634  29.9858379
  40.8034134  20.0018191  29.0296006  37.2939706  28.9100409  42.6564074
  36.8199754  28.3185339  42.0718718  37.7361703  28.3303690  43.2766294
  27.6541257  20.7236385  17.6085734  28.0961037  20.7247543  18.4576237
  28.3131480  21.0485029  16.9950700  51.8405771  29.6761298  43.5609341
  52.2030640  29.3004227  42.7586412  52.0959234  29.0622425  44.2495346
  48.8688278  36.0119319  21.8448257  48.3612442  36.7581820  22.1637273
  48.5342979  35.8544803  20.9619141  18.7320197  11.8650806  16.4011025
  18.1154132  12.4300182  16.8668008  19.5610118  12.3429370  16.4267468
  30.5115390  25.0457168  35.1613116  31.0924196  25.5088663  34.5577383
  29.7754884  24.7651553  34.6174860  39.4717240  26.3749933  16.9007957
  39.3390441  25.4306626  16.8179107  40.2532625  26.5538597  16.3778830
 114.4451427  99.5954514  21.1463213 113.9824486  99.9668312  21.8974614
 114.8056126 100.3544712  20.6878662  38.3019638   9.2219418  30.6574011
  37.8368950   9.2455709  29.8211098  39.0024304   9.8670262  30.5602336
  24.2527938  23.3417773  12.9219556  23.7146449  22.6666260  12.5086820
  23.9832234  23.3340311  13.8403797   6.7936409  42.9783344  23.3172393
   6.6646200  42.8329802  24.2544985   7.7409917  43.0723286  23.2176185
  20.9775209  13.3806646  17.3393762  21.8901992  13.2582784  17.6006711
  21.0186458  13.5518169  16.3985002   2.8543186  15.0419915  20.4894662
   3.6423901  14.7045422  20.9152627   2.2730599  14.2841196  20.4262185
  42.6013756  37.6390743   2.1088739  42.5919771  38.3654928   2.7321380
  41.9087172  37.0529580   2.4137123  50.8439827  18.2107508  28.1245255
  49.9567986  18.2456315  27.7668738  51.3662291  18.7399650  27.5216794
 101.8500328 108.5203838  27.0942140 101.4807320 108.9382744  27.8721714
 101.1412048 107.9723167  26.7574406   6.9924366 103.1407166  29.1182375
   6.8991584 103.8289547  29.7769141   7.1285468 103.6124420  28.2965469
  23.7598944   8.6755717  16.3940465  22.8886485   8.5481071  16.7694318
  24.3587065   8.5482216  17.1298718  52.9689789  24.7432160  41.4203024
  52.0807743  24.3865609  41.4314079  53.2421875  24.6771502  40.5053043
  87.5104809 100.7120705  22.1084881  87.7006054 100.0351048  22.7579546
  87.3006248 101.4889908  22.6267409  30.3665662  29.5833707  44.1724491
  30.1684666  29.7429347  45.0952291  31.2971616  29.3594885  44.1624928
  17.4662197  21.6068912  22.0702648  16.6900337  21.8475890  22.5760651
  17.4720633  22.2192264  21.3345718  18.0858183  22.4010611  10.7867074
  17.8121912  23.2463312  10.4305065  17.2671676  21.9624090  11.0182810
  38.8617778  28.0544209  18.8466382  39.2805743  27.5465965  18.1516886
  38.4908319  28.8141561  18.3978248  39.8089814   5.0245285   5.7179481
  39.7351885   5.9662956   5.8724177  39.6387434   4.6276388   6.5721905
  30.9669399   0.9162485  22.6763821  31.4095688   1.7602395  22.7657771
  30.3609872   0.8839884  23.4166598  31.5642262   2.3599158  16.9131696
  30.9375930   1.7835811  17.3506641  31.9371009   2.8880990  17.6190162
  41.6027021   9.5273107  27.9504561  41.0170889   9.0263623  27.3827100
  42.4020433   9.0024412  27.9928803  49.9126863  16.6453683  36.1550474
  50.1133871  16.1697650  36.9611192  50.7685947  16.8686843  35.7892847
  20.5467606  29.0769529  35.4077601  20.3665829  29.8498535  35.9429169
  21.0183787  28.4847212  35.9934807  49.6051550  32.5228715  23.0855870
  49.3807268  31.6088629  23.2600904  50.1260948  32.4925828  22.2831321
  39.1020465  13.9636946  37.8844452  39.8161077  14.1139328  38.5039449
  38.3082294  14.1615248  38.3813834   4.5005777  17.2567070  23.0380034
   3.6196020  16.9320285  23.2242775   4.8629984  16.6237855  22.4180913
  93.4012699  72.2993422  93.1401825  93.6545467  73.1580544  93.4788609
  94.1165829  72.0525932  92.5539398  44.5709181  36.5326452  38.0045056
  44.6344709  35.9305191  37.2631288  44.7331524  35.9848809  38.7725306
  55.8678961  53.5976362  95.7646465  55.0043821  53.9671898  95.5802536
  56.4741755  54.3255758  95.6276798 105.7331657  57.3307419  19.1579759
 105.7758427  56.8566704  19.9884391 106.4105225  58.0031204  19.2309308
  26.3878942   2.7208084  26.1876774  26.6898990   1.9767515  26.7086434
  27.1449471   3.3048439  26.1428809  56.2467766  38.7411118  20.4557300
  56.6942310  39.5840454  20.5297399  55.9286976  38.5603166  21.3402486
  91.3135147  99.6765137  82.5730324  90.3613567  99.6905518  82.6701736
  91.5541363 100.5932236  82.4389553   2.7812484 109.7217941  12.0387173
   2.0957918 109.2206001  11.5969157   3.3721408 109.0578556  12.3940551
  20.2050185  22.8058529  12.5993299  21.0918593  22.7570057  12.2424531
  19.6459067  22.4712539  11.8981397  39.3654394   4.8622158  20.3512502
  38.8531303   5.0011551  19.5547152  39.8478508   5.6801748  20.4714751
  57.0037270  12.6068890  43.8986731  57.4423075  13.4571445  43.9293814
  56.0928679  12.7990460  44.1214943  24.5156384   6.8226248  25.7693839
  25.2897906   7.0664877  26.2767816  24.0653467   6.1775041  26.3146257
  63.0415010  77.2038555  89.5604610  63.8254929  76.7185974  89.3033218
  62.8755236  76.9301271  90.4625416  61.5634823  34.3731284   8.0541819
  62.2867155  33.9628553   8.5283548  61.9894552  34.9488997   7.4191499
  25.7415199  20.3020334   6.8163002  25.2781773  20.9303427   6.2624317
  26.2005186  20.8424711   7.4593228  29.2891169  17.8932309   6.9560969
  29.0166736  18.3427048   6.1561096  29.9506021  18.4684241   7.3405749
  26.6577840   9.9537110  24.6439362  27.4286699  10.5167174  24.7145915
  26.8196392   9.2465234  25.2683711  43.1517839  23.1872869  21.3418913
  42.2591209  23.3772564  21.0532808  43.0454111  22.8019881  22.2116399
  29.9177909  11.0262072  13.1286693  29.8677039  10.7018268  14.0278351
  29.0245175  11.3022697  12.9235303  52.3523808  13.1989050  27.9834056
  51.9908476  12.3230243  28.1189060  52.0376921  13.4564924  27.1168876
  38.0898237  18.0029845  39.1651392  37.6029873  18.8252509  39.2208099
  38.9818740  18.2675350  38.9404368  43.6696386  25.4591656  27.1241021
  43.1926727  26.1706281  26.6968322  43.2335138  25.3522158  27.9694366
  56.8830395  65.3064251  96.4629936  57.6510572  65.6881142  96.8880844
  56.3053799  65.0626326  97.1862507  92.2490406  81.1615562  79.2177582
  92.7074146  81.9912434  79.0845442  92.6893520  80.5476093  78.6300325
  54.4325876  19.9401951  42.4201298  54.0590858  19.1527772  42.8159857
  53.8408422  20.1485968  41.6971922  75.7769251  79.7814751  94.5092964
  75.8591843  79.2155027  95.2768517  76.3667774  80.5139732  94.6875191
  63.1464863  79.8172331  89.1463852  62.9125881  79.7081232  88.2246399
  63.3110285  78.9274931  89.4586754  24.9492383 109.9716759  16.1409461
  25.2206898 110.7492542  15.6531811  25.4615068 110.0047970  16.9488561
  35.6717086  20.3912234  42.9235268  35.4393530  19.5775449  42.4761248
  34.8671865  20.9096956  42.9108477  37.1959662  39.7078228  16.8444884
  36.4200473  39.8675323  16.3072050  37.0015526  38.8944554  17.3101807
 117.0118237 108.9504814  16.1843848 117.7446175 109.5468616  16.3379133
 117.3237514 108.3591270  15.4993737  14.2055953  19.1360986  20.9493947
  13.3607924  19.1826105  20.5017614  14.1279590  18.3785772  21.5293646
  21.8853283  31.0523272  44.8006296  22.7142310  31.4290857  45.0959253
  21.5135908  30.6474519  45.5842876  45.3750467  38.0476928   7.8069067
  45.1896572  38.1739116   6.8763524  44.9159718  37.2393537   8.0350953
  56.2228107  12.6503289  33.5401297  56.6870308  13.0861270  34.2548418
  56.6569710  12.9632831  32.7465343  41.5129232  26.0759974  19.5915520
  40.7819033  26.6714382  19.4263363  42.0058918  26.4923573  20.2985573
  27.4637771  19.2562175  27.7271891  26.5457606  19.2207134  27.4584508
  27.4493265  19.7103930  28.5696530  36.1552930  17.4002850  14.7216678
  36.2811112  16.5180957  14.3721747  35.4000449  17.7420425  14.2430949
  15.6225419  27.5690317  24.5024395  15.8741283  28.1730437  23.8037944
  16.3450861  26.9429779  24.5495296  14.5914447  13.5671198  45.0400496
  14.5464432  13.9721787  44.1739464  14.0807354  12.7620506  44.9547720
  46.9099712  38.4351611  20.7011342  47.6476288  38.5940933  20.1122141
  46.6858864  39.3005753  21.0433006  23.2690573  25.8447838  25.7735252
  22.3729205  25.9570122  25.4563856  23.5291171  24.9801826  25.4556155
  28.1219935  29.2419529  20.2322888  28.5662556  28.5224366  19.7837782
  27.7048707  28.8310194  20.9895062   4.0750915   2.7206469  57.3861361
   4.8775271   2.5567448  56.8906927   3.3774722   2.3617746  56.8377113
  26.7930794  32.1091843  22.8897572  26.4293075  31.2966704  23.2415032
  26.2882662  32.8018451  23.3159208  25.5108762  38.6932302  29.9180555
  24.9932814  38.6925411  30.7232428  25.9210610  39.5578480  29.8977423
  43.2231188  35.4733396  13.3813536  43.0199432  36.3068748  13.8058209
  44.1770172  35.4078960  13.4263432  21.9389749  27.4394083  20.2342105
  22.2550917  27.4020648  21.1369324  20.9908915  27.3300314  20.3077221
  31.3242197  41.0952759  31.4655519  30.7164192  41.7985439  31.2370086
  31.6906619  40.8135891  30.6273365  61.8602657  12.8945148  37.3517442
  62.5000095  13.2298470  37.9798436  61.8377161  11.9513106  37.5132632
  53.0449200  34.5017385  18.5794771  52.4675274  33.8435864  18.1925905
  53.5035896  34.8866773  17.8326976  28.4528947  28.1067228  34.5382762
  27.6811981  27.8000402  35.0143671  29.1062117  28.2673550  35.2191615
  35.0424743  16.0646546  52.0716572  35.7228422  16.6335177  51.7114782
  35.5085325  15.2713215  52.3355579  65.3673506  35.7611346  22.2419572
  65.9089756  36.3551235  21.7222929  65.8713341  35.6161737  23.0427194
  36.6246080  20.4756999  38.9190698  37.4064350  21.0243869  38.9816856
  35.8955908  21.0959625  38.9250636  37.2211051   0.4049138  33.4327316
  36.8209505   1.2537715  33.6212802  37.2532248  -0.0383340  34.2805123
  47.7360821  16.4109743  26.9579506  47.6054430  15.5888200  26.4854813
  47.8901863  17.0598972  26.2713766  34.9686933   4.0052888  52.6411486
  34.4655371   4.6778241  53.1002378  35.7455420   4.4639763  52.3212337
  37.6616120  36.7121530   0.6519748  38.0405569  35.8517623   0.4720861
  38.0049515  36.9497466   1.5133107 107.1220207 111.8905735  21.9468045
 107.4278450 112.3698425  22.7168703 106.2243557 112.1958733  21.8155789
  42.4163008  14.1930068   8.8754493  42.6096916  13.2651687   8.7414777
  41.5278435  14.3037951   8.5369188  43.6022568  29.3550944  28.6623192
  42.9326820  28.7876868  28.2802868  43.8781595  28.8984704  29.4570565
  15.3813684  28.0868602  30.8781219  16.0096884  27.4013996  30.6509876
  15.7034171  28.8664579  30.4256344  50.6847429  19.9002683  15.7458520
  51.2950850  19.7417974  16.4659905  51.1214495  20.5554414  15.2015460
  31.1780381   5.5943364  55.1715374  31.1013198   6.0317558  56.0194826
  30.7435799   6.1856240  54.5568371  74.7206116   9.0483922  20.3648472
  74.9155378   9.9633604  20.1621962  73.9082241   9.0827620  20.8699036
  88.7613869  92.1486950  83.4938812  89.1259766  92.1009541  82.6101303
  89.4587040  91.8160248  84.0589523 114.2572403 106.7082882  17.4793613
 113.9160061 107.5803375  17.2810626 114.7429657 106.8212414  18.2963920
  47.1257639  32.8129530  17.7624810  46.7348289  33.6454225  18.0277967
  47.9643059  33.0563450  17.3702526  62.7898932  59.1620111  97.3823738
  63.6882162  59.3064690  97.6796722  62.8652954  59.0581894  96.4338207
  15.0290418  31.5651011   2.2163694  15.8676434  31.2996984   2.5939134
  14.4576514  31.6991425   2.9725289  41.5852642  27.6689482  27.4812603
  41.3087940  28.5350871  27.7805877  41.7109680  27.7704310  26.5377927
  88.4537601  64.9916887  84.2896652  89.2356014  64.7641134  83.7865067
  88.4517384  65.9486866  84.3093109  20.4490304  34.1301060  40.7087994
  20.7590890  35.0010729  40.9568167  20.0360179  33.7881231  41.5017033
  55.1313019  43.3632374  27.0058084  56.0366726  43.6266708  26.8410683
  54.9239969  42.7594137  26.2926126  50.3700733  43.7834644  24.7199249
  50.7193804  44.6698809  24.6278429  50.3231859  43.4502125  23.8238358
  15.3833592  23.1365108  22.6125979  15.3853774  24.0878844  22.5071716
  14.9298227  22.8103614  21.8353176 115.8033657  12.5081146  41.2584257
 115.2083683  12.6235557  41.9992924 115.8189869  13.3630884  40.8282995
  30.8320117  27.7925229  42.3141956  30.3094673  28.4441948  42.7816343
  30.6905556  27.9912210  41.3885927  43.5684490  52.8042030  31.1681318
  43.3807659  52.1471500  31.8384171  43.2509947  52.4133587  30.3540730
  66.4793301 107.0106792  94.7747993  66.6714764 106.9709778  95.7116795
  67.2433233 107.4416828  94.3916702  55.7290602  25.9597564  22.1167541
  54.9544096  26.0171247  22.6760864  56.4602470  26.1686254  22.6981091
  11.5607440  28.1429768  11.9678485  12.4696207  28.3783245  12.1543586
  11.3107300  28.7115431  11.2395239  36.6369438   9.3097234  10.1343000
  37.3881745   8.9096081   9.6963632  36.0613537   9.5836061   9.4202143
  30.4496574  27.4726057  13.8452375  29.5103335  27.3426080  13.9756250
  30.8426642  27.2402620  14.6865416  28.9525986  17.1730483  15.9152186
  28.5973406  16.4868045  15.3503346  28.8439226  17.9789782  15.4103434
  44.7590780  12.3970890  25.3322196  44.8555470  11.4844108  25.0602937
  43.8135242  12.5456834  25.3411484  19.0074229  37.9374027  28.3052897
  19.5134413  38.7204742  28.5220337  18.1211114  38.1332660  28.6091328
  47.2636747  60.4962969  17.5518835  47.2618389  59.8965549  18.2978964
  47.2448826  61.3685179  17.9457283  42.6801348  49.7177076   1.6021483
  42.8920746  50.6412792   1.4667648  43.4739065  49.3433332   1.9842556
  53.5993385  22.5210261   7.8770697  53.8899851  22.7304792   6.9894397
  54.2792988  21.9419265   8.2213509  38.6860633  34.7639918  15.6530154
  38.1834769  35.2115607  16.3336933  38.4895015  33.8360095  15.7812476
  43.5069656   8.2068211  33.8034391  44.3534613   7.7665818  33.7268448
  43.5057545   8.5712719  34.6885419  56.8420887  14.9746263  47.1248865
  56.4601851  15.8482122  47.0398664  57.4042368  14.8830688  46.3555813
  60.8156538  66.7300749  88.5974884  61.7532063  66.8465376  88.7513161
  60.7674932  66.1077833  87.8717709  40.1631355  54.1340065   2.3169407
  41.0412264  54.4247103   2.5632566  40.2596760  53.1967545   2.1481888
  34.3685627  53.5322285  25.2620077  35.3023171  53.3265352  25.2169967
  33.9624643  52.9422331  24.6270108  49.9292517  28.3315420  11.5691173
  49.0247774  28.0393195  11.4561462  49.8634481  29.1012883  12.1342647
  36.2161231  14.1138875  23.3518338  36.6897392  14.9389017  23.2456732
  35.5067277  14.3215048  23.9600158  52.2152281 102.2090912  91.8375301
  52.0528984 103.1523228  91.8514061  53.1659889 102.1285439  91.9136620
   8.2319647 111.0015392   4.5105055   7.9139072 111.2472153   5.3792500
   7.5332063 111.2712669   3.9145061  40.3393793  10.9895229   7.9031736
  39.4919014  11.2073100   7.5151211  40.5503559  11.7421889   8.4556353
  45.2383709  25.2689052  39.5624399  44.5433903  25.0007915  40.1635647
  44.7754288  25.5787134  38.7840199  65.6016588  45.5387974  12.5548518
  65.9696293  45.0381327  13.2829726  66.2987852  45.5554533  11.8991303
  52.7198648  41.3088036  30.6290984  51.7832661  41.4005184  30.4541612
  53.1165361  42.0772552  30.2187729  26.5863180 106.6835785  22.5838089
  26.6584969 107.0961761  23.4445000  26.7280674 105.7520199  22.7521229
  34.3424702  14.3712139  46.5639830  33.4195542  14.5128143  46.3532495
  34.3282819  13.8963330  47.3949575  58.7781858  61.3421869  28.4982252
  59.2027855  61.1907768  27.6538181  57.9421902  60.8807039  28.4321094
  56.3785458  57.1231031  41.6493750  56.8093586  57.8302002  42.1296310
  55.4435587  57.2750759  41.7869759  49.7181225  22.3529005  16.2236691
  49.6011829  22.8011990  17.0612764  49.9016714  21.4441824  16.4619422
 107.3101234  96.6205502  88.0358410 108.0980682  96.3115311  88.4829235
 106.6714478  95.9191799  88.1638718  78.0199146  72.4942780  93.1426334
  77.1746731  72.2246075  92.7833748  78.4062338  73.0429554  92.4600315
  96.4295959 108.1554794  75.0283480  95.8734798 108.9217663  75.1689434
  96.1846638 107.8380013  74.1591835  40.6552839  28.0141068  33.5916948
  41.3628387  27.8394699  34.2122626  40.1940298  27.1790552  33.5131741
   7.7381849  22.3509717  20.5401826   7.1374977  22.2628236  21.2802076
   8.5124242  21.8513441  20.7993269  47.1622515  33.4343600  23.7162399
  47.3027086  33.0965066  24.6007490  47.9032993  33.0993533  23.2114077
  11.8181610  28.6821866   7.5475633  11.8849540  27.7842593   7.8723669
  11.1697483  28.6351442   6.8450105  62.9199934  26.0636473  47.3780251
  62.2149944  25.4241371  47.2768497  62.4711800  26.9065785  47.4433374
  28.3175993  44.2214918  28.4859419  27.9327989  44.9780750  28.9283705
  28.0223513  44.2988348  27.5787044  37.7360249  31.3283467  21.1503887
  37.7425981  30.6363630  20.4890680  36.8224287  31.6108561  21.1923718
  43.1689358  33.7748480   9.5842963  43.9197826  33.3958030  10.0412226
  42.5732851  34.0431285  10.2839100  54.4196367  63.0633354  24.1771722
  54.8095512  62.2091103  23.9914155  54.7585344  63.2985830  25.0409079
  63.1004333  40.5248642  28.6685824  62.5202322  40.5690622  29.4286108
  63.0860376  39.6034956  28.4095287  47.1448135  21.0375690  36.0097289
  47.6324034  20.7343674  35.2438593  46.7825603  21.8827391  35.7438517
  28.3794117  46.1981964  10.2820301  27.8405166  45.4073334  10.2629316
  28.8437605  46.1514902  11.1177528  41.4160776  35.9654784   3.8941973
  41.3925552  35.0505590   3.6138383  41.4526129  35.9223175   4.8497254
  36.8786383  15.9260881  37.1792388  37.2688150  16.6020262  37.7334070
  36.4237761  15.3476214  37.7913737  13.6740243  35.7129669  17.9723608
  13.1165278  35.4697824  17.2332466  13.8442397  36.6465306  17.8469932
  31.5118623  47.8733730  32.0643139  31.3631916  46.9351339  31.9467187
  30.9607577  48.2882309  31.4006805  25.6914496  30.1334238  38.6786461
  25.3587699  30.4036140  39.5345378  26.6197824  29.9543285  38.8281584
  72.5218344  84.9515533  96.6716480  71.6355181  85.1813126  96.3925838
  72.4514055  84.8324394  97.6187992  41.7506790  48.0974007  19.2799926
  41.8778372  49.0207338  19.4979703  41.1505747  48.1077766  18.5343409
  42.8868198  45.1504564  28.3705521  42.2499371  45.3616571  29.0531993
  43.2484722  45.9975529  28.1100368  18.2765710  31.3987851  23.3758378
  18.1961310  32.2470856  22.9397798  18.2683206  31.6078782  24.3098855
  40.3951740  24.6600628   4.7818598  40.3860950  25.5840063   5.0318128
  40.7873487  24.6519923   3.9087248  36.6564727  50.4917192   8.7833613
  37.0102954  49.6074677   8.6877841  36.1732936  50.4683781   9.6093309
  31.8894887  41.3806963  38.5931325  32.4056935  41.6451693  37.8316736
  32.2053742  41.9401598  39.3026710  35.6474924  29.2448735  27.1756363
  34.9043798  29.8399091  27.0759130  35.9297729  29.0619206  26.2794900
  84.6271992  94.2819214  93.8141823  84.7719860  95.2069759  94.0130615
  83.9074612  94.2824078  93.1831360  28.4912682  27.5422359   2.4581182
  27.9572630  28.1281424   1.9216630  29.0147948  27.0494866   1.8261753
  59.3335819  27.8920698   3.5721159  60.1652098  27.5094032   3.2924864
  59.2657518  27.6659179   4.4997400  94.5455933 103.8216400  96.6010571
  93.8275909 103.1886292  96.6025639  94.3445683 104.4135571  97.3259354
  56.8634987  16.4868951  29.0584135  56.1477804  15.8515859  29.0393972
  56.8649817  16.8723178  28.1822395  60.5569696  65.0294256  27.4564266
  60.5337143  64.2401457  26.9153762  61.4514637  65.3572512  27.3634863
  29.3380284  35.5390930   9.2225617  29.3592548  35.0008059  10.0137806
  30.2219653  35.9000325   9.1546482  31.4923835   1.0547642  12.6308584
  32.2881842   1.2810330  13.1122482  31.1783862   1.8888429  12.2816443
  25.7633758  39.9178338  35.8387637  24.8144507  39.8025489  35.7889628
  26.0420609  39.3148637  36.5279627  20.8360767   0.9517765  89.1429424
  20.4719543   0.4657676  88.4030533  21.1154556   0.2751997  89.7597313
  52.8896952  22.8087759  16.9534183  52.5720358  22.4058414  17.7614832
  52.6659870  22.1793103  16.2678826  46.7785740  12.8524208   7.3433864
  46.9502449  13.3068049   8.1681865  47.6017237  12.9160762   6.8590289
  81.9719791 105.6955910  86.7478752  81.7018509 106.5391636  87.1107101
  82.7169418 105.4303741  87.2872639  32.1930671  30.7700038  32.2122312
  31.7278862  31.3108039  32.8504920  32.6873827  30.1451516  32.7427435
  40.1689959  44.2286634  39.1494489  39.4255543  44.7124243  38.7895894
  40.9058523  44.8357010  39.0802860  55.4010296  49.1416693   4.1208810
  56.0456848  48.4493637   4.2670295  54.5551586  48.7119246   4.2476109
  25.7569695 103.0640793  15.9756732  26.3112283 102.9339123  16.7451453
  25.6641436 102.1899986  15.5967247  84.2241669  88.3166218  92.7262115
  85.0498581  88.4809113  92.2707176  83.8726139  89.1884422  92.9067039
  31.1538100  40.0206089   7.2602564  31.2774301  39.3310452   6.6079867
  30.6537890  40.6964064   6.8025374  81.7632675 100.8827972  88.3289528
  81.4809513 101.2935829  89.1461372  81.3642502 101.4168644  87.6420879
  56.1439657  36.6046906  32.7492237  56.2532282  37.5545883  32.7938175
  55.2938509  36.4419389  33.1579423  73.0984783  64.7496843   8.8084024
  73.0553389  63.9580441   9.3447554  72.1835136  64.9878407   8.6588782
  46.5921307  79.1835737  37.9677248  47.2488213  78.8815784  37.3401999
  45.7535553  78.9831781  37.5519562  32.0554733  35.6576538  40.2210712
  32.5262928  36.4676690  40.4171181  31.3356400  35.9306884  39.6522760
  55.8031368   4.8728710  26.4419651  55.0575352   4.9310192  27.0393991
  56.1307192   3.9804634  26.5539050  49.2211914  68.8361597  16.0284030
  48.7675524  69.4527340  16.6031098  49.4236898  68.0887938  16.5911353
  72.9285908  64.1289902  96.6441822  73.5423756  63.6000776  96.1345291
  73.4680557  64.5342350  97.3231411  95.8386612  98.4522057  93.1804943
  96.5109539  97.9188919  93.6045647  96.1203289  98.5112476  92.2675800
  33.2136345  39.6937966  26.2288737  32.9987764  40.4704428  25.7122588
  32.4190855  39.1607046  26.2016821  69.2005777  24.3975282  34.7427034
  69.2768383  25.2928615  34.4128609  68.3022356  24.3377256  35.0677276
  68.3919144  39.4855046  35.1847911  68.7076998  38.5870981  35.2816415
  69.1269112  39.9567413  34.7924328  65.4629660  36.6028357  28.9826298
  66.1139631  36.4492178  29.6673441  64.6257544  36.6148567  29.4464874
  48.7669182  60.4298878   6.1791170  49.5608711  60.9312201   5.9932768
  48.3079863  60.9452772   6.8424290  54.5347452  60.0604296  36.1285782
  55.2931356  60.3086233  36.6572332  53.7797356  60.2882004  36.6710854
  45.4417372  56.9431162  14.4256234  45.5052090  57.8829765  14.2557430
  44.9616337  56.5957355  13.6739171  40.9786034  45.4875422  30.3189158
  40.8834553  45.8829212  31.1854339  40.0802469  45.3511620  30.0179267
  39.4539070  13.4877396  23.4097266  38.8865948  14.2581463  23.3803701
  40.0703430  13.6711013  24.1186833  48.0248833  44.5889282   5.4097939
  48.7030268  43.9134073   5.4149866  48.2398129  45.1498032   6.1550832
  53.2727528  19.2141175  30.2339649  53.5172558  18.3538258  30.5750632
  53.0526733  19.0541899  29.3162394  54.8457384  63.2117510  15.6966817
  54.0232563  63.6896038  15.5898678  54.7792006  62.4802589  15.0829029
  38.0304933   9.2194504  21.4875436  37.6598406   8.8546103  20.6839633
  37.3200035   9.1624475  22.1264386  60.1102972  27.0106387  39.4849563
  60.0195456  27.5256467  38.6832309  60.6644344  26.2717485  39.2335486
  38.7680268  54.0158749  22.5793886  38.5632730  54.8188543  23.0584884
  39.6209979  54.1862583  22.1798372  53.0473280  52.9614353  19.7806883
  52.5683832  52.2545815  19.3480229  52.6897907  52.9847240  20.6683016
  52.8425121  56.9834137  20.8822179  53.6079407  56.9103670  21.4523172
  52.4263430  56.1226606  20.9285522  43.6252689  33.2347322   6.6470063
  44.1964722  32.6070309   6.2043428  43.4924364  32.8638768   7.5193894
  62.4991512  19.0933561  20.1467705  61.8532944  19.5862114  19.6406102
  63.3288002  19.5386624  19.9746895  31.3060451  25.0619960  10.1423335
  31.2797451  25.9562993  10.4825687  32.1564460  24.9959040   9.7079575
  21.5425992  39.5922375  40.2965879  21.1847305  39.9630260  41.1032343
  20.7970476  39.5582581  39.6972322  43.7741566  53.4444809   8.2736790
  44.0432453  54.2125988   7.7698755  43.8163042  53.7298727   9.1863704
  57.9061460  37.3917055   4.7084880  57.0451498  37.1714115   4.3529847
  58.3853912  36.5631223   4.7061336  25.7427645  23.7951708  27.0749593
  25.5174065  24.5493531  27.6196194  24.9693060  23.2325506  27.1130610
  59.0626574  16.5046751  24.4057751  59.4470501  16.0366976  23.6645126
  59.8037243  16.6892350  24.9828291  30.6817579  31.8367505   8.6320245
  30.5894589  31.4485645   9.5020962  29.7824311  31.9661283   8.3308494
  43.3313751  37.5978136  15.3342068  42.5895119  37.1913123  15.7821190
  42.9338121  38.2427788  14.7492313  52.0550776  40.4220390  16.9879687
  51.6164732  41.2019682  16.6480196  52.5517750  40.0828505  16.2433386
  54.5456314  57.2989321  12.4300933  54.2370892  57.4096060  11.5307689
  54.8255205  56.3847446  12.4764931  46.1462259  42.6148176  31.1064291
  46.6344690  43.4281206  30.9784102  45.3503799  42.7289200  30.5869651
  21.5098405  27.9411483   9.5936257  21.9099784  28.7853479   9.3851918
  20.8379555  27.8222895   8.9223021  44.1888523  26.3342452   8.7244219
  45.1267433  26.1571693   8.7967753  44.1274977  27.0417404   8.0826139
  75.3479815  95.4962158  96.0686207  74.7613811  94.9754620  96.6172028
  75.7388830  96.1298656  96.6702175  63.4189749  68.4329510  32.2953320
  64.1414785  68.0515051  32.7940440  63.8399839  68.8451052  31.5409350
  48.6710024  40.2450132  31.3422513  47.9001617  40.7150364  31.6602397
  49.0630865  40.8354855  30.6989431  31.1635518  22.3952365  26.9210649
  30.2798676  22.7134919  26.7365503  31.4619255  22.9299092  27.6568174
  58.3012104  19.7781646  25.4589033  58.8344240  20.3437328  24.9002934
  58.1800938  18.9796150  24.9452090  34.6662974  18.7386298  30.2828217
  34.7169018  18.3242118  29.4214702  35.4694366  19.2553604  30.3475571
  34.1654634  44.7455692  24.7906923  33.9158940  45.1697254  25.6116891
  34.1942382  45.4580402  24.1521049  55.2243185  39.5642924  12.4890041
  55.7467270  40.2401495  12.0571041  54.3766117  39.9803662  12.6455653
  21.5242147  52.6704454  37.5808764  22.2336650  52.0292473  37.5387144
  21.8967366  53.4084415  38.0633974  17.4412489  25.5433750  19.8399460
  16.8726981  25.3649998  20.5890536  16.8392801  25.7690096  19.1307521
  30.4512024  53.2095051   2.9081911  30.9478188  53.8289976   3.4428224
  31.0144615  53.0394840   2.1531659  11.6627049  32.1146083  28.3327603
  12.3624563  31.4648652  28.3991838  10.9242702  31.6339493  27.9587102
  22.0597267  59.6320534  11.4911520  22.7290273  58.9742661  11.3025141
  22.3301649  60.0166559  12.3249245  58.2627869  21.2915063  31.4499164
  58.0558109  20.7240486  30.7073617  57.5464964  21.1475468  32.0683312
  41.7764044  35.6430030  32.8868032  40.8555794  35.5248618  32.6536584
  42.2595835  35.2305770  32.1707892  13.8502669  47.1796894  10.7969654
  14.7128057  47.0654583  10.3979540  14.0035689  47.0673037  11.7351019
  76.3089371  67.8770256  84.4735527  75.5701923  68.3762598  84.8217678
  77.0023918  68.5262108  84.3556118  95.9735203  24.6500158  28.3053493
  95.1561260  24.6018672  28.8011026  95.7643700  25.2017450  27.5516367
  51.1593008   9.2076081  34.7770333  50.2626753   9.4844955  34.5882964
  51.6396809  10.0249910  34.9087715  43.1517601  21.8318295  36.8827367
  43.3233356  20.9661794  37.2534728  42.2277498  21.8070412  36.6340995
  23.3136582  30.1604891   8.9120239  24.1674352  30.0850296   8.4858751
  23.4918642  30.6374168   9.7225887  32.7406096  35.9078741  20.1326180
  32.6624846  35.2750731  20.8465457  33.5049510  36.4359379  20.3631926
  33.4787750  25.9981561  13.9697862  33.1278110  25.3332996  13.3773148
  32.9493260  25.9156561  14.7629499  20.6312609  40.3026628  28.4913993
  20.4848909  41.1992025  28.1897092  21.4906645  40.3288126  28.9120841
  34.1187406  38.8431811  34.8546124  34.4400716  39.7244954  34.6641874
  33.1905675  38.8712811  34.6223688  45.2104330  48.5675192   3.1117341
  45.5450583  47.6865625   2.9438698  45.3588533  48.7058878   4.0471786
  43.4933329  22.2852564  13.6272585  44.0191984  21.7125535  14.1855657
  42.5879002  22.0405817  13.8184643  63.6044455  32.8500032  42.0077038
  63.6822987  32.0810962  41.4429474  63.3878613  33.5654092  41.4097834
  68.6696625   1.0239952  28.8405347  69.3518209   1.1575524  28.1824636
  67.8967953   1.4545833  28.4751511  69.6728039  84.5011330  96.9935608
  69.7922230  83.5703278  97.1821785  69.9170446  84.5921326  96.0725307
 102.6463604  99.5412540  75.2179527 102.2817612  99.6607018  76.0948992
 103.5766506  99.3716908  75.3663969  39.7669888  38.7610674  18.2438874
  39.5755744  39.2033529  17.4168587  40.5730820  39.1730642  18.5548604
  38.9065337  36.4857745  30.2520204  39.5791888  35.9204984  29.8722458
  38.5425758  36.9603562  29.5046663  65.5779934  39.9963284  33.0877209
  66.4098978  40.1810169  33.5236716  65.4695511  39.0488720  33.1701589
  97.2256470  96.8702507  95.0219536  97.7603531  96.6267490  94.2662811
  97.2586346  96.1045456  95.5954075  28.3727837  41.9994640  12.4480426
  27.9074407  42.6737213  12.9430854  27.7958250  41.2364388  12.4818385
  40.5589914  12.8862572  32.7458572  41.1055326  12.4625683  32.0840335
  40.7958984  13.8122857  32.6950788  43.6935854  31.4120817  16.5018833
  44.0857506  30.7031631  17.0116615  43.4558105  32.0721674  17.1530199
  35.7614708  20.5190301  36.1864519  35.6810451  20.2974319  37.1141696
  36.0025454  21.4453626  36.1814952  46.8087196  62.4182081  51.5047455
  46.5478468  61.5112877  51.3445330  47.1507883  62.4146748  52.3987293
  25.3984642  43.1831789  27.7231860  25.7994676  42.5099277  28.2728744
  26.0952020  43.4485817  27.1228933  45.5424309  67.8623247  15.6489778
  45.6082296  68.8146973  15.5790377  46.1768198  67.5310898  15.0133145
  53.2368279  43.3178759  37.3196077  53.7418604  43.0440855  38.0852532
  53.1582355  44.2674017  37.4115610  34.6759462  30.1393914  34.8988366
  34.6573114  31.0434270  34.5848227  34.5075107  29.6112680  34.1184855
  30.0802708  54.5810509  36.4963913  30.8306646  53.9887762  36.4479136
  29.3229389  54.0017319  36.5804887  69.4938993  40.4071474  26.1275506
  69.8745584  41.2851000  26.1506152  69.6077394  40.1204634  25.2214146
  83.0466270  28.9362741  23.8912845  83.4847832  29.4567490  23.2179666
  82.8402138  28.1083608  23.4574819  35.2117944  37.7569628  18.7978733
  35.0389957  37.4929595  19.7015738  34.5680833  38.4430933  18.6215389
  23.0219126  60.4709244  40.8156300  22.7809715  60.9876871  40.0467777
  23.9432716  60.6818056  40.9668207  20.2178001  54.3328333  30.8854961
  20.3491712  53.3916712  30.7706571  19.2748046  54.4578123  30.7788515
  59.3490314  58.1264496  21.3631964  59.7898769  57.8629160  22.1709323
  60.0578260  58.2429123  20.7305169  27.4537301  54.6999073  35.3848481
  27.9437804  55.4448318  35.0367594  27.2282529  54.9580908  36.2785673
  66.2623310  10.2724481  32.5110412  65.5638742  10.9197521  32.4141264
  66.4994860  10.0397646  31.6133523  34.5829654  44.1361666  16.3538539
  33.9661717  43.9765930  17.0682287  35.4411602  43.9413118  16.7303705
  42.6155806  47.7213621  31.4136624  43.1232786  48.5195303  31.5599322
  43.2711172  47.0548010  31.2082410  48.4851503  24.2867541   3.3214974
  48.1327057  25.0426626   2.8517962  49.0934086  24.6625280   3.9579332
  21.2592030 108.9289188  30.2214479  20.8968639 108.4299183  29.4893694
  20.7607079 108.6329269  30.9831023  28.7057209  27.6892328   6.9486654
  28.0751872  28.4085727   6.9139153  29.0383720  27.7054572   7.8460574
  44.5727348   9.3173724  52.5669622  43.6867476   9.5936066  52.3325396
  45.0022793  10.1188385  52.8659201  39.0496564  50.5950975  22.3774862
  39.0270066  50.1012945  21.5578055  38.1421614  50.8639717  22.5202799
  74.0450048  36.6326118  21.4627886  73.5606670  36.0852504  22.0808887
  74.8622561  36.8399954  21.9159174  86.1767101 104.8656178  83.7138844
  86.0908318 105.6397438  83.1574821  85.4648113 104.9466896  84.3486023
  16.8686867  42.9787350  35.7649326  17.7995050  43.1930161  35.8273149
  16.5127039  43.6308670  35.1614213  36.0238791  34.1268587  20.6367278
  35.3664684  33.4736443  20.3972435  35.5154991  34.9020386  20.8752227
  24.0941358  49.1774893   8.3476055  23.8818097  49.9655581   8.8477045
  24.8977757  48.8478756   8.7497872  38.0030394  45.9040642  22.0377874
  38.4250188  45.1689386  21.5930915  38.4027076  45.9192896  22.9074216
  58.5021257   9.3642926   9.3050539  58.7797213   9.5276201   8.4036678
  59.1145897   8.7035030   9.6282810  48.2070780  20.4675269  22.4969363
  47.3703384  20.9313989  22.4665952  48.0389929  19.7064424  23.0525708
  45.3887081  43.0590296  39.8732638  45.8520079  43.8316488  40.1967525
  45.6873608  42.3465681  40.4384518  50.0340891  40.0679874   6.3276500
  49.2912674  39.5413971   6.6228688  50.2179050  40.6551504   7.0609176
  45.3074551   0.9383760  11.2131572  44.6359253   1.4058974  11.7098475
  45.7571936   1.6218325  10.7163143  53.4040594  16.5695775  11.6705310
  52.5394440  16.3840306  12.0369267  53.5877228  15.8231091  11.1001933
  36.3932419  48.4990168  15.0385725  36.5820885  49.1083288  15.7522321
  37.0849586  48.6600208  14.3968248  40.4957962  53.8226223  13.5778928
  40.0348997  54.6443701  13.7468171  40.2778578  53.2674837  14.3265963
  50.8961153  47.0936584  22.1041775  51.2515831  46.6543388  21.3315988
  49.9623489  46.8835783  22.0907569  38.8026023  30.0709486  26.2027717
  38.5526848  30.9049129  26.6006160  38.4936953  30.1346064  25.2990270
  37.4334860  36.8701696  17.2710502  36.9298816  37.1581101  18.0324340
  38.3210540  37.1879244  17.4368393  59.6960783  27.7469802  36.8443251
  58.9449167  27.4599528  36.3250971  60.4479647  27.6276135  36.2641048
  45.2769279  44.5834589  12.8688478  45.4852247  44.8004484  13.7775600
  44.8644829  43.7210178  12.9170418  51.2699986  52.4603415  34.8608255
  50.9030724  53.0252886  34.1808033  52.1522379  52.2550726  34.5513868
  34.4215059  39.3485498   4.7346297  35.1606178  38.8173938   4.4382891
  34.1201043  38.9152598   5.5331600  58.8278770  35.6751704  32.1728683
  59.3516254  35.9071159  32.9397583  57.9213428  35.7854962  32.4596667
  47.6547003   6.4500564  10.7915819  48.3883381   5.8361775  10.7575345
  47.6788282   6.8992120   9.9466503  68.0959892  84.1048908  91.9954109
  69.0105963  84.1535854  91.7172813  67.8732777  83.1766415  91.9248199
  52.1425200  44.9976683   9.9033761  52.7021885  44.3490553   9.4763988
  52.6844120  45.7850552   9.9545044  85.4088593  60.4505491  82.0596218
  86.3605404  60.4429960  82.1620083  85.0714588  60.4307222  82.9551697
  49.5735025  33.5774136  20.4407692  49.4687843  33.9838767  19.5805049
  49.0653229  34.1331077  21.0316896  63.7568092  35.4569101  25.4050088
  62.8165674  35.3531742  25.5513573  63.9822578  34.7577691  24.7913265
  52.2240019  32.3994923  21.3147974  51.6083193  32.9511452  20.8322549
  52.5838375  31.8076277  20.6541562  54.0131855  47.2994709  22.6068616
  54.5506048  48.0903530  22.6506877  53.2318163  47.5673485  22.1231866
  45.9046602  51.4622116   8.3989125  45.2529049  52.0318460   8.8075221
  45.3986073  50.9046888   7.8078866  40.4039907  51.8453598  31.4497519
  39.8420286  51.0732508  31.5151000  41.1186123  51.6740799  32.0631170
  54.5433426  25.5006456  43.4132481  54.6357250  26.4455247  43.5353327
  54.0678930  25.4112148  42.5873089  42.8430271  35.0743175  21.7236686
  43.4221172  35.6263542  22.2491598  43.3950615  34.3426728  21.4476514
  90.1009560  37.6635051   8.1987005  90.7814503  37.3357224   8.7866765
  90.5821800  38.0435753   7.4637175  72.3922300  45.0881767  38.8487530
  72.8606367  45.8928204  38.6265326  71.5881491  45.1283407  38.3309960
  39.2297101  44.1222334  16.2041569  39.0835190  43.6927843  15.3612840
  39.9458194  44.7356510  16.0394132  73.3592176  29.3812776  38.5310650
  74.1821909  28.9071536  38.6500454  72.6867342  28.7759089  38.8433576
  54.6277571  69.4361305  16.2364590  54.0754080  69.6955395  16.9739246
  55.4500103  69.1573906  16.6394830  21.5818667  70.4021835  19.9676096
  21.8707180  71.0357475  19.3108034  21.7485332  69.5489931  19.5669615
  50.0844860  54.6494579  11.2160790  50.2685261  54.4720793  10.2936375
  49.1332865  54.5718622  11.2897575  64.8874998  37.6427031  40.8580780
  64.6298981  38.5375476  41.0797215  64.3834162  37.0928240  41.4578819
  44.1740370  39.7573805  40.1422262  44.2280769  40.6509876  40.4810238
  45.0684881  39.4225430  40.2060318  -0.0732287   1.1330877  94.4017506
   0.7676894   1.5697788  94.5373631  -0.2566743   0.7021189  95.2365303
  47.5685358  28.2792711  28.9230824  47.4136066  27.5325775  29.5015955
  48.4491444  28.1351995  28.5766649  59.5521688  49.3579340  37.0900893
  59.7532892  49.7762060  37.9272461  59.4843578  50.0838280  36.4698410
  65.4157591  50.1902962  16.6167891  64.5246458  50.4316330  16.3639998
  65.3992844  49.2346907  16.6694820  56.3251495  32.0185328  22.4697685
  55.6488848  32.6065731  22.8060865  55.9982204  31.7423773  21.6135621
  86.6078472  69.0720701  12.5839567  86.9450855  69.6253014  13.2885408
  86.7930698  68.1781626  12.8718042  71.9815826  48.7814760  14.8828769
  72.3658276  48.2605410  14.1777420  71.7572165  48.1415892  15.5584776
  62.1710157  67.2774076   5.5482757  62.7532673  67.6535273   6.2083870
  62.7574301  66.9836235   4.8511124  67.7802610  56.0790300  19.3431520
  67.5368881  56.8212986  18.7899399  68.7368870  56.1017561  19.3672180
  55.7608843  53.5259151   9.4410932  55.0824404  54.0980387   9.7997320
  55.2972937  52.9656076   8.8187015  56.2261343   3.9082873  29.0635276
  56.2323284   4.7260880  29.5609164  57.0964622   3.8620573  28.6677694
  93.0526066  83.4675407  86.0183239  93.1715679  83.6587334  86.9486618
  92.1343327  83.6760521  85.8464718  51.5538740  64.4060850  16.3443518
  51.7314148  64.9892998  15.6064022  50.9212065  64.8840427  16.8805563
  45.6339550  45.7279730   0.8617927  45.4031229  44.8296928   0.6250680
  46.2591457  45.6331682   1.5803865  50.5901051  32.8104472  39.7604418
  50.5915213  33.4124565  40.5046272  50.9855986  33.3109188  39.0467596
  72.6794672  58.7838602  25.8479571  73.5044146  58.8585329  26.3276625
  72.9166937  58.9517546  24.9359465  84.1210556  50.7954359  16.8148041
  83.5184193  50.0520945  16.8371677  84.2003155  51.0116482  15.8857167
  75.4664564  50.5749798  11.9239795  75.1695251  50.7635975  11.0337615
  75.1359415  51.3056564  12.4465704  51.9605780  16.3515282  30.3047967
  51.0394621  16.0946596  30.2624965  52.1289301  16.7786789  29.4648957
  50.1915407  38.1109548  40.7631826  50.9792948  37.7996778  40.3173304
  50.4938984  38.8432598  41.3003445  83.7434292  35.1830316  21.6994452
  84.6938992  35.2953553  21.7145824  83.5862732  34.5684052  20.9826684
 100.5092335  85.9901047  93.6418819 101.3996696  86.0078907  93.9926529
 100.2945518  86.9099140  93.4866333  73.2412338  61.5713120  20.5599093
  73.6077881  60.7067823  20.7455254  73.0737448  61.9507074  21.4226031
  60.3629541  59.0455389  26.2643456  60.2552128  58.5675716  27.0866418
  61.1744308  59.5400381  26.3792968  50.6056833  54.5442486  19.1561651
  50.6790304  54.8132753  20.0718474  51.4576578  54.7567654  18.7751091
  70.3458214  63.2662106  20.9361362  69.6995354  63.9342403  21.1647892
  70.6866598  63.5438061  20.0858426  82.7081680  34.6218657  24.6658897
  82.4573231  35.2241778  25.3662634  82.3988914  35.0442481  23.8645339
  61.0486937  52.5006819  33.2207012  60.5376530  53.2432652  32.8987718
  61.6660643  52.8862953  33.8422990  54.9635887  59.8346901  30.5902267
  55.3195572  58.9504671  30.6777763  54.4724274  59.9763680  31.3994956
  47.4680281  44.4215059  26.3750005  47.2472763  43.5035515  26.5326428
  47.7706575  44.7442484  27.2238159  63.4371376  54.9407816  27.0407987
  63.8754082  54.1591167  27.3771787  63.3088875  54.7613382  26.1093569
  55.6195164  63.3816242   5.3935605  55.3127718  63.3226490   6.2983590
  56.5703106  63.2907915   5.4565954  40.7112932  59.2212963  29.5505071
  39.7596073  59.1302252  29.5977759  40.9744263  58.6250257  28.8494682
  31.5181732  48.3249760  23.2919216  31.4975739  48.2856035  22.3357534
  30.9640288  49.0735483  23.5128069  88.9821788 112.3733569  94.0149403
  88.1101473 112.0010653  93.8838196  89.4646420 112.1382158  93.2223701
  54.2422199  33.6995888  28.5692430  53.6182261  33.0324054  28.2833672
  53.8748837  34.0366507  29.3863630  38.9947534  48.0921507  37.7232933
  38.2446122  48.6110830  37.4330664  38.6515856  47.2028017  37.8100324
  17.3846912   6.6827315  95.1731777  16.4367461   6.6991550  95.3049374
  17.5082707   7.0085758  94.2816734  46.9839239  58.6851215  11.0589039
  46.8892241  59.0450287  11.9407940  46.4384317  59.2487955  10.5103219
  66.2137175  46.9828176  23.7229276  66.9200134  46.8874168  23.0839634
  66.3520575  46.2657452  24.3417144  48.9915800  49.9125576  46.7373419
  49.7005415  49.2703962  46.7725277  48.4764957  49.6589327  45.9714460
  44.0274382  42.6640606  19.2007315  44.5636797  42.5100088  19.9785125
  44.0521765  43.6128902  19.0768433  38.4457684  54.7592068  27.3643804
  39.3252230  54.3942738  27.4624610  38.5912323  55.6617355  27.0806289
  52.8118944  60.5695534   9.9549907  52.8928423  59.6172380  10.0076306
  52.5613451  60.7387972   9.0467978  77.0882082  47.2487926  18.4409142
  77.1901989  48.1803179  18.6360776  77.2217417  46.8118382  19.2820275
  26.0123134  53.3835793   1.8753077  25.7857609  52.8553629   2.6407427
  25.2369809  53.3392668   1.3157292  62.1957970  59.7252607  15.1370633
  62.5529766  59.6851921  14.2499053  62.3661900  58.8574600  15.5032825
  20.4244137  49.7871399  34.3931389  19.6898067  49.1841698  34.5072150
  21.1992526  49.2252159  34.4029498  70.3772593  34.8359752  20.8155847
  69.4880772  34.8986435  20.4667830  70.8865309  35.4483128  20.2846265
  63.8085508  21.4605737  21.7316937  63.0623674  22.0587134  21.7726016
  63.6756897  20.8613062  22.4661732  52.3345232   9.7724742   8.1539923
  52.7009153   9.8635006   7.2743875  52.7672672  10.4559934   8.6656225
  68.3863688  24.1517591  11.7666900  67.9771519  23.5571957  12.3953938
  67.7409649  24.2399216  11.0653234  33.5306144   2.2819981  93.9905739
  33.2928205   3.1763545  94.2351341  33.2098055   1.7427009  94.7133923
  67.9876471  68.0884600  14.5114887  68.1002092  67.2505617  14.9603641
  67.4919653  67.8723574  13.7216568  49.6403313  42.6907253  22.3296309
  49.3743706  42.5448895  21.4217615  50.4033661  42.1253443  22.4494433
  53.1083679  46.8985128  26.6667628  53.9895058  46.5340233  26.7502594
  52.8088999  46.6063404  25.8058429  71.0093975  57.2602987  19.9213362
  71.7859125  57.7865505  19.7307634  70.3807163  57.8839207  20.2847743
  50.4007435  69.7769928   1.2093464  50.1610184  69.6938562   0.2863881
  50.9413528  69.0072346   1.3866663  93.0025578  15.5150890  39.3966293
  92.3361111  14.8983419  39.6994424  92.5256920  16.3330257  39.2559052
  32.8991938  61.1611509   5.5593359  33.1132174  61.3068199   6.4808595
  32.6708579  62.0290422   5.2263886  53.9258862  65.4907703   6.5190071
  54.1446638  65.9794760   5.7255763  54.6640110  65.6474018   7.1079636
  92.1717167 102.2976017  82.6977158  91.7571640 103.0555153  83.1099606
  92.9081726 102.6641273  82.2082996  61.2311268  26.0935378  12.7628791
  61.0580921  26.0106063  13.7006497  60.5246496  25.6014967  12.3445332
  90.4421902 100.0262070  93.8244724  90.8767223  99.1786480  93.9196777
  89.7982788  99.8885345  93.1297398  50.7689857  68.6614323  27.1684408
  51.5843153  68.1599617  27.1700931  50.0974989  68.0260277  26.9202518
  76.2762213  52.4198341   9.1586536  75.6045389  51.9465351   8.6676711
  77.1028519  52.0401287   8.8607639 102.6447582  83.7029362  27.7702141
 102.3442078  84.6092129  27.8378057 102.0223904  83.2041073  28.2994175
  60.0440836  48.0152702  23.6411786  60.8289814  48.5602903  23.6970639
  60.2644396  47.2264767  24.1366386  40.6926250  29.3414187  16.8925011
  41.3305664  29.0721846  17.5533938  40.5418730  30.2699733  17.0693970
  36.6516185  48.1385756   6.0021979  36.0048127  47.4352932   6.0593837
  37.1603584  48.0623150   6.8094152  84.4544601  82.8567791  90.3810596
  84.1178226  83.6066628  89.8905659  84.1074371  82.9737282  91.2654400
  56.4278030  50.2757978  35.0429034  57.0900583  49.6596003  35.3558707
  56.4299202  50.9796238  35.6916380  53.4008455  63.2559824  48.7636518
  52.8771257  64.0376091  48.9397478  54.1168499  63.5671949  48.2098293
  28.1751561  49.0769005  36.2100148  28.9374089  49.6528149  36.1506343
  28.3701873  48.4965563  36.9458127  49.5354795  53.8174105  -0.0181885
  48.6676598  54.2179060   0.0339841  49.4129276  52.9341078   0.3296468
  45.5497837  51.3434601  29.6561837  45.2133179  50.7122755  30.2922893
  45.5229950  50.8783007  28.8200378  54.8064375  74.5238352  48.0335426
  55.1218796  74.5848417  47.1318722  55.1325750  75.3186131  48.4556723
  51.3888359  30.0148177   6.3291907  52.0988846  29.4780564   6.6812527
  50.6753540  29.9110818   6.9588065  55.0234365  33.7238431  12.8582358
  55.1341009  34.0041065  11.9497001  55.6350851  34.2689157  13.3532214
  56.4738512  31.0412526   3.3972597  56.4416313  30.8161926   2.4674526
  56.1106205  31.9257092   3.4423301  31.7534447  43.7695360   2.7099356
  32.5232482  43.6559486   2.1525021  31.7542815  42.9999971   3.2791781
  52.6801252  37.3611403  39.3389130  53.6233282  37.4588537  39.2083001
  52.2896576  38.0263233  38.7720847  46.6722441  69.9705648  36.6601348
  45.8949471  69.9619055  36.1015987  46.3822460  69.5713854  37.4803710
  57.8093147  58.7193108  31.4550948  58.6877298  59.0724802  31.5961409
  57.5305605  58.4181261  32.3198581  50.3532457  59.1056538  45.0906610
  49.6206903  59.6364975  45.4033852  50.0499773  58.2022381  45.1806879
  33.5821724  46.1307335  27.1003675  32.8287935  46.7124891  26.9992948
  34.3197203  46.7195559  27.2601962  32.3421526  33.9935017  21.9718099
  32.1987963  33.1831670  22.4607229  31.9541478  34.6756959  22.5198030
  55.1024771  64.4158840  26.5465689  54.8099947  63.8213205  27.2373509
  55.9947586  64.6544790  26.7978454  59.9073744  59.6298504   7.1009952
  60.2227116  60.0273228   6.2893248  59.3711758  60.3101683   7.5082880
  65.5850840  50.3599834  19.4697177  64.8387241  50.9050989  19.2206669
  65.9284306  50.0301313  18.6393309  66.0198593  41.8115473  31.0682678
  65.8555412  41.1334324  31.7235518  65.2445459  42.3717785  31.1037326
  52.3989773  45.0553560  13.2565296  52.7517462  44.6594524  12.4596298
  51.4537287  45.0883245  13.1094015  59.7799826  64.0683413  43.7130022
  60.1740026  63.8431311  42.8702354  60.3539610  64.7446775  44.0726566
  90.9119701  90.8017921  84.7645664  91.5136051  90.1583958  85.1391506
  91.1557579  91.6284847  85.1809502  42.8020430  54.6902275  14.5097911
  41.9530535  54.2575073  14.4192362  42.8578806  55.2695179  13.7498343
  99.8996162  31.6700363  40.5122232  99.6058464  31.8947458  39.6293664
 100.7222366  31.1992788  40.3783607  57.2866154  41.4380026  19.0140319
  57.4220514  42.1658850  19.6207249  56.4055252  41.1212063  19.2129183
  37.8949809  76.0772419  30.2413464  37.8670692  75.5200958  29.4635010
  37.5640965  75.5208683  30.9464693  27.1518469  39.0185928  27.1748066
  27.2038984  39.6933579  26.4978933  27.3319459  38.2004261  26.7117715
  64.0204334  54.9589109  30.2379394  64.3569469  54.0629530  30.2221131
  64.7126007  55.4819107  29.8334599  57.7425432  58.8424730  23.7195706
  57.7956676  58.0173349  24.2018127  58.2194185  58.6758375  22.9065156
  66.5840054  48.1490993  13.4592462  66.3428545  48.7886858  12.7891648
  66.2992334  47.3082590  13.1013012  73.3617878  55.7349491  17.7064288
  73.2682753  55.2116776  16.9103897  73.9452982  55.2204180  18.2641065
  37.2893620  65.5925703  17.6455247  37.9339552  66.0142040  17.0772314
  36.8516946  64.9560499  17.0802641  46.4327574  60.3444862  47.3244762
  46.3951111  59.4148064  47.5492239  45.6474781  60.7193041  47.7233219
  24.2760444  10.8830512  90.8350658  23.5545015  11.1266041  91.4149666
  24.5711946  11.7122006  90.4587269  65.3627968  69.7850943  29.9603534
  65.2118158  70.7301188  29.9794412  64.8667049  69.4785738  29.2012954
  45.6796837  62.2230673  10.1666772  46.3580084  61.6729450   9.7749215
  44.8582840  61.8716240   9.8231387  32.2426987  69.5591354  23.4990239
  32.2141480  70.4068756  23.9425898  33.0050063  69.1181469  23.8740492
  47.5985956  44.2781687  23.4182262  47.4394798  43.9319754  24.2963290
  48.4987164  44.0208006  23.2187796  58.8038063  17.3745191  48.7283039
  57.9377747  17.6624227  48.4396410  59.2865849  17.2169089  47.9169369
  82.6885891  76.1019039   9.9170727  83.4281349  76.6038656   9.5745355
  83.0680847  75.5559015  10.6056130  51.5555668  63.4400225  35.3213072
  51.9469738  62.6516485  35.6974673  50.6119013  63.2950211  35.3898406
  72.1239567  56.6283083  35.1064253  72.8519154  56.4447355  35.7002354
  71.4348650  56.9759464  35.6725764  57.5764942  58.7538338  34.3873262
  57.8127480  58.3398676  35.2174139  57.0687294  59.5248604  34.6401668
 115.5740070   4.9147537  96.1664677 115.4697895   3.9782369  95.9982204
 115.9059334   4.9615470  97.0630550  21.9642186  55.6567717  22.8713822
  22.2796035  56.0841274  22.0750594  21.1203384  56.0725117  23.0481768
  58.3191633  74.9059486  52.2996092  59.1954327  75.2908278  52.3155022
  58.4725523  73.9642096  52.2232485  48.6961746  36.0579109  38.3511090
  49.6113396  36.2286878  38.5736871  48.7325668  35.3315663  37.7287483
  41.8285799  53.2166195  11.2527502  41.3628960  53.6154747  11.9877911
  41.7888594  53.8745642  10.5586600  77.0960903  50.8261108  36.1341977
  76.7157364  51.3189030  35.4070711  77.0322132  49.9105358  35.8624005
  33.0596638  45.4637337  38.2872081  32.8468394  45.8692026  39.1277623
  32.3655415  45.7573128  37.6970911  77.5274992  55.5219412  21.7127681
  76.6275072  55.8153343  21.5707612  77.8957462  56.1639404  22.3197794
  34.5379400  57.0880556  13.3826160  34.9536157  57.4182510  12.5861156
  33.5993290  57.1405315  13.2023656  58.5480165  81.1722279  37.5876808
  59.0821552  81.9415188  37.7854705  58.1323099  80.9487438  38.4204316
  68.9150333  49.6162415  25.0270987  67.9940462  49.7950983  25.2169013
  69.2409372  49.1782570  25.8133459  10.8708203   5.6820160  96.1408043
  11.7919517   5.5725884  95.9046364  10.8582032   6.4561468  96.7036533
  57.6285744  54.9139452  21.8683934  57.9110765  54.9742079  22.7809668
  57.6821423  53.9807558  21.6622043  39.8519492  25.7464933  23.3960390
  39.0752482  25.2540851  23.6615562  39.5117593  26.5939093  23.1090045
  67.8943300  76.4760256  25.3005600  68.5519886  76.7329168  25.9468770
  68.2616234  76.7541933  24.4615412  48.3370352  64.3280506  34.3418193
  47.8557968  65.0015306  33.8611245  47.7330542  64.0465164  35.0289726
  25.9733415  49.1729641  28.7748241  26.5407491  49.9340010  28.8977051
  25.3229165  49.4601297  28.1339550  26.0489154  36.1678553   7.2403622
  26.6006565  36.4040256   7.9860407  25.7209110  37.0044708   6.9106340
  51.5315151  33.1182671  30.4470277  51.3461876  34.0348649  30.2427435
  50.9584904  32.6220202  29.8625517  26.9983435  35.4396725  19.9833071
  26.2205076  35.9390426  20.2319717  26.6692281  34.5600939  19.7982216
  50.2298164  52.6432943  14.0745628  49.3373966  52.7603674  13.7488163
  50.2366829  53.0911493  14.9205017  47.7974939  46.6566467  21.7181969
  47.7696848  46.2027693  20.8759069  47.7610826  45.9558725  22.3692083
  90.8728981  63.2530975  13.6970234  91.6732883  63.7738085  13.7638354
  90.6369019  63.2944775  12.7702951  56.3214111  54.6353006  28.3131766
  56.3439798  53.8169289  28.8091469  57.1876144  55.0201750  28.4465694
  50.1639366  52.7667713  37.3452353  50.5600405  52.4664164  36.5272403
  50.8640099  53.2459068  37.7885818  20.2012968 110.1524353  26.2807393
  20.2830076 109.3657017  26.8198204  20.9886503 110.1526356  25.7364011
  87.6466942  61.7965937  15.7539773  87.3262119  62.2417355  14.9695230
  88.4147739  62.3023748  16.0194492  49.8251390  60.5093288  26.6112876
  49.3790245  59.6657705  26.6862226  50.3681231  60.4243326  25.8275938
  43.2245970  76.6294861  29.1489434  42.7932930  75.9374046  29.6501708
  43.8625145  77.0034122  29.7567868  68.9454937  66.9838810  23.5149622
  68.8096809  67.2399521  22.6027036  68.0646944  66.9513845  23.8882804
  81.6095352  70.4394913  40.7319260  81.2252331  71.2935209  40.9298468
  82.4423409  70.6443167  40.3068209  49.0001726  39.2682719  27.6897240
  48.3508730  38.7097788  28.1171894  49.0515852  38.9337039  26.7943740
  39.3042946  62.8648806  23.8366795  38.7063718  62.1452045  24.0386343
  39.5915365  62.6931429  22.9398918  46.5218401  64.0022802  21.0605073
  45.9956598  64.6225691  21.5650988  47.4276590  64.2449570  21.2524104
  28.6487389  64.0434074  21.1354566  28.3915067  64.1101742  20.2158880
  28.5194969  63.1204748  21.3539100  59.5204782  55.5813074  26.4460182
  59.9601126  54.8713398  26.9138908  60.1294279  56.3177538  26.5013289
  74.2392969  62.2519255  32.8903365  74.6726942  61.5300465  33.3456326
  73.3218622  62.1857786  33.1552267  60.6081390  47.6230383  14.0167797
  60.3477907  46.7146492  14.1693568  61.3065290  47.7819157  14.6517909
 105.0296593 106.5357018  97.2381496 104.7004795 107.4211311  97.0835686
 105.9815407 106.6214275  97.1852684  43.3869505  62.1359396  13.5951376
  44.3357086  62.1744156  13.7160003  43.0411720  61.9569540  14.4695711
  57.3259115  45.9847879   7.4017411  57.7558994  46.1726618   8.2360351
  57.4147558  45.0377846   7.2944129  54.1462374  36.3738322  35.9173012
  53.4216022  36.9903588  35.8122754  54.9148750  36.9282651  36.0515738
  12.9483426  13.2782292  96.0879040  12.6134253  12.6191986  96.6959763
  12.1645343  13.7038410  95.7404423  75.2557611  68.9699507  10.4801381
  75.9194660  69.3172169   9.8842102  75.1593494  69.6456528  11.1512268
  40.9378719  54.8235607  19.9728501  41.1079597  54.8403883  19.0310335
  40.7686758  53.9021301  20.1692533  62.5168848  31.5282011  15.0967002
  61.6966057  31.5622306  14.6045482  62.5640249  32.3739696  15.5424428
 102.7084637  98.9554405  83.0504417 101.9821072  99.5401096  82.8341293
 103.4891033  99.5035934  82.9706097  38.3045626  36.5377164  24.9217176
  38.4850335  36.7914343  25.8268642  39.0890837  36.0644245  24.6446776
  37.7082729  65.4656219  23.4813619  38.3612442  64.8546362  23.8227654
  36.8672562  65.0685835  23.7078166  64.6602535  50.0397158  32.3028445
  64.7453547  50.8821011  32.7493620  63.9178562  49.6148443  32.7324510
  59.0841150  51.7871141  16.3158941  59.2774010  52.1346378  15.4452050
  58.3978987  51.1365557  16.1672068  95.4513645 100.3835487  69.3499041
  95.0586414  99.5490837  69.6061659  95.6186771 100.2915096  68.4119415
  42.8964949  41.6873503  22.8310204  41.9971991  41.7139339  23.1578183
  43.4389639  41.7481041  23.6173201  57.2070217  47.0656729  19.6879399
  58.0926514  46.9065285  20.0143719  56.7004061  46.3130808  19.9931955
  55.4607439 109.9103737  96.1735153  55.8417797 110.5199242  95.5414581
  55.0196362 109.2525864  95.6359673  66.4897251  31.7000341  25.4982233
  65.7977152  31.0391879  25.4730225  67.2200155  31.3002348  25.0259280
  54.9021053  42.1704197  14.7884381  54.5550013  43.0571127  14.8860526
  55.6759453  42.1528006  15.3515470  84.1906643  60.1706171  29.3487215
  83.9225292  59.2901993  29.0856624  83.6203384  60.7542181  28.8483548
  41.0453939  60.2347183  25.8544612  41.9069099  60.3157282  25.4452491
  41.0847759  60.8172798  26.6129494  58.2469177  31.8965006  24.7387099
  57.8103113  32.2301817  23.9549589  58.0390453  30.9622049  24.7492528
  18.2935226   3.6372748  78.5506392  18.4382498   3.8088602  77.6201296
  17.5096047   3.0884904  78.5738945  42.8581524  46.6148758   9.2428619
  42.4241114  45.8590078   9.6384692  42.9044533  47.2606134   9.9479216
  34.9900556  41.0908461  15.1848257  34.3638134  41.6349792  14.7073638
  35.3540587  41.6733837  15.8514464  67.3054600  49.5141745   5.6223184
  67.2268105  48.9393568   4.8609814  66.4274597  49.8766375   5.7404852
  60.2462816  36.8658042  34.2159820  60.8154154  37.5753140  33.9177942
  59.4244194  37.2988820  34.4466639  60.4057264  41.4831829  26.4688182
  60.9066916  42.0576143  25.8897734  60.5720615  40.6018734  26.1343670
  29.4806902  41.7812935   0.5753061  29.9445145  41.7469612  -0.2613047
  28.7163918  41.2191120   0.4486772  41.2108755  56.1554432  36.6354465
  40.4114199  55.6332207  36.7016768  41.9132328  55.5490398  36.8703961
  45.2975225  65.3053188   7.1306866  46.0197735  65.5360556   6.5464371
  45.5975103  64.5165348   7.5824195  45.9241104  72.7971935   7.1696901
  46.5084362  72.0460272   7.0670038  45.2301550  72.6504374   6.5269470
  55.1346254  60.8054018  46.9285870  55.9885883  60.5057669  47.2403526
  55.3375483  61.5165520  46.3208675  41.2638569  87.9626465  27.5392103
  40.3949213  87.9777145  27.1380234  41.0932398  87.9809952  28.4809041
  46.8470860  48.1579924  29.1691875  47.6821804  48.4573030  28.8096571
  46.6131210  48.8228130  29.8168778  33.8689685  56.9262886  27.9331541
  32.9427099  56.6878843  27.9711175  33.9285278  57.7370167  28.4385276
  50.5024767  49.9799490   0.1557088  49.8055744  50.5588818   0.4645718
  50.8564949  49.5849943   0.9525241  69.8072672  70.0073481   6.4422035
  70.4013729  69.7642660   7.1522605  69.0178204  70.3173113   6.8859714
  76.2197971  79.5511484  37.2006989  76.2401676  79.7165918  38.1432724
  75.4900694  78.9435863  37.0798802  74.1876602  28.6200476  12.0661843
  74.9388313  28.6670876  11.4747751  73.4852219  28.2490969  11.5321398
  44.2472029  61.7411804   0.7220764  43.9745808  62.6436710   0.8876631
  44.9409294  61.8169165   0.0669115  45.3098822  36.3844132  21.9694424
  45.7616472  36.1439633  22.7783418  45.7165194  37.2093296  21.7041254
  60.8916187  55.9783602   9.1144317  60.5720615  55.4511881   9.8466927
  60.9572268  56.8652534   9.4684708  76.9488716  63.3167219  54.2342138
  77.4932051  63.5091019  53.4707165  76.5459442  64.1554976  54.4585705
  23.6131358  51.5126753  28.1375837  23.5602331  52.3108912  27.6119566
  22.7698517  51.0804749  28.0022883  21.7966557   7.2480893  96.6362476
  21.6774201   8.1326860  96.9819450  21.1819649   6.7107886  97.1359444
  52.1504068  51.4989758   9.7160393  52.9395485  51.3093472   9.2085636
  52.4332857  51.4426231  10.6287479  49.7522259  58.4648800  18.6912656
  48.9023113  58.4692907  19.1315567  50.3895807  58.5526657  19.3999994
  54.8574018  39.7584772  26.6334724  54.2695761  40.4168415  26.2630033
  55.4737759  39.5633841  25.9276009  46.4816809  67.8463554  22.3942423
  46.1593628  68.7456131  22.3335767  47.1583223  67.8795576  23.0704737
  78.3640194  42.6275539  32.1682072  79.2845678  42.3659992  32.1477795
  78.3266926  43.4150791  31.6253924  60.1331282  49.5536757  12.0669389
  59.5857191  50.1623249  12.5630403  60.1947451  48.7780190  12.6244295
  18.7748766   0.2650918  96.2731743  19.5695126   0.3407184  96.8014431
  19.0678680  -0.1387042  95.4562664  61.3687372  75.2127218  52.9661131
  61.1413240  74.8017216  53.8001347  62.3214483  75.3008652  52.9944372
  65.1551580  81.4785957   7.1803170  64.6713543  82.2813702   6.9861197
  65.8873177  81.7661953   7.7257186  59.9616098  74.4927311  36.0096431
  59.7628880  73.8022804  36.6421175  60.1115417  74.0276527  35.1865649
  73.2864046  70.7725000  22.1978569  72.4314880  71.1741972  22.0429921
  73.8975525  71.3069963  21.6908598  77.5114870  59.3138361  30.6310248
  78.0442238  59.4646645  31.4118385  77.7512980  58.4327364  30.3439879
  55.8855009  62.0270824  20.6573987  55.1970387  62.5047541  21.1200857
  55.4143000  61.4064646  20.1014876  61.0492325  66.2272596  44.7506428
  60.8438921  66.8705606  44.0722418  60.4942560  66.4739418  45.4904890
  58.6824179  55.8002853  29.5171022  58.3570766  55.0842381  30.0626826
  59.6349001  55.7099199  29.5462799  58.1179523  99.8040962  33.4589791
  57.7305031 100.6692886  33.3264422  57.6198053  99.2273140  32.8798366
  72.9514074  80.5758095  28.2407880  73.5709047  80.4079628  28.9509153
  72.2818613  81.1353588  28.6342955  78.7780762  95.2542019   8.4995180
  79.6947145  95.3793240   8.2538539  78.6505938  95.8324528   9.2515838
  75.5470133 110.5207920  29.9258685  74.8803473 110.3305435  29.2658734
  76.1593628 109.7875214  29.8660612  81.0758495  81.2914467   2.7531013
  81.5170097  81.6945076   3.5008639  80.7996941  82.0304871   2.2110742
  64.7300816  65.4076004  30.0762725  65.4639006  64.8055458  30.1998377
  63.9974546  64.9879932  30.5272889  92.3567581  65.7731581  31.2171483
  93.2148647  65.9599400  31.5979171  91.7319584  66.0490561  31.8877745
  27.6578093  76.5056133   3.7552881  26.8509603  76.0190058   3.9239341
  27.5485134  76.8509007   2.8692508  79.6109104  71.7158937  31.2454367
  79.2655706  72.3672104  31.8559790  78.8339615  71.2792063  30.8963180
  24.8823905  18.8551581  96.4021397  25.5785799  18.2986188  96.0531139
  25.3418112  19.5205104  96.9144630  84.7841167  55.9692812  25.7380390
  84.1178989  55.3353739  25.4724264  85.1162148  56.3269377  24.9146175
  62.5156021  50.2573586  17.0907891  63.0065155  50.9171915  17.5805366
  61.7191744  50.1214600  17.6040840  68.9635134  74.7568464  41.3349819
  68.8704062  75.6583309  41.6430187  68.5389423  74.2278957  42.0103884
  36.7312694  51.6520405  35.6395769  35.9660435  52.0882177  35.2648640
  36.3748074  50.8828402  36.0839868  55.6779480  56.9592333  25.7588434
  55.1490641  56.3522005  26.2765598  55.5078459  57.8170347  26.1480331
  31.2468839  13.8440001  91.8454552  30.5854321  14.3990529  91.4323807
  31.8815494  14.4598579  92.2117233  68.3811378  75.9846258  33.1492090
  67.8213024  76.2410116  32.4163485  68.3098459  76.7096186  33.7701273
  80.8979702  67.0211887   3.9097574  80.0868320  67.1725416   3.4246069
  80.8781910  67.6662970   4.6166360  97.0351315  57.2935200  22.4383521
  96.6682053  57.1362877  23.3083391  96.6381741  56.6202641  21.8857360
  44.4218826  70.6237078  49.2095518  43.7321806  70.5110693  48.5554457
  44.9206257  71.3812971  48.9036989  75.4326391  59.2392874  41.5157223
  75.3481770  58.2905197  41.6102362  76.1570454  59.3551874  40.9008741
  75.7937527  49.2371893  23.2094383  75.2253628  49.2114735  22.4396968
  76.6163492  49.6058989  22.8875422  56.6128778  70.3295755  14.2918670
  57.1576214  69.8221540  14.8935378  55.7157135  70.1564837  14.5771301
  76.8545532  57.2044516  36.1573529  77.6915550  57.0985222  36.6095018
  76.2630606  57.5495815  36.8261194  55.3397942  76.2676525  16.7384732
  55.8800888  75.6499290  16.2457991  55.8391905  76.4387655  17.5369418
  61.0424232  76.3830996  21.5354729  61.6288519  76.0227156  22.2006440
  60.2512407  76.6225815  22.0180821  65.6032753  51.6872597  30.0527859
  66.5600491  51.6835737  30.0812531  65.3372145  51.3142729  30.8932161
  70.8616543  82.8695965  16.2933791  71.3974571  82.7405167  15.5107653
  71.3912725  82.5148201  17.0074320  91.6099358  68.4664822   5.0214523
  90.6756210  68.6658478   5.0810325  92.0311165  69.3202066   4.9214828
  72.6247787  69.9485350  28.9099121  71.8934679  69.9222708  28.2928801
  72.7192926  69.0438366  29.2079449  70.3210497  61.6339445  14.5080566
  70.2476358  62.4785900  14.9523723  71.2602234  61.4493227  14.4982016
  61.9070721  68.7680864  35.7315111  62.3508787  68.2245255  36.3825130
  61.1586857  68.2418108  35.4501152  57.9908657  82.9805565  41.8394232
  58.1493664  82.6541042  42.7251673  57.6943827  83.8818550  41.9658327
  97.5740337  30.5750012  19.4227374  96.7322254  30.3840446  19.8363972
  97.3457146  31.0457802  18.6211944  58.5136080  63.4979534  19.0872908
  57.7676725  63.6160326  19.6753955  59.0661001  62.8522921  19.5278656
  59.8250818  68.6981058  27.4785566  59.6536589  68.0621147  28.1730747
  59.0807962  68.6091375  26.8832779  81.8127060  84.5901775  14.0309417
  81.2047195  85.1687813  13.5707235  82.2766304  85.1653576  14.6393573
  82.3382187  66.9593334  38.5723019  82.9563332  67.5932550  38.2085586
  82.3481369  66.2314034  37.9508114  76.7986822  80.2849197  32.7324915
  77.5443268  79.9788666  33.2488012  76.1582232  79.5761490  32.7932501
  86.3545036  38.4532762  12.3026633  86.3267994  39.3196058  12.7087855
  86.4534092  38.6303353  11.3671970  80.7076931  76.9332361  33.1812215
  80.2888107  76.1072779  32.9392171  80.2609825  77.2021580  33.9839435
  90.7263756  75.9287548   7.6981747  90.6938839  74.9915695   7.8901619
  90.2458858  76.3375187   8.4180921  43.4292459  44.6795321  36.3179231
  43.0393934  44.2192173  35.5747151  43.9388800  44.0097618  36.7738986
  70.7859612  56.7880058  29.6563292  71.4823961  57.3320580  30.0240445
  70.9636497  56.7748070  28.7158585  61.7456388  97.7292919  31.8957496
  61.2211275  98.2911205  31.3252521  61.1905909  97.5803471  32.6612329
  72.6738405  60.0533772  23.4614372  72.2646618  60.8394432  23.0996370
  72.5724316  59.3933058  22.7756858  77.5549984  43.3082867  37.6379991
  76.6795254  43.3161068  38.0249357  77.4778223  42.7254200  36.8826580
  80.6912804  57.0638323  31.6386008  80.8354187  57.4405003  32.5066900
  81.4461899  56.4925957  31.4970255  60.9682083  34.9293470  37.5920916
  61.1582375  34.8340631  36.6587973  60.0662947  34.6226335  37.6854110
  65.3334951  69.1085386  19.9157917  65.2735281  68.2662916  20.3666258
  65.9242249  68.9451313  19.1805577  54.5552921  91.1029339  22.2911668
  54.8092937  90.3041935  22.7534723  53.6162853  91.0013580  22.1356630
  51.9078159  78.7999058  28.5717058  52.4892807  79.2629766  27.9686356
  52.4147415  78.0396938  28.8568950  55.6552029  51.2986565  42.5671673
  55.3022337  52.1883965  42.5650311  56.5649033  51.4012003  42.2875881
  65.6827688  86.0672760  17.3400414  65.1788950  86.6596317  16.7819655
  65.6159067  86.4482498  18.2156062  62.6756668  61.2057543  37.4471593
  63.1820107  61.8771648  37.9043841  62.9772139  61.2546349  36.5400147
  83.5896301  72.6033354  23.9391923  83.1349468  72.5297785  23.1000972
  84.4989872  72.7871227  23.7035465  32.1990180  14.1168010  96.3889027
  33.0379415  13.9086711  96.8001556  31.9379711  13.3054149  95.9533119
  30.9200454   6.9762075  95.8661461  30.0824142   6.9325948  96.3273430
  31.2524962   7.8535533  96.0558128  66.5190029  81.2064362  37.3971796
  66.0345745  81.8126583  37.9575896  67.2031212  80.8506584  37.9643083
  64.4095945  58.6593199  24.1333818  64.2051697  59.2785072  23.4326363
  64.7141981  57.8743601  23.6780906  71.3886023  74.8245335  19.8907435
  72.0213413  74.2757368  19.4273984  71.6594505  75.7211590  19.6934199
  48.8297749  65.2709484  13.9460742  48.2922506  64.6820498  13.4164536
  48.8672638  64.8525238  14.8061597  26.5670609  23.1894279  92.3968983
  25.8805490  23.7102175  92.8136826  27.3818946  23.6293268  92.6393127
  65.8614540  63.2588100  13.7024176  64.9335051  63.4768677  13.7895525
  65.9545422  62.4217796  14.1573298  45.5767155  13.0530500  94.7057724
  45.3255987  12.8519940  93.8042450  44.8361540  12.7535844  95.2331352
  85.6318474  78.2735348  12.1493459  85.2640724  78.5992718  12.9708529
  86.1480904  79.0052509  11.8112481  42.6192951  67.6653290  24.0460563
  42.8462029  67.3104954  23.1864977  41.6931677  67.8959608  23.9730859
  46.5532780  23.2657552  94.2329597  46.4551401  24.2177033  94.2528439
  45.7153606  22.9318452  94.5533085  20.8073068  23.6982369  96.3923454
  21.1086345  23.4119368  97.2545910  20.8676052  22.9150510  95.8453369
  78.5959196  48.7582397  13.0635011  79.0729809  48.0465746  12.6366794
  78.6045647  49.4700003  12.4235356  53.7844372  60.4296064  33.0083156
  52.8351927  60.5258751  33.0851197  54.1347694  60.8980083  33.7660122
  97.6734066  71.3285542  27.3740411  97.5607872  70.7599020  26.6123438
  98.1165218  72.1042967  27.0303726  74.8138666  63.7863874  41.8340540
  74.8505592  63.0106974  42.3936892  75.3054142  63.5399294  41.0505581
  47.8812695  68.9796829  24.5519137  47.9572725  69.3295288  25.4396415
  48.7648439  69.0495777  24.1904664  80.3477859  99.5870781  24.1457820
  79.5485592  99.9003696  23.7223291  80.9726715 100.3041553  24.0383077
  54.8726988  79.7629499  31.3869858  53.9384747  79.7352552  31.5936065
  55.2616405  79.0901375  31.9458103  74.1006851  52.1516562  20.7974696
  73.8244390  51.2554121  20.9889603  73.2989550  52.5954866  20.5209255
  52.5764418  49.9929237  28.7586331  52.2494602  49.0981388  28.6654949
  52.4634981  50.3807449  27.8908396 110.5498505  86.8298244  32.4876475
 109.8118019  87.4276829  32.6062536 110.5449677  86.2842941  33.2741666
  41.3994789  55.1446438  17.2743082  42.1945477  55.6281900  17.0500720
  41.6514111  54.2238474  17.2043550  89.8910809  78.7583208  30.3351188
  90.0561237  78.0742216  30.9839630  89.0504169  78.5199881  29.9443364
  73.8025951  57.1268272  32.8731346  74.4394732  56.4873123  33.1919479
  73.0526495  57.0311403  33.4602118  72.9108095  48.5410786  24.7159243
  73.7283564  48.0439377  24.7423339  73.1605864  49.4269562  24.9787331
  58.5953379  61.0794353  20.6852579  57.6848173  61.3741636  20.7032657
  58.5604715  60.1748466  20.9962821  72.4867249  92.5323009   3.0116129
  71.7345667  92.2855473   2.4734640  72.6290846  91.7785931   3.5842386
  81.1446381  53.0941534  27.6101398  81.0279942  53.7829065  26.9557357
  82.0655441  53.1578112  27.8633308  75.0207424  52.4393606  39.3844533
  74.1623974  52.1434975  39.0812325  75.4917479  52.6688004  38.5833645
  72.4931526  38.9283538  23.7303615  72.5636959  38.0721092  24.1523814
  71.5512800  39.0826988  23.6577034  70.6256390  63.0178833  28.0764389
  71.0856962  62.6609278  27.3167300  69.9030972  62.4083900  28.2270408
  56.4293480 102.6584435  25.2484345  57.0965052 102.2994137  25.8334374
  56.5755844 103.6041546  25.2701735  73.9442396  75.5271816  15.4136097
  73.1709528  75.6893396  14.8732686  73.8426971  76.1173773  16.1603320
  67.0809221  70.9027910  21.4728069  66.5209532  70.3788662  20.8999467
  66.7713547  70.7048178  22.3566675  75.8781290  78.2875299  15.1012254
  76.0215187  77.3518991  14.9588585  75.4714012  78.5935783  14.2905843
  62.2744608  45.5584812  19.4940841  62.1149826  46.4784050  19.7051334
  62.7787447  45.2262974  20.2367687  72.9488850  63.2592678  38.6822343
  73.0016232  62.9360056  37.7828145  73.1111193  62.4871111  39.2241645
  39.8690128  82.7951145  33.0837965  39.8965549  81.9858742  33.5942912
  39.3954229  83.4133625  33.6403108  43.0914688  70.9710646  41.5828562
  43.0024481  70.7751179  40.6501675  43.1632948  71.9247866  41.6214418
  67.1860886  68.2906532  17.7033746  67.7860737  67.5834846  17.9403520
  67.6211119  68.7413979  16.9796228  69.1726875  73.1696796  33.0215096
  69.0311337  74.0969229  33.2123446  69.4947195  73.1570911  32.1201944
  42.4031067  52.7519560  39.5447993  42.6803160  51.8800688  39.2633653
  41.8053436  53.0466270  38.8577223  43.4032869  72.8149748  31.1951041
  42.7458954  72.4991608  30.5751657  43.1315470  73.7103224  31.3969612
  79.8810720 108.9438534  12.1841967  79.2003918 109.1756630  12.8159976
  80.6994247 109.2022133  12.6081967  61.5004301  65.3480577  33.9761448
  61.4025068  65.4999447  33.0361605  62.4441433  65.3947687  34.1292810
  91.1636925  31.4920878  43.5730124  90.4864120  30.9621620  43.1526470
  91.8692684  31.5349150  42.9276037  64.8543358  80.6290150  15.3198409
  65.5156231  81.3150787  15.2289784  65.0143003  80.0427151  14.5803213
  78.8814783  65.7739019  20.5571389  79.7539616  66.1460018  20.4284978
  79.0126944  65.0695229  21.1918497  47.5560331  15.2917194  91.7483997
  48.2000303  15.9523082  91.4932156  46.9506693  15.7576418  92.3251915
  66.0157394  54.7408009  24.9592066  65.0979662  54.4774055  25.0266099
  66.5073204  53.9273024  25.0723624  35.1768780  14.1611540  89.7581673
  34.3423319  13.7242687  89.9281597  35.3852296  14.6073067  90.5789948
  53.6616755  69.6962976  31.3701272  53.2586336  68.8528585  31.5760374
  53.4640408  70.2474260  32.1273804  73.3201170  67.0704556  29.1509795
  74.0822124  67.4201202  28.6892653  73.6050081  66.2137365  29.4689417
  75.7144308  44.1750956   7.5428092  75.3514194  45.0536346   7.4304295
  76.0817051  43.9563465   6.6863710 101.1476612  67.7849627  23.2019281
 100.8759975  68.0094194  24.0918994 102.1021461  67.8551912  23.2179689
  61.6846895  93.8944721  21.9006181  61.4185810  93.1649876  21.3409066
  62.4945784  94.2167759  21.5051031  53.7770557  78.7055969  43.4599876
  52.9150772  78.9968443  43.7573147  53.6343002  78.4157705  42.5589561
  73.6946869  58.5186768  21.0489941  74.5201492  58.8592100  20.7042027
  73.9541721  57.7992773  21.6246343  70.1866722  57.7210331  33.1976986
  71.0582209  57.3833275  33.4040761  69.6347141  56.9410276  33.1414390
  54.1909027  62.4620342   7.8342992  53.5220480  61.8532562   7.5208497
  53.7509537  62.9716587   8.5147142  75.0302601  84.1390228  37.8069091
  75.0249815  83.6431694  36.9881701  74.1199636  84.1230869  38.1024480
  53.7534618  71.8855762  29.0349340  53.7723923  71.2546158  29.7544932
  53.9455557  71.3651228  28.2548976  50.9742117  85.2004814  44.6578217
  50.6749868  85.2393436  43.7494230  51.1982107  84.2803383  44.7970533
  58.9898682  66.8459225  29.2655110  59.3177319  66.0342979  29.6528101
  58.5209084  66.5641546  28.4800744  74.8183250  69.9514389  34.5703816
  74.8725748  70.8958340  34.7167015  75.5484009  69.5889854  35.0722313
  42.4359417  58.9635468  23.4040403  41.9789028  59.0691757  22.5696611
  41.8353128  58.4483242  23.9425826  71.5664005  64.8850775  42.4941969
  70.9752607  64.3916655  41.9255781  72.1725035  65.3171396  41.8923712
  79.7258520  32.0338082  17.1525288  79.6483326  31.1153436  17.4106860
  78.9819765  32.4645686  17.5736380  78.0635643  65.1111460  38.4073877
  78.9764071  65.0347567  38.6850810  77.6405334  65.6065845  39.1086841
  46.6858959  67.4284315  48.5611916  46.8875837  68.3567190  48.4435749
  45.8755589  67.4220705  49.0706444  42.2039652  65.7422590  35.6300449
  41.4679956  65.7552862  36.2419343  41.7999935  65.6108665  34.7722745
  62.8217602  75.8414316  23.8046217  63.6792278  75.7570314  23.3876586
  63.0107975  75.8425522  24.7429681  31.4612985  28.3515501  92.1691036
  30.9576631  29.1378689  92.3795414  31.0834789  28.0378938  91.3474560
  61.4076138  71.9329834  36.9316697  61.3397932  71.1604500  36.3705802
  62.1551180  72.4180222  36.5820932  74.5390368  63.0503082   6.6269886
  75.4618692  62.8751373   6.4428067  74.4838762  63.0638313   7.5825024
  77.6410389  57.5362253  25.0949931  77.7712107  56.6391230  24.7875953
  77.7951908  58.0790806  24.3218327  81.4556503  68.5114479  10.4801798
  81.6738701  68.7256765   9.5731407  82.2893333  68.2514572  10.8721030
  70.2102852  41.8822145  16.7581189  70.5775881  42.1898985  17.5867617
  70.9092855  42.0226860  16.1194503  46.9419146  68.1953621  40.9776354
  46.3768291  68.1530285  41.7490721  47.7939653  67.8886509  41.2877512
  69.9305964  64.3681335   3.9607671  69.2967844  64.4940996   4.6669167
  70.7295752  64.0829754   4.4041047  68.1578636  50.1998281  42.1784019
  68.8621855  49.7354364  41.7261839  67.6491451  49.5088434  42.6026392
   5.7954472  12.5785863  93.4479046   4.9498606  12.5183904  93.0033970
   5.5963629  12.9963470  94.2858028  61.0278749  55.0738192  37.1378493
  61.7721510  55.5536604  36.7744756  61.4207554  54.3204308  37.5786257
  42.9152155  67.1328497  15.1088059  43.8138962  67.1560907  15.4375458
  42.3754692  67.3370028  15.8724976  65.6871319  74.0488386  24.3131709
  66.6041803  73.8935089  24.0870571  65.3707075  74.6448803  23.6343193
  51.1004972  72.8738880   8.3401608  50.4191446  72.9736948   9.0050125
  51.2729263  73.7656832   8.0381680  59.1580820  75.0717068  49.1473579
  58.3183718  74.6124029  49.1599083  59.8081923  74.3865633  49.3028116
  42.1444416  62.7976418  47.5102806  41.5769434  63.4578371  47.9081869
  42.1601677  63.0243206  46.5804434  55.4495668  44.9792862  20.4628992
  54.8793125  44.4493723  19.9059141  54.8485518  45.5197525  20.9756446
  44.4287586  61.1173487  39.5942116  44.6609116  61.7631960  38.9269662
  44.3841362  60.2875757  39.1191125  77.5814915  81.9520855  11.4827561
  78.3490896  81.5952492  11.0358787  77.6326656  81.5945339  12.3691928
  63.6798620  54.5671558  38.3230543  64.5233154  54.1690302  38.1078410
  63.8412523  55.5095482  38.2774806  37.3786187  81.6247749  22.0760345
  37.5892162  82.4037075  22.5909448  37.7827525  81.7849159  21.2232399
  83.1604481  75.7427835  20.7721806  82.2500515  75.7508373  20.4766345
  83.3949566  76.6674852  20.8507204  71.9481516  53.4618950   2.9238343
  71.5894556  53.2098675   2.0729235  72.5767231  52.7709532   3.1329408
  78.1039762  57.1039152  47.5481415  78.6473751  56.6521740  48.1938076
  78.6982059  57.2855568  46.8200397  13.1671321   4.2784795  95.0163460
  13.7984359   3.6417505  95.3514004  12.4462366   3.7464863  94.6794128
  57.3154879  72.9176712  14.4202936  57.3030710  73.0860043  13.4780943
  57.0633507  71.9979525  14.5026219  64.7788715  52.5949669  27.6484561
  65.6826544  52.4078417  27.3946953  64.7436428  52.3845673  28.5815811
  68.5276461  54.5338869  43.9894819  68.5729361  53.9404774  43.2397842
  69.4397831  54.6589422  44.2513990  69.7539568  89.5397949  24.6628761
  69.2095804  88.8620567  24.2621827  69.4735909  90.3523159  24.2416382
  56.0245848  56.9807386  21.1278582  56.3986778  56.1974478  21.5312743
  56.4818621  57.7086592  21.5488815  50.0912762  59.5052528   8.9749581
  50.3958368  58.8368797   8.3611584  50.2717400  59.1364431   9.8396200
  52.8765917  66.9542933  12.3747480  52.5059652  67.6245213  12.9489100
  53.6636019  66.6565514  12.8310311  88.9860725  61.0781956  44.1841221
  89.4227409  61.0207129  43.3342695  89.5566368  61.6395235  44.7090912
  68.1588650  85.2710533  16.8326807  67.2625732  85.3556538  16.5075135
  68.7053108  85.5903912  16.1145926  38.1621432  61.5859795  19.4522178
  38.4691548  60.9623098  18.7941790  37.3677182  61.9622564  19.0733516
  49.3278742  54.8852205  25.6775856  49.0959501  54.4385195  24.8633981
  50.0392914  54.3603373  26.0444927  59.1852140  62.7825356  22.6849771
  59.2002249  62.1952772  23.4407139  58.7868500  62.2635698  21.9862556
  80.4209518  75.5609369  20.1521039  80.4927540  75.4001951  19.2112315
  79.8638487  76.3362741  20.2208018  67.7752304  79.1767788  45.5979967
  67.3864269  78.3217716  45.4135370  67.2594786  79.7919321  45.0766325
  70.3658724  71.1095428  22.7113700  69.4895554  71.1570930  22.3292255
  70.2929163  71.5866613  23.5379696  55.5227900  75.4067850  12.9911292
  55.4289293  74.6111155  12.4673629  56.3454247  75.7944775  12.6924682
  75.6569004  66.1697626  27.4035525  76.1513376  65.5062199  26.9224334
  75.1495838  66.6246748  26.7313051  84.8201656  47.4045038  13.8465047
  84.8945141  47.5645590  12.9057145  84.4498253  46.5242195  13.9111674
  74.6729612  79.8744965   3.1634733  74.4162893  79.1395950   3.7204987
  74.1747189  80.6178951   3.5030967  92.5480938  80.8137417  19.9702311
  91.7261887  80.6830788  19.4973302  92.3515034  81.5010166  20.6068158
  52.6680183  57.9268217  26.6008449  53.2472515  57.3837900  27.1354818
  52.7775097  58.8108110  26.9512773  73.2484531  52.8466892  23.6317968
  72.3963499  52.4184895  23.7142467  73.2808495  53.1424570  22.7220130
  62.6943445  47.3394823  15.8336496  62.9682446  48.0253315  16.4425993
  63.4792757  46.8073559  15.7034326 103.7144279  92.4243450  83.3500290
 103.1198502  93.0846977  83.7059212 104.5542908  92.8765106  83.2700062
  72.8761673  82.0470333  10.8467543  72.7667475  82.3628044   9.9497879
  72.0449543  82.2507858  11.2754750  49.4435072  88.7418938  17.7589297
  50.3592587  88.4659672  17.7975583  49.4175959  89.3879700  17.0531309
  76.9741535  70.7478857  31.1717510  76.3635826  70.6767511  30.4380083
  76.8263435  69.9530745  31.6842556  62.7045345  60.2030706  26.8489790
  62.9642487  60.3196144  25.9350872  63.1424856  59.3967390  27.1214724
  29.2317080  16.4536846  86.5582561  29.7776723  15.6703484  86.4908695
  28.7047720  16.4478397  85.7591724  50.1067686  55.9585571  48.1607103
  49.8360538  56.8110466  48.5016012  49.7460699  55.3264570  48.7824678
  56.7209768  81.1121750  24.7264552  56.1098766  80.8072567  24.0557742
  57.0497417  80.3104877  25.1332092  83.5836792  74.5769835  14.7058499
  83.9149189  74.9317789  13.8808477  83.2178211  75.3344536  15.1626015
  35.2650523  70.7338428  29.3539071  34.5250726  71.2503195  29.6731424
  35.6621480  70.3698254  30.1451325  69.6574688  45.2098703  25.8734298
  69.9371624  45.9212494  25.2972794  69.8423052  44.4127178  25.3768253
  59.5473528  66.8759680  35.8238602  59.9307775  66.7156887  36.6861415
  59.9031258  66.1806393  35.2705336  51.5895224  61.7138433  16.1895275
  51.5063572  62.6420164  16.4081824  52.5121260  61.6036892  15.9595311
   1.0530115  93.4205437  95.6882000   0.3280688  93.4396935  96.3129520
   0.7922617  92.7675533  95.0386906  82.3342896  78.3032751  21.5934443
  82.8141975  79.1307497  21.5587354  81.4458752  78.5299397  21.3185501
  61.0224056  56.5729046  13.0987895  61.8578196  56.8853283  12.7513635
  60.5894375  57.3611975  13.4264541  43.5041952  65.6315231  44.6832895
  43.7287760  65.9279108  43.8012791  44.3112183  65.2396488  45.0170231
  36.7899752  29.0684247  85.9157181  35.8845973  28.8664842  85.6796169
  36.7278433  29.4678760  86.7833614  50.5728245  76.5983105   8.0477500
  51.2573195  76.5957069   8.7168491  49.7538900  76.6169214   8.5429591
  71.9445562  51.9561625  39.9577641  71.8673134  52.7728319  40.4510355
  72.2835064  51.3244152  40.5919933  79.7441006  63.8227224  13.5098755
  78.8862896  64.2412043  13.4373116  80.3537369  64.5480680  13.6456907
  10.8114016  30.2395606  92.8580570   9.8784667  30.1749039  93.0622196
  10.8688140  30.0203443  91.9280624  50.7660627  77.8827190  23.6860323
  51.5340948  77.3806429  23.4134912  50.0716877  77.6002550  23.0908084
  47.7946949  49.1383600   8.0630940  47.2503328  49.9083042   8.2276815
  48.6797857  49.4882154   7.9608917  43.3788109  96.2848663  33.4875774
  43.0970955  95.3860474  33.6578608  44.0804720  96.4398193  34.1199470
  63.9727163  50.5613852  36.1198211  63.4836960  51.1718035  36.6716194
  63.4802198  50.5327702  35.2995396  85.2714443  60.3449726  15.8874142
  84.6292210  60.9666491  16.2299061  86.1055756  60.8121681  15.9341085
  53.9065695  56.0804844  28.2780838  53.2966185  56.2024164  29.0056300
  54.6823645  55.6885719  28.6790538  40.6702328  52.1199512  34.6358538
  40.4021740  51.2799501  34.2633319  41.2861013  51.8880844  35.3309608
  67.0345640  59.0421057  36.1094904  67.2835493  58.8717461  37.0179033
  67.8376532  58.8959265  35.6095839  64.4829655  63.3109617  59.1707277
  64.1751242  63.7333918  58.3688402  65.4359102  63.2944489  59.0820980
  64.9644756  75.8135796  22.2356057  64.7923183  75.8917856  21.2972665
  65.7841873  76.2894583  22.3691988  52.9876184  76.3544178   6.1911196
  53.3984900  76.0308361   6.9928145  52.1281528  76.6682482   6.4722955
  64.9034977  76.1817265  19.4165409  64.0876627  76.0651064  18.9296651
  65.4045057  75.3857708  19.2385626  70.7080889  97.9804420  40.6707716
  71.4730597  98.3646870  40.2425098  70.9717131  97.0823574  40.8712149
 102.1763039  86.2051201  29.3443561 102.5909138  86.9664955  29.7501111
 101.4041424  86.0367012  29.8843861  76.9596577  83.8035965  20.2196431
  77.2367573  84.0652466  19.3415856  77.3025513  84.4889545  20.7931805
  19.5243919  60.5307102  88.6848831  19.2651904  59.9699116  89.4160080
  20.3163981  60.9725714  88.9910126  75.9526777  58.2937431  50.5881023
  75.6555557  58.4391022  49.6898699  75.6950712  59.0874720  51.0569954
  79.0236521  65.0179720  30.8012700  79.2351198  65.6011581  31.5302467
  78.0942822  65.1729059  30.6324315  61.5288305  83.4759045   5.3884971
  62.4489689  83.4097672   5.6438446  61.5200043  84.1331863   4.6927059
  48.5922718  98.1070995  28.9080906  48.0425644  97.5475597  29.4566965
  48.2496262  97.9853153  28.0226541  77.7874851  74.0275335   8.4682345
  78.1375551  74.0430450   7.5774807  76.8621349  73.8088131   8.3581382
  77.4255562  84.1071320  39.3718505  76.6112280  84.0558052  38.8713837
  77.6207495  83.1996250  39.6054220  22.1598864   3.7945843  86.2953281
  23.0103326   4.2259517  86.2122822  22.3437905   2.8693208  86.1331654
  45.7042789  77.9434967   7.3332733  46.1769485  77.2632504   6.8536049
  44.8381615  77.5676394   7.4907750 102.6801968  92.4421597  38.6045885
 102.8356552  93.2614040  39.0745831 102.8439331  91.7585373  39.2542696
  93.2447052  76.1280441   3.2478794  92.3259068  75.8706856   3.3240798
  93.3606815  76.8028641   3.9167574 107.6191807   1.9142002  15.7877219
 107.9254913   2.7661741  16.0984480 107.8048134   1.3147530  16.5105188
  71.4480686  94.8040199  17.0922649  72.1157265  94.3649673  16.5652871
  70.8880758  94.0950489  17.4084985  86.0821915  53.6953878  17.4164569
  86.0384655  52.7747631  17.6748657  85.7250309  54.1717529  18.1659472
  58.7048483  76.9163370  23.1531739  59.0749788  77.3493290  23.9224291
  58.3519506  77.6307678  22.6228070  59.4995117  75.3808689  28.6788940
  59.8709202  74.6645069  29.1937876  60.2595758  75.8797312  28.3794379
  63.8687134  72.6083374  19.0596962  62.9202080  72.7261639  19.1115117
  63.9952660  72.0024300  18.3295608  96.2313461  92.2680283  24.0926147
  96.1148834  91.3232994  23.9918971  96.2664890  92.6019382  23.1962299
  77.1859169  64.4518089  10.5612242  77.9032612  64.8668242  11.0401988
  76.8852043  65.1244164   9.9501544  24.0681434  13.3131266  85.7338047
  23.7102008  14.0688777  85.2680206  23.9786291  12.5869846  85.1165962
  98.4414577  63.0651522  25.7551312  98.8539982  62.6304340  26.5014958
  99.0692425  63.7385750  25.4931903  80.5085945 103.9871502  34.1171789
  81.0224628 103.2318974  33.8312387  80.9683228 104.7423649  33.7504053
  74.2135143 100.2302265  21.5626311  74.0334225 100.7932472  20.8097672
  74.5193243  99.4081974  21.1792469  89.6586800  74.2467880  23.5389853
  88.8643932  74.6763277  23.8565421  90.3089428  74.4105196  24.2220473
  70.4166698  75.9791374   1.1074887  69.9222803  75.1635027   1.0265414
  71.0890770  75.7877588   1.7612997  76.1091566  65.8427668  20.0730395
  77.0624781  65.8923054  20.1434755  75.8013821  66.6936255  20.3853703
  75.4812765  63.1143904  21.1458135  75.5938244  63.7849522  20.4720831
  74.8830843  62.4785233  20.7532954  78.4575796  66.3677073  13.3811367
  78.7743711  66.9412279  14.0789533  77.5462008  66.6297626  13.2509625
  65.6223249  57.3272896   6.4955151  66.5666485  57.4836111   6.5025848
  65.4039049  57.1388912   7.4082196  35.0903678  85.7119370  31.3966942
  35.2669525  85.6091022  30.4615617  34.8615193  84.8318195  31.6954327
  77.6718378 100.8326530   1.4488129  78.5510302 100.8033276   1.0714619
  77.2604704 100.0175953   1.1612593  67.9469204  83.5540676  40.7705736
  68.1696558  84.2870617  41.3444519  68.3675385  83.7659168  39.9372458
  68.6327744  81.1302471  16.6009545  67.9723072  81.7510414  16.2933421
  69.4611025  81.4790058  16.2716043  53.8655281  69.0962124  45.4710484
  53.7197113  68.1836128  45.7203197  54.3609285  69.4676590  46.2010050
  41.6552496 100.5078506  21.2072420  41.3444424  99.8775291  21.8571043
  42.3787022 100.0613403  20.7673764  61.9034290  87.0719337  26.7277360
  61.5597105  86.7486763  27.5605583  62.2726917  87.9296970  26.9377899
  71.1739063  68.7252951  14.8118043  70.7073450  69.5116854  14.5287097
  71.0166311  68.6799574  15.7549059  75.8011913  77.1862268  44.5987988
  75.5336046  77.8792572  45.2023983  75.8834553  77.6247501  43.7519455
   9.9585241  65.6837416  85.9467506   9.0281075  65.5890703  85.7428074
   9.9799097  65.8754969  86.8843079  85.5723763  65.3662205  24.2534375
  85.9148026  64.4739580  24.3067265  86.3391781  65.9249973  24.3800163
 109.1237545  15.8582473  43.4291744 108.5223484  16.5937841  43.5455036
 109.9346828  16.1429644  43.8505507  75.8440971  76.7602110  25.0495386
  76.3828707  77.1321917  25.7478118  75.0417423  77.2820330  25.0623155
  80.2813625  81.0873318  26.7639399  79.9476767  81.6420078  27.4690771
  81.1824226  80.8905125  27.0200372  76.2751579  70.8763552  39.4819164
  75.9370041  70.1472902  38.9619613  77.1539068  71.0305452  39.1351414
  76.1074114  62.3451567   9.0174186  76.4261532  62.9577446   9.6802711
  76.8982172  61.9241047   8.6804056  67.5659847  98.3488655  22.4714017
  67.0517731  97.6032925  22.1616554  67.0123768  98.7632084  23.1332660
  66.5858793  75.8489370  27.7915406  66.7114544  76.0239077  26.8588829
  67.3442173  75.3204775  28.0403161  86.0641289  72.6595259  38.0342865
  85.8758259  73.3727646  37.4243188  86.0632896  71.8722486  37.4898362
  48.0746651  61.5657949  49.1474867  47.7069616  62.3877907  49.4720602
  47.3650026  61.1688471  48.6424637  64.1094923  95.5222511  21.4754963
  63.6850071  95.6543922  22.3231888  65.0458336  95.5203056  21.6742206
  69.9023914  88.5111427  14.5279980  70.4160166  87.7978134  14.9069273
  70.3710794  88.7443161  13.7266314  90.2921009  69.3794155  33.6582994
  91.1470509  69.2900276  34.0793681  90.2563953  70.2947712  33.3806562
  60.6290770  98.2101631  43.7903976  60.4387379  98.3139324  42.8580713
  59.7845507  97.9915714  44.1843843  73.7532473  63.7805510  14.5815349
  72.9917717  64.2889309  14.3023658  73.8634920  63.1194448  13.8981509
  63.0841112  66.9075680  15.8986449  62.4516630  66.1904240  15.9426820
  62.5766516  67.6883841  16.1200905  58.4957266  80.5550480  18.4735072
  58.2261133  81.4160156  18.7933207  59.4033051  80.4650497  18.7640715
  20.0414491  62.1713686  93.9690113  20.1480103  61.2204885  93.9423847
  20.2082896  62.4056053  94.8819828  78.0896187  76.8605757  11.5755856
  78.4325933  77.7461720  11.6952491  77.4444866  76.9463873  10.8736789
  62.5654411  68.7961435   1.0961502  62.3032856  69.4318962   0.4303245
  61.7939806  68.2421684   1.2152681  74.0587950  96.1671352  30.3416014
  74.9108267  96.5880775  30.4559779  73.7584209  96.4638996  29.4825673
  98.2766628 108.4805012  23.8606358  98.6728382 109.2223644  23.4035683
  97.8436470 108.8705444  24.6199727  64.5466661  75.3480387  52.9966640
  65.0610161  75.9319544  52.4392462  65.1202583  75.1591015  53.7393093
  78.9190912  90.6677151  41.5493250  79.1589975  89.9364853  42.1185160
  79.5188808  91.3712025  41.7974949  78.9299107  86.5356636  32.0379806
  79.3686152  85.9295940  31.4409494  79.0155506  87.3909092  31.6167259
  93.7630558  72.8532505  19.4748604  94.4395924  72.8575802  20.1520014
  94.0035343  73.5729837  18.8914311  65.0002098  83.6720085   2.4057113
  64.5662355  82.8231621   2.3199686  65.1976967  83.9320183   1.5059182
  92.6941967  88.6841393  13.4754086  92.2790051  89.4440746  13.0675578
  93.1156921  89.0340137  14.2603683  75.3908062  72.4096203  24.1894984
  75.6751966  72.9715729  24.9103045  75.6554937  71.5285587  24.4538927
  45.9531260  20.3150892  94.4852352  45.3379059  21.0403609  94.5934772
  45.7567453  19.9618995  93.6175251  62.3478079  85.5316544  47.6733589
  62.5748968  84.6133709  47.8196716  62.6822090  85.9871197  48.4459925
  86.7434406  92.9167652  24.6581697  86.1472034  92.1682453  24.6369648
  87.0090103  92.9855251  25.5752158  71.4630270  88.0783272  17.4969625
  70.5244160  87.9183292  17.5951171  71.8439674  87.7840519  18.3243203
  63.3499527  93.5303307  16.0477722  62.6847029  93.7901592  16.6850805
  64.0544844  94.1678810  16.1635232  43.7269497  60.4106808  18.8440311
  44.1690302  60.6097174  19.6693671  43.2974482  61.2301683  18.5986829
  68.8929844  71.3111019  15.1717591  68.7615156  70.5035257  15.6685209
  68.5871267  72.0044708  15.7565010  37.6943207  79.2254257  40.3133249
  36.9389629  79.1441011  40.8956051  38.2461476  79.8885345  40.7280636
  71.1818647 100.5653572  35.6637716  71.0406256 100.6884480  34.7250843
  70.6755972 101.2653637  36.0759783  57.3040819  83.1461143  26.4244604
  57.1123838  82.4407959  25.8063841  56.7142296  83.8553619  26.1689758
  95.7881165  77.8176641  25.0714040  96.7287636  77.7682495  24.9012280
  95.4322243  77.0182133  24.6835184  72.8357315  94.5416546   4.7440669
  72.5854063  93.8704395   4.1092059  72.9463816  95.3360558   4.2216665
  95.4298878  93.8225651   9.6537083  95.6271172  92.9983139   9.2088073
  94.5921707  94.1002846   9.2831194  89.3993664  92.9452801  10.9579182
  89.7046185  92.8350067  10.0574219  89.0800381  92.0789433  11.2103498
  64.2751026  63.7579346  18.4844637  64.5309067  63.3352566  17.6646245
  64.4408703  64.6888876  18.3358622  81.3630867  94.8314285   9.6660656
  81.8220711  94.3900585  10.3807366  80.7597256  94.1712093   9.3250287
  92.1058083  85.0665569  19.5835483  92.7684689  85.7544136  19.6465755
  92.5883579  84.2957592  19.2848158  71.4332914  56.0922050   3.4417313
  70.5021000  56.0792875   3.6629659  71.6504383  55.1766777   3.2659778
 108.6378956   0.5512320  31.7761350 107.8513908   0.5822992  31.2314463
 108.8730335  -0.3761994  31.8046045  88.0567360  81.1934471  29.6505761
  87.6922321  80.5831432  30.2915907  88.9535809  80.8886528  29.5127082
  50.7492018  90.8541298  26.9472551  51.1761856  90.9373856  27.7998900
  50.6232786  91.7563438  26.6533351  93.3458614 102.3316193  30.7853746
  92.4748707 101.9498539  30.8942699  93.9431190 101.5857983  30.8424950
  55.9531498  89.3488503   6.6739374  55.6547737  89.3349838   5.7645351
  56.6927290  89.9565125   6.6741180  57.6423550  77.5687981  40.1853228
  57.4586678  77.3024321  41.0861778  57.9855585  76.7790508  39.7673011
  79.2799950  85.7409191  16.2294602  78.3990622  85.5821323  15.8903754
  79.8394775  85.7393360  15.4527974  94.5161724  68.1829214  29.0884233
  93.6017418  68.4565973  29.0165615  94.6508121  68.0411243  30.0254393
  71.5779448  86.3706303  40.4400206  71.7509747  87.2533321  40.1127100
  72.0996761  86.3052177  41.2398624  45.6858492 103.0518913  37.7042437
  45.1034355 102.8239155  38.4288478  46.5501118 103.1321812  38.1077766
  65.9320498  71.6437292  41.9204521  65.4535961  71.8955183  41.1305666
  65.4890680  72.1117687  42.6282167  79.2611456  88.7315178  30.5586934
  78.5791302  89.3817902  30.3906703  79.6352768  88.5486507  29.6968246
  62.2727394  60.9432030  24.2528987  63.0156231  61.4440489  23.9159894
  61.8962812  60.5235004  23.4793639  46.1995840  79.9053335  49.0381718
  46.1348915  80.4569149  48.2585573  47.0196390  79.4249439  48.9243126
  99.0663624   2.3603573   0.6406561  98.5083580   2.6181200   1.3744286
  99.4646645   1.5362141   0.9206140  68.2447147  81.3160992  12.9349411
  68.2763004  80.4730034  13.3870757  67.3314667  81.4082050  12.6634228
  46.0649920  27.8405643  96.9980621  46.4944553  28.6168504  96.6386700
  45.2006674  27.8330112  96.5868187  98.6282539  66.6597366  39.5567775
  97.7551270  66.4260721  39.2416883  98.6863136  67.6056242  39.4220185
  87.9023552  65.7768106  18.3777428  88.5452271  66.4764214  18.4939039
  87.0717812  66.1671591  18.6497605  93.3389282  97.9313564  26.1614108
  92.8300667  98.5790157  25.6737351  93.2214260  98.1761837  27.0792770
  65.9423780  86.1809158  23.2365704  65.3514957  86.1444473  22.4844027
  65.3617620  86.2559700  23.9938545  47.6208591  64.6645546  31.1127591
  48.5699892  64.7782898  31.0633445  47.2639322  65.4366207  30.6737256
  70.6549263  97.5028229  22.8532672  69.7427082  97.7253437  22.6673222
  71.1012173  98.3478355  22.9080367  96.2325859   6.2171984  31.8270040
  96.9567966   5.7905549  31.3690495  96.5946865   6.4521909  32.6813388
  33.6972404  41.1328363  89.8433304  34.6413994  41.0931110  89.9956989
  33.3735442  41.7450428  90.5041313  92.3944664  70.3340197  40.3445482
  91.8486691  70.3084421  41.1304712  91.7724037  70.4354382  39.6241379
  70.6520939  78.6692667  13.5097086  71.1851072  78.7728310  14.2980003
  69.7643423  78.8920450  13.7898731  41.0276890  97.6310444  37.3222852
  40.4016352  98.3197117  37.5459623  40.5911970  97.1235657  36.6380572
 108.0660439  83.3582020   9.0868211 108.9395618  83.4630680   8.7097132
 108.0252934  82.4371624   9.3442470  84.3422031  88.8945866  17.0253539
  84.8260403  88.1743717  16.6210985  83.9634609  88.5137558  17.8176618
  70.4449606  95.3331947  20.9256887  70.8039808  96.0272503  21.4785171
  70.4838514  94.5479107  21.4716244  33.5509300  18.2048714  95.7438183
  33.5752845  19.1357839  95.5223656  33.4739017  18.1875360  96.6977596
  87.7523899  86.9278240  14.7625852  87.6670837  86.2530613  14.0890539
  88.6460686  86.8273449  15.0904393  17.2179818  35.2040792  96.8708229
  17.6841760  34.5058489  97.3305702  17.0238566  34.8353934  96.0090637
  83.2325554  65.1507473  22.5523639  84.0163898  65.1922226  23.1001854
  83.0684757  66.0593414  22.2998500  82.2550201  81.5314579  30.4338694
  82.1202564  82.3977184  30.8181500  81.3969803  81.2872219  30.0869465
  80.7363987  87.2667122  39.4448400  80.8380032  88.2155418  39.3698573
  79.8367786  87.1454144  39.7484851  64.5791435  93.4346104   7.6164794
  65.0926304  93.2258511   6.8361050  64.7999048  92.7431679   8.2404941
   0.7046663  12.0476329   8.8933116  -0.1114478  11.7205882   8.5148519
   0.5639429  12.9896331   8.9885169  92.9800320  81.4184475  14.2323542
  93.4050179  82.2024441  13.8845491  93.3347034  81.3260460  15.1166058
  78.6715031  77.9734802  15.7562470  77.8468084  78.3370447  15.4338551
  78.4198380  77.1604586  16.1942947  70.0373220  37.3060203  35.0326300
  70.6545734  37.5957561  34.3608499  70.5693150  36.7942595  35.6419897
  80.0279617  81.2833786  10.2371597  80.7975864  81.7642021  10.5416679
  80.3854561  80.5639744   9.7166848  65.0312662  86.8304825   9.4286579
  64.5690536  86.1086273   9.0026212  65.2765894  87.4145222   8.7110585
  94.4197845  86.6559982  18.7740409  94.6868324  87.2579002  19.4687605
  95.2068233  86.5404224  18.2416451  91.5623665  70.4993868   8.7519169
  90.6907845  70.8548069   8.5780227  91.6548824  70.5467749   9.7034562
  75.0523615  71.4894485  28.6727262  74.1756058  71.1470318  28.8467336
  75.3657436  70.9776354  27.9270244  84.1442204  71.1888266  39.3252945
  84.1135216  70.2961731  38.9811158  84.8790455  71.5969515  38.8673639
  74.3325043  91.7812252  11.5855014  73.4853220  91.6970444  12.0230198
  74.9570990  91.3885880  12.1953809  85.2692127  83.9857006   5.2524382
  85.0808430  84.1242504   6.1806363  86.1793995  84.2632771   5.1487279
  74.3794632  99.5061016  32.3250079  74.7417641  99.5934391  33.2066798
  73.4806061  99.2077827  32.4638891  72.9991484  77.0953655   8.0228519
  73.2795382  76.4183664   8.6387104  73.7053299  77.7413368   8.0391800
  83.0106449  79.0851212  13.0958796  82.5413036  79.3606949  13.8832903
  82.5738525  78.2768679  12.8272378  85.6445217 108.0924511   2.0110203
  86.3372803 108.2016754   2.6624754  85.5406189 107.1444988   1.9285269
  49.3565512  64.5337820  22.3103714  49.3746519  64.9942827  23.1493235
  49.1758394  63.6225700  22.5411654  96.4498234  44.6775627   7.4767560
  96.7950058  45.1654100   8.2244819  97.1738243  44.6544027   6.8510360
  65.9023046  33.4149337  34.1539335  66.5432358  33.5393357  33.4539604
  65.3710413  34.2109776  34.1364837  74.8851442  78.7659454   0.6231742
  74.8432875  79.1161394   1.5130307  74.0859747  78.2470226   0.5321614
  90.2036858  94.1020107  14.5457184  90.7753849  94.0555382  13.7794065
  90.5265331  94.8554230  15.0400567  68.2280874 100.8330917  34.1080523
  67.3022461 100.9011650  33.8747835  68.2548714 100.1600647  34.7881603
  22.1668983  43.0831766  90.8530426  22.2414064  42.3668623  91.4835739
  22.3379397  43.8728189  91.3663101  93.5657597 106.9760990  14.9663973
  92.6647854 106.6554928  14.9252379  94.0069294 106.3744164  15.5660546
  92.0159435  81.3984680  24.3716192  91.7648888  81.8437576  25.1808906
  92.8926754  81.0572243  24.5480752  57.4734688  90.9812260  15.2621639
  57.0672607  91.6705418  14.7367442  58.2329893  90.7051849  14.7491693
   3.5911956  18.0273664  96.5356445   4.0859142  17.4743509  97.1403408
   4.1621909  18.1186473  95.7728481  76.8052149  97.7298641  30.3609061
  76.8388939  98.4000111  29.6782613  77.2911882  98.1092167  31.0931301
  75.1315832 102.0224667  32.7873755  75.3025246 101.1823273  32.3617315
  74.6335030 101.7960930  33.5728049  90.8841324  80.9068012  32.3667622
  91.2931252  80.1244926  32.7368116  89.9813938  80.6433964  32.1880913
  79.0699768  77.7780390   7.5918382  79.1920376  78.3719873   6.8511885
  79.8726416  77.2570992   7.6159060  75.5546045  97.1811104  36.0931611
  76.4846563  97.0035934  36.2335849  75.4272652  97.0610142  35.1521015
  37.3802495  58.8971090  20.5035496  37.7147555  58.0242252  20.2976084
  37.8459835  59.4797611  19.9036837  57.0505476 103.8772202  22.3783994
  57.0770645 104.3008327  23.2363510  57.5169182 103.0509281  22.5047493
  98.1814861  91.7069817  33.5135746  98.2353878  92.1858406  34.3406248
  97.2950840  91.3458443  33.5032415  85.2419662  66.9399691  14.0176868
  84.6543884  66.9098330  13.2626534  85.0639248  67.7871752  14.4260657
  62.5306129  70.4368496  33.8226461  62.2372007  69.9118996  34.5673394
  62.9166031  69.8018885  33.2192683  52.5223684 106.8465996   7.7250475
  51.6042948 107.0953369   7.8322899  53.0018139 107.4495411   8.2932210
  81.8751144  68.5397720  23.4276080  81.7933750  68.2474136  24.3353939
  82.6996517  69.0254641  23.4057260  70.5367136  77.6890135   7.2388375
  71.4598513  77.6877308   7.4918997  70.0990534  77.1877289   7.9268777
  91.5755272  68.6673594  43.5680819  91.3102722  68.2639885  42.7415466
  92.4445724  69.0273523  43.3908701  74.0611744  95.6196690  24.8091388
  73.6700583  95.7184982  23.9410973  75.0047684  95.6218338  24.6483421
  86.1653042  94.7233486  16.8128479  86.5940952  94.0732670  16.2562788
  85.6360531  95.2441120  16.2087584  74.9898291  80.6303692  10.0937533
  75.8285761  80.9581280  10.4182661  74.3629742  81.3205528  10.3103817
  84.5736504 100.9356403  23.0080867  85.4537582 100.9436798  22.6318169
  84.0482044 100.4428196  22.3778009  83.0683041  51.9514799  31.2420130
  82.2212696  51.6034317  30.9633923  83.2563019  51.4958239  32.0625401
  54.6184349  33.9086461  90.5179310  54.9434710  34.1492271  89.6503544
  53.7924480  33.4560561  90.3472328  79.2919970  66.4044142  34.9585724
  79.0782881  66.8722963  35.7658172  78.7587023  65.6103134  34.9936509
  87.1580029  99.1884899   9.5910066  87.4055386  99.9651241  10.0928009
  87.9120064  98.6037636   9.6671534  97.4822235  89.3116570  27.0387888
  97.6962471  89.9255276  27.7413440  98.2036686  89.3995571  26.4158797
  79.8217726  75.0890541  23.2803559  79.7869110  74.4450855  22.5730252
  80.0918388  74.5863438  24.0488482  35.8957267  66.4673424  30.6388617
  35.8927822  65.5579901  30.3400350  35.9928298  66.9823551  29.8378825
  74.5972538  68.2141352   3.9715320  74.6495247  67.3222876   4.3152022
  74.1922235  68.7191582   4.6766096  38.0802989  86.8878078  51.4071655
  37.8504705  86.7321777  52.3232365  39.0260029  86.7446899  51.3698483
  45.2699041  68.3541298  43.4213114  45.2757597  69.3004322  43.2774258
  45.4691696  68.2521296  44.3519640  49.3271923  51.9352436  27.5628376
  50.1864290  51.6637611  27.2399688  49.4519329  52.8422165  27.8422546
  81.8023300  72.4086571   8.5285687  82.6694202  72.8123331   8.4906596
  81.2951279  72.9839611   9.1012830  73.9440107  57.9642105  13.8759923
  74.6576929  58.3746243  14.3643057  74.2463350  57.0702028  13.7160408
  81.3020039  73.5581064  25.0854802  81.4107418  73.9537477  25.9502769
  82.1671104  73.2088518  24.8713803  64.7252846  75.9492874  34.9146366
  63.8135958  76.0008383  35.2016878  65.0238895  76.8586206  34.9010491
  78.1576681  85.8943081  21.6563916  78.7576962  85.3656673  22.1824408
  77.8735733  86.5925407  22.2463036  59.7354555  45.3362274  37.7883267
  60.0121641  45.8868980  38.5207415  58.7830353  45.2884531  37.8710508
  87.3979378  68.4854460  28.8370109  87.0086193  69.0063858  28.1346703
  87.2086906  67.5786829  28.5957694  28.3222699  65.7984734   1.1584161
  27.7849746  65.0063038   1.1619986  28.8894320  65.7066584   1.9240066
  75.1604080  49.2503738  15.5396497  75.3213215  49.1585970  14.6005464
  75.3341389  50.1735830  15.7233238  70.1406860 101.1236191  38.5506201
  69.3247223 101.5680122  38.7807131  69.8636532 100.2659893  38.2281971
  19.3926418  17.9646528  93.4795475  20.0649238  18.3345079  92.9072952
  19.8162770  17.2113347  93.8909817  98.0965710  83.1798553  38.8365436
  98.1800556  82.3437595  39.2950273  97.2139645  83.4828377  39.0497184
  92.5188732  91.1669159  12.2987092  93.4491253  91.3900948  12.2662902
  92.0750427  92.0067883  12.4164474  72.9679632  72.4819851  19.3801880
  73.3228731  72.2179890  18.5313213  73.7392759  72.6822758  19.9104619
  71.5195084  95.8364868  36.3975930  71.6587639  95.4492664  35.5333591
  70.5949974  95.6753349  36.5861058  69.7381735  68.8021755  20.9387445
  69.8216629  69.5658112  20.3676772  70.4806280  68.8697433  21.5391064
  35.9319353  36.5992904  94.0883636  35.7993579  36.0346484  93.3269024
  35.8441377  37.4885798  93.7453079  55.7226419  30.9055734  91.3708973
  55.7414246  31.0266304  92.3202324  56.3998938  31.4959455  91.0407162
  62.9741287 100.5085850  15.7195318  63.0786419 101.4001751  16.0517466
  63.6781788 100.4076004  15.0789499  26.8110442  49.9447727  95.0222111
  26.5242076  49.0469933  95.1893806  27.0661235  50.2787828  95.8822155
  59.1218185  44.2171478  22.2513223  58.9105558  44.9431562  21.6643739
  59.9274635  43.8454294  21.8921566  59.1795635  93.4010696  23.2673264
  60.0675058  93.5086250  22.9264045  58.8510180  92.6126003  22.8353429
  51.6025209  83.2607365  21.0414076  51.7830229  82.5146675  21.6132736
  52.3610210  83.3053017  20.4592347  73.3847857  61.7533827   9.7235429
  73.1782150  60.8197737   9.7674263  74.2293596  61.7909765   9.2746353
  40.3443336  93.8492489   7.9672593  40.4137325  94.3909645   7.1811581
  41.2389517  93.8002968   8.3041447  60.1794434  90.8770752   8.2965940
  60.3491163  91.6591072   7.7713627  61.0471439  90.5118370   8.4695911
  79.4792509  78.9810038   4.9728194  80.3743267  79.3126822   4.9016944
  79.1804457  78.9018917   4.0669012  65.1005411  80.3545380  44.6710348
  65.5565357  81.0671806  44.2233276  64.6801996  79.8598623  43.9675903
  94.4616795 111.1157322  23.5712743  95.2703094 111.5900898  23.7644744
  93.7944603 111.7984581  23.5009766  78.5320044  98.7015152  14.0774429
  77.7710581  98.8959217  13.5302699  79.1856575  98.3612919  13.4665263
  93.2845020  72.1301699  27.4199057  92.8598118  72.1877956  28.2757974
  92.5678062  71.9636965  26.8076348 104.7399712 102.4907112  41.2788057
 104.2957497 101.8474102  41.8311357 105.0369740 101.9897652  40.5191517
  67.6138401 108.6382484  17.3889887  66.9154835 108.1351376  16.9701707
  67.8183174 109.3320370  16.7620242  95.0935650 107.2875690  18.7896991
  94.1726208 107.2669125  19.0498364  95.5754185 107.3138523  19.6163535
  73.2609272  71.7636251  11.5885043  73.8705492  71.5354824  12.2903156
  72.8378630  72.5673580  11.8906021  93.6828613  86.9921684  23.3718204
  92.9501629  86.4455223  23.6556888  93.2839012  87.6514530  22.8040075
  60.5567789  96.2319756   9.9260694  59.7993612  96.0799694  10.4912615
  61.2510252  95.6935310  10.3059959   4.9333936 110.5914402  22.4219346
   4.8383424 110.7139587  21.4773798   5.2626938 109.6975517  22.5155663
  65.5773115 107.9319382  15.2534401  64.7680950 107.4263382  15.1775122
  65.8874893 108.0242252  14.3526042  86.8885136  93.6666489  12.0828271
  86.5066814  94.2464733  11.4238572  87.7919006  93.5377407  11.7938590
  75.0702190  80.8114815  21.7407608  74.3880129  80.2414131  22.0955133
  75.8591795  80.5721092  22.2270417  92.9890060  67.4281597  39.0517831
  93.1680775  67.4373436  38.1115270  93.2659340  68.2921696  39.3567872
  95.1542473 107.7767754  29.0361428  94.3663502 108.1278419  28.6211562
  94.8471832 107.4196339  29.8694444  91.5924931  95.3427696  33.5909319
  91.1400795  95.3068733  34.4337010  91.6807365  96.2777996  33.4061003
  93.1918716 109.7892475  10.9033060  93.6525154 109.9705029  10.0840437
  92.7446747 110.6091499  11.1131024 100.0385475  14.0644538  35.8803535
  99.1871262  13.8248992  36.2463140  99.8515606  14.2964065  34.9707007
  12.9811537   4.4932851  51.3217592  13.5515213   5.0071806  50.7500744
  12.7310908   5.0999570  52.0186424  60.5199814  83.1445312  45.2949810
  60.1140976  83.9504051  44.9755192  59.9893379  82.8923512  46.0506630
  85.9928417  99.5340824  27.2018528  85.5659676 100.1733589  26.6314793
  85.2817535  99.1727734  27.7310371  54.5764160  40.2757931  89.4025326
  54.7574949  40.4780865  88.4846401  55.3668118  40.5487251  89.8683834
  25.8444595  20.6212282  29.8572850  25.9430075  20.2279401  30.7243752
  26.3678455  21.4217043  29.8964691  49.1975880  89.2226315   4.4916624
  48.7118244  88.4876060   4.8658350  48.6995602  89.4665051   3.7114525
 100.0201416  55.5838919  23.5224056  99.7149372  56.2093449  22.8652215
  99.2260456  55.3154421  23.9845562  95.4646015   5.2163410  20.8543015
  95.5382824   4.5365566  20.1844525  95.1961231   4.7464868  21.6438532
  74.6969175  85.3660870  31.4651680  75.1328182  85.8881664  32.1387053
  74.9299860  84.4617081  31.6749597  21.0691762   4.2960608  27.0262289
  21.9113612   3.9944375  26.6856742  20.8050489   4.9946442  26.4275217
 113.9048386  91.1782932  48.5501337 114.2217350  90.7730579  49.3573427
 112.9635334  91.0045624  48.5484409  96.6751671 111.9273090  36.2955809
  96.0196877 111.9796181  35.5999994  97.4366379 111.5254307  35.8773780
 104.6916103  28.0145431  18.0050826 105.0988674  27.2701216  17.5621295
 103.8266850  28.0892301  17.6019001  78.2809973  96.2844086  42.9837132
  78.8626194  96.0316658  43.7006998  78.1433392  97.2236347  43.1066990
  43.9376450   7.6653093  39.1142821  44.4390154   6.8501914  39.0932322
  43.6216021   7.7753329  38.2174873  74.1941833  74.7894716  37.1286535
  73.4650707  75.1874065  37.6043391  74.9687004  75.0182247  37.6424861
  21.2766337   8.3110625  27.6887560  21.3517857   9.2457646  27.8808928
  21.0166335   8.2759148  26.7682147  65.9621096  77.5710297   0.1333765
  66.5252066  77.9063749  -0.5642600  66.0468102  78.2125330   0.8387329
  64.2673683  77.5587797  13.1166291  64.9889994  77.1665716  13.6082137
  64.6946621  78.0502844  12.4151492  85.9660339 102.3606491  14.6404195
  86.1714649 102.1731091  13.7245262  86.8072701 102.2964478  15.0925624
  22.4200869  56.3869381  78.4701967  22.2923779  57.1673298  79.0095568
  21.6365361  56.3437510  77.9220915  88.0508709  65.3160334  12.1032023
  88.0739021  65.6315708  11.1998010  88.2735443  66.0831690  12.6306009
 102.0234108 103.0995846  14.8124349 101.9609928 102.9601479  15.7573664
 102.4850368 102.3270702  14.4863153  78.9508963 106.4714146  11.6988361
  79.3715239 107.3305225  11.6636586  78.3302879 106.5381145  12.4245262
  77.7662611  92.5473022  28.6011839  77.3726654  93.3598995  28.9189982
  78.6096430  92.8161335  28.2369518  85.2072334 111.5676308  23.1057000
  85.6887531 110.7415199  23.0620027  84.5022964 111.4680958  22.4658632
  41.3275433  26.2484550  94.4193745  40.5803061  26.8459678  94.3902493
  41.1668348  25.7012606  95.1881218   9.6664476  95.8684921  36.8731523
   9.6014911  96.7991257  37.0874572   9.1139603  95.4339600  37.5228977
  78.8097906 100.9442997  22.2594166  79.6082115 100.7219982  21.7805266
  78.1021118 100.5814266  21.7267370  60.4037094  92.4265003  41.6358280
  60.3024626  92.7509212  42.5306654  59.5465517  92.5642967  41.2326813
  78.7022209  88.0441952  35.8928323  78.1174564  87.5441360  36.4622402
  78.1158161  88.5783577  35.3570795  75.3513575  93.6449051   5.5221003
  74.5069456  93.9380932   5.1796955  75.7137728  94.4160557   5.9582233
  98.4515476  92.8129959  15.5023229  97.6239777  92.5509834  15.9056950
  99.0452003  92.9496002  16.2406600  79.9572659  88.2535744  42.4742842
  80.2867508  87.6424694  41.8153334  80.7386398  88.7034702  42.7956676
 100.5668068 100.6468678  17.7592289 101.2529182 100.0137329  17.5480163
  99.8042107 100.3477669  17.2640300  97.5362450   0.1679682   4.2099062
  97.0795161   0.5198836   4.9739608  98.4134108  -0.0415635   4.5307028
  60.0828075  99.9124241  31.4509010  59.4013357  99.7856998  30.7907724
  59.6110964  99.9196720  32.2837687  84.5939159  70.2075863  29.6614671
  84.3991566  69.2821407  29.5136428  85.0057888  70.4985952  28.8478923
  94.1035175  89.0382099  16.1773336  93.3808613  88.6136436  16.6396642
  94.8281574  88.4162617  16.2429774  72.2237444  71.7695284  26.1678672
  73.1311941  71.5521908  25.9544754  71.8491030  70.9480476  26.4857459
 101.2236691  98.8182449  44.4772005 101.3636398  98.0932903  45.0863695
 101.7660713  98.6019039  43.7187672  85.5490494 109.5260334   4.9200955
  85.6366730 110.0079536   5.7424760  86.3761330 109.0525723   4.8306501
  97.7295780  87.4198818  29.5827794  96.9560814  87.4849606  30.1428628
  97.7018261  88.2100868  29.0432978  89.6028137  83.3700275   1.5644835
  89.4929695  83.4368706   0.6159585  90.5184269  83.1170654   1.6823293
   4.3659765  12.0470762  38.0795312   5.2874237  12.2712004  37.9493952
   4.1895375  11.3701749  37.4261498  56.5555859  39.8704958  96.6053104
  55.7618237  39.6239996  96.1305332  56.2676907  39.9827147  97.5112629
  86.6786766  24.9511266  44.8766565  86.3287544  25.2506828  45.7157326
  85.9064007  24.8324585  44.3237209   9.2287189   2.0109908  33.4822130
   9.1590178   1.0942555  33.7486148   8.9433146   2.5059488  34.2501926
  94.6328068  72.2603416  33.8188696  94.1067600  71.9270563  33.0919361
  94.4443226  73.1985474  33.8405037  97.9432106  95.8565712  64.4248056
  97.1870232  96.4290047  64.5541430  97.8040600  95.1339436  65.0369215
  80.6725883 104.3537903  11.6447437  81.2737274 104.9719238  11.2290883
  80.0405216 104.9065781  12.1042526  61.4490747  79.7649288  13.3428121
  61.9612980  80.4545593  13.7650371  60.7751894  80.2341557  12.8509510
  70.8630848  76.8260717  30.4504108  70.4920435  75.9511280  30.3362584
  70.2647352  77.4036741  29.9765086 105.8882236  17.5721383  46.7851686
 104.9732208  17.7658761  46.9888020 105.8510303  16.7864859  46.2396431
 103.2646847 102.8520966  38.0870628 102.4124432 102.7023029  37.6778126
 103.3194542 102.1895409  38.7757230  88.3239365  75.0010109   0.4705784
  89.2668724  75.1656151   0.4707957  88.1350899  74.6911764  -0.4151835
  82.9923916 101.5752888  13.4502733  83.4935284 100.8390522  13.8010776
  82.6253891 102.0049953  14.2228568  90.7303238  88.6219788  29.4243741
  90.2162075  88.7078476  28.6215425  91.5370941  89.1048336  29.2449450
  65.6556082  95.1880646  16.8323100  66.0646248  95.7992458  16.2196207
  65.5670643  95.6865501  17.6446533  67.2906113  92.9682636  15.7010424
  66.4548826  93.2968235  16.0324597  67.9482603  93.5309887  16.1097860
  87.0511627 100.3007603  30.4887652  87.1284294 101.1818123  30.8548284
  86.5643024 100.4219341  29.6735907  79.3263721 101.8548489  26.1830711
  80.2252007 101.5267849  26.1564088  79.3104124 102.5623322  25.5385113
  76.0938501 107.1006775  27.2163558  76.8995667 106.6308880  27.0010662
  75.4252052 106.6947460  26.6646624  76.8400097 110.5551815  34.6773887
  77.7302027 110.6229496  35.0226378  76.8984127 110.9146881  33.7921906
  94.6836185  89.0741062  20.6958747  95.0043964  89.5919132  21.4342546
  93.7407875  89.0028381  20.8449674  75.6860638  98.8531494  19.5017254
  75.7890415  99.7796822  19.2845440  74.9530935  98.5602474  18.9602482
  81.2884045  77.5661612  24.0194058  80.8790207  76.7660904  23.6899757
  81.6700745  77.9768610  23.2435918  81.6216946  65.8801413  13.9855385
  81.4095688  66.6103411  14.5669544  81.5534973  66.2479210  13.1044483
  79.9521446  81.5281773  34.3037462  80.4013538  80.6873131  34.3897271
  79.1636705  81.4342594  34.8382783 102.6964092 109.9802971  29.8209500
 101.7812538 109.9517536  29.5418477 102.6546860 110.1531315  30.7614946
  80.4261208  74.3796825  17.8203130  80.6392670  73.5720491  18.2877755
  80.6011105  74.1777277  16.9011688  73.6314106  99.9549484  16.8345726
  73.1056070 100.2691746  17.5701177  74.0935802 100.7323742  16.5211463
 102.0288563 108.2356167  23.2769465 102.7981567 107.9272270  23.7557960
 101.6237068 108.8761520  23.8615870  88.5486412  79.7279453  37.4615002
  89.4616222  79.9857712  37.5888538  88.3670998  79.9344730  36.5446472
 101.0255146  75.6984520  10.7219791 100.7013893  75.0024033  10.1504087
 101.0857964  76.4663744  10.1537371  67.7495193  99.1130257   4.0925443
  68.2608843  98.3554649   4.3768662  67.2046852  99.3316364   4.8485851
 112.5144100 109.4638824  38.3159065 111.6170311 109.7969723  38.3171868
 112.5242043 108.8046646  37.6219630 106.5032387  67.5824356  23.6187530
 105.6965828  67.7892494  24.0907264 106.2869072  67.7308846  22.6982117
  65.1599026 102.5391006  38.4730363  64.6594095 103.0663395  37.8503275
  64.5360041 102.3347092  39.1696000  89.9655724  79.6731615  11.6874969
  89.2935944  80.0050926  11.0920978  90.0898838  80.3767300  12.3244905
  96.9558144 108.0329895  33.0509663  97.8588867 107.8201675  32.8155947
  97.0313072 108.5290813  33.8660955  87.9224396  90.5775166  11.2533319
  87.6780128  90.6913757  10.3348958  88.2404613  89.6762657  11.3065875
  71.7109632  99.9673939  30.6626344  72.3012114  99.5931816  30.0085664
  71.3391018  99.2083454  31.1118507  86.8343163  96.2637329  22.8186345
  87.1280193  97.1063423  23.1650186  87.6279259  95.8589745  22.4684954
  87.3603249  99.9358273  36.3490701  87.2015381 100.4877949  37.1148062
  86.5112400  99.8852348  35.9100676  96.1377621  80.9482384  36.9972348
  96.7601299  80.9625340  37.7243400  95.9078407  80.0244904  36.8968964
  57.4993610 101.4644051  20.2356172  58.1408930 100.8008480  20.4892969
  56.8102694 101.3963509  20.8964872  88.3809090 103.6229038  54.0319538
  88.3486843 102.6795864  53.8727188  88.0754471 104.0145016  53.2136822
  96.9826984  95.2637577  14.8565102  97.6110840  95.1265621  14.1476083
  96.9543076  94.4251156  15.3170514  85.8289337  86.1201954  16.4906979
  86.4511395  86.5913391  15.9365177  86.3316154  85.8882046  17.2715461
  81.8276501  81.0712624  37.7605581  81.4471912  81.8604946  37.3750639
  81.1833858  80.7868481  38.4088302  85.6464672  93.3776855   6.6880518
  85.2414513  94.1811562   6.3615119  85.8305264  93.5596466   7.6095963
  77.9269171  71.9703865  28.1390762  77.5241375  71.4010382  28.7946963
  78.8640499  71.7873335  28.2061505  79.6746683 110.8650684  34.7197318
  79.8066664 111.6241074  34.1516900  79.9611187 111.1600876  35.5841041
  83.4797096  85.1670265  10.6845772  84.1707993  84.5695782  10.9703708
  83.2552528  85.6666374  11.4695871  72.6414442  81.1533546  17.6538491
  73.5353804  81.3168907  17.9544604  72.2573042  80.6004906  18.3342922
  91.8087006  97.9935646  33.1672525  92.6947212  98.2286549  33.4427929
  91.2428856  98.6169147  33.6227989 111.5843391  95.4848003  28.3476830
 111.4001656  95.7493114  27.4463797 112.5344753  95.3719234  28.3747745
  76.9961309  72.2396135  18.1859744  76.5725994  73.0185509  17.8252637
  76.4337969  71.5139961  17.9148889 102.8047752  99.4735527  37.9083991
 101.9511795  99.5200062  38.3390355 102.6602364  99.8656368  37.0472288
   3.2520041   6.7983836  44.1043663   2.5824466   6.5474951  44.7407484
   2.7884048   7.3490530  43.4734392  86.0937214  90.8654213  21.1813259
  86.5246296  91.6570473  21.5036368  85.9264565  90.3465271  21.9680905
 102.0301723  87.6575851  39.1944838 101.2316990  88.1812000  39.1273880
 102.1610546  87.3064613  38.3136821  80.4789639 101.3441849  63.6493015
  81.2453270 101.8202114  63.3294249  80.8424664 100.6105423  64.1451454
  99.1883087  93.3981419  20.3745103  98.8875294  94.2721653  20.1258254
  98.9832115  93.3305836  21.3070345 118.3336258 103.6447144  33.3048391
 119.0387440 104.2718697  33.1444430 118.6236000 103.1489849  34.0706110
 114.1446590  62.6217985  50.8576155 114.2510033  63.1198263  50.0471306
 113.5457611  63.1493378  51.3860655   3.9072666  97.5034428  69.3853617
   4.3247131  98.2202911  68.9077616   4.6095634  96.8684864  69.5261908
   3.9657697  23.8519883  28.6423826   3.0505288  24.1264939  28.6990619
   3.9267537  22.8968382  28.5934091   3.7021315 106.4865398  26.2812495
   3.1547377 105.7216835  26.4589763   3.1442589 107.0646095  25.7608247
  45.1744175  18.4578598  35.2763629  46.0695934  18.3681011  35.6032228
  45.2538300  19.0331340  34.5154524  90.7214451  98.7886429  74.6102047
  90.9633255  99.1278172  75.4719925  91.3813972  98.1214905  74.4215202
  59.5406485   8.2661587  25.1952672  58.9248896   7.9254067  25.8440852
  58.9938068   8.7527978  24.5785189  67.7567387  15.6828141   4.0750977
  67.3247433  16.5309203   4.1767240  68.2753372  15.7724547   3.2755646
  75.2493429  20.3648567  30.3444886  75.6270313  19.5502615  30.0127959
  74.3361187  20.1469493  30.5309653  37.9373837  17.0872927  32.2023916
  37.0859909  16.6709507  32.0681524  38.0867767  17.5905252  31.4019704
  64.1615725   7.4319834  12.6834941  63.7810802   7.4090409  13.5615206
  64.8120785   6.7297947  12.6859331  51.0324383  21.3518143  43.7142420
  50.6388330  20.7251072  43.1071663  50.4466534  22.1084714  43.6905670
  79.4712114  51.2562990  12.3499882  78.9757824  51.9411945  12.7991009
  80.3829002  51.4250612  12.5878620 104.7083473  85.8465958  90.7754707
 104.8947048  86.1853218  91.6511250 103.8704681  86.2439728  90.5382538
  65.0862408  12.0384920  17.7710640  65.4849148  11.8337584  16.9252670
  65.8172750  12.3291540  18.3163476  59.5034504  23.9779592  25.5288577
  60.0046396  24.7577286  25.2901125  59.9166584  23.6647058  26.3334465
  48.3491325   2.8499299   6.4939606  47.4410582   3.1301737   6.3795179
  48.7951803   3.1544626   5.7036865  51.7667198  34.1862178   6.7137152
  52.1427631  35.0277281   6.9719487  52.5067902  33.5792756   6.7260754
  25.8334827 112.3143101   4.1669896  26.6406655 112.1953678   3.6664513
  25.5794549 111.4284897   4.4258642  75.9016991  16.8724287  -0.0123553
  76.6860580  17.0382333  -0.5353450  76.2103081  16.3381970   0.7194838
  37.0990515  13.0381835   4.7519186  37.3385096  13.9631271   4.6938530
  36.1549234  13.0248821   4.5948330  58.8095760  34.8066545   7.2561121
  58.7603903  34.6039271   6.3219208  59.7459650  34.8978543   7.4324334
  52.5642014  40.9656763   2.7651864  52.5070238  41.1424780   1.8261960
  52.1049833  41.6985846   3.1753048  46.5592861  16.8344307  19.1630113
  46.7591619  17.7438951  19.3847179  45.6058359  16.7767704  19.2250347
 110.7350731 102.5419712  88.2342911 111.1638927 101.9683361  88.8693428
 111.3411427 102.5753212  87.4941635  67.6772308  19.9014568   2.4568117
  68.4904432  19.8063600   1.9609603  67.5890207  20.8447170   2.5936025
  40.5976486  17.3015428   9.1293550  40.1720238  17.9983580   8.6298305
  40.3469610  16.4956641   8.6777490  49.0631199  19.6257782  10.6130040
  48.2975864  19.2620337  11.0578394  49.5288944  18.8613069  10.2740788
  49.7703886  47.4190617  42.3171759  49.9786901  46.5198803  42.0635700
  50.0973272  47.9538107  41.5937233  40.2011061  48.6970949  39.8763204
  39.4777751  49.2483330  40.1749134  39.9270511  48.3896160  39.0122700
  56.4989328  32.8416705   7.1402490  56.8947697  32.0173192   7.4230742
  57.1938610  33.2872319   6.6557068  69.3704700  48.2871962  20.4262209
  69.1462088  48.7684631  19.6297765  70.3275204  48.2847452  20.4431105
  56.5514183  26.6686034   5.8425254  56.2259245  27.3190713   5.2202904
  57.5042295  26.7213845   5.7677311  77.3952818  11.8580580  28.3469296
  76.9559050  12.7074587  28.3881283  78.0209208  11.9466531  27.6279306
  58.9749002  47.1946955  28.8820267  59.3999958  47.7854109  28.2602668
  59.6646214  46.9661045  29.5051384  17.1646333  97.5498009   8.0932266
  17.8965378  97.1569252   8.5688210  17.5764990  98.0356503   7.3786950
  49.7738981  42.8516960   5.6784868  50.4961777  42.2812653   5.9414566
  50.0112963  43.1493330   4.8002580  40.6939125  34.9989891  25.5228353
  40.8006907  35.8673739  25.1345825  41.5319109  34.5629144  25.3684521
  96.9866943  75.7367086  94.9288940  97.3463440  76.6024590  95.1221848
  96.0785675  75.9052515  94.6776199  80.2977180  94.1653347  95.6762981
  79.4459820  94.5153999  95.9375095  80.8856487  94.9201775  95.7040882
  42.3800850  24.3186879   7.9312474  43.0063677  24.9452734   8.2937270
  41.5277290  24.7393179   8.0443376  63.8424587  25.3479147  11.4066172
  62.9328537  25.4082847  11.6985202  64.1376972  24.4923377  11.7181504
  38.6798024  59.3147993   6.7502111  38.7456083  58.4059763   6.4570498
  38.7074828  59.8292875   5.9435081  42.0431232   7.9205483  55.5879688
  41.8534040   8.6141181  54.9561501  42.7912569   8.2489312  56.0866594
  59.1627026  58.0393553   3.2632715  59.7886515  58.3664894   3.9093393
  58.3093309  58.3219194   3.5921329 106.7629528 103.4974957  90.8073425
 106.9918537 102.6017284  90.5594730 105.9616470 103.6840439  90.3181171
  40.1633263   9.1368937  15.4502571  39.4579363   9.7710758  15.5785871
  40.5796432   9.4042599  14.6308494  64.5944500  12.4288774   0.9710360
  63.9427471  12.3254883   0.2776178  64.9823666  11.5590572   1.0667734
  66.5043449  39.7307491  15.5118883  66.0883284  39.1557598  16.1541891
  66.0993862  39.4912791  14.6782851  67.7967453  95.7268906  88.9181519
  66.9631243  95.2807522  88.7689304  67.5512362  96.5788746  89.2788124
  50.6554127  41.0659742   8.7779039  50.3385496  41.9655704   8.8588476
  51.4674234  41.0515547   9.2845213  58.4662342   4.0711853  10.6222165
  58.7482166   3.2838634  10.1565528  58.9378309   4.0389889  11.4545584
  51.4513016  41.8804121  19.9792981  50.5256510  42.1226358  19.9522257
  51.4594364  40.9432650  19.7845769  61.3713980  36.1835599  16.9729555
  60.7413340  36.8853474  17.1364903  61.9914055  36.2441683  17.6996958
  34.9671125  39.7829890  11.6120195  35.4295158  40.4031038  11.0482156
  34.0696263  40.1139784  11.6466248  46.8087101  36.2553549  35.8023596
  47.6763868  36.6587496  35.8276844  46.3412523  36.7354059  35.1187873
  83.6101539  67.1816811  97.2182639  84.0247066  66.3684400  97.5063906
  82.7617033  66.9077000  96.8699908 106.2065983  50.7924747  20.8135819
 106.3284206  50.6244469  19.8791504 107.0526505  50.5796814  21.2074852
  46.8659687  27.5800776  12.1335268  46.7636204  27.1580958  11.2804818
  46.1797667  28.2470965  12.1546555  89.6664524  32.4474096  15.4566884
  90.5951500  32.3223352  15.6518924  89.3285942  32.9395604  16.2049353
  35.4186726  42.3483944  31.4313364  35.2205801  42.0631409  30.5393600
  36.2258387  41.8860102  31.6569734  53.5597277  36.1553240   7.3800159
  53.9742327  36.9576049   7.0625836  54.2113924  35.7627130   7.9609013
  98.4201241  86.4045238  72.2576952  98.3621407  85.5685616  71.7950535
  98.0270767  86.2324905  73.1133556  62.8457642  36.5248418  22.1234870
  63.7546539  36.2712502  22.2842336  62.3802042  35.6948829  22.0202923
  38.1085587  18.1179953  29.4986820  37.7913141  19.0184093  29.4291067
  38.3207297  17.8686321  28.5992169  37.7098560  19.4828117  11.3063705
  37.7951336  19.7728968  12.2145617  37.4870300  20.2772331  10.8211112
  77.9228306  54.7105885  35.0684452  78.2818985  54.1479015  35.7545114
  77.5791645  55.4708242  35.5376625  89.6654129 101.8443871  90.2748775
  89.6431541 101.9414330  89.3228722  88.9585400 102.4078369  90.5896568
  62.2422123  28.0198216   9.5946401  62.4768353  28.8113856   9.1102755
  61.5308475  28.2949471  10.1729989  53.2679796  15.9387398  15.5910361
  52.3394871  16.1339056  15.4643869  53.2754898  15.1057923  16.0626006
  54.8619175  33.8467813  47.7588177  54.7298527  33.2291031  48.4780312
  55.8087206  33.9849973  47.7326107  49.3963671 108.0113029  90.3743744
  49.5583725 107.4594116  89.6092510  50.2461433 108.0709648  90.8108997
 112.0503426  82.1049404  83.7372494 112.6741886  81.5948391  83.2206821
 112.1702290  81.7927456  84.6341324  67.0362902  39.3479848  38.0739832
  67.1167946  38.4097815  38.2458067  67.2414064  39.4395423  37.1435118
  38.7837887  31.9074512  10.1299024  38.4684348  31.1612916   9.6199709
  38.1524181  31.9933891  10.8441985  56.7860603  48.1266356  17.0477641
  56.9990921  47.8594255  17.9418838  57.5367403  47.8409100  16.5271115
  45.3410673  39.1298890  37.6043582  44.7206831  39.4544530  38.2570553
  45.3139925  38.1779408  37.7007461  29.8507214  40.8805037  27.3814607
  30.1922870  40.5523205  26.5496778  29.1878319  41.5239859  27.1309853
  55.8747482  45.2261496   3.4673649  56.5476322  45.7429981   3.9104527
  56.3615894  44.6707678   2.8584588  54.5034695  13.0938029   2.9951984
  55.3254032  12.6245451   2.8521758  53.8778353  12.4119425   3.2399008
  36.2666798  21.5305758   9.8582458  35.9843612  22.2192240  10.4601550
  35.8522940  21.7558050   9.0253073  64.9492407  45.8859253   2.3589195
  64.5398474  46.3751745   1.6452950  64.2413521  45.3528786   2.7208388
  46.2325239  40.7359838  18.3878732  46.2897348  41.6791153  18.2347178
  45.3007936  40.5351114  18.2997799  51.9524288  33.5839605   9.5510864
  51.4456654  33.4088898   8.7581354  51.3296461  34.0016222  10.1460087
  62.1510172  27.1695781  35.2395463  61.7021751  26.9504809  34.4229865
  62.6150417  27.9842591  35.0466561  65.6287050  21.4524746  36.4760542
  66.0521269  21.3596773  37.3294783  66.3040543  21.2030911  35.8452296
  51.8050241  50.6872320  19.6031737  51.4994860  50.0101089  18.9995337
  51.0091019  51.0046721  20.0297523  67.8557777  36.2425327  30.5886936
  68.3294296  37.0386767  30.8296084  67.8343010  35.7239723  31.3929749
  55.7415199  19.3633556   4.8124975  55.7739258  18.4087646   4.8752502
  56.2798214  19.6697700   5.5422753  46.5247774  52.4767923  17.5964594
  45.7943773  52.5843906  16.9872236  46.3922501  53.1610918  18.2525098
  38.3355618  55.8079386   3.5295394  39.0041399  55.1978207   3.2181045
  37.5077009  55.4239893   3.2406405  30.1397419   8.3028311  11.6849339
  30.1967311   9.1656262  12.0955038  30.9440565   8.2283801  11.1713493
  45.0032425   1.1080804  28.2996368  45.9475088   1.2645772  28.2897282
  44.8983240   0.3088744  28.8158679  67.9132271  48.3947802  15.8894634
  67.1104956  48.3667326  16.4100993  67.6093102  48.4523678  14.9836230
  37.2615385  30.5123615  18.4695506  36.3985848  30.1133990  18.3583200
  37.3617458  31.0827398  17.7074099  88.1470776 103.8016987  91.0760784
  88.2827663 104.7475624  91.1323357  87.5433636 103.6033535  91.7919064
  68.8301945  27.5714207   7.7040392  69.7857428  27.5505376   7.6519322
  68.5734987  28.2791615   7.1128994  59.2575455  35.0508332  19.6638048
  58.5086346  35.4173708  19.1936815  58.8865614  34.3428421  20.1904488
 108.0266190  85.5019569  91.3878536 108.8103485  84.9742603  91.5412617
 107.2998047  84.8887920  91.4974213  45.7276058  46.6536903  25.3820753
  46.4253473  46.0775614  25.6942725  45.2034283  46.1021185  24.8013568
  85.5149174  67.1604729  88.1143665  84.5975971  67.4337626  88.1225014
  85.4951668  66.2653732  87.7757740 111.2094975 101.6949463  37.7658987
 111.5837383 102.5687313  37.6533008 110.3025627 101.7832279  37.4727917
  48.7641382  22.9879761   7.3199511  48.2293749  22.3316598   7.7666181
  49.4061852  22.4780154   6.8260449  45.8965397  36.9091439  18.1826830
  45.8249712  37.8560376  18.3031178  45.8775663  36.7863059  17.2335875
  66.4224482  62.8508759   6.8611479  66.9361687  63.5242939   6.4152437
  66.5945864  62.0505953   6.3650125  49.3193197  22.8395414  22.7187133
  48.8842249  22.0633149  22.3660159  48.7619829  23.1169248  23.4458065
  49.0260839   2.1008185  16.5083814  48.2747507   1.5901527  16.2068069
  49.7794056   1.5293682  16.3594425  64.2421770  27.8924012  17.2773516
  63.5521936  27.2888875  17.5528991  64.3870306  27.6851654  16.3541496
  99.2640114  95.3563690  86.3420010  99.1620922  96.1741543  85.8551025
  99.6882629  95.6158543  87.1598721  41.3608122  60.3023577  11.0743821
  40.6686354  60.1634550  10.4279864  41.3105488  61.2353277  11.2823975
  95.7817841  33.7645030  14.2185938  95.7233143  33.1347036  13.5001493
  94.8778152  34.0411496  14.3687546  14.7262681 111.4058685   5.0089157
  14.0600169 111.8000984   5.5718762  15.0885224 112.1415710   4.5152032
  86.9831657  28.2747793  19.1159773  86.9965172  27.6390243  18.4005260
  87.0580006  29.1248727  18.6824191  89.7252178  79.6444798  96.7407227
  90.4272366  79.0899086  96.4003563  89.5795822  79.3266249  97.6317883
  61.6873884  12.7185595  13.1753004  60.8061790  12.6831686  13.5473871
  62.1339703  11.9565713  13.5443139  48.7603474  27.2933292  21.2464023
  47.8404140  27.2186065  21.5001106  49.2340136  26.7974401  21.9142056
  72.6051521  48.3247566  10.5154097  72.7111053  48.0284834  11.4194167
  71.9960451  49.0607834  10.5744159  65.5008221  41.5565205  13.6738873
  64.9103546  42.3094082  13.6466742  66.0720968  41.7271137  14.4227350
  65.5536318  43.4255457  19.7322798  66.4002085  43.1213808  19.4051409
  64.9416637  42.7277327  19.4982278 117.3672485 112.2117996  10.5864835
 117.3742008 113.0436993  10.1130641 118.0918217 111.7143726  10.2072918
  55.1134872  12.8524280  37.8839803  55.5274010  12.6742768  38.7284756
  55.6642342  13.5257888  37.4846148  57.7761126   9.9752468  23.6972904
  57.2308207  10.2499700  24.4344592  58.1014538  10.7935035  23.3220029
  48.0671549   6.7050219  14.5086646  48.5288620   7.4585670  14.1409314
  47.7181578   7.0212752  15.3419816  35.9832692   8.6484367  19.4898176
  35.3821182   9.1845512  20.0069547  36.2355232   9.2103922  18.7571478
  57.6008558  28.7666178  27.8620839  58.0879498  28.9092875  27.0505309
  58.2298899  28.9623189  28.5565257  71.4105844  42.3815250  31.8217516
  72.2946405  42.0538282  31.6565418  71.4747763  43.3259392  31.6796613
  76.7635345  99.9423122  96.6454983  77.0876694  99.6458054  95.7950592
  77.5470591 100.2324677  97.1125412  66.0390234  21.8969035  10.8693194
  66.0115719  22.2899032  11.7416894  65.3273726  21.2567687  10.8724999
  36.7272115  47.0911884   3.2898089  36.0345316  47.7445889   3.3872524
  36.9378996  46.8299770   4.1862530  47.3449469  27.0321798  18.9866602
  48.0376911  27.1008396  19.6436381  47.8066301  27.0551538  18.1484771
  67.3851109  29.1784310  47.1425438  67.6840925  30.0872684  47.1133089
  66.4432096  29.2308140  46.9803429  54.1713476  31.2331319  13.9085102
  54.4774485  31.7857718  13.1893992  54.4563198  31.6901231  14.6998262
  54.5681190  43.0590391   5.8201122  54.4050169  43.9909029   5.6743151
  53.7250996  42.7109051   6.1105454  34.2995191  17.9482269  17.1673930
  33.9190745  17.2660363  17.7206659  34.8633766  17.4741518  16.5562057
  68.1131506  42.5448561  19.1033685  68.4410381  41.6705608  18.8928318
  68.8484764  43.1281137  18.9153934  72.9278278  21.9895244   1.0678435
  73.5263681  21.5175796   0.4888371  73.1211519  22.9136801   0.9103702
  93.6327648  46.8172741   6.2376183  94.5540905  46.6784286   6.0182846
  93.4409523  46.1518288   6.8983924  61.0733414  48.3267927  19.9394011
  60.6295872  49.0885305  19.5664811  61.8389463  48.6898279  20.3846955
  57.3603106  30.7999182  11.1344588  57.9131222  31.2156534  11.7961180
  57.0538807  29.9940681  11.5503192  21.8885589 110.6732464  93.2984161
  21.9144607 111.0550880  92.4210644  21.1803150 110.0305367  93.2591057
  33.6836410   3.8918895  87.2952366  32.8389144   3.4613562  87.4268055
  33.5481262   4.4580829  86.5354347   7.8387552   0.6383291  89.8266315
   8.2638097   1.4878747  89.9442482   8.3773208   0.1892028  89.1751289
  48.8115072  22.6294065  18.9873099  48.0583286  23.2111073  19.0901852
  48.4318161  21.7890763  18.7305725  26.1075974   2.7034950  78.8561535
  25.7233763   3.1537080  78.1038809  25.9176040   1.7777720  78.7039328
  94.2208576  93.6994171  95.3661919  94.3106556  92.7837372  95.6302166
  93.3018208  93.7867165  95.1132393   3.2605734  94.2930412  89.1913986
   3.1363022  93.7279510  89.9539375   2.9165950  95.1434040  89.4648552
  18.6243832  86.0088348  93.9702320  18.3726907  85.0942612  94.0984631
  18.9223397  86.0501003  93.0615234  89.9994755 105.9454250  94.4896221
  90.6235027 106.4002991  93.9240074  90.3611469 106.0408401  95.3707123
  64.5598698  54.6580505  19.6489155  63.9421511  54.8487377  20.3548145
  65.3595734  54.3840551  20.0979567  97.7019119  88.0102062  93.2129478
  97.8952789  87.2977448  92.6036549  98.5035419  88.5329342  93.2323742
  45.8456755  37.6788306   4.7602847  46.5850496  38.2593775   4.9406371
  45.0795841  38.2522178   4.7840488  57.2265053  42.2460032  21.8270659
  58.0743313  42.6876211  21.8760276  57.4259996  41.3251543  21.9958091
  61.4339256  70.9922647  28.1962037  62.3305941  70.6573915  28.1874418
  60.8934832  70.2357340  27.9685569  60.4433918  42.1862602   6.4730442
  60.3078747  41.3806868   5.9741193  60.5989456  42.8566980   5.8078033
  75.5337858  45.1948023   1.9744077  75.0964737  45.7680845   2.6039603
  75.7227755  45.7608891   1.2260357  31.3771510  50.4612589   4.0181586
  30.5663419  50.4063082   4.5239291  31.1440492  50.1213169   3.1542498
 100.8179283  95.3762817  93.9681149 101.7598915  95.2064037  93.9772129
 100.7375145  96.2608242  93.6112595  58.3509207  21.1930466  36.6952920
  58.4167862  22.1322012  36.8681455  58.6859894  21.0893536  35.8046675
 104.1403675  87.8471184  88.1885815 103.9805603  87.6737118  87.2608852
 103.2748985  88.0410671  88.5485554  97.2837353 106.6840649  97.4560261
  96.4292717 106.5777588  97.8741550  97.0817566 106.8274117  96.5314198
  94.6851349  96.3738251  95.8850098  94.5198917  95.4646492  95.6353664
  95.5095673  96.5950775  95.4518700  22.9912043 107.7967072  79.9968672
  23.2060599 108.7293053  79.9790955  22.4736452 107.6853085  80.7943344
  62.6201534  63.3314991  10.3052855  62.3391104  64.2380619  10.1812124
  62.5800705  62.9463768   9.4298959  11.4240265  91.4147663  87.9209137
  11.1631227  90.8362579  88.6374950  10.8503056  91.1703110  87.1947384
  52.7846956  59.6650076   3.9502570  53.6437368  59.8477554   4.3308902
  52.9319096  59.6878815   3.0047217  49.6224833  57.8154135  11.2416911
  48.6918640  58.0107975  11.1321092  49.7277641  56.9376516  10.8747017
  50.5929232  28.2372665  14.9738669  51.3349915  27.8147531  15.4063570
  50.9777451  28.9808178  14.5098889  80.4727554  39.5333624   4.7423473
  81.0471153  40.2626610   4.9757087  80.4679012  38.9742351   5.5192530
  73.8074827  61.1495161   3.3626378  73.1229877  61.5480185   2.8251538
  73.6177683  60.2116966   3.3354679  86.4602184  85.7450485  92.1863651
  86.5812683  86.6910076  92.2684765  86.6606426  85.5566311  91.2695408
  53.8698721  32.4944973   5.8517355  54.0596437  31.6298962   5.4874742
  54.6039057  32.6731277   6.4395446  59.9643373  45.1539087  15.0451934
  60.3273821  44.3568420  14.6590412  59.0159893  45.0370216  14.9885869
  56.2282038  50.8388567  16.5160584  56.3646173  49.9168634  16.7341292
  56.1472273  51.2760258  17.3637354  37.8234792  13.8475001  96.7183781
  37.5058675  12.9723763  96.9408989  38.6849475  13.9020073  97.1320629
  54.3946695  38.0117750  10.3083897  54.9669886  38.3860254  10.9781826
  54.9778748  37.8231001   9.5731980  74.3054771  41.9498730  13.6695373
  74.2372179  40.9984159  13.5901809  73.9365435  42.2854424  12.8525245
  94.7389984 108.0649662  96.2578678  94.1737366 108.3869267  96.9600487
  94.1539574 107.5627232  95.6906796  71.0407019  45.3660440  10.9081018
  71.6492939  46.0186100  10.5616832  70.2549028  45.4619074  10.3699911
  62.3582602  34.2833018  15.2570152  61.6160154  34.5325041  14.7063732
  62.2385931  34.7865343  16.0624146  60.7858372   1.2143404  23.6607695
  59.8626184   1.0018849  23.7977290  60.7809591   1.8578428  22.9521704
  51.7733765  30.2092338  13.3385992  52.0310497  30.2557397  12.4179077
  52.5063467  30.6020761  13.8125861  58.9388323  40.6173325  34.1846919
  58.8130236  41.0437059  35.0324011  59.6347141  41.1220312  33.7636709
  59.4063044  34.8468757  23.2442427  59.4471550  34.5607853  22.3317122
  59.6703529  34.0773463  23.7485576  72.3425150  38.0920506  33.2975364
  73.2427216  38.1540418  33.6169291  72.3410892  37.3183870  32.7339101
  48.4624100  43.0433798   9.7796607  48.5581303  42.8542089  10.7130861
  48.8518381  43.9108706   9.6699208 108.0880070 104.6117973  83.1460190
 108.9324379 105.0122356  83.3529282 108.3003902 103.9083481  82.5325966
 108.8911915  98.9393330  91.2306118 109.3805122  98.1948757  91.5807247
 109.2747784  99.7025585  91.6625690  78.2542562  41.1808777  17.1488929
  77.6678419  41.6015673  16.5201116  77.9068041  40.2940750  17.2442257
  66.9542170  44.3525839  34.1949153  66.5934372  43.6352539  33.6738515
  67.8874063  44.3575668  33.9819121  47.0397282  46.9686508  33.1360054
  47.5158024  47.0075512  33.9655089  46.1352205  46.7819691  33.3874989
 111.5795231 108.9913273  89.3723679 111.3435650 109.0063858  88.4448338
 110.8641434 109.4536877  89.8090363  97.9149818  82.2217083  96.8159580
  97.1070194  81.9433880  96.3847160  98.6126328  81.9276905  96.2302399
 111.8138790  75.5108833  90.7839870 111.0365200  75.4315853  90.2311325
 111.7343044  74.7941065  91.4133739  50.5510807  15.1084244   4.5121095
  51.4015102  15.5404818   4.5916411  49.9507427  15.8072686   4.2524177
 109.0474701 111.7530251  84.0275955 109.4477844 110.8841896  84.0608883
 109.2105389 112.0578289  83.1349945  30.8971786   7.0428151  83.0429649
  30.7845426   7.6381373  83.7840080  31.5934062   7.4403626  82.5200367
  48.9798737  15.0363290  75.6029797  48.3692122  14.4920087  75.1059532
  49.8142672  14.9407578  75.1437521  76.8720627  31.0090756   8.8340521
  76.8904781  30.1412749   9.2375547  77.0029831  30.8420467   7.9006755
  85.4872990  91.9599628  89.5285606  84.7606564  92.4942207  89.2079639
  86.1164284  92.5935364  89.8735332 103.5579586  79.5639420  94.1931820
 102.7576256  80.0875568  94.2322922 103.6984062  79.2734623  95.0943565
 106.7736626  97.8772831  93.5470295 106.5402699  98.7507725  93.8613129
 107.1348286  98.0257607  92.6731110  62.1915150  52.4822855   9.5809287
  62.4958277  52.5723171   8.6778677  61.3760281  51.9860411   9.5105237
 102.6676369 110.4361343  93.4902668 103.2772732 109.9019623  92.9811096
 102.7336788 111.3092613  93.1035900 107.1902943 108.6547661  91.2398243
 107.9882240 109.1409588  91.4475632 107.4508476 107.7349758  91.2881374
  72.0085192  43.3135748   5.1884443  72.3879147  43.5871792   6.0235655
  71.2396336  43.8732719   5.0798547  76.8508530  48.5180187   9.7122556
  76.4897251  48.2008982  10.5400538  76.9417143  47.7318811   9.1737747
 117.3258877 108.6250210  86.3022137 117.0902348 107.8012276  86.7289066
 116.6324902 108.7680054  85.6580162  18.8836956  12.8554714  85.1109123
  19.3845296  12.2420704  84.5732021  19.4720185  13.0767560  85.8328152
  38.5073471  45.2406216  33.3886695  39.3788815  45.6160831  33.2634068
  38.0061913  45.9356499  33.8153005  23.1740117 110.4137993  79.6456146
  23.8489604 110.3708172  80.3229809  23.5043883 111.0573673  79.0187979
  79.3869972  24.8530149  14.3116772  78.8470745  25.4794216  13.8296652
  79.5434284  24.1428757  13.6892128   6.7653561  94.4152927  85.0190544
   7.6510489  94.5463753  85.3575706   6.2190944  94.3373585  85.8012009
  90.9727859  84.2053032  88.0254745  90.1633072  84.3245029  88.5222435
  90.8092403  83.4341526  87.4825191  60.1423597  43.4028482   3.7957716
  60.1894236  42.7310753   3.1155193  59.4772100  44.0154219   3.4818375
 109.7471046  74.7994947  92.8477955 110.0843239  73.9263344  92.6475430
 110.2179813  75.0625610  93.6385536  57.8728580  53.2677984   0.7428439
  58.1975794  52.3793983   0.8895855  57.2839403  53.1866837  -0.0073747
  63.7419176  41.4951754  19.2702007  63.9384604  40.5585718  19.2895782
  63.2045221  41.6109705  18.4865999  78.7350464  39.6970940   8.9498705
  78.0470419  39.8259521   9.6027672  79.5498705  39.8585439   9.4255048
 111.4404774  92.9725647  79.6180105 112.3407459  93.2724857  79.7436905
 110.9768200  93.2722759  80.3999519  20.2223110  89.9482059  83.6303329
  20.7451534  90.5994511  84.0980339  20.3233719  89.1465187  84.1434860
  63.6335135  39.3860078   4.1713682  63.3148241  40.2853966   4.2473054
  64.0825844  39.2202377   5.0002760  77.2841072  38.7421584  16.4861917
  77.5264215  38.6365581  15.5662107  76.9394302  37.8868318  16.7427886
  25.7659340   1.5623187  94.4055557  26.5232897   1.5596423  94.9909115
  25.4247618   2.4550307  94.4594002   0.7997248  86.0042286  84.4655704
   0.2540762  85.9164429  83.6840343   1.6746259  86.1939526  84.1267681
  56.1297941  58.2869005   8.3406156  56.8081951  57.6450729   8.5505259
  56.5866852  59.1280174   8.3436602  67.3152447  19.1209960  21.0011983
  66.6990232  18.4256291  21.2313557  68.1620026  18.8044810  21.3159156
  84.7895050  41.4602900   6.7304802  85.6072903  41.8955469   6.4896160
  85.0526714  40.5717087   6.9700718  77.2889137  77.4622202  27.6194453
  77.9914331  77.9082441  27.1464133  77.6889944  76.6514587  27.9338169
  76.4867115  41.5384626   6.7912310  76.0585356  42.1718454   7.3671806
  76.0889578  40.6986809   7.0209944  78.4895039  73.4282970   5.8153081
  77.7801752  73.1569004   5.2327049  79.1776991  72.7782345   5.6737500
  74.5178366  39.2574620   7.2757721  74.6217680  38.5276341   7.8863311
  73.9790678  38.9030886   6.5683949  76.3068724  69.0599728  16.6912723
  77.0182800  68.7294054  17.2397745  76.6702986  69.8399544  16.2720096
  47.4010468  66.1478472   5.7470345  48.0672359  65.4610968   5.7752860
  47.7850819  66.8744087   6.2378049  74.1237259  52.5946760   0.6799332
  74.2335415  51.6440630   0.6572570  74.5280933  52.9019117  -0.1314384
  51.1869192  39.3342233  22.6427507  52.0680428  39.5881152  22.9173326
  51.2956476  39.0274096  21.7425990  72.4079561  74.5692015  11.8487525
  73.1526852  75.0914049  11.5505683  72.0408821  75.0697470  12.5774133
  52.0570183  67.4137545   0.6469700  52.4964857  67.8935051   1.3490689
  52.1940947  66.4917660   0.8646339  60.7187605  70.1152706  19.3503428
  59.9919558  69.6921539  19.8074591  61.4734077  69.9799442  19.9234223
 118.7531187  45.0389004  24.5561314 118.9234627  44.1529989  24.2361498
 119.2819149  45.1124048  25.3506136  35.6466150  41.2257290   3.2147941
  35.2416205  40.7477856   3.9385223  36.5050507  41.4849949   3.5496086
  97.0674992  79.5804691  84.0093422  96.5775967  79.2259502  84.7513294
  96.3941193  79.8927927  83.4049892  36.3440919   7.1120071  62.5086689
  36.4441562   6.3126582  63.0256414  36.5391111   6.8427151  61.6110706
  61.8518686  68.8905239  25.5803561  61.9041777  68.1590271  24.9652123
  61.0867357  68.6945105  26.1210775 113.3576298  95.8565903  85.5363941
 114.1198254  96.2052631  85.9986877 112.6489830  96.4630795  85.7514191
  73.4886599  32.2118545   5.1964188  72.5793552  32.5057149   5.1412517
  73.7400246  32.3799944   6.1045903  76.7156458  40.1782179  32.3997426
  77.4303341  39.5703888  32.2100234  77.0554590  41.0352707  32.1424127
  59.2575264  28.2924223   6.3208437  59.3376827  27.7975559   7.1362656
  59.9206209  28.9791393   6.3912636  66.2278843  64.0113544  21.3625288
  66.7288637  63.9458895  20.5495286  66.8787241  64.2360210  22.0274854
   4.5495954 106.8037128  75.2429724   4.6255457 107.6701450  75.6426716
   4.7018453 106.1930561  75.9641838  22.8416204  31.7524409  74.1725016
  22.0854926  31.3375378  74.5876598  22.5279927  32.0087695  73.3052254
  32.8737426  90.4366589  72.0031834  32.0609379  90.4033756  72.5076342
  32.6461387  90.9289551  71.2144613  54.4430208  11.2935114   9.4698787
  54.0266085  12.0852995   9.8103255  54.8213387  10.8713055  10.2411425
  61.7558575  16.5676141  87.6514816  61.3313246  16.3163316  86.8312073
  61.2261009  16.1527097  88.3322525  78.1357908  65.4778910   5.3225327
  77.2256184  65.5654812   5.0394297  78.2277966  66.1127567   6.0329634
  77.1302795  37.5790668  11.2378991  77.3131895  37.2111464  12.1024275
  77.1936607  38.5260296  11.3623071 103.3318329 108.8176537  96.2822723
 103.7643242 109.4048977  96.9022179 103.5553169 109.1714764  95.4214001
  32.4151325  41.2252140   4.8811990  31.8481874  40.9900618   4.1466856
  33.0487728  40.5096579   4.9333233  81.3789368  94.3035984  86.2102985
  82.1235561  93.7102509  86.1117077  81.6311646  95.0875759  85.7224464
  37.3371172  20.5209112  17.2742498  37.2647357  19.6898675  17.7436733
  38.1166291  20.4202914  16.7279243  66.2784290  75.4441452  11.2311649
  66.4210939  75.5044985  12.1757472  66.9177485  76.0480690  10.8533061
  67.3055029   3.8967904  10.3524482  66.7240429   3.1504121  10.4975486
  66.9589853   4.3213379   9.5676452  64.6562099  34.8956370  12.7860105
  65.2911520  35.5832386  12.5853038  63.8064528  35.3340435  12.7419662
  81.2923431  49.3624973  36.7374158  82.0575333  48.8154793  36.9148612
  81.5704632  50.2473545  36.9738579  94.9685669  93.7522507  91.9958878
  95.0809097  93.7171745  92.9458237  95.8455944  93.5973358  91.6451073
  61.9118404  41.2722683  10.7222104  61.0021400  41.3723755  10.4417574
  62.3873997  41.0563803   9.9200463 100.4973030 105.1685333  86.1429691
 101.3401508 105.3742599  86.5473366 100.7242680 104.6825123  85.3501892
 103.5562897  65.8901215  23.6541247 102.7429676  65.3892803  23.5917950
 103.8583851  65.9698915  22.7493548  54.5481825  56.8628836  16.8096232
  53.6825943  56.8221903  17.2162414  55.0515985  57.4477339  17.3759699
  93.6394691  93.1723785  87.3526573  94.4707966  93.6450768  87.3115921
  93.2521915  93.2931614  86.4856720  46.9258451  58.3988190  19.3176985
  47.0136118  57.5516844  18.8807821  46.0975552  58.3381796  19.7936106
  89.5259380 104.2621422  68.5518360  88.9208031 103.7644577  69.1016960
  88.9765358 104.9200058  68.1256866 108.9552116  68.8416672  24.3377781
 108.8880920  68.4531641  25.2100110 108.2664680  68.4120321  23.8305616
  50.5168724  34.4260049  24.9066401  50.2393579  33.7068152  24.3392015
  49.9093533  34.3960690  25.6457281  92.3382378  79.6016169  86.4164734
  92.4683285  80.2153397  87.1394253  91.6460419  79.0151787  86.7217445
  14.2078149   4.1687563  90.0895500  14.0607238   4.9587137  89.5693874
  14.8021936   4.4478124  90.7860184  69.7387886  45.6008673   7.8058469
  69.9423552  45.1368332   6.9937730  69.3102598  46.4075661   7.5197780
  73.8404989  41.7509365  18.7556016  73.9206553  40.8101082  18.5986161
  74.4613552  41.9296646  19.4618762  66.1514091  49.9295521  22.2784853
  66.0995531  49.9405146  21.3227534  66.1170769  49.0012980  22.5095773
  61.0033417  30.1699185  17.8909791  61.9269800  30.4173183  17.9347479
  60.5323124  31.0031652  17.8831446  96.2699986  53.3572197   3.4925404
  95.6934643  54.1148138   3.5919929  96.8774509  53.4201241   4.2296112
  33.3551383  29.5535398  19.9919105  33.3947039  28.9321947  19.2648637
  33.4008718  30.4137564  19.5745778 112.9773808  97.3690510  92.0338535
 113.5206413  96.5985298  91.8683434 113.5395336  97.9537773  92.5420952
  58.4568882  15.2762151  14.4965017  58.7593555  15.6320250  13.6609507
  57.7219248  14.7090471  14.2633069  96.9320202  91.6620922  83.9886284
  96.0292721  91.5511990  84.2869186  97.4641991  91.4813614  84.7634506
 118.6075306  46.4084482  21.8237877 119.5399189  46.3367081  21.6195083
 118.5804844  46.5648413  22.7677369  57.8736877  40.0551558  10.6617188
  58.4709358  40.5977201  10.1467919  58.1407738  39.1562724  10.4696035
  41.2248325  16.1744571  67.5140715  41.3530016  16.5422678  66.6396999
  41.5948296  15.2933240  67.4598503  62.8435564  46.6956186  12.2132766
  63.5352945  46.0392809  12.2966516  62.5456858  46.8449736  13.1106055
  58.4461117  51.9112825  25.7217121  59.0901995  52.1200275  25.0450969
  58.9387035  51.4171505  26.3770103 113.1566715  68.4569359  85.2158260
 112.3887062  68.3179712  84.6616173 113.0459023  69.3428993  85.5608463
  66.7122984  26.3574719   1.5763414  66.0645771  27.0502758   1.7056249
  66.9623137  26.0949826   2.4622440  56.8970776  47.5536394  10.5598915
  57.0742607  47.0678949  11.3654268  57.7634239  47.7548599  10.2060652
  69.3727922  27.7183652  10.2473378  69.0358019  27.7606058   9.3524140
  69.4662905  26.7822909  10.4241252  60.4305267  54.8323250  23.9849448
  60.4241848  55.6858873  23.5517883  59.9297142  54.9681902  24.7892857
  53.1072330  25.4456687  10.9953272  53.2449293  26.3854671  10.8767903
  52.2785091  25.3830433  11.4702237  60.4982853  44.7760582   9.5279837
  60.3822470  43.8335705   9.6483368  61.4426470  44.9127150   9.6037519
 104.5961380  37.6185179  17.2688854 104.5075130  37.4487495  16.3310385
 103.7287903  37.9182792  17.5410438  56.3661814  55.8403254   0.8954029
  56.8223190  55.0622416   1.2159566  56.7172956  55.9783840   0.0156920
  51.9694853   8.6212194  87.5618362  51.6488504   7.7229720  87.6429367
  52.3834133   8.8048303  88.4051514  50.7932568  27.6676583  19.1293943
  49.9659204  27.8992224  19.5514429  50.8672667  26.7210555  19.2506337
  99.8472309  32.2860050   8.7399060 100.3343201  31.4722538   8.6103547
 100.5039120  32.9123425   9.0443683 105.2997208  85.6297588  82.9935265
 105.5200195  86.5394783  82.7932453 105.1502037  85.2257633  82.1387386
  85.8473492  69.8641682  90.7264519  86.3194084  69.0342569  90.6583500
  85.8656883  70.0742149  91.6601467 101.7170143  88.8775635  69.9156570
 101.8748474  89.6528244  69.3768740 102.3420238  88.2291889  69.5913029
 114.1876030 101.8531418  88.8105774 114.8132801 101.2662792  89.2352676
 113.4485626 101.8950367  89.4174480  75.2920103  52.2923088   3.4098241
  75.5883694  51.9579029   2.5633174  75.0319099  51.5112162   3.8981622
  83.7800217  38.6801910  10.3077900  84.6143532  38.2751060  10.0710738
  83.3985615  38.0839372  10.9521508  60.9706926  58.4140539  19.0220213
  60.9313011  58.5171366  18.0712044  61.7381763  57.8619099  19.1714823
  54.1362524  50.0827360  20.7161784  53.2614517  50.3387117  20.4239035
  54.2097664  50.4460144  21.5987062 111.6794872 103.4853745  96.8454456
 111.0732174 102.7755356  97.0570660 112.2834587 103.5137272  97.5874996
  13.2188404  94.2075157  96.7637444  12.8984916  94.3256378  97.6579857
  13.1554830  93.2649994  96.6091728  78.5033512  39.0088224   2.5524342
  79.0203476  39.3571448   3.2788080  78.0499220  39.7716832   2.1937186
  73.1954336  65.1769638  21.4352131  73.9481688  64.8645544  21.9372344
  73.0744076  66.0817909  21.7230821  61.5569544  26.6872382   2.7544582
  61.9078827  26.0789347   2.1040359  62.2376633  26.7394423   3.4253830
 103.8656807  64.3215370   2.3223262 103.3294010  65.0420380   2.6532680
 103.8515186  63.6705446   3.0239221  78.7512207  50.8008289   9.7600281
  78.9577150  50.9628248  10.6805444  78.0607271  50.1382971   9.7824609
  72.4801016  43.7019348  26.4219022  72.2000837  44.3672276  25.7932472
  72.3731756  42.8724289  25.9563684  79.7970724 100.3007221  91.3386917
  80.4543972  99.7472477  90.9169960  80.2559757 101.1205959  91.5215874
  71.1083746  50.6013250  10.1065159  71.4117002  51.5039110  10.0087547
  70.1846170  50.6834269  10.3435028  41.7344999  56.3560200  23.8249636
  41.8343925  55.7042646  24.5188403  42.5110197  56.2431669  23.2767701
  63.7195349  32.9628205   9.3149543  64.6587944  33.1135058   9.2085731
  63.5978556  32.8666663  10.2595067  57.4038315  48.9978361  23.7458539
  57.0624924  49.0639210  24.6376801  58.3001518  48.6802721  23.8553762
  42.1529436  27.3640895  13.6180484  42.8803396  27.4652243  14.2319691
  42.4818993  26.7573524  12.9548049  54.3501902  41.0069656  19.9929106
  54.2350483  40.8238029  20.9253407  53.7849236  40.3723049  19.5525622
 115.8293819  91.6287613  84.9573135 115.1613522  91.8737221  85.5976009
 116.2049866  90.8182716  85.3011990  93.6811256  90.6982994  88.7436199
  92.7430725  90.5393600  88.8486099  93.7320614  91.5357780  88.2828999
  77.0754766  46.6721821  21.1751390  77.4956322  46.5180874  22.0212793
  76.1630964  46.8637705  21.3921309  21.5984344  26.0384512  13.8248158
  22.2110629  26.4846849  13.2401848  21.5567970  25.1427984  13.4897017
  89.3088627  39.2005157   0.8482939  89.2878628  39.9468017   0.2492563
  88.6538124  38.5955191   0.5002616  57.4782801  44.2988539  24.5793295
  58.0038452  43.9096117  23.8803983  57.3838663  43.5993767  25.2258945
 101.2013531  90.6189728  94.9656487 101.5691853  91.4381027  94.6340275
 100.4112339  90.8844280  95.4362583  83.5348988  35.7793093   4.4967732
  82.7745342  35.7617855   3.9155939  84.2792320  35.9256721   3.9130121
  82.1337128  55.5895138   5.6663764  83.0695724  55.5298853   5.8583397
  81.7790031  54.7431135   5.9384429  47.8444529  57.2305059   3.2762167
  47.8529596  57.8836298   2.5765139  48.6980343  57.3219538   3.6996102
  32.0831704  13.0928791  69.2553759  32.7345657  12.9716933  68.5645580
  31.9724584  12.2214890  69.6357107 106.8107414  83.0413914  91.9736862
 106.8468094  82.5961685  92.8202724 107.4273205  82.5589752  91.4229202
  56.0809660  33.8572025   3.1258965  55.5847883  33.5426259   2.3701952
  55.4215860  34.2469454   3.6999628  82.8336430  36.4214253  11.8686497
  82.8931904  36.1898065  12.7954936  83.4562969  35.8376241  11.4353967
  62.8050137  66.2091494  12.1247518  62.2748137  65.9663010  11.3657117
  63.0709839  65.3734922  12.5083721  60.5772400  59.8112011  11.8470871
  60.6481409  59.3573523  11.0073102  59.6466160  59.7653103  12.0663202
 105.3460217  91.3367081  94.8355007 106.2551594  91.6193104  94.7363758
 104.8361492  92.0052242  94.3779564  48.5121059  39.4076133  12.4631870
  48.5505152  39.6951842  11.5510142  49.3029118  38.8815498  12.5819767
  70.5709743  55.4873562  10.4122496  70.9600496  56.2804794  10.7807696
  70.1071548  55.0847054  11.1464036  99.4605923  85.7997608  80.1936913
  98.6829090  85.6531525  80.7321548 100.0705147  86.2563419  80.7731342
  67.2555971  54.7701883  10.1615191  66.3798094  54.3845940  10.1380849
  67.5201321  54.8197460   9.2429352  19.8651659  17.5021005  73.7380409
  19.5435131  17.8579128  74.5663977  19.7003794  18.1957424  73.0993414
  78.4282589  45.4694223  16.3391173  78.0539560  44.7374582  16.8293822
  77.9235888  46.2313461  16.6237378  51.1852789  38.2010126  13.0867147
  51.9299698  38.3658624  13.6650646  51.5811825  37.9683638  12.2468519
 104.2300701  81.8639469  26.2733698 104.0320206  82.3126698  25.4513884
 104.0207291  82.5050068  26.9526744  88.2718086  63.6338282   7.3542696
  88.2841110  63.3526897   8.2691705  87.4164581  64.0487289   7.2426718
  68.4992599  72.9900169  20.8580422  68.1003904  72.2343016  21.2893534
  69.0592051  73.3807230  21.5288925  86.5524387  62.3272228  22.9441023
  86.6010666  61.4897966  23.4051704  87.4511147  62.4979734  22.6622105
  85.4392815  58.2842875  10.1350057  85.2904797  58.9292049  10.8265066
  86.3899040  58.1751490  10.1098073  49.7916412  13.7881005  87.7282238
  49.1074944  13.4946120  88.3299160  49.4997644  13.4861875  86.8680573
  63.2802057  49.5791197  11.8175638  63.2969570  48.6238813  11.8764901
  62.3505068  49.7991896  11.7587245  81.7508793  64.4341087   4.9395868
  81.0792446  65.0458336   4.6380371  82.5211048  64.6447945   4.4117656
  69.5615530  81.9097328   1.1594863  70.3174686  81.7584610   0.5920896
  69.0514183  82.5802326   0.7051509  69.1250944  85.0026989   3.0613780
  69.9161434  84.5608044   3.3699259  68.9605808  84.6240139   2.1977985
 113.7360859  70.1728821  29.1681862 113.1764889  70.3115702  29.9322867
 114.4332981  69.5976305  29.4831705  98.4801006  72.9393816   2.0108038
  98.0197144  73.7042332   1.6654313  99.3978882  73.2087135   2.0476562
  58.5335350   8.0304307  76.9930029  57.6007271   7.9807270  77.2018814
  58.8601446   7.1432471  77.1428871  60.7854128  38.6848378  26.1971712
  61.3386393  38.1276298  26.7446113  61.3120508  38.8510346  25.4153395
  66.4762497  76.4377737  14.0963292  66.9079113  75.5856991  14.1585410
  66.5907812  76.8281221  14.9627841  76.7227125   9.4432682  94.0197468
  77.5520706   9.8775631  94.2192078  76.9352293   8.8344169  93.3123779
  14.8824561  18.9028955  92.7388573  14.9000740  18.2773495  92.0145512
  15.6154764  19.4929743  92.5635910  58.3694839  73.6170864  20.9022760
  58.4396172  74.2734671  20.2091098  59.2713308  73.3374882  21.0595107
  78.9583731  38.9944363  13.4591281  79.4562006  38.4037328  14.0243471
  79.2872524  38.8165760  12.5779712  86.5003014  54.3568325  23.4665275
  86.1989403  55.2609205  23.3768725  87.4458790  54.4312143  23.5953426
  80.5860806  57.1315193  13.4175885  79.9619293  56.8675470  14.0935981
  81.4301205  57.1584225  13.8682508  16.5438366  20.5897641  91.6236401
  15.9881496  21.1262393  91.0582733  16.5760303  21.0685754  92.4518490
  51.7466545   5.4376596  93.7265015  52.2317362   4.6124834  93.7298584
  50.8643055   5.1956570  93.4451962  76.9997978  83.4462357  23.5463166
  76.5383053  82.9486561  24.2213488  77.8814030  83.0735874  23.5347152
  72.6688337  44.7795820   7.6876444  73.2313585  45.0594997   8.4097546
  71.9868898  45.4497051   7.6416236  55.1355696   6.6099364  89.9542904
  55.8186197   6.6743517  89.2868233  54.4334936   6.1153293  89.5315742
  79.4779444  69.0283585  22.0346260  79.4971132  69.9755859  21.8981767
  80.3383827  68.8214588  22.3994160  76.8391037  55.6068087   0.5237488
  76.2138891  55.6098175   1.2485424  77.1792030  54.7122717   0.5045297
  63.7393951  43.5418415  28.5350299  63.8295650  42.6313734  28.2537031
  63.2504463  43.4914351  29.3563819  80.7193565  75.3277493  13.0304945
  81.3308239  74.8235798  12.4937022  79.9474621  75.4375410  12.4751890
  50.2807236  10.8478940  79.1378975  50.2363110  11.6966248  79.5782566
  49.7437525  10.9568965  78.3530331  84.8235321  40.5809927   1.2191494
  84.1253376  39.9295855   1.1526420  85.3069115  40.4987669   0.3970720
  38.8580799  26.0806179  89.5559502  38.9384532  25.3824568  90.2058315
  39.7541142  26.2324023  89.2554188 104.1887379  24.9474049  10.9869158
 103.9889717  25.8492494  10.7359087 103.5817814  24.7578859  11.7024028
  82.9606819  55.4237270   1.9981626  82.1602345  55.4683352   2.5211671
  83.0157185  56.2786245   1.5711370  80.6671047  51.8883514   7.8780293
  80.2552032  52.3803568   7.1677470  79.9492931  51.3955975   8.2757449
  30.2653766  16.6982007  92.5560093  29.4919038  16.6677153  93.1190681
  30.9718108  16.3506770  93.1004429  64.1987801  48.1579399  26.0547924
  64.3779850  47.3465395  26.5299201  64.1268587  47.8884268  25.1391363
  74.0161324  51.2955379   7.5491852  73.3137894  51.9447327   7.5877988
  73.6106968  50.4853773   7.8582078 113.8108826  68.8879013  16.2241316
 113.0307484  69.4193554  16.0654521 114.4252872  69.1541910  15.5401528
  85.0400066  67.0453167   1.6417117  84.3647194  67.4785566   2.1637501
  85.8623791  67.2796822   2.0718408  76.0988283  59.8054457  20.3428221
  76.3003922  60.2691364  19.5300519  76.9492960  59.5082712  20.6662726
  45.5082464   9.6884090  94.9968052  45.5093718   8.8967550  95.5348682
  45.0038242  10.3231311  95.5056381  96.3929653  54.8150635  20.8190870
  97.0188046  54.0908289  20.8132124  95.8409595  54.6484137  21.5831256
  78.5226536  58.7838984   9.1110784  78.8947821  58.3914423   9.9008465
  78.7643909  59.7084236   9.1663045  49.1300678  52.7790070   4.7969016
  48.4468365  52.2844267   4.3443391  48.6690950  53.2351065   5.5009699
  62.6920700  69.0242195  21.1230779  63.5792923  69.2131567  20.8175111
  62.3928308  69.8458147  21.5125227  84.9215698  80.5035114  15.3456700
  85.6866169  79.9731636  15.5684984  85.2523994  81.4012909  15.3177166
  82.1558380  34.8244333   0.1311495  83.1018543  34.9689841   0.1113985
  81.7812920  35.7012081   0.2160881  31.3954782  81.2862968  38.5754824
  30.4922247  81.0128117  38.4155798  31.7747188  80.5723667  39.0880394
  45.5030823  53.5477829  34.8814178  45.8333826  53.3868599  33.9975405
  46.1849451  54.0732670  35.2999377  74.6566439  55.0436068   1.8696821
  74.5211792  54.1000080   1.7830792  74.8398924  55.1748848   2.7999604
  47.3353577   2.2476278  95.6352329  46.9968271   2.6072404  94.8152924
  46.5547371   1.9759555  96.1179924  73.6923218  64.3692160  30.1618743
  73.2059193  64.1332817  30.9517980  73.5509348  63.6343098  29.5650840
  57.7677917  65.9225464  26.7176962  57.4996996  66.0772657  25.8119273
  58.5457659  65.3695011  26.6460705  63.1477261  43.3537912  12.1045578
  63.8258886  43.8315058  11.6269445  63.0050421  42.5603962  11.5884173
  49.8065424  63.0493641  32.5039053  48.9913845  63.0128288  32.0034981
  49.5547628  63.4323311  33.3442450   4.8773938 105.5038834  91.7879295
   4.0176588 105.6070423  92.1959019   5.4373556 105.1722527  92.4898529
  10.9910607  85.9173203  94.0866184  10.3933239  85.2213860  94.3597794
  11.6527438  85.4710293  93.5581970  82.2886467  53.0945253  13.0825078
  83.2392693  53.0357170  13.1778681  82.1555042  53.7812757  12.4291492
  14.2384613 106.5507317  93.5115910  14.3963504 107.3987770  93.0967045
  15.0474250 106.0595894  93.3681107  42.6162195  14.5585954  95.4069996
  42.0639324  13.9984620  94.8616028  42.5281525  15.4302311  95.0213528
  59.5603800  88.6763477   4.5208985  60.4757357  88.5442066   4.7676656
  59.1450024  87.8285217   4.6786386   7.1836084  97.7944279  91.6431713
   7.2140497  97.9149055  92.5922680   8.0826735  97.5725365  91.4009476
  22.3557305  25.5870056  68.3891201  21.7511296  26.1388850  67.8930187
  23.2254791  25.8803582  68.1176138  61.3573980  52.6334810  20.7347345
  60.6547928  52.8251314  20.1135707  60.9108067  52.5187206  21.5735531
  95.7697010  59.6597099  21.5334964  96.3157463  59.0256310  21.9982696
  95.5565643  59.2304087  20.7049417 110.6178665  80.4893780  89.0780163
 111.4091778  80.7497025  89.5495033 110.5181980  79.5576620  89.2734814
  92.0290470 106.4420605  92.9951096  92.8804874 106.4892864  93.4299088
  91.9048882 105.5107498  92.8121281  74.2262220  61.8688774  12.3323584
  73.7010002  61.9727230  11.5388894  73.6989069  61.3030529  12.8962839
  84.2185593  62.9124355  16.2861371  85.0244617  63.4289265  16.2855756
  83.7089443  63.2629299  15.5556047  12.2810149  94.1652012  92.1081638
  11.8662369  93.6257362  92.7813435  12.7382767  93.5386658  91.5472698
   7.7793974  81.8125629  79.4785929   7.2098523  82.5095749  79.8042059
   8.0478352  81.3360214  80.2641392 101.5148163  99.0451813  95.8354378
 101.7282200  99.9393845  96.1020565 100.5626869  99.0453625  95.7370567
 107.2415161 104.0312862  87.2569370 107.6462364 104.2293930  88.1014347
 107.7629757 103.3099842  86.9047546  97.7125168  78.1934452  95.4978752
  97.4308872  78.4083366  96.3871002  98.5956001  78.5568333  95.4319191
  83.9521790  48.1279087  36.3943052  84.0748978  47.8132296  37.2899342
  83.7248802  47.3441076  35.8940816  84.1583920  36.3722897  16.9906008
  84.6939373  36.6875458  16.2625682  83.7745762  35.5562019  16.6697836
  53.2767200  17.0384014  85.1299381  54.0137243  17.4542820  84.6826077
  53.1981277  17.5151753  85.9562206  41.8809462   4.9806333  88.6772156
  41.3588381   5.1915658  89.4512653  41.9496202   4.0259558  88.6875153
  95.9251213  64.8333454   4.6378556  96.5587997  65.1294374   3.9843884
  95.0720406  65.0247335   4.2481700  83.0574417  57.1812010   9.7618777
  82.4578381  57.5522375  10.4092121  83.9072514  57.5676107   9.9733841
  39.1662192  31.4636445  81.6820049  39.0931082  32.2592926  82.2091007
  38.3340549  31.4103985  81.2120056  77.1225595  80.9935188   2.6855171
  77.6508236  80.2190399   2.4922365  76.2268305  80.6623459   2.7505326
  89.3860531  50.6075478  20.1900244  88.6590767  50.2070379  19.7132254
  89.0583038  51.4695406  20.4464960  33.0901694   5.0759506  95.4158211
  32.3324609   5.6417042  95.5642509  33.0937314   4.4791502  96.1641884
  89.5621014  63.8179016  15.9765053  90.0787067  64.5331335  16.3477111
  89.9183083  63.6968851  15.0963330  68.9911079  39.4302559   4.1683093
  69.1593504  38.6104774   4.6329483  68.8803387  40.0803900   4.8620567
  88.5660839  63.9497185   4.4767946  89.1476154  63.5890818   5.1461196
  88.1452560  63.1834221   4.0870225  81.1940765  62.2004414   0.2096928
  82.0554352  61.7839098   0.1814770  81.0959244  62.4863577   1.1179062
  73.3277845  48.8866520  17.8840697  73.8622904  48.8121128  17.0935142
  73.2061768  49.8286152  18.0030358  54.2380667  21.4213800  96.2406826
  53.3651733  21.2292552  95.8980751  54.3998432  22.3303318  95.9879684
 102.2624111  33.5346198  16.3578844 102.1456051  34.2955589  15.7890594
 102.6722527  33.8868380  17.1479475  93.7331486  41.9808960  33.0792212
  93.0140972  41.5699768  33.5591626  93.3256340  42.7148867  32.6194239
 102.6383972  50.8285189  18.7672555 101.6961956  50.7056999  18.8830221
 102.7163982  51.6659164  18.3101881  87.6742840  79.5191765   4.7464374
  87.3704243  80.1936913   4.1390345  86.9290543  79.3668556   5.3275317
  53.1679010  47.7771854   5.4375756  52.2893667  47.8613806   5.8081466
  53.7556553  47.9436111   6.1745149  73.3335400  64.3628216   0.8815466
  72.7174139  63.6333609   0.8144010  74.1898966  63.9452934   0.9740467
  16.2967122 109.9209118  94.9711227  17.0156968 109.2917919  94.9120045
  16.6332495 110.6169033  95.5355453  78.6883736  49.2486811  25.9788728
  78.9274216  49.8087406  26.7174006  77.9177284  48.7685966  26.2819552
 101.8495178  79.9440289  26.2139511 102.3031616  79.9934912  27.0553732
 101.3141632  80.7369328  26.1835027  52.6279211  67.3944330  32.4674821
  51.8376446  67.8683472  32.7265167  52.4206161  66.4746714  32.6327038
  73.6030102  67.7619219  35.9406924  74.1049051  68.2455015  35.2845788
  73.3699512  68.4192514  36.5963101  94.0528393  51.4449406  10.5801356
  94.6277809  50.6862164  10.6801760  94.4313240  52.1097660  11.1554527
  32.5379872   9.3058425  95.6847477  33.0678082   9.1661739  96.4696121
  33.0326653   8.8821489  94.9833107  66.4392757  44.0754032   8.3385205
  67.1614981  43.5100269   8.6123365  66.4797592  44.0694666   7.3821956
  22.1280503  11.4980328  68.4370708  21.6137242  10.9948373  67.8058052
  21.4753485  11.9507563  68.9711618  76.9972181  91.1828518  38.0872965
  76.6191339  91.8924809  38.6066341  77.1600437  91.5745163  37.2292089
  90.8543587  52.5100899  36.0372138  91.6886234  52.0773315  35.8557057
  90.6632996  53.0055571  35.2408218  18.6346126  79.3135977  94.7461796
  19.0579569  80.0261021  95.2250767  18.8448513  79.4840240  93.8280392
  85.2965927  70.2295971   5.9033507  85.0285530  70.6511116   6.7198765
  85.9934616  69.6267509   6.1625385  65.0633478  66.4706039  21.2907839
  65.4822731  65.7009363  20.9056282  64.1739511  66.1819601  21.4954519
   3.0516684 111.1687088  84.9330044   2.6374853 111.0241222  84.0822506
   3.5216716 110.3542900  85.1120663  87.3105335  68.7632036   6.5603042
  87.0056248  67.8578043   6.5010077  88.1500912  68.7038231   7.0162028
  66.0278416  66.5675783  36.6417694  66.4296436  67.4213982  36.8023300
  65.0861597  66.7356634  36.6766429  74.0184164  62.4829102  27.9313827
  73.3674717  61.7811251  27.9307294  73.7126493  63.0938339  27.2609258
  79.2711639  60.3228998   2.5686947  79.8649693  61.0730791   2.5394627
  78.4310055  60.6928825   2.8397655  82.5487232  76.8758297  16.1273730
  82.4683285  77.5206280  16.8302274  81.9326305  77.1732330  15.4578805
  66.9284916  54.0922928  21.0460305  67.3712969  54.6490192  20.4055548
  67.4626064  54.1655874  21.8369651  38.9767170   1.9645576  86.8054295
  38.5848355   1.9988681  87.6780605  38.4653997   1.3032648  86.3390923
  23.6664224  17.4806643  86.2099171  23.1004810  18.0234635  86.7588329
  23.8068533  18.0032086  85.4203224  65.0516224  62.9157686  34.0302944
  64.8188353  62.0087290  34.2285776  65.7554007  63.1223536  34.6453142
  52.0872927  81.1013412  22.5243855  51.5180349  81.1230373  23.2936120
  52.2929525  80.1741886  22.4046922  53.0841875  36.1517811  97.0087242
  52.4559307  35.4799056  96.7439461  53.5925245  36.3295293  96.2173748
  63.3641100  57.1721840  11.8068850  63.9600086  56.6175222  12.3103547
  63.8471508  57.9886532  11.6792905  28.5560298  29.7850370  88.4874725
  28.5944319  29.6717525  87.5377750  27.6434994  29.6049070  88.7134647
  81.5348721   9.6756405  30.1656795  81.5376091   9.6708214  31.1228633
  81.8919849   8.8219678  29.9208426  89.6267509  36.8127799  12.0383620
  88.7735462  37.2451377  12.0749927  90.2278519  37.4338746  12.4496377
  79.7438145  62.5418329   6.1678356  80.5173206  62.0865154   6.5004122
  80.0632954  63.4109259   5.9252757  56.6877747  71.8966532  24.0762854
  56.3359022  72.7251768  23.7507653  57.1568251  72.1334934  24.8763657
  72.5681925  54.8591709  21.1484742  71.6168737  54.9062824  21.0535741
  72.9074430  55.1161242  20.2910852  53.9923859  48.4632635  12.7198935
  54.2167282  47.7726221  13.3435273  54.7667313  49.0254688  12.6963282
  84.0015888  69.9250984  23.8892794  84.8436165  70.0052881  23.4411764
  83.5524273  70.7499313  23.7045074  67.3289394  69.8384094  10.9299934
  67.0179796  70.2442455  11.7392111  66.5822124  69.3289328  10.6152487
  65.2756929  77.6728392   7.6694524  65.5339813  76.7823553   7.4316436
  65.3988504  78.1802607   6.8672144  30.4582715  25.3599358  86.6955185
  30.9670568  24.5567155  86.5850353  30.8624029  25.7983565  87.4443150
   0.2414429 103.4047794  95.7961941   0.7733701 103.0328369  96.4997196
  -0.0892389 102.6442242  95.3182507  57.9543352  75.3209829  18.7340868
  58.0627155  75.1952219  17.7913940  58.7167978  75.8369493  18.9961135
  47.2355747  82.9045582   3.2804790  47.8652239  82.5140095   2.6744688
  46.3970661  82.8513050   2.8218946  63.0008745  75.7508039  17.6121151
  62.0803785  75.4907560  17.5761378  63.1128597  76.3392973  16.8655455
  32.8284740   5.9589934  85.8678246  32.2911453   6.2645364  86.5986824
  32.5994682   6.5403777  85.1427174   1.0006093  45.9444761   8.5209960
   1.3474242  46.4025927   7.7554369   0.3446600  46.5416431   8.8806540
  27.0208287  18.8972223  83.1045723  27.0594954  19.8523521  83.1542015
  27.6784587  18.6646330  82.4490833  30.2933860   9.5750672  89.3921661
  30.6690526   9.8219025  90.2372551  29.3476868   9.5792872  89.5400333
  44.4704294  57.0189285  20.1916504  43.8292551  57.7256536  20.1163292
  44.0857458  56.4130259  20.8249998  36.2302399  17.8965390  95.7231236
  35.2829003  17.8222978  95.6079483  36.3465571  18.0443871  96.6616535
  57.1324682  46.3623142   0.1989456  56.5438652  46.7210197  -0.4652176
  56.6509008  45.6240749   0.5722006  14.4400024  98.5605335  95.8106899
  14.2935801  99.2426300  95.1552963  13.9658403  98.8657951  96.5841293
  38.9827085  35.5076528  95.2139664  38.2361269  35.0567341  94.8196030
  39.1239786  35.0549889  96.0454464  85.0908947  55.6453419   6.3388801
  85.0657177  55.7444477   5.3871572  86.0045052  55.8092928   6.5726733
  89.6651745  73.0566359  14.0837550  89.5715141  72.1107578  14.1967714
  90.3060436  73.3147144  14.7462618  61.6851091  57.2369623  27.8692341
  61.5040731  56.7324877  28.6623073  62.5937605  57.0267391  27.6538491
  65.0293350  59.0455627   4.1738674  65.6879330  59.7377157   4.1155124
  65.3006554  58.5195971   4.9261844  76.6353798  61.6791391  18.0212915
  77.1145391  62.5075388  18.0015934  75.7321215  61.9199514  17.8154576
  83.1378841  69.9337959  26.6412783  83.4064484  69.9744654  25.7234263
  83.7153339  70.5532312  27.0874667  76.7237377  46.0810566  31.7036891
  75.9499359  46.0259724  32.2644329  77.4517393  46.2085104  32.3119640
  54.6294594  52.4639988  26.4709830  55.0177193  52.8690052  25.6954479
  55.3694534  52.0652246  26.9288206  61.6396427  79.4843435  26.5609002
  62.5602722  79.3991280  26.3130832  61.6224051  80.2246857  27.1673918
  47.7813244  42.0008993   7.1692532  47.9109192  42.3141527   8.0644119
  48.5220480  42.3594999   6.6804141  94.7413540  40.5508137   6.9288719
  93.9558029  41.0961151   6.9711280  95.2986813  40.8785677   7.6347023
 105.6408978  34.6066928   7.9390866 105.6520844  34.5684528   8.8954574
 106.0142326  33.7701344   7.6615524  35.2665448  29.7488093  93.8746166
  34.7191286  28.9934444  93.6601639  36.1142063  29.3713117  94.1095638
  73.3020926  59.2243814  16.9029462  73.0607510  58.3752298  17.2729874
  74.2563009  59.1931677  16.8341100  72.1693039  78.7518311  11.4597857
  71.9232845  79.5660973  11.0208380  71.5493870  78.6738920  12.1849489
 100.9198570  81.8694401  23.1448007 100.9219360  82.1641064  24.0555143
 101.0117149  82.6729965  22.6328540  79.5940065  57.0911694  26.8499875
  78.9159155  57.3336315  26.2194061  79.9513626  56.2694693  26.5133309
  65.7398129  69.6625900   5.7401633  65.6970739  70.6153107   5.6581354
  65.6321049  69.3400812   4.8453903  98.0390263  85.2011299  12.0272803
  98.3933830  84.6557140  12.7295542  97.1555328  85.4245281  12.3201215
  80.4227448  71.9138050   3.3389568  80.3908062  71.7638540   4.2837983
  81.0790348  71.2942123   3.0201656  56.6280031  55.7555485   5.8844161
  56.9986105  55.7796574   5.0022018  57.2145081  56.3037777   6.4056510
 118.3957386 101.7621803  90.3652668 118.8597870 102.3381901  89.7577286
 117.6063442 102.2492886  90.6015015  81.3714027  67.1318865  20.7454634
  80.9070587  67.2262096  21.5771604  81.6616631  68.0185175  20.5313063
  90.9253502  60.4910326  23.3176661  90.3659344  59.7908783  23.6539340
  90.3346539  61.0457230  22.8081346  69.0551043  43.2659531   8.9235711
  69.3754625  44.0375900   8.4564775  69.4700670  43.3177614   9.7845888
  51.0747576   4.5185986  90.0306702  50.8304358   3.6527598  89.7037697
  50.6188822   4.5955759  90.8688164  95.8118343  76.9347620   2.2553930
  94.8704052  76.7895937   2.3494940  96.1660862  76.7848492   3.1319007
  37.5651002  11.7995560  92.2375584  37.1412349  11.1155176  92.7558899
  37.6409936  12.5419283  92.8370190  94.4456005  53.0008793  34.0238190
  93.7156963  52.6719570  33.4991431  94.0376472  53.5881948  34.6601081
  69.2002773  53.7459946  12.0141959  68.4383154  53.8540506  11.4450121
  68.8996983  54.0379620  12.8747988 101.2788200  80.0494194  13.6314809
 102.1450996  80.3614712  13.8930428 101.4236927  79.6186972  12.7890325
  82.0465565  48.0524874   3.6127505  81.5090847  48.3503246   2.8788245
  81.4838028  47.4425507   4.0897301  75.3332615  52.2002125  15.3861797
  75.0478506  53.1116533  15.4497981  76.1293650  52.2349882  14.8558557
  53.1168413  85.5861092   2.9172006  52.5495243  86.3555527   2.9656708
  53.9664841  85.8947754   3.2319415  83.0492592  49.7822380   7.4631417
  82.9073524  49.8688078   8.4057981  82.2742844  50.1803493   7.0667124
  62.5307131  81.0207367  21.4338565  62.3739672  81.6207695  22.1629810
  62.7865791  80.1982403  21.8513036  60.8336782  57.3738670  23.5100269
  61.6002989  57.8027344  23.1297636  60.6161737  57.9064369  24.2750740
  88.4871101  49.0754652  17.9000854  87.7976418  49.0067244  17.2396731
  88.3326149  48.3342218  18.4856796  81.7357540  67.5859594  26.2042999
  82.4346447  66.9436550  26.3277292  82.1403217  68.4252596  26.4236975
  64.2033005  64.5523787   7.0990014  64.8818874  65.0422573   6.6344893
  64.5957470  63.6945200   7.2611594  60.5813313  73.0484581  29.6861839
  60.8377934  72.4211884  29.0101743  59.7966337  72.6679134  30.0807357
  47.8501225  12.7357852  92.3141479  47.5570011  13.6415803  92.4133682
  48.0091190  12.6369619  91.3754272  69.2482233  61.6549492   6.8908745
  68.9693308  61.0719013   6.1848271  69.2389393  61.1044312   7.6738662
 102.6738453  98.7193584  11.7566574 102.0149326  98.1357098  11.3806057
 103.5091496  98.3672333  11.4492321  61.2315512  58.7486362   9.3365574
  60.6598425  58.8465166   8.5751110  62.0736837  59.1027927   9.0508753
  58.6288786  25.6355381  11.6241372  57.8093910  26.0382462  11.3369167
  58.4062719  24.7157383  11.7678297  52.4939489  63.1598854  41.8976212
  51.7360973  63.5075903  41.4275217  52.1235132  62.7499199  42.6792479
  73.7123489  68.3991909  17.1089745  73.2981062  68.7187672  17.9105365
  74.6161032  68.7093019  17.1663725  74.4885921  55.4329491  12.6261747
  73.8554382  54.8016930  12.2843170  75.2857351  55.2695847  12.1220803
  78.7684870  68.0536032   2.3060514  77.9800606  67.8956556   1.7867576
  78.4703779  68.5983944   3.0344492  75.9817457  59.3017864  16.5351009
  76.5430355  59.6826220  15.8597159  76.4524126  59.4580317  17.3538148
 110.9446826 111.6262565  95.3295040 110.0743475 111.7601773  95.7047558
 111.5470662 111.9424253  96.0028553  64.3076229   7.7383566  90.7503414
  64.6935368   8.1094426  89.9568748  64.9139833   7.9840058  91.4490700
  40.0124645  88.7912846  80.5478382  39.7821021  89.4785118  79.9226284
  39.4563317  88.9626694  81.3078213  26.3848615 108.0330753  88.8480091
  26.7440462 107.4552345  88.1747150  26.8935823 107.8310680  89.6332645
  48.2825851  42.0444345   0.3094959  47.5087500  41.6420937  -0.0848762
  48.5244083  41.4516497   1.0210865  50.1769161  60.4795408  12.9475319
  50.1083279  60.1553440  13.8455415  50.0788403  59.6985912  12.4028027
   2.0849118 107.3099995  80.4150963   1.7982307 106.9131947  79.5925379
   1.5880422 106.8476105  81.0900402  76.9296503  36.1693525  13.4766078
  76.0663557  36.5828133  13.4778106  76.7620802  35.2642202  13.7390757
  79.0219259  60.7424831  26.3578415  79.0684605  61.6951704  26.4382052
  78.0893278  60.5566025  26.2485862  74.2311859  78.1132507  19.8785269
  73.8002729  78.6968279  20.5030155  75.1317406  78.0458117  20.1958370
  33.5153532  14.5309639  81.1957932  33.0604577  14.2841351  80.3905773
  33.6885166  15.4670393  81.0957432  42.8983498  24.0840220  93.8693619
  42.4082804  24.7392106  94.3661499  42.7347708  24.3066406  92.9528999
  64.6202517  50.0929117   8.7620324  65.1596308  50.7460499   8.3162630
  63.7320948  50.4475212   8.7212366  83.8046837  24.3123198  13.6309707
  84.6744061  24.2452860  14.0250897  83.2006073  24.2390966  14.3698585
  74.9895191  81.5906239   5.7716590  75.5940342  80.8659363   5.9317261
  75.2810001  81.9666767   4.9410838  91.1627674  81.8249893   4.4528511
  90.7406712  80.9691715   4.5279694  90.4437256  82.4533272   4.5192391
  67.2164392  74.5080900  39.2958760  66.5518808  74.9517727  39.8228908
  67.9704857  74.4270802  39.8798990  79.5257187  86.1220932   8.5555309
  80.2467155  85.5009747   8.6584920  78.8015127  85.5946732   8.2185042
  77.5170660  92.9391289   9.0877765  77.7248621  93.8639450   8.9545172
  77.7645206  92.5170803   8.2650536  90.4017544  90.3140450  24.1135645
  90.4550076  90.5297756  25.0446153  90.9582520  90.9642315  23.6848426
  85.5519962  84.0239811  11.7210126  84.8949146  83.9382744  12.4117529
  86.1209011  83.2627964  11.8358350  93.1345749  60.3034067  20.9118366
  93.9117718  60.0069332  21.3854361  93.3698273  60.2175856  19.9879742
  98.5899544  62.1505451   7.1071833  98.9296436  61.8366814   7.9452389
  97.8391361  62.6957893   7.3421472  26.4064455  15.2294409  95.8074951
  27.2657180  14.8143005  95.8819389  26.2618852  15.3134799  94.8650169
  37.8420401  22.6697445  89.3665695  38.6140203  23.1278062  89.6989250
  37.6319838  23.1177664  88.5471916  94.2019653  83.9849091  21.6582036
  93.3135033  83.6391735  21.5725923  94.2962265  84.5883083  20.9211445
 102.9244137  82.1577930  31.5580988 102.0578384  82.5560760  31.6396022
 103.2958889  82.2102070  32.4387193 110.5412292 109.2989826  82.2914791
 111.4437389 109.4397736  82.0053291 110.0144386 109.8255444  81.6902637
  83.9216328  84.4054890  38.0511212  84.5286655  85.0073051  38.4818959
  83.2555771  84.9735260  37.6639175  99.4490623  82.2538280  17.7043235
  99.6653557  83.1799698  17.5961936 100.1004314  81.7924690  17.1760261
 100.0297451  91.6551399  13.4875393  99.6770668  90.8467293  13.1156230
  99.4541073  91.8495846  14.2271769  70.8840322  85.7802105  15.6966054
  71.1053705  84.8514938  15.7653761  71.6421509  86.2349224  16.0636568
 109.2429733  62.6071167   8.0870283 109.8682690  63.3300734   8.1377047
 108.8177586  62.5976610   8.9445472  80.9536648  62.3999405   2.8650132
  81.7049694  62.7378225   3.3524650  80.3113174  63.1090403   2.8932211
  36.7981195  23.6574030  78.1271791  37.1356463  24.4005466  77.6271343
  37.1812367  23.7610030  78.9982271  99.0316486  87.0821667  14.4361401
  98.4219265  86.3771057  14.6537542  99.8979092  86.6828537  14.5159447
  80.8220196  18.9899695  81.0962105  81.1832047  19.8650146  80.9545135
  81.1974239  18.4592509  80.3936100  30.9527707   6.9843072  93.0975628
  30.8447504   6.0601282  92.8729343  31.0182881   6.9926214  94.0524769
  59.4897652  37.7652001  93.1154251  59.9791861  36.9789004  93.3571434
  58.9330292  37.9432607  93.8734341  87.2802353  75.6013107  23.8053441
  87.8326702  76.3805962  23.7440181  86.4787006  75.8386278  23.3390307
  91.9398689  82.1796799   1.8358432  91.6796207  82.1241188   2.7553082
  92.3751068  81.3456345   1.6592990  33.6313295   1.0668296  85.1790714
  33.7838006   0.1970012  85.5483723  33.2420516   1.5667740  85.8965397
  73.0209446  85.9800625  26.9084144  72.2074413  86.3905525  26.6152382
  72.8206348  85.0444794  26.9362760  86.9813538  68.4722662  31.5852356
  86.0774517  68.1582689  31.5607500  87.2338676  68.5472727  30.6649947
  83.8649559  94.8269081  12.5985467  83.5681820  94.3610573  11.8167913
  84.3882370  94.1835403  13.0765462  83.4264755  89.4960976  21.0517454
  83.9752102  90.2369499  21.3091564  84.0484238  88.8043690  20.8261156
 102.2542381  75.7842016  15.7558346 102.4024773  76.4877796  16.3876855
 102.8479385  75.9833956  15.0319028  66.8150043  48.7536430   9.8787028
  66.9761753  49.5075512  10.4460454  65.9437943  48.9100075   9.5143205
  84.8528194  64.6428061  28.3861661  85.4616261  64.4534063  29.1001153
  84.4224358  63.8061428  28.2100987   6.5967304 105.2848530  94.0853214
   6.9640887 106.1247063  94.3608665   6.4978969 104.7885418  94.8978043
  89.7232246  79.7962713   7.4323487  89.8442459  80.7157135   7.1952748
  90.3824615  79.6341467   8.1071526  89.2693901  87.7848816  11.3093889
  90.0483036  87.3745632  10.9336662  88.5503292  87.2021294  11.0652876
 108.2311821  62.6773882  10.9055042 107.7563190  61.9203091  11.2483811
 107.7852535  63.4331131  11.2879372 100.4849339  82.4108410   3.2288855
 101.1975098  81.9708347   2.7653655  99.7685242  82.4397182   2.5947264
  83.8484764  83.3569813   1.5623073  84.4839001  83.4076881   0.8482321
  82.9963875  83.3899021   1.1274700 105.1484013  55.4369545   5.7364237
 105.5783653  56.2892437   5.8069098 104.4710732  55.5645895   5.0722194
  31.8089652  12.3566270  79.5771456  31.9283032  12.3597622  78.6274195
  31.3118887  13.1542349  79.7587156  98.6065769  79.4044256  14.8229325
  98.1647873  78.5650349  14.9513042  99.5355129  79.1802120  14.7678685
  80.8321953  99.7521305  20.7790112  81.7444897  99.5034027  20.9276104
  80.3945255  98.9320850  20.5505657  50.8121252  25.4405546  83.0347919
  51.6243887  25.1513910  83.4505367  50.3951550  24.6324396  82.7359295
  95.4062462  55.4887486  18.1690097  96.3006306  55.6396770  17.8631818
  95.5116940  55.0057697  18.9886701  92.3411942  76.8407059  42.2232008
  93.0981922  77.3179197  41.8834305  92.4184704  76.9149256  43.1743813
  76.8927574  54.7475672  10.7410145  77.6902056  54.7908497  11.2686813
  77.0865631  54.0960407  10.0670815  90.1196098  66.1007214  26.6377449
  90.8283424  65.4786444  26.8019438  90.4781818  66.9477320  26.9027686
  74.2956257  62.8919363  17.0813394  74.1833878  63.1967545  16.1809397
  74.2889500  63.6915302  17.6074862 105.5199051  82.4082470  13.8853455
 105.6936836  83.1229591  13.2727933 106.3687038  81.9816208  14.0026414
 109.9182224   5.2230936  31.8952370 110.3581810   4.9580002  32.7029467
 109.0394497   4.8506394  31.9678235  74.5519304  90.8553314  14.2286372
  75.0942183  90.2288151  13.7494361  74.3959808  90.4382038  15.0759387
  71.9916105  94.4034672  26.3033199  72.7344275  94.8106575  25.8576298
  72.2228956  93.4761143  26.3559437  74.2334223  77.7334356  36.5995836
  73.6192369  78.1934929  36.0274386  73.7047720  77.4629974  37.3503304
  74.0056086  87.4757004  33.4586048  74.8992348  87.3251343  33.1503892
  74.0572166  88.2941628  33.9522481  92.8295898  65.8903551  28.1511045
  93.5335922  66.4286280  28.5128713  92.1189785  65.9658241  28.7879443
 104.1307926  77.0294571  22.4632740 103.7174606  77.8429842  22.7523375
 105.0669575  77.2284889  22.4486446  70.9749889  78.2587910  18.6431134
  71.1146927  79.0880346  19.1003489  70.0750589  78.0146837  18.8593829
  88.1719685  59.5683146  30.9836960  88.8666630  60.2014828  31.1645961
  88.0345535  59.6271181  30.0382376 112.4073887  90.2754688  26.6339374
 112.8237724  90.8170509  27.3044229 111.5242863  90.6350708  26.5499568
  89.5354652  98.3571911   6.9047529  88.9363956  98.0930042   7.6030028
  89.0681171  98.1475449   6.0961324  80.7975101  90.0375843   7.8712243
  80.4479218  90.0433159   8.7622815  81.1369228  90.9231281   7.7414078
  49.8169129  15.2800378  97.4464816  50.5225843  15.4080971  96.8125560
  49.0169137  15.4675206  96.9554740  92.8344154  75.5470037  19.3822885
  92.1857071  75.9286642  19.9736774  93.6719608  75.6838560  19.8250294
  11.5213501 109.2803574  86.5525246  11.6209149 108.3376980  86.6855621
  10.6356680 109.4734097  86.8599796  89.8910809  74.6778250  20.9267879
  89.8840427  74.2553425  21.7856789  90.3137016  75.5230618  21.0790944
  61.1073971  92.6353550  25.3221130  60.2450848  92.9894257  25.1046467
  60.9896469  91.6857529  25.2971673  39.1260481  35.4812670  88.0973434
  38.1853342  35.5353618  88.2657528  39.2945313  34.5466852  87.9773331
  81.7477894  66.5794754   8.0340707  82.3132801  66.9143581   7.3381507
  82.1601391  65.7587862   8.3036524  67.0178366  76.9561195  16.5812278
  66.7479563  77.4696875  17.3425710  67.6099491  76.2934875  16.9369745
  74.6660376  82.1456432  19.1350043  74.6739101  81.9058895  20.0616574
  75.3424692  82.8182507  19.0558755  24.9839950   8.6407000  79.5443201
  25.5945134   8.4471983  80.2556992  25.0225401   9.5922399  79.4477892
  81.0939121  92.7438545  15.4980266  81.4649200  93.1071281  14.6939027
  80.4445553  93.3900642  15.7754683  84.2289639  66.1954832  32.8194523
  83.8002777  67.0278788  33.0183935  83.5081196  65.5762386  32.7047706
  15.5038631  12.5075459  72.5845003  15.9277451  13.1931281  73.1007719
  15.9747243  12.5095809  71.7511272  85.4457760  38.8136435   6.8173403
  84.6135044  38.3537531   6.9271529  85.5254841  38.9422131   5.8721691
  70.3859711  68.8990068  17.5040507  70.1700640  69.7811174  17.8065491
  70.6283617  68.4255314  18.2998514  69.4673824  78.7821388   0.7017053
  69.9161673  77.9648161   0.4853536  69.2755699  79.1818762  -0.1466165
  53.1558180  37.7485085  86.3426018  53.5282564  38.6292267  86.3856888
  53.8321686  37.1838737  86.7167187  85.8871174  61.9237185   3.9836192
  84.9943161  61.6019106   4.1083884  86.0112286  62.5636005   4.6846044
  44.1079903   1.4038879  93.0576229  44.4949865   1.7262827  92.2436619
  44.4225788   2.0095660  93.7287521  83.7865639  63.4418869  34.9420404
  84.7087479  63.6962748  34.9752855  83.6217403  63.2590771  34.0170312
  79.9069118  65.3033304   1.1414055  79.3459797  64.7897243   1.7226063
  79.9187374  66.1775970   1.5309474  60.7033968  62.8803587  25.7712698
  61.4464664  62.5151348  25.2909660  59.9846554  62.2720528  25.5992007
  88.8203144  82.7132702  22.1814919  88.9725685  83.4766960  21.6245103
  87.9641247  82.8733253  22.5784278  58.0009270  94.7624397   9.6569556
  57.1014977  94.6209526   9.9523175  58.4927225  94.0294647  10.0272453
  71.6111422  87.2215748  31.9417620  72.4584341  87.2023773  32.3866892
  71.1031055  87.8752804  32.4221706  58.7081289  97.3808098  14.5684528
  58.8914442  96.4622688  14.7657287  58.8340807  97.8345203  15.4018259
  73.1036949  92.0133781  26.1547756  73.1087351  91.1247635  26.5105438
  73.8607168  92.0414162  25.5696583 106.3020706  69.3992519  16.5811133
 106.1145782  69.8789501  15.7742882 107.2031021  69.6385622  16.7981565
 111.9723797  92.3704720  22.5788474 111.0428715  92.4057484  22.3530006
 112.1276188  91.4551926  22.8120875  96.4760971  68.0925369  35.8116817
  96.8187332  67.5883389  35.0737000  95.6766605  68.4970665  35.4747939
 104.9060440  74.7023058   2.6779181 105.1801300  73.9660740   2.1310477
 104.7839355  75.4252958   2.0626056  18.2300513 112.1866120  93.0573368
  19.0455764 112.1276618  92.5596619  18.4804099 112.6109634  93.8779926
  77.6650190  64.2367983  17.4504948  77.8271866  65.1678085  17.6026464
  77.1410322  64.2126703  16.6498160  90.2171040  72.1999788  26.5788341
  89.4181252  71.7238760  26.3525677  89.9070740  73.0333567  26.9332314
  78.2170534  78.9665651  34.8013043  77.7765226  79.2726088  35.5940843
  78.7527800  78.2294464  35.0943661  74.9248505  93.5748768  30.5025530
  74.0679836  93.9985943  30.4527879  75.5091476  94.1585922  30.0187087
 103.8596821  70.4292965  21.6510010 103.5753536  69.9294615  20.8857894
 103.5647011  69.9102879  22.3992300  11.6517711   9.9034083  19.6104074
  12.3028016   9.7147590  20.2862787  12.1535563  10.3010678  18.8988519
  28.4026861  12.4292922  88.5318947  27.6748657  12.8355336  88.0612850
  28.0883265  11.5512049  88.7472439  67.1627045  83.8656998  22.7799940
  66.4189148  83.2631969  22.7783346  66.7714834  84.7295380  22.6497650
  90.0287628  94.2924213  25.1852512  89.4247818  94.6771526  24.5500994
  90.8958244  94.4251156  24.8020720  75.2464437  72.6061010   9.3155730
  75.3780699  72.8682852  10.2267075  74.4197798  72.1235847   9.3222231
  51.8647671  61.3396645  24.6281981  52.5641584  60.7089710  24.4570041
  52.3138237  62.1019697  24.9935365  87.6980305  57.7295256  12.9537094
  87.6417923  57.6871204  11.9991052  86.8645477  58.1135035  13.2259190
  71.2672949  83.6032486   3.5048351  71.5965891  82.8273296   3.0512318
  71.5210438  83.4722996   4.4184521  50.0999069   8.4298605  95.1380348
  49.3792725   8.1725806  95.7131195  50.8785772   8.0503988  95.5453587
  79.5306301  78.5713196  26.2587571  79.8708534  79.3720388  26.6579127
  80.1174164  78.4032345  25.5214238  75.2658701  66.4354324   9.0090156
  74.9556780  67.2350359   9.4340360  74.4682789  65.9449196   8.8103163
  87.8679473 102.3792783  -0.3614882  88.5116488 101.9204847   0.1783105
  87.4568421 103.0045072   0.2354261  79.2625475  67.1730947  24.6463943
  79.5117331  67.9886246  24.2115927  80.0627899  66.8797159  25.0820208
  95.5827522  75.9154654  39.5205331  95.5032349  76.8486214  39.7183323
  96.5128422  75.7887554  39.3331575  99.9979305  87.1628571  30.7536340
  99.1751480  87.3301601  30.2939987 100.0121784  87.8071117  31.4614248
  56.8078041  24.0557957  93.1368732  56.8806982  23.3629394  93.7932777
  57.5782824  23.9408016  92.5806713 106.7683506  66.6286659   2.8953552
 106.0084248  66.7576933   3.4628934 107.2624207  65.9233665   3.3133015
  45.6393576  27.5936389  91.1462212  45.1193333  27.1999860  90.4456139
  46.0684347  28.3433032  90.7337570  77.9309654  51.4906836  24.5336294
  78.2079172  51.3085890  23.6356473  78.0929852  50.6732988  25.0046563
  34.8207402  31.7713737  95.7645607  35.2091503  31.5838361  96.6190815
  34.9326396  30.9610057  95.2675629  92.1194649  87.5219917  34.7328353
  91.7516422  87.8918743  33.9302588  92.8603458  86.9938469  34.4355392
  84.8515224  86.1051464  23.9997768  84.3996525  85.9199333  24.8230267
  85.3493023  85.3086376  23.8153219  96.5345287  74.8084068  18.5196769
  96.9213009  74.7038698  17.6503611  96.4084530  75.7525873  18.6137712
  90.0815773  85.8921242   2.2839062  90.0051594  85.0108337   1.9182464
  90.3952694  86.4274788   1.5550521 104.8626614 111.4106750  19.4170356
 104.6782017 112.1940613  19.9352181 104.1973209 110.7796955  19.6916580
  74.2281199 101.2573433   4.5354632  73.6495352 101.9977283   4.3529528
  73.6408186 100.5040455   4.5975882  71.1546946 105.5747890  34.4837642
  70.8674479 106.2500858  33.8691950  70.5706978 104.8349762  34.3168497
  14.0674102  75.3308487  82.4551201  13.2653379  74.8122501  82.5181293
  14.5546436  74.9317789  81.7343044 108.5719109 104.1753483  69.0773582
 108.8686180 105.0135326  68.7228966 108.9417458 103.5205078  68.4852123
  87.2006226  23.3304071  20.9836292  86.8963242  22.4237466  21.0236382
  86.4111042  23.8402462  20.8021069  76.5064764  27.5910759   3.2074669
  77.3426485  27.9280376   2.8857437  76.7466974  26.9774127   3.9016867
 106.6995907  74.0112591  93.5783482 106.7768288  73.0572987  93.5933208
 107.2230148  74.2821217  92.8240967 111.8046474  96.4469528  77.0862818
 112.6008797  96.5472794  77.6079845 111.8131256  97.1956444  76.4899349
  79.2320061  27.3572183  24.4625640  79.1715145  27.0696688  25.3735471
  78.7472916  28.1822872  24.4391465  23.8436818 109.7579765  96.2406921
  23.8648319 109.4403267  95.3379822  22.9130602 109.8750591  96.4316559
  32.7512670   1.5585919  65.4901171  31.8984246   1.3377617  65.8644533
  32.8308702   2.5040311  65.6167698 116.3958836 102.2481537  68.8491488
 115.9452057 102.2042751  68.0058241 116.9388008 103.0342674  68.7899590
  88.5404778  96.3739395  92.8549767  88.6268616  97.3271942  92.8458405
  89.3909168  96.0534954  92.5544643  61.5956640  53.7255764   4.2323193
  61.8385983  54.2227888   5.0133407  60.7903767  54.1414881   3.9244848
  91.6450787  86.4096737  96.6481876  91.0590267  86.4844894  97.4012947
  91.9162941  85.4917049  96.6460037  85.0148582  58.8366270  89.2198944
  84.1692066  58.9813852  88.7954521  85.2241230  57.9218578  89.0311146
  96.3632584  99.2754269  77.7499342  96.3340950 100.1696968  77.4098444
  97.2824287  99.0196896  77.6727724  84.6889496  40.8866310  11.7016315
  84.7084713  41.5837669  11.0460007  84.3804264  40.1168585  11.2236202
   7.9537189  98.5700035  94.3032646   7.2865802  99.1981411  94.5800304
   8.7758875  98.9331818  94.6324635 102.0990467  38.6597538  16.8162405
 101.4080715  38.0208421  16.9911158 101.6349983  39.4890666  16.7016220
   8.8197654  79.6157789  86.3879395   8.5940117  80.4832363  86.0521030
   9.5059717  79.7804451  87.0346546 100.0188446  83.5604191  73.4481430
  99.0821457  83.3770180  73.3760977 100.4424381  82.7258682  73.2473660
  82.7610016   5.3090996   0.0243612  82.3117161   4.5659852  -0.3783160
  82.3781490   5.3750449   0.8991789 119.2960718  78.8445568  90.2956295
 119.7431714  79.0048742  91.1266708 118.3648581  78.8721275  90.5154324
 117.3267555  84.1894150  88.9438725 117.6673222  84.6699142  89.6984291
 118.0238628  84.2446136  88.2902527  68.7929630  47.7205896   3.9280167
  69.0138102  48.4819937   3.3916143  69.4967842  47.6710463   4.5748657
   6.3976723  88.5086441  75.2283335   5.6205803  87.9505157  75.1992083
   6.4119589  88.9439964  74.3759823 117.9266357 105.5163765  96.9625282
 118.1386948 104.8205566  96.3403511 117.7016926 106.2678337  96.4139462
 109.6071243  77.7877951  93.4296989 109.3567753  76.9225979  93.1056595
 108.9405823  78.3775806  93.0774021  95.9460449  57.3144102   3.3858517
  95.6893921  58.1657171   3.0313998  96.8518639  57.1987152   3.0988908
  57.6330757  24.7480726  89.0684795  57.0365000  25.0417995  89.7569942
  57.5860643  25.4337549  88.4022427 103.4133053  42.7019024  28.1141281
 103.1614685  43.2532549  27.3733068 104.1023064  42.1350288  27.7674770
  94.5605659  75.2617121  93.0916500  94.1228390  76.1067390  93.1943893
  95.2073479  75.4093409  92.4016285  58.9453030  44.5064688  11.5901065
  59.3914270  44.8313522  10.8080208  58.7321281  45.2949572  12.0891845
  39.3674326  13.1991136  88.7381268  38.9562368  13.9074707  88.2427692
  39.4870925  13.5594022  89.6168232  78.0415487  43.6648655   1.6570778
  77.2798777  44.2391539   1.5778124  78.0775309  43.4417629   2.5872189
  77.4742794  36.0597086  17.5727761  78.0459213  35.6645894  18.2310617
  76.6086197  36.0679626  17.9811835  68.1853342  67.3963022   9.3953663
  68.2567596  67.8340149  10.2436233  67.8901243  68.0819035   8.7961721
  66.1069441  52.4123192   7.9935580  66.8966913  52.9366255   7.8607523
  66.0272121  51.8925524   7.1937340  41.9993687   8.1719846  69.8876858
  42.3847961   7.4975383  70.4469728  41.6715288   8.8315260  70.4990435
 113.1161785  73.5544825  92.8279114 113.9376831  73.1088638  92.6210690
 113.1079960  73.6103249  93.7834454  12.7403235 108.7963104  76.9217062
  12.3383236 108.0553150  77.3750877  12.0021272 109.3483543  76.6637564
  51.7942953  38.6812615   4.3707913  52.0268536  39.3662310   3.7439215
  51.4234686  39.1542530   5.1157731  -0.1727666 106.0107517  89.4507790
   0.5277962 106.4720917  89.9118805  -0.2307337 106.4499283  88.6022568
 112.0648861 106.0983467  96.6928291 113.0029678 106.1358261  96.5061760
 111.8431187 105.1700306  96.6200924   2.6724169  85.6341934  60.1168013
   2.1867791  85.4549789  60.9219551   2.0929247  85.3353405  59.4160128
  93.5591125  71.2390661  15.6538737  94.1792774  71.0965443  14.9388099
  94.0721130  71.0925436  16.4486063  96.7614651  38.6262321   9.0432763
  96.4935684  37.7074480   9.0607166  96.1923981  39.0538287   9.6832466
   3.4597832  99.5287418  85.6306648   3.8701659 100.1394272  85.0183868
   3.1165791 100.0850391  86.3299274  35.2361417  18.2779920  83.0185604
  34.7842622  18.4053969  83.8527107  36.0401392  18.7908626  83.1009293
  12.7463031 104.6540070  73.1546354  12.6063442 104.8333359  74.0844107
  13.6968851 104.6818352  73.0457830  19.1341722  81.0300732  89.9898148
  18.4381378  81.1666775  89.3470860  19.9017429  81.4533710  89.6052551
  89.5564461  28.4227014  20.0826430  88.6327934  28.1991363  19.9681246
  89.9483871  27.6353717  20.4604363  95.6496239  23.3490562  22.9005337
  95.1418877  23.0415940  23.6514664  96.4265633  23.7537909  23.2862663
 110.2974415  47.7601910  32.7550697 110.6619167  47.5811148  33.6218572
 109.9882412  48.6645603  32.8074312  83.1919384  45.3031969  13.5712492
  82.5493813  45.3981400  14.2743456  82.6864624  44.9751902  12.8275180
 110.9738731  95.1472569  66.8208694 111.4967060  94.3502331  66.7334843
 110.1449776  94.8500156  67.1961212   1.6730979  98.2051086  80.6946945
   0.9984007  98.8121700  80.9988117   2.4970534  98.6009312  80.9786797
 104.5852566  85.6007481  85.7452869 104.7981358  84.8348808  86.2785530
 104.2129898  85.2372169  84.9418640 110.9237480  67.1469975  83.0596256
 110.9993362  66.7954350  82.1725368 109.9859810  67.1186590  83.2493973
  99.5971870  84.4586754  91.5330982  98.7274361  84.2056751  91.8425274
  99.9714565  84.9622822  92.2559547  42.9259443   8.8677478  80.2599812
  43.8224745   9.0747154  79.9961042  42.3821878   9.4737166  79.7566319
 116.6375828  87.8905296  77.1351814 115.8352280  87.8633976  77.6564503
 116.3615513  88.2421780  76.2887859 104.4215107  83.3029175  90.5455303
 104.7504330  84.2015743  90.5242443 105.1205826  82.8018856  90.9656429
 115.7323933  88.6383915  95.1865864 115.7637024  89.5657730  94.9515915
 115.2775478  88.6198997  96.0286045  21.2570333  82.9017830  95.9917736
  21.2961960  81.9458008  95.9635544  21.3707209  83.1731415  95.0809193
 112.8101826 105.3710556  93.6249733 112.1084309 104.7200775  93.6246300
 112.5374126 106.0176277  92.9739952 101.0747719  53.6223364   1.8312645
 100.4001141  53.7640715   1.1671931 100.6692314  53.9087725   2.6496321
   3.2842973  97.9769611  92.8930855   3.5578322  98.6778164  92.3013020
   3.9211553  97.2775555  92.7465439  73.4383202  44.3924618  17.3132598
  73.6685181  43.6248636  17.8367460  72.9418468  44.0389013  16.5751958
 116.5841579  75.6812239  95.2054596 116.5586853  75.7655430  94.2523193
 117.0137215  74.8399162  95.3600788  41.3787031  20.7512069  76.8739986
  40.7498169  20.3927946  76.2476826  40.9796238  20.5953383  77.7299595
  15.2346087   3.1220618  64.4017839  14.5786095   3.2210752  63.7117863
  15.8780229   2.5154865  64.0352917  40.3701973   4.6488130  95.2978516
  40.9364271   5.0620472  95.9496593  39.5754647   5.1823211  95.2982807
  74.0115881  45.8890963   9.9312264  74.7232056  45.6446552  10.5228996
  73.8623714  46.8181086  10.1070201  17.4684405   6.0956764  58.8705873
  16.7354989   5.4908925  58.9857674  17.1022546   6.9568628  59.0718317
 102.7768898 110.4603291  77.4102449 103.0312824 110.8827114  76.5898132
 101.9009972 110.8003044  77.5931215 103.1658268  80.4456520  72.2124672
 102.5636959  80.5519581  72.9489279 102.6258659  80.0781441  71.5127468
  93.4152889  33.1937814   1.6766331  93.8479710  34.0360475   1.8166555
  93.5203266  33.0232358   0.7406235  52.0940638   8.0195659  92.1717358
  51.1383438   8.0590719  92.2073269  52.3343372   7.4046069  92.8647900
  90.3216171  46.8957472   1.2899372  90.0216103  46.1859035   1.8576995
  90.7508659  46.4521599   0.5583626 107.6312828  81.4705944  55.3888083
 107.3653221  82.3856831  55.2986765 107.2782326  81.0407257  54.6098375
  66.1921644  55.0290442   4.7746950  65.8693218  55.7572937   5.3054088
  65.6798649  54.2747927   5.0660592  32.7536082  17.9968691  74.9744415
  32.4727583  18.3098996  75.8343029  32.8866935  18.7937844  74.4611692
  69.9064636  33.5434628   2.2861038  69.3614674  33.1826305   1.5868121
  69.4366884  34.3251872   2.5767043  63.6207342  35.9968591   6.7217749
  64.0939999  35.4726791   6.0756445  64.2057753  36.7307806   6.9097126
  29.7210765  70.0978565  86.1936855  29.5374465  70.5113983  87.0371914
  30.6315565  69.8102617  86.2611008 103.8946533 111.5702057  89.5016861
 104.1748714 112.4696350  89.6712017 104.6925163 111.0494232  89.5935440
  33.7332940   5.7072759  89.3653965  33.7015486   5.1596469  88.5809708
  33.6191821   5.0933570  90.0908756  59.2680979  46.9835663   9.0630108
  59.7228050  47.8212643   9.1509467  59.9351788  46.3268185   9.2628092
  27.2141027   6.3857102  58.5030508  26.4640856   5.9584254  58.0893660
  26.8769073   6.7030722  59.3407917  31.3146448  18.4995854  77.4396038
  31.3087177  19.3948495  77.7782774  30.4833603  18.4146202  76.9727182
   1.1641186  78.9515114  72.4634027   0.5030498  78.5584593  73.0332518
   1.8922833  78.3303738  72.4773836  82.1887684  43.7152100  18.2959855
  81.5275764  43.0465126  18.4745955  82.3091316  43.6855268  17.3468471
   3.4666440  80.5431843  89.3869591   2.9268396  80.1481152  88.7022972
   2.8614888  80.6908035  90.1137447  74.3520784  79.0309954  13.0765998
  73.7857962  78.6988783  12.3799980  74.8116350  79.7707844  12.6794219
  45.2507782  34.5745206  19.6109807  45.3518915  34.7961092  20.5366731
  45.4202127  35.3951931  19.1483593  67.1880960  40.7868385   1.1463556
  66.9714499  40.6952620   0.2185043  68.0142355  40.3140163   1.2472094
  83.0254555  59.1959810  12.0997155  82.3841572  59.6618557  12.6363063
  83.7923908  59.1077662  12.6656377   3.2139111  98.3802795  76.2917185
   2.2708066  98.4080887  76.1304331   3.5353562  99.2260551  75.9793758
  12.9502654  80.3750801  90.1211071  12.6550829  80.7701492  90.9414864
  13.6756027  80.9303951  89.8352051  11.5946925 100.1528358  81.3393307
  11.5555644 100.9737015  81.8301296  11.7801714  99.4866562  82.0011806
  29.1855574  84.1847229  95.3676987  28.6491418  83.5329533  95.8190155
  29.5846605  84.6956348  96.0719109 107.8952503  92.6181698  77.7905083
 108.4918213  92.7495384  78.5274506 108.2073784  91.8171787  77.3695326
  89.9190235  24.9881268  27.2337675  90.0194740  24.1975927  26.7034841
  88.9936256  24.9965096  27.4783134  25.0662804  11.5522444  79.5490980
  25.0416636  11.9554603  80.4168797  24.4450331  12.0629394  79.0299892
  57.8565502  42.3275757  26.5219307  57.6289940  41.6489029  27.1574283
  58.8126564  42.3066807  26.4812207  63.6592865  20.2139044  13.8133752
  64.5787334  19.9764299  13.6931765  63.5718441  20.3643584  14.7546244
  95.1827526  86.2900639  83.9717007  95.2147865  86.4776039  84.9098015
  94.7085094  85.4609585  83.9092541  63.2930517  19.1575527  23.6525655
  63.1638861  19.0854025  24.5982623  62.4732113  18.8401484  23.2739520
 101.9639492  78.5839224  78.9096785 101.8317413  79.5294571  78.9783478
 101.6370583  78.2355118  79.7391319  57.6711035  46.7967796  12.9004729
  57.3741245  46.3403845  13.6877084  57.4608898  47.7163458  13.0630589
 106.8756962 100.9397507   6.4614236 107.5148010 101.3154984   7.0668894
 106.0753059 101.4413548   6.6163403 100.0233746  92.6022816  82.3378658
  99.4574165  91.9367695  81.9466877 100.0634766  92.3677158  83.2650089
  70.6404638  34.1488266   9.2710805  70.5359745  34.7174478  10.0339603
  70.2254391  34.6298933   8.5551482   4.9879643  88.3637238  78.0390787
   4.7731683  88.1833458  77.1238947   5.5651170  89.1265392  78.0037785
   3.2018641 105.8104992  66.4544630   3.2490525 105.4040432  65.5891323
   3.7058923 105.2265358  67.0211840  53.2328796  17.5521243  81.9370461
  52.3548508  17.4683332  82.3089027  53.7660551  16.9372451  82.4409103
  21.6794777  82.1122169  89.8720932  22.4582362  81.8846893  90.3800201
  21.9956064  82.1929836  88.9722157  77.9607201   3.8732556  88.5884857
  77.8011417   4.0598375  87.6633072  78.1238651   4.7308505  88.9811039
  43.8782930  14.6344805  79.5286894  43.2180691  14.0957832  79.9647379
  43.3728218  15.2843964  79.0404892  76.1655617  45.6401157  11.5870452
  77.0615482  45.3344870  11.7285717  75.7550907  45.5865526  12.4501061
  57.6786184   9.4444907  64.6247673  57.7785349  10.3428614  64.3098450
  56.8428278   9.1542047  64.2594910  37.6047468  14.8376787  78.9464092
  37.7062535  15.2961648  79.7805071  37.2226214  13.9924562  79.1826534
  16.0356700  87.3677635  93.3701420  16.9288743  87.1371269  93.1147575
  16.0060632  87.2034454  94.3126678  20.9062195 107.9233837  89.1248989
  20.7626534 107.3422813  88.3779430  21.8438029 107.8547192  89.3050385
  22.4715877 111.2363243  90.6028080  22.5201392 112.1074390  90.2090645
  23.3299398 110.8483791  90.4326248   6.7645156 100.1243782  63.2480574
   6.8324655  99.4041538  62.6212502   7.4348962 100.7483006  62.9695845
  71.7189074  52.8356314   6.8791884  71.2188721  52.1606636   6.4202595
  72.1233511  53.3504581   6.1808968 118.4189129  90.2843189  91.6290855
 118.8494587  89.7060394  90.9994411 117.4978638  90.0251961  91.6013622
  97.0736408  62.2191095   1.3082948  97.7171898  61.5139103   1.3773215
  97.3809147  62.7529097   0.5755812 111.3076019  84.8803425  86.3088608
 110.4960346  85.2525139  86.6539478 111.5853119  85.4975605  85.6319904
  78.4776115  52.7453327  21.7094207  79.0695810  52.8002024  20.9592271
  77.8281736  53.4308243  21.5526962 101.9735432 104.0114212  78.8972044
 102.8236771 103.6118412  79.0811539 101.8573856 103.9034748  77.9532290
  87.1765232  49.2702055   9.9481618  86.9925690  49.1585779   9.0154606
  88.1317902  49.2557526  10.0072885  90.3955936  48.8670015  12.7879775
  90.7868004  49.5018291  12.1878183  90.1977730  48.1084681  12.2386825
   1.1552065  91.1303234  83.2187748   0.8642041  90.6707668  84.0064049
   1.2766105  90.4382420  82.5687504  89.2990685  72.5658894   5.1153040
  90.0104618  72.3718500   4.5049745  88.8376904  71.7335081   5.2177960
  60.6736660  43.3350182  13.1272292  61.4712811  43.3823347  12.6001596
  60.0141096  43.7917423  12.6050973  80.3019524  57.4692059  10.6272638
  80.4207993  57.2915697  11.5602982  80.8307838  56.8035221  10.1874530
  31.4835787   6.4580297  57.6692009  30.9700966   6.7261600  58.4312201
  31.7578578   5.5628103  57.8681612  71.9722319  63.2796717   5.1830763
  72.5456285  63.3165312   4.4175118  72.5526619  63.4479666   5.9253776
   4.1023147 101.8499184  73.2614708   4.5536962 101.2559795  72.6617050
   4.4534874 102.7151775  73.0511427  96.7889118  64.1343594   7.2541833
  96.4330673  64.3276167   6.3868564  97.2410583  64.9376822   7.5120038
  86.5093136  46.5652847   5.5264670  85.9130383  46.0869455   4.9503767
  86.5611839  46.0279369   6.3169086 100.9339905  66.2171650  12.4368238
 101.4235592  65.4377270  12.6995516 100.5581665  65.9886789  11.5866566
 102.3881721  79.1023493  10.8174741 101.5205383  79.1055632  10.4132080
 102.7626038  78.2556677  10.5742407  92.4835110  67.0624828  13.2533383
  92.5080490  66.8234348  14.1798830  92.9398155  67.9028416  13.2106268
 105.5591297  84.0956306   9.2104203 106.4767456  83.8261986   9.2508560
 105.5486298  84.8162460   8.5804707  75.3184032  25.9041691  14.5613039
  74.9172211  26.7720246  14.5153582  75.9771061  25.9077287  13.8668036
   4.5111030  96.6710472  74.8035002   4.2745048  96.9670773  73.9245081
   4.0997994  97.3067474  75.3891182  73.6579990  68.9394283  13.5383534
  73.3665085  69.1284513  14.4302809  73.0502605  68.2697582  13.2246208
  76.3639164  70.7439756   6.6249144  76.0805035  71.3538074   5.9437263
  75.5664778  70.2777863   6.8758947  15.6231868 103.3606434  76.4942312
  16.3957191 103.7380886  76.9149017  15.6455016 103.7033558  75.6007624
  80.0617504  47.1025562  11.8162870  80.4114056  46.2281895  11.9879103
  80.8035088  47.5914288  11.4598703 116.2741375 102.4483871  72.3212814
 116.0991192 101.6183376  71.8778563 116.3814545 102.2100449  73.2421017
 118.4018517  94.0228939  73.5151243 117.5528622  94.0599632  73.9556789
 118.8844776  94.7733784  73.8616562  21.3109231 108.1821156  58.3222342
  20.8329153 107.5474834  58.8560581  21.8521881 107.6472569  57.7415609
  34.5924044  28.9522600  84.2465782  34.2906761  28.5621905  83.4261894
  33.7897134  29.2208052  84.6935749  28.9756656   0.9500438  95.5256844
  28.6223960   0.5601478  94.7260475  28.2041669   1.2452728  96.0092735
  32.2166514   3.8824356  69.5226574  31.4997101   3.8089123  68.8927221
  31.7842960   4.0604031  70.3578997  31.2727213   8.9108431  78.7833309
  30.4777098   8.5918385  79.2104387  31.0182548   9.0404820  77.8697252
 108.9256859  82.8295898  80.2451134 108.2124519  82.1944046  80.1812649
 108.8829994  83.1478024  81.1468601  81.4363670  60.1461649   8.7866652
  81.4093399  59.5584440   9.5417053  80.5569363  60.5216742   8.7438369
  99.2481613  54.6074104  19.8263991  99.1130543  55.5399942  19.9945092
 100.0466633  54.5721912  19.2997277  90.3553867  65.0165653  23.6690259
  90.3801918  65.4444933  24.5248842  91.1824417  64.5375347  23.6166978
 113.7008476  72.5159311  15.7914269 113.5206413  72.5373650  16.7312658
 114.6526051  72.4331856  15.7318723  67.9585552   1.9605763  92.5981426
  68.2553482   1.0873073  92.8541660  68.5603142   2.2234493  91.9017220
  66.9569540   1.8806969  89.4543648  66.9686556   2.8267723  89.3093204
  67.7279091   1.5573633  88.9881897   9.6500862 111.0235786  89.9677277
   8.8517642 110.5762100  89.6870613   9.5919484 111.0404682  90.9230137
   1.8760639 109.6692753  96.2305737   1.4507242 108.8131237  96.2787914
   2.7991724 109.4696808  96.0748005  80.8539486  46.0981894   0.7298113
  81.0011387  45.1600695   0.8502211  81.6336632  46.5123749   1.0995668
  65.2759600  27.9723239  81.3353443  65.3275537  27.0285606  81.4866066
  64.4609785  28.0925727  80.8479309  44.9665213   9.3826205  92.1193600
  45.0396490   9.0838647  93.0257988  44.2022419   8.9200634  91.7756367
  66.2015867  70.3478479  23.9186335  66.6304731  71.0306358  24.4344735
  65.2864218  70.3760529  24.1977549  84.6245384  38.2150507  18.8226902
  84.4904613  37.5088501  18.1906021  83.9572239  38.8645840  18.6012506
   3.6656708  91.5672302  82.1197128   3.5934228  91.3002491  81.2033367
   2.8007710  91.3902378  82.4896526  80.3308678  68.1394958   0.1054737
  80.9404564  68.8275099   0.3724431  79.6803045  68.1104660   0.8070111
  82.9701805   5.4610687  91.8827152  82.6172924   5.2601093  92.7495003
  83.9199543   5.4365116  91.9991970 113.8368225  53.2133007   6.5597475
 114.5540905  53.7154293   6.1729234 113.5827255  53.7159348   7.3337138
  68.4383583  54.8796797   3.4987828  67.6237154  55.0451326   3.9733499
  68.3990431  53.9505291   3.2721430  15.6572115 105.2199078  90.2138615
  15.4299498 105.0402451  91.1261654  15.1401198 104.5914555  89.7099876
 115.3691196  76.8705511  77.3597765 114.5540714  76.4265585  77.1256542
 115.2070141  77.2230768  78.2348061  48.7021637  40.2197742   2.2078986
  47.9626703  39.6237969   2.3270322  49.4170284  39.8157787   2.6998213
 117.2635460  38.3355284  26.4783859 116.6338730  38.9666462  26.1298990
 117.4325562  37.7384591  25.7495666  31.6152406  16.0533535  84.2393017
  31.6186213  15.1298451  83.9876080  32.1481514  16.0870361  85.0337219
 115.8125782  82.7398872  66.8864250 115.7907677  83.3034897  66.1130476
 114.9669933  82.8835201  67.3113871  72.9803848  43.3393002  11.5185034
  72.1910572  43.8548803  11.3530838  73.2271242  42.9967499  10.6594265
  15.8860648   1.1076848  70.3038502  15.6976879   0.8631609  69.3977880
  15.9277713   2.0638776  70.2901602  16.4860106 107.0162487  62.4907112
  16.6261697 106.5654564  61.6580200  16.0674143 107.8422642  62.2484016
  93.3471584  47.0124102   3.4559152  93.2924366  46.8172407   4.3914074
  92.7953815  47.7859259   3.3399457  22.5517964  83.0782223  92.9322815
  23.0104232  83.7310791  93.4611225  23.2314420  82.4524212  92.6819038
  26.5144229  20.5006719  46.5538549  26.0052156  20.9960079  47.1954012
  26.2131333  20.8265376  45.7057571 105.7284641  33.8440299  15.2670109
 105.9786797  33.0107903  14.8678386 106.5603161  34.2757678  15.4615641
  20.8614278  98.6677456  85.9695816  21.2340236  99.4915485  85.6553459
  20.3667498  98.3286285  85.2235699  42.6787233   7.9004365  82.7302742
  42.7091789   8.1461632  81.8056488  42.1302080   8.5704672  83.1382179
  44.7764397   5.0023174  89.5969963  45.4809856   5.4217887  89.1031456
  43.9822960   5.2098572  89.1045666  61.4215374  44.0364122  36.4090943
  61.3978624  44.5003796  35.5721927  60.8295298  44.5322657  36.9746780
 102.6816940 111.4933777  84.1930103 103.3464622 111.5351963  84.8804474
 102.6576900 112.3782825  83.8288879  38.1255245   8.8707179  73.5571861
  38.7615538   8.4277451  72.9955149  38.3253503   8.5569125  74.4391298
  97.1593666  91.2173176  88.2223225  96.5304852  91.2543678  88.9429951
  97.0871925  92.0719242  87.7972794 104.8989010  77.8253031   6.8793660
 105.7717514  77.6977491   7.2509819 104.6661854  78.7228298   7.1170950
  87.7378464  41.7287016  10.7031417  88.2123852  42.3776627  11.2226546
  87.0694923  42.2343493  10.2406895  48.8910341   0.1088687  63.0423260
  49.4250774  -0.5678507  62.6262951  49.4909334   0.8442087  63.1673479
  82.8367901  50.7353878   1.8651973  82.6996994  50.5148363   2.7864969
  82.3503304  50.0661993   1.3837650  87.2700024  35.1170397  12.4717951
  88.1585026  35.4723310  12.4479723  87.2554207  34.5604181  13.2503784
 109.0878010  50.5541945   2.3244303 108.5295391  50.0785971   1.7093012
 108.4895706  51.1424160   2.7852565  92.7664471  60.4938316   4.4759059
  92.6948357  60.3969240   3.5263214  93.1538486  61.3603354   4.5996907
  91.8113899  53.6689854  16.8088937  91.8857574  52.7146769  16.8109167
  91.5816402  53.8894033  15.9061968  10.2855241  79.3538332  58.8226509
  10.4342163  78.9904928  59.6956396  10.9178805  80.0687122  58.7498617
  98.2066631  51.1960840  13.5595167  98.4379005  51.5976524  14.3970740
  98.9294434  50.5966949  13.3736193  99.3092728  43.6722994  12.7512014
 100.0019550  44.2403555  12.4139440  99.0564346  44.0712929  13.5837317
 116.5261841 112.4371624  85.8488846 117.0931530 111.8130016  85.3958797
 115.6575108 112.0361519  85.8202839  30.8982229   8.9101917  85.1944256
  30.5075264   9.6516061  84.7319412  31.6706777   9.2765588  85.6249142
 105.1114559  48.0521441  11.1954927 105.9918118  48.3489418  10.9649920
 105.0266457  48.2548046  12.1271408  23.2664728 104.7323513  71.7908764
  24.0675616 104.3790722  71.4039898  23.4969044 104.9038696  72.7039576
   6.5696621  93.3734512  94.1765118   6.1546391  94.2347622  94.2225456
   7.0751798  93.3942890  93.3639526  40.4275036   5.3670424  66.1008692
  40.9071970   6.1644334  65.8765936  40.7046032   5.1641273  66.9943285
  55.1970226   0.1755404  64.2641163  55.3242452   0.9913993  64.7482967
  55.1901454  -0.5042768  64.9379349  12.3003054  15.3591609  81.1410713
  12.1221614  15.2606416  82.0763779  11.4648294  15.6378460  80.7661724
  57.9296112   1.6520205  89.8509884  57.2114611   2.2801518  89.7739124
  57.5004768   0.8217708  90.0577736  72.6813507  17.2304809  88.7740993
  72.2399378  17.8449547  88.1877518  72.8737736  16.4709449  88.2242775
  32.4994349  23.5827303  76.8807650  32.4273920  24.3445015  76.3056612
  32.3104954  22.8354406  76.3132334  51.4279175  43.1282187  15.6062627
  52.2245979  43.4924793  15.9920633  51.0396385  43.8584518  15.1243544
  87.6789474  56.0247326  26.4508462  86.8259811  55.5904770  26.4411783
  87.8630543  56.1703873  27.3788118 108.9612389  84.6386528  25.3359175
 109.3901348  85.2542400  25.9303355 109.1445065  84.9827099  24.4616890
 106.7050648  36.4626455  13.1222904 107.1724892  35.9156823  13.7536204
 105.8605289  36.6387343  13.5369921  83.9510059  62.3240995   1.3324600
  84.0860558  62.2291279   0.3896066  84.5893192  61.7297983   1.7269109
  89.3175125 106.5423203  20.2051473  89.6282768 105.6603432  20.0007749
  88.4153080 106.4162636  20.4990458  54.2353678  14.6257567  91.6042900
  53.8020802  13.8922274  91.1679077  53.9227152  14.5853150  92.5080776
  56.3604403  32.9704285  95.2571774  56.3249493  33.4557700  94.4329071
  57.1502018  32.4343419  95.1856518 107.5300121  94.1486359  74.0823030
 106.7160320  93.6784172  74.2627573 107.3266888  94.6974850  73.3248949
 118.4817791  84.0386391  65.8555698 118.2629681  84.0608120  66.7871618
 119.1187859  83.3286190  65.7759953 106.2352085 101.6787624  54.4531488
 107.0615482 101.9596958  54.8461771 105.9736919 100.9141541  54.9662066
 117.9120827  87.7854633  57.6812506 117.0437241  87.4018383  57.5587320
 118.0819321  87.6990318  58.6192894  88.4212017  22.8479147   5.0330096
  89.1176796  23.4746575   5.2287906  87.6204967  23.2782459   5.3328782
 108.8276577  85.9707642  67.3108149 108.7363243  85.2986145  66.6354609
 109.7422791  86.2468624  67.2518110  18.8219893  76.9728947  65.4362059
  18.3616292  77.7624321  65.1517200  19.5226097  76.8596077  64.7939205
   0.7604211 111.9484809  59.7463465   0.8546346 112.6409312  60.4004669
   0.3075641 112.3693325  59.0155697  35.7091570   5.2270389  96.0004234
  36.1377668   5.5678874  95.2153397  34.7862172   5.1546764  95.7571507
  16.9592071  87.8242493  74.1666269  17.4034142  87.0533180  73.8136768
  17.2024977  88.5339642  73.5721874 111.7975903  77.5984859  70.9080935
 111.2798977  77.7217722  70.1124620 112.6734638  77.3767853  70.5919933
  33.4097219 111.6831493  54.1611242  32.7602100 111.0699654  53.8170671
  33.7877989 111.2327671  54.9164009  19.0542912 105.3785419  93.6347866
  19.7405994 104.8202419  93.2693863  18.9528477 105.0742245  94.5366383
 113.2931232 107.0631695  73.8562059 113.7292671 107.9016781  74.0076303
 113.5431004 106.5242004  74.6067047 101.5048504  52.0862150  35.8350801
 101.0970879  52.1820879  36.6957617 102.3040867  52.6101828  35.8889961
   3.5811982  92.5839424  63.0875635   4.2987147  92.1457195  63.5451174
   3.5834056  92.1967220  62.2121859 112.0014858  60.6052256  69.7847700
 111.4596462  59.8162460  69.7972298 111.4751625  61.2497902  69.3117428
 114.1160393  58.0677462  60.0634241 114.9616718  58.3306456  60.4267693
 113.7528038  58.8731194  59.6950960   5.3823137  99.8463535  59.4422913
   5.5628788  99.1450405  60.0682211   5.1543432 100.6001663  59.9863815
  82.5191975  62.9492474  32.3131919  82.6901150  62.0367098  32.0801783
  81.5946484  63.0809355  32.1032071   8.9799243  94.0033913  48.0460215
   9.6499676  94.2987823  47.4295616   8.1610537  94.3544102  47.6960707
  97.8418922  78.3209467  37.9256439  98.1291199  77.4257421  38.1054640
  97.0223522  78.2169771  37.4421406  31.0703492  96.6128731  78.1553507
  31.3459802  97.4711704  78.4771967  31.7907667  96.3245773  77.5948954
   0.9854738  76.4261007  40.9203911   0.6831580  77.1981478  40.4420853
   0.2065355  76.1060333  41.3754129 101.3072109  91.2965107  48.6062860
 101.3196945  90.9303474  49.4905949 101.1439228  92.2307014  48.7361479
   5.9549570  93.1008911  59.8472738   5.9642094  93.9828110  60.2192497
   6.2379456  92.5350094  60.5655527   2.5793651  96.2002850  53.7257147
   2.2098054  96.6254997  54.4995689   2.2060932  96.6810989  52.9869938
  19.6740377  82.9461002  70.7293606  19.7195661  82.3178577  70.0086164
  18.7416363  83.0042458  70.9378719   7.1177965  87.8746986  57.8424501
   7.7720857  88.5032463  58.1475115   6.4196390  87.9196262  58.4957409
  14.9714220  90.8403587  79.3546629  15.2120042  89.9292850  79.1864157
  14.1792989  90.9787178  78.8354063 110.9218407  78.0019093  58.0903482
 111.4808369  78.7362528  58.3443117 110.1727390  78.4100771  57.6562166
  10.6850147  96.7473888  48.0313110  11.0488403  96.0135746  48.5266638
  11.2116683  96.7818832  47.2327614  22.7306843  82.1864605  65.6495667
  23.6248350  82.0042706  65.3605509  22.8376698  82.7083969  66.4447784
  25.6105304  84.6262646  55.6158829  25.8096147  84.3505573  56.5106344
  24.9340916  85.2959919  55.7165289  20.4466200  67.0521498  65.3386927
  21.0213685  66.8605709  64.5976162  20.0368834  67.8876114  65.1142979
   0.2085621  96.9403172  60.5983067   0.8553014  96.2446499  60.7166243
   0.4133201  97.3144817  59.7413921  13.9982867  69.7731924  51.0065556
  13.4352601  70.1423788  51.6869497  14.5251989  70.5129242  50.7042408
   7.2512579  91.7104816  61.9948244   7.6333201  90.8332062  61.9692993
   6.6295934  91.6799068  62.7220345  10.7912385  97.0679379  71.5622950
  10.7419884  96.3173389  70.9703398  10.1470721  96.8777847  72.2442913
  15.1014280  90.0975418  82.2287941  14.9095905  90.5230236  81.3930988
  16.0318661  89.8785782  82.1780586  18.5203063  86.0685921  76.6633892
  17.5851238  86.1872864  76.4973211  18.9445961  86.7494106  76.1411810
  23.0866599  60.6282711  53.2895231  22.9398775  61.5468645  53.5150623
  24.0171838  60.5812550  53.0700970  22.4392247  55.1026297  57.6165438
  22.8755307  55.7546854  58.1649017  21.9952178  54.5255804  58.2379150
  17.0199299 111.4493752  90.0726032  17.4116957 111.0184097  89.3129826
  17.3252320 110.9380341  90.8219719  14.9066651 100.4844475  39.6113372
  15.0353467 101.3275337  39.1767335  14.2209697 100.0539589  39.1007185
 106.0770798 107.8776073  48.6342669 106.2415981 108.3393574  47.8120995
 106.6673183 107.1245003  48.6082602  67.1108818   8.6529183  65.9080601
  67.6449299   7.9762971  66.3242435  66.3086605   8.6793453  66.4295769
 109.0943909 104.3349171  36.7000842 109.5023632 104.8391438  37.4040437
 108.9727211 103.4609127  37.0709419 115.1830673  82.5775909  76.5911531
 116.0998058  82.3053074  76.6321611 115.0579071  82.8618145  75.6857347
 113.5572052  49.4640541  65.3950214 113.5880566  50.3977346  65.1864052
 113.0027580  49.0845060  64.7132921  38.5493135  89.0719414  55.3840208
  39.4630194  88.8935566  55.6066179  38.2919669  88.3398056  54.8236895
 117.8376675  73.1983662  66.9369936 116.9334507  73.0690956  67.2232056
 117.7939510  73.1620407  65.9814835 107.9863644 100.1577091  63.1032276
 108.0369473 100.1251316  62.1479177 107.1948624  99.6641731  63.3181286
   2.2847441  66.4153910  48.4154987   2.1719462  66.9258451  49.2173386
   3.1596822  66.0353136  48.4946203   9.7540963  65.8072424  38.2126260
   9.5274192  65.0912333  37.6191759   9.0081120  65.8691406  38.8092065
  90.5768776 111.2497139  80.3524494  90.8224678 110.5365562  79.7631025
  90.9398556 112.0348835  79.9425840  29.2610002  92.2201157  61.5198040
  30.0090289  92.5952148  61.0550594  29.2484760  92.6763535  62.3611832
   4.9395958 105.9808350  72.4380922   5.7013094 106.3392448  71.9824982
   4.9918804 106.3504696  73.3194971   7.3387408  44.9343872  57.4453592
   7.1176279  45.7656384  57.8653145   7.1889961  45.0898838  56.5128183
   0.0397205  64.6302605  57.9374981  -0.1918583  63.9915514  58.6117792
   0.9553681  64.4409275  57.7326202 113.6845303 105.1769447  42.1607018
 113.4614086 105.8644104  41.5331316 113.3878708 104.3674850  41.7447710
  30.8794737  58.9084864  51.4288759  30.7322025  59.7974348  51.7518520
  30.0200248  58.6197042  51.1219788   8.3079904  76.1088037  34.3636155
   8.1522101  76.4984083  33.5032845   7.5313741  76.3375187  34.8742914
  20.2267671  83.2212257  55.7628489  21.0977578  83.3958054  55.4062986
  19.6472538  83.2440186  55.0013542  28.9867020  80.6353855  36.0207820
  28.7217569  80.5735779  36.9385052  29.2933822  79.7558594  35.8002758
  40.3120852  98.4611607  50.3188944  39.9565721  98.9939785  49.6075964
  40.7242775  99.0927696  50.9083080  12.0113778  94.8449230  49.8192692
  11.6634536  95.0921249  50.6760454  12.2293293  93.9170837  49.9079037
  35.5798149  85.1072884  20.5400109  36.3506556  85.6397057  20.3436351
  35.0661111  85.6432819  21.1442065   8.3398235  62.3968410  39.3686724
   9.0524709  61.8011236  39.1373992   8.0036795  62.7061319  38.5274959
   2.3653992  95.1935577  63.9828444   2.5549117  94.2666817  63.8371754
   1.5869118  95.3650188  63.4529495   7.3732698  92.3585606  36.9919205
   6.6700768  91.8462849  37.3910713   7.0744556  92.5188065  36.0967875
  21.1749101  90.1207829  66.3694191  20.6514192  89.3287945  66.4916563
  20.6290436  90.6868267  65.8236647   0.7846900  86.9933319  40.7445812
   0.2850790  86.9827557  39.9281836   1.4421830  87.6766586  40.6141806
 111.8873787 106.6768932  48.9535284 111.0729027 107.0223045  48.5880995
 111.7143154 106.5974903  49.8915958   1.1135909  97.2217751  68.2145882
   2.0343220  97.0702457  68.4279585   0.8886141  96.5152836  67.6092005
   5.5118823  70.7556057  59.9725962   4.9494106  71.4755869  59.6871424
   4.9145225  70.1374149  60.3935862   8.1169015  99.7523880  47.2912741
   7.8487712  98.9165497  47.6730108   8.7941444 100.0797653  47.8832150
   2.5739259  80.7063580  61.6973925   3.2242614  80.4945946  61.0277224
   1.8266323  80.1447105  61.4916182  36.5657854  10.3317010  51.7575979
  36.4557624   9.4169939  51.4979076  35.8620524  10.4882169  52.3872757
 112.0044231  93.6661530  57.4589968 112.3374748  92.7843761  57.2923470
 112.2957706  93.8681602  58.3481264  24.5611501  75.2127552  38.2588220
  24.9931288  74.6670389  38.9159489  23.8357544  75.6243038  38.7285686
   3.8219577  73.1357765  70.0998831   4.0487909  73.1961107  71.0278606
   3.6497012  74.0396595  69.8361635   1.0753074 109.3839264  58.8662243
   1.5032957 109.4709301  58.0144691   1.2629308 110.2088928  59.3139362
  10.6723952  52.2330284  80.8389187  10.9545624  52.2659254  81.7529869
  11.4461291  51.9361210  80.3599453  32.5706363  81.5698147  51.9044209
  33.1863093  82.1886253  52.2971678  33.0327320  81.2243176  51.1406565
  55.6717348   2.4650539  39.6394944  55.6255007   1.5929377  39.2476940
  54.9315500   2.4948372  40.2456856 118.3899975  80.2153015  63.8194752
 117.8873539  80.1665020  64.6326160 119.3016148  80.1200008  64.0953302
   5.5368274  76.4989471  54.9505997   5.2806652  77.2546721  54.4219351
   5.3353196  76.7565775  55.8501863  21.8549180  93.8596535  29.1805887
  22.7478051  93.8785648  28.8361692  21.7763948  94.6680737  29.6870637
   1.7564893  90.2404594  67.7523232   1.4097627  89.4583988  68.1817245
   1.4564849  90.9667301  68.2989168   9.8851192  91.5150642  58.2931900
   9.2224884  91.0837078  57.7536631   9.6196061  92.4345589  58.3090687
 116.7548656  99.1114807  60.4082823 116.1087322  99.8079395  60.2912712
 116.2578487  98.3840847  60.7825899  17.8675866  87.5975800  33.2265353
  18.7928379  87.6203918  32.9823613  17.7599645  86.7612267  33.6794877
 104.3808556  99.7846794  89.3987370 105.0219345 100.2035713  88.8244629
 104.0067673 100.5051613  89.9058914 103.3432579 108.9017296  57.1331406
 103.4434605 108.0445099  56.7191744 103.1791115 108.7046432  58.0553341
   2.5698078  91.8543816  77.2539330   1.8369180  92.2972202  77.6817083
   3.1640589  92.5618362  77.0037222  17.5972319 102.8117943  60.7982969
  18.3096290 103.4501171  60.8339453  17.1627390 102.9841995  59.9629974
  87.9437733 107.3808384  70.5229759  88.0099964 106.6512966  71.1391115
  87.0026779 107.5153732  70.4113340   8.5515845  87.7792454  88.7964821
   9.2188060  87.1232986  88.5945225   7.9472655  87.7423096  88.0550861
  52.5186491   2.6267383  62.7107716  52.4986553   2.6701346  63.6667776
  52.6289511   1.6961810  62.5155067  12.4946845  85.3039837  57.1275139
  11.5770280  85.5560875  57.0246601  12.6430237  85.3203011  58.0730104
  30.7081556  85.7621861  42.6139069  30.1169467  86.2903786  43.1502914
  30.1292944  85.1799583  42.1217966 105.8800888  92.7806854  37.8390336
 106.2440300  92.5542355  36.9831729 106.1688709  93.6804295  37.9916382
 117.1992397  60.5293846  59.7160482 117.1436024  60.7951260  60.6339359
 117.2278404  59.5730448  59.7448826  19.3926382  92.6803493  28.1813240
  20.1920056  93.1592083  28.4002614  19.5574987  92.3258495  27.3076057
  28.6418319  75.0818539  45.4380751  28.4003448  75.8933783  44.9915934
  27.8140020  74.7373247  45.7730865  10.2803338  90.8066273  63.7193680
  11.0303044  90.3304100  64.0757179   9.9995112  90.2838135  62.9683447
 106.5096283  80.2178764  68.3907747 105.7680035  80.1379776  68.9906406
 106.3519573  79.5489120  67.7245474 106.1620998  98.5214806  63.9375639
 106.6417503  97.7398109  64.2117214 105.3868198  98.5358810  64.4987774
 105.2315426  86.5143585  79.9753141 104.6103954  86.0266876  80.5162144
 105.6049538  87.1664810  80.5682182   5.3705466  63.5413456  84.1895962
   5.2837908  62.6213741  83.9398670   4.6693695  63.6840916  84.8253632
 112.6915169  93.9051819  60.9459066 112.2197056  94.6032143  61.4001942
 112.0230293  93.2457256  60.7602501  14.3957841  88.5612774  58.4579420
  13.6424601  88.4114838  59.0291643  14.4399309  87.7780628  57.9094315
   8.5674703 108.0972004  62.9171371   8.6026406 107.5279903  63.6859035
   7.8412539 108.6949444  63.0947256   4.3348294  92.5444794  56.8729162
   4.4215783  92.8978062  55.9875536   4.4772494  93.2975578  57.4463463
  27.2846746  76.9467592  49.5994949  27.7743626  77.4905109  48.9824295
  27.3957801  76.0540199  49.2725277   2.0843159  63.3341265  64.3551779
   1.4110920  62.9187584  63.8162231   2.1785104  64.2122793  63.9861107
   3.7294376 108.6563110  68.2935238   2.8781644 109.0742207  68.4235811
   4.0688583 109.0493488  67.4894428  94.3981838  74.0517902  48.6167812
  94.6507645  74.1889048  49.5298147  95.1632214  73.6390591  48.2160282
  29.5298314  86.2714386  97.0642757  28.7216115  86.2992668  96.5521812
  29.4462276  86.9967079  97.6833248 100.7925510 101.4271927  40.9578943
 101.5280819 101.7413330  41.4837599 100.2266788 102.1924877  40.8562374
 117.6893044 107.2601509  27.4328399 117.1336079 106.5138626  27.2081423
 117.9135799 107.1232224  28.3532667 119.0007496  84.2630100   2.2651841
 118.1223774  84.3673611   2.6309872 119.0622425  83.3319473   2.0517060
  41.3384390   3.2007247  45.0138378  41.1382484   4.0806830  45.3329468
  41.2768984   2.6445580  45.7904482 103.8452435  74.0246391  76.6154814
 103.9229965  74.9769592  76.6726398 104.7397137  73.7039423  76.7308283
 113.9893913  71.0605907  66.4516735 113.6153698  70.7069874  67.2587013
 114.5996475  71.7365026  66.7465734  24.3189263 104.9941063  67.3571253
  23.6104774 105.0152397  68.0004644  24.0061307 104.3988991  66.6758680
   3.2148263  96.1249828  77.8910112   3.1821439  96.9322968  77.3777819
   2.3243742  96.0175037  78.2253361  97.8252697  70.0986338  62.3776722
  96.9396496  70.0714779  62.7398586  98.0175209  69.1898441  62.1466589
 106.4480591  64.7774458  57.2149897 107.1615410  64.2751122  57.6084757
 105.8971596  64.1193581  56.7911291 103.9472961  71.7564154  43.9830923
 103.9353752  71.5180063  43.0561304 104.5088387  72.5305080  44.0241051
 113.6450577  81.9799423  37.3773932 113.2209110  82.5745010  37.9961228
 114.5591831  81.9524097  37.6599646  31.8524671  82.2278595  19.1964090
  31.8623519  82.4682236  18.2699323  31.0085201  82.5456715  19.5173120
  45.9493637   7.0425522  33.3148718  45.7590866   6.8291718  32.4013638
  46.5317440   6.3418263  33.6082125 112.5684071  95.1736927  45.6781054
 113.2839584  94.6635532  46.0575485 112.9938412  95.7427311  45.0366688
   6.7034948 105.9481525  67.4667740   7.4962407 106.2080956  67.9360437
   6.4104372 106.7480183  67.0302343 107.9872704  82.7409935  38.4157395
 108.1904316  81.8243885  38.2291937 108.0960655  82.8223896  39.3632460
   3.7843135  86.4271832  49.2995358   2.9500914  86.1774254  48.9021397
   3.8614336  85.8631325  50.0690413 110.8784962  95.4091549  35.3049874
 111.5426636  95.8881760  35.8006144 110.9384441  95.7648087  34.4183373
  15.9565043  92.8579330  69.2270279  15.1037991  93.1533718  68.9079094
  16.3815558  92.4781227  68.4580612   7.1830773  84.6657753  32.4797440
   7.8954935  85.3038502  32.5190997   7.2692269  84.2636013  31.6154146
  17.7605379  82.1190739  25.5703712  17.3339844  82.7555943  26.1440706
  17.3482823  82.2519779  24.7167826   6.1430722  69.2726898  55.4484606
   5.9028327  69.0382910  54.5520401   5.4209131  69.8215199  55.7542419
  16.1865461  82.2872829  65.8532143  16.0362947  83.1989861  66.1031437
  15.5336237  81.7924976  66.3482952  13.1478643  87.8104210  47.1079111
  12.7917373  87.2841930  46.3920259  12.4274182  87.8818035  47.7340841
 108.3184719  80.2396297  45.5461407 107.8855419  80.6290817  46.3058281
 107.6720524  79.6313858  45.1877928  19.3234873  89.3514252  69.4463825
  19.7431803  88.6084366  69.8800325  20.0455809  89.8307514  69.0401077
 117.2508717  93.2352448  65.7082367 116.5625286  92.5701046  65.7097149
 118.0490303  92.7534389  65.4913473  11.1811650 108.4304333  56.6726685
  10.5836427 108.4596062  55.9254408  11.1440289 107.5225830  56.9737434
   5.8494711  95.4953480  61.2135458   5.1615149  96.1595058  61.2564754
   6.3049424  95.5677319  62.0523167  13.7312746  89.9614716  76.3571739
  14.2402375  89.1847610  76.5893745  14.3679798  90.6761551  76.3648462
  38.7667847  92.7912521  68.4746599  39.5057368  92.9059124  67.8771353
  39.1706109  92.5967598  69.3204308 104.5032692  92.1238422  56.4851332
 103.8095284  92.0789719  55.8271456 104.9868870  92.9211903  56.2692976
  24.1786146  88.8808441  61.3791513  25.1251936  88.8649750  61.5204573
  24.0443087  88.3465767  60.5963707   0.7699680  91.1424351  51.2333107
   0.2397864  91.8529606  50.8723545   1.2745735  91.5530014  51.9354725
  47.0279789  12.2099960  79.1071129  47.9597330  12.4286783  79.1228390
  46.6104078  12.9041207  79.6170712  34.6458459  76.6913605  75.7696629
  34.0914631  77.2107840  76.3519764  34.1201901  75.9179258  75.5654192
  32.7510142  99.7416687  39.2328310  32.4798417 100.5640602  38.8249445
  32.7049327  99.9141216  40.1732397  80.9543800   7.2814691  68.8692713
  81.6743374   7.5282407  68.2887602  81.3615513   7.1912748  69.7308445
  56.0520363   3.7816375  54.8524046  55.5066109   4.3005782  55.4435444
  56.6675806   3.3295316  55.4294062 114.3969822  93.9512062  53.1766701
 114.9279213  93.9774513  52.3806524 113.7151909  94.6071911  53.0315590
  22.5723577 103.0735302  78.1959820  22.5380158 102.4419308  78.9144135
  23.2818770 102.7600098  77.6351643  12.1905506  83.1704998  60.8041954
  12.1367788  83.2129860  61.7589378  12.7045751  83.9397717  60.5587816
  39.9491572   3.0310321  38.4586811  40.6149864   3.7158072  38.5218239
  39.3425560   3.2200387  39.1746020 116.8033981  87.8351498  62.8178310
 116.7898464  88.7874889  62.9132318 116.8671894  87.5055313  63.7142181
 104.2197227  75.9896374  66.5083218 103.2897282  76.2125111  66.4673090
 104.2969036  75.1878834  65.9911537 117.6876736  90.4385853  56.1206198
 117.0391369  90.9792423  56.5715170 117.7570629  89.6495628  56.6580772
  33.4704733  80.0324345  76.5407372  32.8014803  80.5640888  76.9720507
  33.3872390  79.1686916  76.9447708   8.6242628  76.7410994  87.7952003
   7.8888941  77.2136354  87.4050999   8.8405263  77.2418451  88.5817814
  57.9246044   1.5413074  59.1566372  58.2975531   0.9449762  59.8058891
  58.1979036   1.1790802  58.3138275 103.2298756  40.3183365   1.4514698
 103.6843395  40.2956820   2.2935981 103.5387421  39.5377588   0.9915455
 116.7910767  85.6880188  34.6435523 116.1466789  85.2833557  34.0628338
 117.1616364  84.9563026  35.1370215  67.0951128  17.5457954  53.1969357
  67.2616386  17.4993420  52.2554779  67.9573774  17.4378765  53.5982943
  71.4513636   7.2234273  19.2989230  70.5794001   7.6108104  19.2225111
  71.6631889   6.9333893  18.4116566  25.2585268  84.0690517  38.4768319
  25.7805037  84.1847515  37.6828623  24.3538451  84.1899109  38.1884336
   1.2373029  70.3747845  67.8674030   1.2613240  71.3176918  68.0304384
   0.3107168  70.1793861  67.7277994  38.0587506  14.2026961  19.4992292
  37.8971577  13.3905065  19.9792993  37.1984529  14.6171415  19.4332564
  20.9440494  97.1009541  21.0209155  19.9892783  97.0875645  21.0877299
  21.2331939  96.3769817  21.5763307  13.4477580 103.0768871  84.7807598
  12.6600909 103.2485485  84.2646790  14.1005075 103.6829853  84.4303417
  14.5112872  87.3929691  72.3357821  13.8586104  87.9776859  72.7209473
  15.1584637  87.2662640  73.0295706  12.7282286  88.3373356  61.1137486
  12.3295152  89.1544724  60.8145094  12.2045171  88.0789661  61.8721724
 117.3392487 104.5373631  25.3552461 117.2300720 104.1282272  24.4968033
 116.9003391 103.9413643  25.9621859  10.4576778  99.2444801  48.8420248
  10.5188453  98.4394741  48.3277750  10.2187920  98.9497375  49.7208261
  31.2821484  13.6064804  27.5171828  31.4344788  12.6643217  27.5904155
  31.8093085  13.9895463  28.2183218  49.2245436  18.1107879  75.0154352
  48.8720560  17.2647953  75.2916241  49.9717569  18.2596207  75.5948782
  20.6400132 106.3477898  79.5375586  21.1472988 105.5485058  79.3959713
  21.2194514 107.0533276  79.2499828  20.7792521  80.3639412  46.8362999
  20.8576775  81.2987137  47.0267582  20.5715227  80.3263283  45.9026718
  38.2969022   2.5985110  46.1654425  37.9832292   2.0820864  46.9078350
  38.0640197   3.5004577  46.3856459  13.4040380  97.9705715  72.5385857
  14.1152632  97.3601723  72.3441505  12.6217782  97.5474167  72.1846867
  20.8857131  96.2252903  44.0733910  20.2530956  95.7802868  44.6372986
  21.4985418  96.6393185  44.6810627  23.0001926  84.5830059  36.9184375
  22.2109246  85.1059055  37.0593762  23.3234429  84.8632717  36.0621715
  54.7085571  13.9409709  74.2595148  55.1067924  14.4039106  74.9966240
  53.9731932  13.4646201  74.6449566 119.2950637  97.9637527  41.3654661
 118.7065599  97.3923302  41.8587875 119.0866231  98.8456917  41.6736460
   5.0916487 101.7440987  78.3792210   4.8209882 101.3494396  77.5502348
   5.4163462 101.0092449  78.8996077  45.2020359  10.3734720  45.3070354
  44.6950817  10.1284254  44.5329666  45.8645201  10.9805369  44.9771595
  52.6951504   2.4802694  40.7230806  52.5811481   2.8073484  39.8307490
  52.0287180   1.7994267  40.8155870  15.2229786  96.8992805  44.6964025
  15.9739292  96.8346882  44.1063738  14.4848526  97.1055412  44.1229391
 108.0975533  96.8615532  47.0910645 108.2642078  96.7010784  46.1622477
 108.0452633  97.8145409  47.1638680  24.0000224  82.6073837  80.3596306
  24.8394632  83.0547810  80.4664326  23.3831334  83.3051395  80.1386833
 114.4929695  94.9987984  64.8353434 114.0694809  95.7595825  64.4377422
 114.7677326  95.3025246  65.7004929  35.3700471  16.7451191  47.3543787
  35.1865482  16.0288084  46.7465448  35.5741096  17.4912858  46.7906141
  13.4400451  94.3430042  68.3114386  12.5451040  94.4734097  67.9978991
  13.3532703  94.2756748  69.2623186  16.8357325  98.3380795  34.0931749
  17.3739362  97.7354813  34.6064425  17.3422170  99.1499233  34.0685606
 103.7586498  94.9921894  48.0964851 103.1846809  95.7179642  48.3415508
 104.1429043  94.7009754  48.9233875  36.0301995   4.6616787  38.8755822
  36.5648365   3.9835736  39.2885804  36.5544939   5.4589748  38.9508414
  13.4390748 103.4097767  44.0268564  13.6421072 102.9890251  43.1914091
  12.7438986 102.8705215  44.4039106   4.7106376 100.7963467  75.7533741
   5.6318420 100.5363274  75.7558107   4.4725016 100.8256912  74.8267317
   5.2877218 111.4069366  35.5591679   5.4124844 110.4587460  35.5992532
   4.5741314 111.5283489  34.9328470  16.5133870  82.2334385  63.0900002
  16.2058640  82.1028614  63.9870024  15.8063948  81.8921661  62.5423527
   1.8936959  90.9320736  45.6694365   2.7971721  91.1963367  45.4958582
   1.8820353  89.9907207  45.4963827  19.2010009  92.2405052  49.8016691
  19.7110343  91.6233730  49.2770338  18.3064079  92.1522141  49.4728231
  32.1212530   4.4227919  48.3948517  32.9884982   4.0344429  48.2795048
  31.5723610   3.9795062  47.7479792   2.9343873  98.0335236  41.0038710
   3.0595705  97.7431774  40.1004028   1.9845983  98.0456352  41.1221361
   6.9564164 100.3019428  80.0969696   7.8690445 100.1420689  79.8565912
   6.4667720  99.6104622  79.6516275 108.4851742  99.9525833  60.2939415
 107.6334476 100.3575706  60.1303148 108.8395786  99.7794437  59.4217873
  25.9471965  11.6240621  59.4292259  25.8319640  11.3350570  60.3344488
  25.5495739  12.4943781  59.4032049  21.2717581  86.8839169  49.9401331
  20.8325696  87.6748371  50.2528286  20.6897664  86.5384960  49.2632246
  12.4027658  98.0023956  66.3306570  12.2752964  98.5079193  67.1334219
  12.3718870  98.6537838  65.6299639  23.5814023  81.8405247  57.4008560
  23.3101988  80.9569359  57.6497507  24.2973518  81.7053795  56.7800665
   4.1437212  83.1836224  61.7323208   4.0291843  83.1429482  60.7828665
   3.6887422  82.4086285  62.0618725 108.3802795 102.3194408  55.7477474
 108.5491943 101.7842674  56.5231752 109.2009640 102.2939968  55.2557564
  31.9342065   1.8684843  44.5516491  32.7391267   2.2090718  44.1613531
  32.1159625   0.9412558  44.7047615 114.6670628 108.4853745  70.7358551
 115.0240993 108.6951447  71.5988493 114.8785591 109.2479324  70.1973438
 109.6360874  83.3862686  46.1548471 109.9418449  83.9369965  45.4341269
 108.8269138  83.8044071  46.4491749  21.2407374 104.6131706  43.0843973
  22.0033765 104.1529179  43.4348011  21.2733936 105.4775143  43.4943628
  33.3313584  84.5468426  42.1659327  33.3674240  83.8662338  42.8380203
  32.4196148  84.8383045  42.1688890  40.8566999  80.9023666  54.6431255
  39.9910831  81.3095474  54.6769571  41.4575624  81.5935516  54.9214315
  16.2266040  87.9268551  52.6118135  16.1196315  88.5788631  51.9192314
  15.7553387  87.1577168  52.2915459   1.3674620 107.5160789  41.8379402
   2.2381821 107.4008179  42.2184610   1.4729531 108.2314110  41.2107229
  22.1127844  67.4328518  50.4505825  21.1790490  67.5991249  50.3212595
  22.1893144  67.2043180  51.3769484  27.2590590  99.5120335  40.4364634
  27.4442554 100.3393555  40.8808327  27.2441673  98.8612938  41.1382866
   9.5137078  97.7286625  85.2683640   9.5651889  97.9328060  84.3346119
  10.3087449  97.2267914  85.4479980  19.9812579 105.2141666  67.5934124
  20.8424759 105.4652882  67.9272890  19.7648108 105.8931446  66.9543743
  59.2233515   7.7538389  88.4195518  58.9530849   7.9496843  87.5224209
  58.8676357   6.8820739  88.5919571 116.6069126  90.2940178  63.7702465
 116.6776180  90.2544498  64.7240114 116.0773659  91.0733223  63.6014557
   0.5925966 101.9801712  75.1803398   0.3860074 102.1598721  74.2631388
  -0.2016135 101.5762234  75.5300426  31.9528484  81.7074680  77.8050232
  31.6732216  81.2540531  78.6002922  31.2616158  82.3485088  77.6391792
  20.8753133 103.0656910  48.9236498  19.9376500 103.0518055  48.7317467
  20.9257936 103.2737827  49.8565912  18.1437659  97.1304703  72.7924919
  18.3040738  97.9642773  72.3505688  18.7888253  96.5318871  72.4158859
  28.7024736  94.2053986  40.4674244  29.6101141  94.4937134  40.5638266
  28.4804821  94.4125843  39.5596671  18.4254575 105.5437565  50.8907700
  17.8652966 105.7966423  51.6245985  18.2290113 104.6179676  50.7474279
  92.1715260 110.7891369  66.9540834  92.4294376 111.7102909  66.9885302
  92.8563213 110.3679466  66.4345789  17.7481449  90.6845570  41.9027138
  17.5614059  91.6124439  42.0454788  18.7038112  90.6313896  41.8924141
 116.0854244 108.5507584  43.3171082 116.9463921 108.6829567  43.7139463
 115.9181690 107.6133347  43.4145308  67.8482533  13.0699754  51.7319012
  67.2911024  12.6374388  52.3789883  68.4894180  13.5534632  52.2528362
  17.2745597  94.6943665  54.6764421  17.6634741  93.9325428  54.2467976
  16.3393819  94.6264648  54.4839239   8.2368118 110.7482338  76.5631390
   8.3342260 111.0142994  77.4774408   9.0105867 110.2134705  76.3855648
  30.0859475  95.6996346  57.8237295  30.5878067  95.3716564  57.0775366
  30.7159805  95.7241535  58.5439301  20.3083491  99.9475956  45.6155348
  19.8559380  99.7098255  46.4248705  19.9684489 100.8153725  45.3972006
   5.4857528  92.1498299  48.6336613   5.7089317  92.3610592  49.5401955
   4.7732577  92.7508736  48.4161234  32.6762438  92.2558975  54.8997259
  33.5540271  92.1986198  55.2771473  32.3722935  93.1332397  55.1323414
  22.2395587 105.2667427  69.3514299  21.9670010 104.6170044  69.9993420
  22.3973513 106.0615253  69.8609829   4.6927005  91.4159870  42.2460556
   4.0044415  91.9241238  41.8167162   4.4814980  90.5052376  42.0407248
  12.6176691 102.8476048  35.1186609  11.7420256 103.2327557  35.1524210
  12.4687481 101.9356823  34.8687553  27.4725199 102.7917290  85.2423573
  28.2514334 102.6345921  85.7760525  26.7659354 102.3509407  85.7142448
 107.1504688  86.9943047  64.0778589 107.0164299  86.7163754  63.1717539
 107.9195309  86.5035725  64.3676281  10.8176994  78.9524174  46.0237741
  11.3634980  78.9938879  46.8090248  10.0713050  78.4103203  46.2792397
 118.5980726 104.9917603  58.0306721 119.3135646 104.3561172  58.0144739
 119.0139821 105.8139801  58.2898855  13.3168721 105.4219437  75.7485676
  13.2989764 106.1833763  76.3283300  13.0625522 104.6884918  76.3085699
  23.2355762 108.0648994  28.2402110  22.8529215 107.9238796  29.1061926
  23.9628124 108.6677265  28.3949852   5.0074768  84.5369339  72.5431776
   5.9002686  84.1934109  72.5770378   4.7812968  84.7066307  73.4576607
  51.7641926   4.7383806  42.0415688  52.3728943   4.1322213  41.6193295
  51.1989355   5.0433522  41.3318443  32.6776528  85.0326252  67.3070812
  32.8595257  84.1093636  67.4823952  31.7488647  85.1371956  67.5136042
  27.9736900  83.7595081  60.4159069  27.6959133  84.6208858  60.7275295
  28.0222654  83.2228184  61.2070084  31.0510159 101.2513828  32.9976988
  31.5911126 100.6785107  33.5420752  31.6350412 101.5330887  32.2935772
   6.3632053  92.1290207  76.0593987   7.2069907  92.4551296  75.7464886
   5.7529819  92.3219395  75.3476095  53.7524223   5.6720078  37.0781708
  54.1602516   6.1565530  37.7958941  54.4621420   5.5290037  36.4520073
  56.6251945 111.4496613  59.4599628  56.7801428 111.7486572  58.5639620
  56.9201660 110.5390453  59.4629669  18.6963832 101.9865227  44.6674538
  17.9065657 101.9615078  44.1272736  18.6031866 102.7822304  45.1912880
  60.5839634  17.6093972  62.3661470  60.6045103  17.8702807  63.2868767
  61.5000629  17.4435508  62.1436930  13.5210323  94.4045830  71.2966633
  13.1402755  94.1298962  72.1308136  13.9806986  95.2192211  71.4998913
  19.0459335  96.7479134  76.6939878  19.6073461  97.4900246  76.4696598
  18.3545184  96.7619991  76.0321856  30.4705071 111.1824226  70.3647423
  31.1851478 111.0555172  69.7407103  29.8717952 111.7852688  69.9238873
  76.8676567  11.4041674  53.6827707  77.4085140  12.1691406  53.4865093
  76.6904974  11.4704609  54.6210957 116.8165302  58.2876635  61.2274313
 116.8275356  58.6978769  62.0922089 116.9582176  57.3572206  61.4018822
 109.8008060  22.1349621  33.2611728 109.2737865  21.5625787  33.8187242
 109.5674515  21.8806767  32.3683596  95.6240368  68.3190775  26.7523336
  95.2046299  68.3838701  27.6103115  95.3760433  69.1269970  26.3028860
   7.0376807  57.1465111  55.1825523   7.1410340  57.6411581  55.9954977
   6.2113202  56.6759777  55.2919006  94.5978737  51.3936234  59.8974371
  93.7373447  51.3505745  59.4804668  94.4073486  51.4880896  60.8307171
 101.0144043  50.2741957  46.1853552 101.3986206  49.4068050  46.3128042
 101.2780762  50.7692671  46.9609928 116.9782639  44.3381929  49.0643549
 116.4577484  44.5625591  49.8356867 117.6424694  45.0257015  49.0153742
 105.4637623  74.0929270  43.9561796 104.9312019  74.8247385  44.2677355
 106.3303566  74.2508173  44.3307543   2.2814558  49.1232491  52.5075006
   2.3802330  49.9301958  53.0127907   1.4372510  48.7681866  52.7858496
  25.5021954  80.9889412  55.4397774  26.2612367  80.5388546  55.0689507
  24.8400068  80.9501457  54.7496796  21.0280609  65.3344011  36.2211514
  21.9472790  65.0994587  36.0943794  20.5756712  64.9436045  35.4735851
 117.8000832  89.4012928  47.3738432 117.1961689  88.8747883  47.8976059
 118.5989475  89.4432831  47.8994608 104.7259998  51.8913984  42.6789665
 104.2964649  52.7339888  42.5313902 104.1045284  51.3959217  43.2123613
 115.4433727  59.2226219  64.5094824 115.6241417  59.0628433  65.4357767
 115.2665806  58.3546305  64.1467619   9.4720602  46.8510151  56.4850664
   9.7924811  46.8465996  57.3870325   9.7832626  46.0243416  56.1162853
   7.8868228  66.7991161  39.8726344   7.8325737  66.2523842  40.6564522
   7.8968996  67.6961327  40.2065277  19.5701396  72.2525167  26.1724567
  20.4769349  72.2489452  26.4789557  19.5861566  71.7294407  25.3709769
  96.8243694  62.3248959  50.3774452  97.4864674  62.6968527  50.9601116
  96.0036182  62.7294922  50.6583309  13.0811882  67.4107075  52.0856142
  13.5172820  66.6176653  51.7739391  13.6633599  68.1234217  51.8222857
 105.6687450 103.8698006  76.2470007 105.3342724 104.6621990  76.6670656
 106.2972927 103.5130787  76.8746185  28.1547666  58.1109047  39.6831751
  27.4921012  57.4794245  39.9630737  27.8419328  58.4264517  38.8353562
  26.6669369  84.4511414  36.2810206  26.7031312  85.0207615  35.5126119
  27.0194578  83.6150551  35.9761906  12.9577887  91.3255405  30.2074409
  13.7588620  91.7606449  30.4993296  12.5396276  91.9594288  29.6247220
 117.8688908  91.5541649  23.3988523 118.7727261  91.2392330  23.3878112
 117.4130440  90.9959698  22.7688885   8.6906439  75.4670238  20.8603597
   8.4448636  75.3684044  19.9405241   8.2580870  76.2742996  21.1386323
 109.5749664  49.8931599  71.5185738 110.2236938  50.4565144  71.9404984
 108.8732624  49.8105860  72.1643543  11.0495329  72.0014572  42.6824856
  10.8487523  71.1432600  43.0558777  10.4932857  72.6102114  43.1685305
   5.4865664  47.3282909  66.9371510   6.3870245  47.0199299  66.8355560
   5.5446237  48.2774210  66.8275595 113.6278629  33.2125592  59.3412924
 113.7588882  32.2771573  59.4964933 113.6139584  33.6008477  60.2160931
   6.0479635  64.5306158  26.6246009   6.0579616  63.5743189  26.6649461
   6.9143790  64.7653913  26.2922812  30.4610085  56.9355440  54.5308542
  30.1018023  56.7232513  55.3923273  30.4049969  57.8895569  54.4764709
 112.7356911  71.7219877  55.3027296 112.8722191  70.8864975  55.7494402
 113.2045460  71.6295624  54.4733524   4.1837406  34.1680622  36.2012315
   4.7602412  34.7089767  35.6615210   4.7709677  33.5440779  36.6278934
 104.2479992  60.5986357  59.9297094 104.6617126  61.2235165  60.5251884
 104.9375057  59.9653769  59.7302008 111.2679768 107.9860687  32.7583480
 111.8430424 108.0821609  33.5174942 110.3860855 108.1123447  33.1084132
 111.9183826  84.7593307  65.3221560 112.2783470  85.4630566  65.8619976
 111.2588787  84.3443871  65.8781290   7.7193433  75.5646610  39.6191955
   7.9519087  74.9059248  40.2735806   8.5118538  76.0918140  39.5178509
   7.3586202  57.5378132  50.4465866   7.2278643  58.3402729  50.9517527
   7.2496736  56.8326807  51.0846710   2.6658589  77.4645424  43.2693386
   1.9534075  77.1570158  42.7089167   2.2428423  78.0564165  43.8914108
 107.8117085  74.9833250  48.0357075 107.5868797  74.7533607  48.9372635
 108.7050438  75.3226805  48.0907536   7.8620815  58.1335688  45.8466864
   7.6983267  57.3413658  45.3349924   8.6167067  58.5413694  45.4218674
  13.2537317  86.6202259  23.5440564  12.9531121  86.4002705  22.6623082
  13.2662559  85.7833672  24.0085506   9.0692949  84.3135452  30.2427864
   9.7455400  84.9660015  30.4250693   9.5392257  83.4798145  30.2259111
   8.3033991  90.9915924  65.9994698   7.6099133  90.3999996  66.2915897
   8.6297828  90.5971527  65.1906872   5.7313442  75.1173878  66.3212967
   6.5017056  74.5825911  66.5130377   6.0347950  75.7496023  65.6697941
  36.2317848  63.0515623  26.8167973  35.5163002  62.4452972  27.0085192
  36.9646168  62.7311516  27.3426557  36.2527156  61.3443661  43.1198597
  36.2838340  62.2165823  42.7267933  35.5114174  60.9153605  42.6924658
 118.4397888  56.9271135  43.5433722 119.0504742  57.6605892  43.4704208
 118.6809063  56.4953041  44.3629026 115.5579281  66.6089630  37.9709220
 115.4870319  66.5230370  38.9216161 115.3604507  67.5295162  37.7982450
 112.6593781  59.7647715  39.9533248 112.0977211  60.3051186  40.5090237
 113.4290504  60.3095818  39.7889161 106.5153980  66.7559958  58.8908958
 106.4391232  65.9875822  58.3252478 107.0132256  66.4475822  59.6480465
   2.3476756  61.2957859  54.1748333   1.6637820  61.4750814  54.8201036
   1.9543605  60.6571341  53.5801411 118.5353088  85.1716423  23.5367179
 119.2064095  85.4321289  22.9058433 118.0716610  85.9834766  23.7421012
  15.9747148  53.6716747  41.3180733  15.1913643  53.4651613  41.8279219
  15.7191157  53.5094738  40.4100037  18.9694524  75.3539658  55.9499264
  19.6335614  74.7180033  55.6839418  18.7797070  75.1347828  56.8621683
  98.2025719  71.2319088  67.8561354  97.2639847  71.1278200  68.0124855
  98.2856178  72.1030474  67.4682474 113.5181999  54.2165518  46.3548279
 113.2169533  53.5196686  46.9377804 114.4722080  54.1387510  46.3615417
 110.6026459  68.8355923  55.0105810 111.2442207  68.8326883  55.7209349
 109.8888111  68.2838249  55.3303051  15.8627820  67.8640175  52.6580238
  15.5869544  68.2352018  53.4960985  15.4279637  67.0121861  52.6186371
 102.5727367  76.8857336  28.1020260 103.5015106  76.8837118  28.3335519
 102.1374226  76.4852715  28.8545990   4.0640843  62.4164343  49.6845245
   3.8569769  62.6191187  50.5968046   3.3021933  61.9310141  49.3681002
 115.2250862  63.9708471  67.6780748 114.3741703  63.9793444  68.1163549
 115.1064968  63.3776855  66.9362307 106.1543941  48.2918310  58.6173630
 105.4940605  47.8417683  59.1442776 106.5550613  48.9186049  59.2197323
 106.8407440  67.0200014  43.5568571 107.2992229  67.5722837  42.9235983
 106.5386200  67.6286840  44.2309904  35.2677894 105.3271484  28.3476949
  34.8049712 105.6702900  27.5833106  36.1329532 105.0869846  28.0159712
   4.5062590  75.9266710  62.9138803   4.1521525  75.0766468  62.6525545
   5.3254032  76.0054493  62.4249744 113.3987236  94.6106434  92.2117233
 114.1810417  94.0605259  92.1719265 113.0303097  94.5673084  91.3293266
   1.1258471  67.1099997  59.0134239   0.6817316  66.2943602  58.7816334
   0.5348052  67.5365877  59.6338463 104.3701553 100.7935715  68.6875057
 105.0846386 101.2128830  69.1670132 103.5776234 101.0735512  69.1454649
  10.3591764  34.0753078  37.8073359   9.9926621  34.3856668  36.9793415
  11.2081409  34.5126438  37.8723550  13.1676602  59.9051237  24.5970297
  13.4571207  60.6530476  25.1195765  13.2325220  60.2065945  23.6908627
 106.7707062  89.1232681  69.1132736 107.0895576  89.6666241  68.3926344
 105.8202362  89.1098118  69.0007162 105.5512714  85.9284019  31.5030909
 104.7351742  86.4285469  31.5122366 106.1596775  86.4719200  31.0024285
 117.3507977  76.5825129  63.9001751 117.8053665  76.6512537  63.0606079
 117.0799732  75.6658649  63.9515638   3.5304308  97.1963787  61.4625835
   3.1768745  98.0694771  61.2924910   2.8329280  96.5988350  61.1930323
  29.9599552  77.9612732  35.1259565  30.6479931  77.8352833  35.7793808
  29.1640520  77.6427078  35.5517364 115.4160500  66.1096621  53.5775328
 116.2779522  66.5253401  53.6014843 114.8070240  66.8302393  53.4160089
  10.4997873  95.4241371  79.2346525   9.6117437  95.2063847  78.9514685
  10.9846425  95.5586243  78.4203672   4.9751273  69.0339994  52.7051258
   5.4773247  69.0846586  51.8918228   4.3538505  69.7599840  52.6486111
 114.8027325  39.3431449  41.2373924 114.1330910  39.2677450  40.5575895
 115.5357170  39.7804332  40.8041096   2.8422537  77.6890898  50.7726479
   2.1950629  77.3653746  50.1460838   2.7949333  77.0745039  51.5049553
 112.3820591  99.1323948  71.8565178 111.7272758  99.0788174  71.1603689
 113.1295776  98.6376572  71.5208244  13.6558974  65.9147120  42.1474171
  13.9522624  66.1213017  41.2610102  13.2739282  65.0400639  42.0744991
 110.8298683  62.3739147  40.4044151 110.2665710  61.8392706  40.9639597
 110.2405071  63.0248022  40.0233030   7.1713227  72.2813702  32.2668123
   7.5609887  72.4722624  33.1200147   6.2311643  72.2297001  32.4390459
   4.5844147  77.9821157  46.6058111   5.1012492  78.6856747  46.2132311
   5.0015366  77.8222132  47.4523735  -0.0280375  73.7844610  10.0548530
   0.5843101  74.4291019   9.7003096   0.1117817  73.0023766   9.5209724
 115.4798031  74.5516777  27.0035124 115.9868336  73.8034487  26.6883850
 115.0191498  74.2211151  27.7747226   4.6036783  82.3760128  11.6437745
   4.9065000  83.0401897  11.0245836   4.2983970  81.6557693  11.0921586
 115.8417034  56.8118858  46.9217634 115.4527187  56.7994976  47.7962732
 115.9762478  55.8889866  46.7063761  10.4652846  66.0707521  46.9410992
  10.5134487  66.3698101  46.0330915   9.8984414  65.3000832  46.9096947
   4.9706373  95.0976849  26.1658239   5.3942299  94.2476940  26.2854576
   4.9012277  95.1992130  25.2165580   3.7630814  80.1987457  51.2221289
   3.3489341  79.3810701  50.9462166   3.2943398  80.4477501  52.0186901
  98.2966423  55.3842020  45.6318331  98.7405586  55.5996132  46.4520597
  97.9652882  56.2230825  45.3113461 117.0162868  76.7624569  53.9890957
 117.0272446  75.8236074  54.1753006 116.5540886  76.8356419  53.1540775
  95.6565952  78.5742140  86.1372757  95.8692741  77.6523352  86.2826729
  94.7351360  78.5694647  85.8782101 110.9884071  72.9569292  68.1805086
 111.3399220  73.0996609  67.3017025 110.2416515  73.5528421  68.2394791
 116.5509892  62.6786280  21.8693542 116.6242123  63.1818914  21.0584307
 115.8621025  63.1216049  22.3647761  10.5545449  82.1445465  58.8677645
  10.9223235  82.6922417  59.5613050   9.6304137  82.0528030  59.0997076
 110.7892418  52.3270273  68.6261082 111.2921143  52.8147888  67.9738569
 111.3742828  51.6209173  68.9006233   0.8831463  51.6771889  38.9211178
   1.3351017  52.5161839  38.8313770   1.2827297  51.2709475  39.6902299
 110.0330162  64.8247099  60.4038906 110.0277328  65.1113462  61.3171482
 110.3728962  65.5766582  59.9188185 116.2186146  42.2903252  44.8340273
 116.8638802  42.8150177  45.3079128 116.5252972  41.3887691  44.9308681
 117.7700806  76.0350466  47.2710037 117.1957588  75.4509401  47.7661943
 118.6549282  75.7414579  47.4879599 118.6677170  50.5909824  64.4366455
 118.5204983  50.7571888  63.5055494 119.3698502  49.9406910  64.4557714
 107.2827339  55.7005310  56.9770098 107.2435379  55.5262804  57.9173994
 107.2327232  54.8352480  56.5707922  27.1543384  82.8740597  11.0285449
  27.8420711  82.2483921  10.8009517  26.3841581  82.5681591  10.5495048
  31.6781545  89.3167210  31.7627525  31.7472243  88.6696434  32.4647212
  32.5294161  89.7543716  31.7558265  17.3166251  48.6651278  43.5138321
  18.1995654  48.7871075  43.1648779  17.0133090  47.8481913  43.1177950
   1.4130953  84.0973854  10.6530941   1.2912032  83.6852455  11.5083814
   2.1009642  83.5803223  10.2339160 116.2835693  56.2187576  52.5288820
 116.0377789  55.2938080  52.5119829 115.4493999  56.6880846  52.5399494
  19.1530800  87.8017426  55.3889132  19.6596527  87.3490715  56.0632324
  18.2432032  87.5732994  55.5791044   9.1135401  47.9670572  50.2981615
   8.8463902  48.8859129  50.3219986   8.3229214  47.4944401  50.0378036
  14.7760212  74.6412373  46.3320827  14.2114520  74.2639112  47.0067072
  14.5732737  75.5766201  46.3457489   7.1744227  75.3422689  58.4815550
   7.5838447  76.0280514  57.9540062   6.9739789  74.6462440  57.8557730
   1.7634197  71.3942528  36.0176802   1.5780172  71.7949820  36.8669558
   2.1267058  70.5351019  36.2324286   5.5370903  72.0737934  37.5109935
   6.4663780  72.2944212  37.4478912   5.5228388  71.1212063  37.6037407
  17.5180101  54.8059225  30.4865670  16.7335176  55.1760244  30.8913231
  17.3926044  54.9469328  29.5481515 100.4991245  59.9533129  30.4508519
 100.7255840  59.4521475  29.6674109  99.7813320  59.4619656  30.8503151
 111.5661621  67.3000431  13.2224882 111.3944817  66.5665913  12.6318908
 111.1699772  68.0552959  12.7879047   9.1590238  47.0882559  38.7437081
   8.5006762  47.1634531  39.4344735   8.8009208  47.5955963  38.0152869
  28.7571239  49.1058207  51.8252850  28.8160849  48.7721634  50.9300613
  28.7611365  50.0579309  51.7267799 118.0933952  84.5224380  56.7529249
 117.7058506  84.7329712  55.9033823 117.4357414  83.9801693  57.1884203
  28.1999922  49.0123796  42.9029512  27.3719907  48.9763117  42.4240494
  28.5692787  49.8665714  42.6788664  19.9373031  53.4128332  23.4268451
  20.1746798  53.2074356  22.5225782  20.6874704  53.9008284  23.7664580
 116.3478661  54.1036654  46.2330294 117.0726776  53.4938002  46.3706684
 116.1912632  54.0804148  45.2890110   3.5526490  77.4550152  38.9657998
   3.9160085  76.6107178  38.6986709   4.1798225  77.7944613  39.6042871
  13.4153235  73.5769987  48.6336517  13.6631656  73.4937572  49.5544529
  13.0604696  72.7185583  48.4025812 112.6818562  61.6969347  73.7135744
 113.0073643  62.4519253  74.2037439 111.7406654  61.8514633  73.6328650
  20.4847550  71.0794640   9.9641836  20.5928040  70.4357100   9.2640829
  20.4524302  71.9223166   9.5116478 115.6854820  98.9476681  57.2404575
 116.6140747  98.8605213  57.0251799 115.5961323  98.5211086  58.0926895
  15.2174592  92.0145321  45.6648731  15.6325626  91.2274456  46.0176039
  14.6446276  91.6919136  44.9691582  16.3484526  72.6447153  68.0477190
  16.8578279  71.8857145  67.7636671  16.1670244  72.4787998  68.9728069
  11.5530896  89.0555382  51.9853735  10.6299114  89.2238331  52.1741867
  11.5538585  88.6899853  51.1007309  13.1559432  76.9122505  39.1294336
  13.7891459  77.3745346  38.5802722  12.4449539  76.6804171  38.5319567
  43.7836790 100.0996017  57.8073025  44.4510365 100.1783562  58.4889650
  43.2544899 100.8920956  57.8975010  15.8147812  74.7096491  31.8509412
  16.3527203  73.9421272  32.0452714  15.6183088  74.6342230  30.9171629
  20.2673769  61.3700151  66.1582279  19.3903005  61.2587929  65.7913542
  20.3477216  62.3124218  66.3053560   1.1750939  63.6425304  41.6032076
   1.4093167  64.5483828  41.8051910   1.3088910  63.1714582  42.4256563
  26.1489654  70.1235247  43.2454491  25.6418610  70.9351683  43.2631159
  25.5337715  69.4503641  43.5363483 117.5126266  70.0966549  67.7687073
 116.9472122  70.4037714  68.4773874 117.2031116  70.5668163  66.9945097
  36.9949579  79.9100924  30.4628491  37.8704262  80.2966785  30.4813337
  36.8978548  79.5796585  29.5697570  41.6202688  83.4044075  25.7123446
  41.0291862  83.6414814  24.9977469  42.0519543  82.6050282  25.4109001
 113.5487843  94.2109776  32.3262858 113.2666492  93.4900951  31.7632866
 113.3919048  93.8953590  33.2162356   1.5914768  87.3864651  57.0575190
   0.6390476  87.4020290  56.9633484   1.7505981  87.7248764  57.9386520
  19.4847763  76.4592791  50.6221390  18.7848473  76.5371084  49.9738550
  19.9961376  77.2619772  50.5200481  44.1942501  68.6287689  63.5750103
  43.9454365  69.2233896  62.8673744  43.9669371  67.7584934  63.2476282
  17.0758545 102.1160793  36.9856906  17.6374936 101.6861916  37.6306653
  16.3853133 102.5272560  37.5056100  41.6830683  85.8207798  49.7528458
  41.2651920  85.5677414  50.5760002  42.2831488  85.1010227  49.5577049
  15.7053113 106.6427135  32.1910310  16.3649702 106.3742161  32.8305531
  14.8799300 106.3112736  32.5447559  36.4058733  87.7256966  41.2927008
  36.4527440  87.3492527  42.1715260  36.1752605  86.9879341  40.7281113
  23.5866714  46.1106110  36.1942840  23.2321453  45.5038166  36.8441606
  24.2789936  45.6152391  35.7566524 107.5941372  90.9160233  41.2539911
 107.0987797  91.7350101  41.2429333 107.4560452  90.5644417  42.1335077
  24.6037364  72.8692722  61.8478251  23.6663365  72.9560041  62.0210028
  24.6517396  72.3592663  61.0392332  24.8810863  61.0067081  57.6374340
  24.8814225  60.6306696  58.5176754  25.6533146  60.6298447  57.2156906
 118.9297876  74.1764832  31.6642666 118.2205062  74.3898726  32.2705793
 119.6226088  73.8218212  32.2214460   1.5043312  90.0759792  55.1175451
   1.6510886  89.1300964  55.1163101   2.0762844  90.4080105  54.4255495
  33.7609434  92.4258137  29.0391302  33.2147217  92.2176075  28.2811546
  34.0118289  93.3404160  28.9095736 113.0025101  90.9889698  57.6036215
 113.9168835  91.2683773  57.5580597 113.0124569  90.2312469  58.1884193
  20.8128643  81.8000698  19.8413432  21.2986708  82.3908329  20.4168582
  19.9156094  81.8260098  20.1737499  22.7557635  77.7868414  54.0699387
  23.0674982  77.8209543  53.1655645  21.8080091  77.6772165  53.9926147
  23.6638904  72.2280312  50.5199432  23.8310361  71.2856245  50.5326223
  23.2281852  72.4052429  51.3536024   4.5618060  85.7539177  32.1105504
   3.9871913  85.4062462  32.7925873   5.4132777  85.3542709  32.2880483
  24.6103168  82.1457481  44.4832754  25.0507021  82.7433491  43.8789892
  23.9857602  82.6979637  44.9536180  13.2753563  95.2226448  40.3290701
  12.7599311  94.9785137  39.5603251  13.9993703  95.7406616  39.9773598
   0.7705984  89.1503620  48.9777708   1.5233427  89.7415733  48.9691114
   0.7711955  88.7747097  49.8581839  25.4892349  93.1523800  47.3760653
  25.5985975  93.7282085  48.1328297  25.4556155  92.2712326  47.7484465
  22.5530601  73.4998512  52.8331852  23.2796860  73.9685297  52.4225855
  22.0117927  74.1883230  53.2195330   8.9687610 109.2629242  51.9755125
   8.1343472 109.6989250  51.8026352   9.2145342 108.8745308  51.1358786
  30.5402136  69.7341013  46.9360638  29.6309304  69.9326658  46.7124462
  30.5601668  69.7484922  47.8929472   4.5782998 105.0213051   8.4401762
   4.1212058 105.5567169   7.7916157   3.8786840 104.6239376   8.9587015
 113.6948776  80.0015926  56.0758781 114.4090176  80.2847385  55.5048609
 113.1175804  79.4953203  55.5043411 118.8672924  92.9717636  31.3462782
 118.1542301  93.6082077  31.2943292 119.6634102  93.5031986  31.3426805
  34.9249315  85.1401615  28.8641953  34.7186756  84.2063046  28.8240075
  34.8228240  85.4469776  27.9632711  10.8869529  92.4336720  28.7670922
  10.8899152  92.6953411  27.8463578  11.1067140  93.2338524  29.2442083
  12.0754623  60.7378340  72.0346642  11.3642085  61.0363483  71.4678860
  12.1619964  61.4268351  72.6934624  16.8287873  97.1166229  42.2368670
  17.2031069  96.4508247  41.6599512  17.5880373  97.5514507  42.6250696
   4.8447806  82.0217323  54.5125723   5.6124628  82.3293972  54.0306664
   4.7060150  82.6837063  55.1898909  18.6915636  76.4903641  46.9611645
  19.1471410  77.3120880  47.1440697  18.0331731  76.7221832  46.3061714
   6.9043696  83.3183765  35.0200796   7.1975422  83.6940098  34.1899133
   7.6995629  83.2571793  35.5493760  20.1013851  95.3740025  72.1413994
  20.4247499  94.9968243  71.3232279  20.8062720  95.9517956  72.4338388
   1.5515190  84.7752285  57.5987625   1.6179378  85.6781673  57.2880888
   0.6862465  84.4855022  57.3096466   8.2901937  83.0102348  62.2056484
   7.6355487  83.6765957  62.4145269   8.2839572  82.4231052  62.9616022
  19.4900966  75.1334286  71.0646963  19.0750742  74.5100355  71.6608286
  18.8468862  75.2629375  70.3677464 117.8672314  72.4301195  56.9590187
 117.8303814  73.3424377  56.6717005 118.7964249  72.2675228  57.1214819
   6.0225964  63.4787941  37.8169537   5.5219233  64.2933607  37.7718234
   5.8115554  63.1152725  38.6769247 111.3758373  84.5904064  51.6596413
 111.0460472  85.0641632  50.8960819 112.3048306  84.8175716  51.6995907
 118.7191868  68.7191105  61.1619806 117.9318428  69.0179443  60.7069921
 118.4837627  68.7437677  62.0894527   9.4159168  86.6279602  54.1895485
   9.8701489  86.1589432  53.4895992   8.5378826  86.7848396  53.8421631
   6.7199236  86.0241318  55.8260822   6.7179853  86.8184376  56.3602209
   6.6931397  86.3422585  54.9236917   2.2189038  78.2575655  17.4137068
   2.9156533  78.2345104  18.0696344   2.5627548  77.7465868  16.6809726
  31.1535287  67.9436111  25.5222869  31.7239857  67.9056787  26.2899923
  31.4772916  68.6913681  25.0200224  16.0075259  92.3542690  31.2380314
  15.9908617  91.4348793  30.9721923  16.8330562  92.6897430  30.8884740
 111.8527889  84.5183468  55.9101963 112.3016262  84.2407227  55.1116323
 112.0966721  85.4380512  56.0146141  12.8948092  74.7625923  40.9013319
  12.0775604  75.1999712  41.1401463  13.2042181  75.2376652  40.1300955
 115.0541306  98.0624008  35.6843281 114.9928188  97.6469135  34.8241878
 115.8324146  98.6167431  35.6276226   2.3816210  88.4264278  35.8941483
   2.2680521  88.0847359  35.0072551   2.5587484  87.6521206  36.4282870
   8.9434171  86.3888836  26.4277339   9.7231239  86.6647243  26.9096088
   8.5723144  85.6826782  26.9566798  27.6100206  86.8782902  27.3402286
  27.7509475  87.8079033  27.5196528  28.4083200  86.4507961  27.6503754
  27.2631192  99.9303055  30.9443116  27.2175169 100.7983589  30.5435252
  26.5004325  99.4665432  30.5986738  10.7226717  69.8920155  59.4946766
   9.9529606  70.2305317  59.0373087  10.3646338  69.3878365  60.2253199
  10.7198238  86.0550880  21.3248658   9.9919862  85.4528809  21.1704922
  10.3213966  86.8034172  21.7692685 117.8366470  92.3312759  25.9376884
 117.9561901  92.0574379  25.0283146 116.9432545  92.6734447  25.9693265
  17.7677548  67.1944237  72.2252989  17.7579927  66.4530849  71.6198587
  18.6968756  67.3767376  72.3657513 114.8275852  75.4784155  42.1273136
 114.2993164  75.2183819  42.8819942 114.9174976  76.4274788  42.2134781
 114.8170090  84.1171074  32.9011941 114.3833828  83.3628559  33.3003354
 114.1064644  84.7306061  32.7141809  25.6053877  59.2299747  52.4292278
  25.1904416  58.4458208  52.7886105  26.4657450  59.2588902  52.8477764
 116.0735893  97.2963715  52.3056746 116.6368103  96.5812302  52.0097017
 115.6932354  96.9784927  53.1245279   9.4476211  81.6694832  46.3073158
  10.2120328  81.9718647  46.7976952   9.5420194  80.7173443  46.2797546
 117.0441628 102.8434563  38.9463949 116.3030815 102.2547913  38.8032055
 116.6430759 103.6901474  39.1425276  45.3879309   6.4077657  30.8090043
  45.0153685   5.8688492  30.1111507  45.3265047   7.3039109  30.4782748
   7.5090629 106.1649895  60.7733870   7.7515900 106.7946911  61.4522696
   6.5559494 106.2311363  60.7148218   6.5189356  56.5718508  29.6347070
   5.9974122  55.7694387  29.6543574   6.8948787  56.6347218  30.5127430
  28.8168097 110.3779507  40.8024263  27.9352713 110.5199051  40.4575014
  29.3530083 110.2098560  40.0275278  16.2242794  70.9844875  26.2568712
  17.1022367  71.3599014  26.3238692  15.9958982  70.7474899  27.1557069
  16.9369864  72.2756767  32.0407748  16.9897377  71.4127588  32.4516487
  17.8452027  72.5008535  31.8391013  15.5736113  76.9439793  49.4437122
  14.8612964  76.9690084  48.8047934  16.3036990  76.5421295  48.9728355
  13.9523602  84.6260262  34.3195844  13.3838046  83.9083862  34.5988250
  13.3491719  85.3240204  34.0642500 116.6100597  65.9030104  35.2885604
 116.2382126  66.0162783  36.1632776 117.2888565  66.5751743  35.2279830
 109.7198391  84.6055698  37.1395826 110.4871368  84.4317532  37.6848221
 109.0188599  84.0929222  37.5421357  17.1842539  64.2276478  62.0765018
  16.9577706  65.1567364  62.0348501  16.7435694  63.8395739  61.3205719
  20.1347375  92.4231243  56.2822342  19.3630171  92.7206612  56.7640591
  20.6363249  93.2214260  56.1168337  21.6902566  69.6284819  62.8294277
  21.8836260  69.4223404  61.9149113  22.5295258  69.5316458  63.2794046
  15.5285919  96.3030338  48.5435009  14.8918664  96.9576263  48.2565832
  15.0005758  95.6214142  48.9592266  26.3087988  86.5531731  48.8420010
  25.9079695  86.6769218  47.9816246  26.6299868  85.6515598  48.8291550
  44.5152140  91.7490005  65.7346296  45.2552748  91.3172913  65.3078222
  43.7444687  91.2931252  65.3964520   4.7486261  94.8726273   1.7773029
   4.0124351  94.7838593   1.1720140   4.4438779  94.4627285   2.5868344
  20.8395576 111.0224533  15.7370150  21.5805459 111.1613750  15.1472092
  20.3549337 111.8475056  15.7111990  26.0239387  79.9108028  12.8904784
  25.2301884  80.4272652  12.7509832  26.2703562  80.0906658  13.7977588
  15.3654647  87.1608257  48.7034082  15.8305418  86.3244724  48.7245560
  14.6535933  87.0232868  48.0784655   4.4318441  73.7460852  52.3905325
   4.2676768  74.3254709  53.1345701   3.6844915  73.1480551  52.3831940
  24.9286270  80.4426289  46.5230703  25.0658965  81.0413456  47.2571898
  24.6258736  81.0041523  45.8094358  39.3753886  67.0213318  52.4168587
  39.6565533  67.7295399  52.9961872  39.8429632  67.1823978  51.5973091
   6.7158741  92.1535301  30.5484748   7.0411789  93.0271339  30.7658124
   7.4564362  91.5722847  30.7215238  15.9005952  67.7397680  14.7287214
  16.0038459  67.3991108  15.6172729  16.7216921  67.5172186  14.2899704
  18.0818963  95.7890987  57.0212173  17.9400301  95.3328037  56.1918211
  17.2848237  95.6239510  57.5248337 100.5979347  96.2731647  51.3425922
 100.2494717  95.3890514  51.4572334  99.8359489  96.8449116  51.4359426
  25.2980947  94.8149204  64.3407059  24.9793768  95.1271915  63.4938669
  24.9903083  93.9101028  64.3936205   8.7408555  67.4851227  44.7305059
   8.7463361  66.5290022  44.7756767   9.5308399  67.7061272  44.2372370
  15.7284772  51.3338518  23.5598874  15.4367733  50.8066607  24.3036675
  15.7721126  52.2268629  23.9017320  14.8284316  61.5158653  71.5276289
  13.9374721  61.1836386  71.6373873  15.1586151  61.0639286  70.7511234
   5.8013606  77.6926088  40.5986500   6.1710250  76.9914627  40.0620174
   6.2514031  77.6131439  41.4397097  23.9048004 110.8358288  42.4825478
  23.8008928 111.7825031  42.3863840  23.0844164 110.5439949  42.8800774
  21.9590187  69.6917963  45.3666687  22.0537519  70.3674221  46.0380745
  21.5660334  68.9502001  45.8269167   8.3433664  64.4507837  20.6752992
   7.4097502  64.5262718  20.4780817   8.6333382  65.3529453  20.8103871
  18.1466544  84.7514725  59.4623852  17.6721549  83.9464951  59.2547989
  17.9525173  84.9125957  60.3857374  10.3203881  66.4438009  27.8523922
  10.0523245  66.2820625  28.7569451  11.2762785  66.3987207  27.8741574
 114.1881752  63.8520193  54.3479824 114.4603157  64.6548367  53.9033937
 113.4337521  63.5440588  53.8457537  18.5141587 100.4123497  62.5629568
  18.2287550 101.1230755  61.9888210  18.5874367  99.6525955  61.9853401
  30.7410836  95.4490280  37.5301886  31.4226460  96.1112404  37.6450229
  30.8688498  94.8445415  38.2612801  34.8728657  89.3200493  51.7208862
  34.7496963  90.2076149  51.3843107  35.8226132  89.2147064  51.7766905
   3.6948204  77.7958441  56.8154287   3.1591818  78.4708548  56.3986731
   3.0785704  77.3000526  57.3545551  27.0077896  90.2436543  45.3286314
  27.8341699  90.0608921  44.8814964  27.1458173  89.9330044  46.2234354
   2.6730713 104.1225910  33.4527922   2.1872459 104.7766972  32.9504466
   2.3541722 103.2823181  33.1234503  53.9697742   1.3243237  35.6578279
  54.5789289   1.5298250  36.3670039  54.2657137   0.4766641  35.3259778
  18.8009012  81.4749622  57.3146963  19.1307318  82.3087120  56.9795656
  19.1924047  81.3947201  58.1844759 115.3301620  44.5617485  59.4980288
 115.3162003  45.0067949  58.6506987 114.8821259  45.1637888  60.0921965
   8.9946026  98.2243729  34.1258264   8.3483738  98.3270073  34.8244572
   8.9073294  97.3116207  33.8510370  18.1035078 109.8368549  39.0230775
  18.7590849 110.5095100  38.8387036  18.2999659 109.1345978  38.4030247
  29.4318724 102.9874420  52.6317215  29.2186022 102.3314095  51.9681120
  28.8177681 103.7030029  52.4671650  30.7675338  81.9821930  45.1473093
  31.3950586  82.5431061  45.6031752  30.8200955  82.2583008  44.2323017
  47.2575188   3.7556928  78.8518667  47.2509003   3.3657363  77.9777288
  46.3392591   3.7534505  79.1220951 106.0242748  78.6254215  31.0056758
 106.3665009  78.2146406  30.2117133 105.1552773  78.9403629  30.7569194
   0.2770594  84.9917316   8.1731617  -0.5631658  84.7771358   8.5783708
   0.9049109  84.9651432   8.8951933  30.0657439   5.7630503  27.0231152
  29.9490285   6.0352129  27.9333544  30.9881139   5.9386390  26.8370152
  32.0340705  76.7958927  24.9415708  32.9101586  76.9330406  24.5811677
  31.8865728  75.8536005  24.8605657   4.9566394  64.4806814  33.3173537
   5.3083336  63.7048340  33.7539315   5.7024986  64.8468685  32.8421354
 114.4702339  83.1135750  53.2283688 114.2851448  83.2505798  52.2992754
 114.7753716  82.2078323  53.2807779   3.4733760  71.2707329  45.7804298
   3.0203593  71.9165945  46.3225269   2.7710989  70.7478285  45.3936338
  98.8842106  94.4639397  30.0872350  98.7807941  93.7395859  29.4701052
  99.0262127  94.0393639  30.9332848  52.0427227  77.0463228  49.9101925
  52.7103233  77.4243069  49.3377686  52.2025490  77.4496603  50.7634258
  19.3292022  98.1120205  27.6761246  19.9860895  98.3130360  28.3427024
  19.0495872  98.9673424  27.3498082   6.6237402  50.0143766  49.5598841
   5.9185648  49.5128965  49.9691248   6.3475657  50.9271574  49.6423006
  34.5524454  78.2894659  53.1030083  34.1567850  77.7419949  52.4248075
  33.8085866  78.7020445  53.5419655  14.2734861  86.6851425  17.8655446
  14.8060369  86.0991096  17.3277867  14.6391940  87.5551987  17.7058768
 104.2425632  72.4218082  68.4930277 103.5884285  73.0485439  68.1839275
 105.0465012  72.9350042  68.5739613  17.7816975  84.3557453  46.2975597
  16.8630409  84.1967106  46.5143776  18.0139601  83.6434555  45.7017994
 110.4884529 100.6235504  44.6118069 110.0554657 101.1428070  45.2893925
 109.8161507 100.4944134  43.9428043  25.4778457  60.2504683  33.9603901
  26.2962604  60.7468557  33.9656830  25.1429152  60.3503227  33.0692768
  33.6744046  88.2305336  29.0151191  34.5663619  88.2315159  29.3624544
  33.2057834  88.8656044  29.5566940 100.9696484  81.9296551  55.2763367
 100.3941727  81.1983109  55.0523329 101.7566013  81.5154457  55.6304264
  23.3512831 101.1924648  35.3348064  23.2877874 101.9244862  35.9482813
  23.6697602 100.4622269  35.8654141  29.1233921  74.6889353  74.0241480
  28.7422633  75.4974699  73.6817312  29.7184992  74.9787378  74.7155905
  15.9903634  98.1117249  64.8336506  15.2131248  97.8008461  65.2978563
  16.5052164  97.3210716  64.6723175  21.0733819  48.2651043  39.3095875
  20.6253791  49.1084814  39.2444801  21.4803886  48.1432533  38.4518409
  23.4230089  83.1529331  27.0758915  22.5214100  82.8359795  27.0221496
  23.5849428  83.5599327  26.2247992 110.3674126  75.7816839  39.0656996
 110.3615761  75.3136206  38.2307673 110.6312561  76.6733313  38.8385820
  14.7354639  83.5088539  45.9029293  14.4233096  82.6048088  45.8644199
  15.0362539  83.6964703  45.0137997  15.7040656  98.9026642  77.1777153
  15.2644086  99.6120262  76.7089415  16.2913227  98.5147381  76.5289736
 110.2069569  90.5340099  57.2455645 109.9279022  91.1415863  57.9305553
 111.1632729  90.5589008  57.2783852  37.8701067  81.1381721  12.1234083
  38.6168265  81.7320728  12.2003746  38.2630706  80.2721214  12.0148814
  35.1361656  95.4294395  72.8374720  34.4557428  95.0951385  72.2530890
  34.8677778  95.1381969  73.7088919  23.8196373  75.8473778  47.0686960
  23.3653331  75.4096127  47.7885532  23.3593392  76.6803694  46.9662857
   8.8570583  81.1791611  55.7549000   9.0678710  80.9700966  54.8449087
   9.6691650  81.0123062  56.2333107  25.5801415  62.0003557  37.8457093
  25.8057785  61.1771441  37.4125385  25.9994102  62.6748991  37.3114419
  28.0576205  55.0184107  25.3656960  28.5251641  54.8346996  26.1804867
  28.7027049  54.8557329  24.6774840   1.8441789  92.5745487  48.0434084
   1.7201155  92.3271561  47.1270895   2.0489734  91.7519474  48.4879589
   8.4305918  77.7279043  46.8783188   8.6929327  77.0137119  47.4591303
   7.6930666  78.1422424  47.3262167 115.6375885 100.3235722  23.9071774
 115.0180340 100.7408810  24.5057106 115.8754158  99.5043945  24.3414664
   7.3751521  68.2570362  66.4492273   6.4320982  68.3777714  66.3383055
   7.5550574  67.4027634  66.0566950   7.4708474  84.7482491  28.0581307
   6.7515814  85.2719688  28.4111285   8.0848557  84.6622181  28.7873936
  23.7518167  67.9823780  35.6412792  24.1149378  67.0967531  35.6478238
  23.0338597  67.9422045  35.0094914   1.3599141  67.7434301  46.4881802
   0.4426186  68.0165386  46.4735651   1.4142445  67.1254778  47.2171593
  20.7719636   3.2803047  37.3930144  20.7121396   3.9220935  36.6853714
  20.5391335   2.4479105  36.9817448  26.9065738  77.8744221  27.2430658
  26.7528319  78.8036394  27.0723319  26.7687082  77.4493551  26.3965797
  11.0018337  82.6906681  32.6994371  11.5884638  82.8818703  31.9676304
  10.4265428  81.9997120  32.3710322  15.6021464  84.2393684  43.3844757
  16.1334193  84.9636936  43.0538225  14.7054136  84.4696140  43.1413889
  22.4735022  59.3840790  58.4264135  21.6901159  59.5262480  57.8950691
  22.6117945  60.2172375  58.8769197  10.4240036  85.4019165  75.7310200
  10.6822872  84.7017002  75.1316690   9.6799701  85.0417614  76.2136555
  22.9427528  72.7257204  36.2986827  22.5351214  73.2187319  37.0107269
  22.6604486  71.8221855  36.4406943  24.3835640  88.6108971  28.6206174
  25.3075671  88.6823654  28.3811545  24.2634416  87.6866436  28.8386679
   7.2175890  90.7696152  57.7706814   6.4893669  90.1527786  57.8443718
   6.8612784  91.5997410  58.0871773  18.4017968  70.9830141  52.3770189
  18.7465310  71.6705322  51.8071890  18.8618565  71.1069536  53.2072115
   7.0500988  83.6416245  53.3672094   7.9023159  84.0757656  53.4056759
   6.4312166  84.3455982  53.1731987  41.2127399  90.7137585  29.4820833
  40.3324652  91.0706520  29.3638873  41.5858364  90.6997299  28.6007023
  35.4160714  90.5524921  26.5380478  34.5562863  90.8486843  26.8368340
  36.0179067  90.8279228  27.2295427  30.5067158  85.8852673  79.7810507
  30.0243568  86.7029476  79.6586943  31.1718726  86.0953617  80.4365349
  21.2722230  85.0938416  41.0701942  20.4526472  85.2948284  40.6183815
  21.4581585  84.1845894  40.8358574 113.9999485  65.8972549  43.1530714
 113.8343906  66.6194487  43.7590885 113.8615990  65.1083136  43.6771536
   8.5349792  89.0298271  61.7605066   7.8453338  88.5156536  62.1803188
   8.9662743  88.4137440  61.1683464 107.6153660 108.0590343  59.6345997
 106.9849110 107.7252865  58.9963436 108.4598541 107.7213192  59.3362236
  16.7864847  78.6006069  65.0431728  16.1358404  78.1743908  65.6010532
  17.1203113  79.3237686  65.5740499   0.8132469  71.4485312  58.7249994
  -0.0966557  71.5249395  59.0121794   1.1263935  70.6415415  59.1335821
  26.8836856  94.1968250  60.6933880  27.6312661  93.6009884  60.7417440
  27.1482658  94.9557495  61.2132454  30.7415676  65.5753517  52.8521776
  31.1842918  65.0962162  53.5526466  30.4146361  66.3695574  53.2747698
  25.4692388  88.0425167  44.1956615  26.3111544  88.0681515  44.6503639
  25.0746346  88.8961697  44.3739891 106.4084911  87.9857349  33.7287593
 105.9390163  87.1583462  33.6226940 106.0429192  88.3679962  34.5265436
  22.4899125  81.1744213  18.0106258  22.6364207  80.2520847  18.2205522
  21.8534613  81.4700508  18.6615956  37.6237679  91.5525150  59.7003889
  37.0070171  92.1676445  59.3035650  37.9163218  91.0037231  58.9727402
 108.2100677 101.8183231  37.6017928 107.4601936 102.0264149  38.1591225
 107.9816818 100.9823704  37.1952724   8.2578290  92.5019836  40.3444004
   9.1208869  92.0880699  40.3382111   8.4138173  93.3860874  40.0123453
  11.4240432  85.8321571  29.9992061  12.3236465  85.6673336  30.2816606
  11.4990044  86.0339069  29.0665174 115.5657005  73.5128975  46.0479259
 116.0011864  72.9257059  46.6658258 114.7946644  73.0257559  45.7573748
   9.3405151  69.0188456  48.3893490   9.5205665  68.3252573  47.7547264
   9.6379215  68.6611557  49.2259121   3.6867926  76.6874981  33.9898896
   3.6166883  77.2249556  33.2009292   3.6647281  75.7861662  33.6684275
  23.3971190  93.5976791  34.6048689  23.8804436  94.4036579  34.4231081
  23.8008022  93.2505417  35.4003334 115.1241875  63.2723141  40.1929998
 116.0101032  62.9265833  40.3018332 114.6549702  62.9789639  40.9740353
  15.8855927  88.3460808  69.4807768  14.9429202  88.2901287  69.3243504
  16.0222292  87.8630161  70.2957630   6.3916123  79.7973347  37.4327326
   6.4790708  80.0627422  36.5172338   7.2278053  80.0366402  37.8324127
 102.4175262  73.6257696  17.2867274 102.3409939  74.2654896  16.5788198
 102.1934414  72.7892876  16.8789029  22.2211981 100.2351761  31.8579054
  21.4181447 100.7285213  31.6907430  22.8461003 100.8918381  32.1653533
 111.1799717  89.9736214  48.8229990 111.1726856  89.4128990  48.0472660
 111.3865471  89.3805027  49.5453310  22.8523970  60.8080769  35.5421972
  23.5215235  61.1731148  36.1212039  22.9734659  61.2720919  34.7137880
   8.8008112  74.8346949  54.0609741   8.6366022  75.7686138  53.9303398
   9.6088213  74.8029280  54.5731688 110.9545135 101.3155842  54.7288561
 111.2601757 100.5070972  55.1401472 111.6275692 101.5240002  54.0809441
   8.4039003  81.0452080  43.8448715   8.0011076  81.7025757  43.2775450
   8.8018274  81.5514851  44.5530891  12.4317622 102.4384880  59.5067406
  12.4364138 103.0968475  60.2015591  12.7488971 101.6408920  59.9304056
  12.6197052 111.8683147  28.3470249  13.3680773 111.4242363  28.7457228
  12.0655251 112.1153355  29.0873599  18.9540148 103.4519386  23.5081458
  18.7631488 104.3596363  23.7445641  19.4243550 103.1012726  24.2644811
  52.4864721   1.3391964  33.3424759  52.4083090   2.2926745  33.3108258
  53.1290579   1.1743306  34.0324998  15.4378402 106.0764503  39.6521068
  14.5999002 106.2705326  39.2320848  15.3960371 106.5330696  40.4923344
   7.2581840  82.9308510  47.3139811   7.5795299  82.9210377  48.2155752
   7.9156768  82.4410152  46.8200254  33.1971240  92.5166512  41.6090584
  32.9517150  92.6165581  40.6892633  34.1495180  92.4220467  41.5939283
  23.1652093  88.8795757  51.4781189  24.0327239  88.4807301  51.5457535
  22.8209352  88.5638809  50.6426287  25.3365946  97.6072121  31.0672617
  24.9108839  97.9140663  31.8677878  24.8823714  96.7927361  30.8515215
  57.6964140   7.6968521  26.7786360  57.5774193   7.2259897  27.6034760
  56.8154812   7.7598161  26.4095473  59.5884609  83.1368351  38.9721584
  60.3612041  82.8512287  39.4595313  58.8596106  83.0005264  39.5774913
  34.7792053 103.3888912  32.0701003  34.8181129 103.8200855  32.9237914
  35.5477214 103.7149811  31.6018200  12.7200317  96.4971352  33.8286185
  13.5845196  96.3968754  33.4300685  12.3087680  97.2056580  33.3335567
  26.5179944  80.5329704  26.3816619  26.2211347  80.8967495  27.2157907
  27.3317623  81.0001850  26.1926603 115.6346607  98.2805443  38.5123658
 115.4304695  98.3063984  37.5775552 116.5325069  98.6072350  38.5705328
  21.9032073 104.4975567  46.8122673  21.8404341 103.6934280  47.3276997
  21.1027551 104.5087814  46.2874985  33.5050178  97.3517799  58.3595943
  34.1088367  96.6861534  58.0300856  34.0555882  98.1195450  58.5133410
  38.4219694  95.3617668  31.3088918  38.9375114  94.9084187  31.9759250
  37.8418136  95.9386921  31.8056870  10.3942919  98.1205463  27.7853823
  10.1603115  97.3500156  27.2679186   9.7756571  98.7947178  27.5042820
 107.0981121 109.0779018  36.5044951 106.3937187 109.5824718  36.9112730
 106.6520691 108.3503723  36.0709333  67.2884607  17.6040781  24.5874810
  67.8100252  16.9538987  24.1168737  66.4212036  17.5517344  24.1857958
  18.3293533  87.7156258  58.4970188  18.8897395  88.0385303  59.2026615
  18.6392653  86.8248463  58.3336306  16.7911553  92.9456615  36.2730551
  16.1265564  92.5082684  35.7408595  16.3497484  93.7223816  36.6167045
  30.3976440 100.9579277  57.8639984  30.1756454 100.4385948  57.0911837
  30.0299263 101.8233109  57.6847506  58.8696051   4.2610189  60.8324862
  58.4885645   3.5046309  60.3864861  58.4804869   4.2445719  61.7068720
  19.8211312  94.8451710  35.1438117  20.1497364  95.5590057  35.6903434
  19.9134576  94.0639591  35.6891656  13.5233819  91.2606144  67.4252510
  13.2633305  90.8843613  68.2661104  12.6980782  91.4080715  66.9633436
 118.0628586 101.5244579  55.1421309 117.6139927 102.3491764  55.3280830
 117.8304768 101.3244534  54.2353582  20.1679111 103.8624001  38.7394118
  20.9194231 104.4374466  38.8835597  19.4502723 104.2828083  39.2132068
  33.3907270  59.3995094  70.4000473  33.6042500  60.0111389  71.1047077
  32.7722096  58.7851763  70.7953501  29.5985937  79.2116928  32.4864674
  29.9855900  79.1350603  33.3585882  28.7236381  78.8346338  32.5787115
  15.6325424  71.5938997  52.8775358  15.4210997  71.4539623  53.8005400
  16.4170027  71.0659456  52.7288103   3.4787041  79.4986963  37.1254849
   4.3804687  79.7985554  37.2401071   3.4458214  78.6583138  37.5825405
   9.1301745 111.3759995  68.9689493   8.4477460 111.9891262  68.6958170
   9.9207926 111.9115257  69.0350771  33.3378983  80.9972477  48.4016609
  33.9510584  80.6806564  49.0650129  33.4417009  81.9487190  48.4142113
  14.5032847  96.3390636  77.8276443  14.7469807  96.9814396  77.1611643
  15.1245975  96.4863300  78.5407495  18.1728327  69.9710178  30.0341797
  18.5597730  69.2381287  29.5552373  18.2463026  69.7207642  30.9551620
  19.3808436 104.7609520  56.7783642  19.2465985 103.8830185  57.1353817
  20.3299379 104.8369694  56.6800261  34.2814898  95.2592659  65.6543446
  35.2261114  95.2078152  65.8002138  33.9640331  94.3726540  65.8257103
 118.2843876  98.6094570  38.7369013 118.7965488  98.5230446  39.5409274
 118.9294338  98.5386086  38.0332518  32.8554726  91.9491863  48.4772062
  33.6732817  91.8360806  47.9928207  33.1055951  92.4445534  49.2571306
  25.5877018  90.6031227  48.8698339  26.2624574  90.0014400  48.5553217
  25.8971286  90.8804035  49.7321606  29.6986508 111.6291332  52.5547504
  29.4564939 111.9309139  53.4302616  30.0001121 110.7301903  52.6861286
  34.3298769  89.4008446  39.5557547  33.4379649  89.4637775  39.8974633
  34.8624897  89.1714382  40.3172827  42.2969055  94.0591812  29.9506569
  42.2854280  95.0153160  29.9070787  42.1649694  93.7765789  29.0456939
  25.2416539 101.0456753  58.7474442  25.4449940 100.2289867  58.2914877
  26.0157633 101.5929508  58.6152315 115.8754063 105.0357437  82.0534134
 115.9437180 105.7113934  81.3788319 115.0462914 104.5949078  81.8677711
   5.8749527  78.0813408  52.1890402   5.6000978  78.2612419  51.2899733
   6.1637825  78.9296436  52.5254822  21.0838461  97.8488636  56.5923977
  20.9295416  97.4637508  57.4550200  21.8129563  97.3442936  56.2317848
  18.4890652  98.6959743  43.9291525  18.5691941  99.0723515  43.0527115
  19.2842603  98.9748192  44.3831825  29.4553685  83.8479424  63.6759710
  30.1964355  84.4077778  63.9075708  29.8543882  83.0773926  63.2718992
  62.1174765   2.1649012  46.6669989  61.3500309   1.9124323  46.1536598
  62.8035784   2.3114145  46.0158253  25.4456997  61.2906075  48.9978647
  25.9577489  61.5144587  48.2207346  25.0780559  62.1244240  49.2908144
  21.6142082 102.0293713  21.1699152  21.8731356 101.5516090  21.9579053
  22.2632170 102.7283382  21.0895014  20.0052500  78.7968445  29.0147281
  19.7019732  78.1990623  28.3314180  19.7493732  79.6653128  28.7040472
  13.3621991  96.0484791  15.9058452  13.8750970  96.5360928  15.2613318
  12.4696708  96.3779259  15.8005393  31.1519194 104.9719048  62.4586535
  31.5040421 105.4983616  63.1763458  31.5544224 105.3397179  61.6719294
   9.0976375  77.9211426  39.2905855   9.0758848  78.6327934  38.6508155
   8.9022183  78.3445168  40.1265240 105.2874088  81.5053177  63.2219172
 104.5863152  81.1922264  62.6503611 104.9375916  81.4047718  64.1072130
  57.2663736  91.4772224  53.5455704  56.5192080  90.9278870  53.3084774
  57.8412819  90.8971500  54.0447950  59.9754763  10.5018890  46.0577297
  60.0090122   9.6268177  45.6712627  60.1520586  11.0936427  45.3263760
  22.3137903 111.7675304  47.7241135  22.7665162 112.6107025  47.7058506
  22.9358768 111.1531734  47.3344898  35.1862836  82.9165554  19.1234684
  34.2307878  82.9703999  19.1044891  35.4581523  83.6686230  19.6495020
  29.5036840  89.7718048  44.3907213  30.1999021  89.5350170  45.0034523
  29.8531270  90.5217171  43.9093161 111.3206387 107.9425716  18.7646317
 112.1358395 108.3520222  18.4747410 110.6838036 108.1712246  18.0875885
  10.6805754  92.8692627  42.8077221  11.3148928  93.5860634  42.7993345
   9.8413771  93.2898617  42.6204395  29.4676733  81.4923191  23.3109832
  30.2199531  80.9241390  23.4767509  28.8005114  80.9076023  22.9514909
  49.1076612   7.8198117  45.9207726  49.4945812   7.1316552  46.4620352
  49.1223860   7.4627924  45.0327682  12.9138207  95.8953667  45.3912878
  13.1013572  95.0386143  45.7747364  13.7684524  96.3218212  45.3282595
 114.1712856 102.0851517  43.7642193 114.3429375 101.2088203  44.1089153
 113.6003113 102.4914074  44.4162750  42.1641159 105.1189327  33.7319112
  42.6626396 105.9205723  33.5735512  42.3740768 104.5552826  32.9873013
  35.7353473  99.6176434  39.2258501  35.7569575  98.7491417  39.6276855
  34.8061728  99.8459625  39.1987801  11.0369885  86.6953373  43.4936237
  10.6506526  86.6697025  42.6182270  11.0900772  87.6274395  43.7047911
  43.1840563  92.7844524  27.7813649  42.9089403  91.8700504  27.7149701
  43.9920092  92.7548790  28.2937860  33.3654666  94.5456886  62.0641375
  34.2319584  94.1391277  62.0526171  32.9183936  94.1357708  62.8046322
  38.6169124 108.6857128  33.3984566  39.2222357 108.9160442  32.6936388
  37.8198791 109.1771507  33.1998086  30.7852960 104.2359638  31.9917536
  30.1770663 104.8449039  31.5728378  30.2947640 103.8787937  32.7320504
  30.4906416  86.2238979  39.3186378  30.6383657  85.2925682  39.4830918
  31.1622334  86.6679955  39.8362947  16.7737830  85.2262688  34.6863127
  15.8639693  85.5098724  34.7759938  16.7385006  84.2745018  34.7817826
   6.8870598  98.0844116  60.7978296   7.7602637  98.3856678  61.0488081
   7.0156312  97.1748257  60.5288363  65.3178024 111.4561081  51.1323977
  66.0388851 111.0056114  50.6927204  65.7462835 112.0957851  51.7011261
  36.2493205  91.5894222  29.9397254  36.8339849  92.1935940  29.4821453
  35.3754187  91.9581413  29.8109889   4.5394129  95.4721451  51.1249399
   4.3608588  96.1162472  50.4397488   3.7213820  94.9829292  51.2128305
  38.9763856  95.0000763  40.2562666  39.0038681  94.6394348  41.1425018
  38.8226008  94.2411900  39.6935272   8.3372486   0.3560731  29.2513776
   7.7243060  -0.3379571  29.0087748   8.3160311   0.9636009  28.5119915
  20.0777721  94.9867821  47.2653580  20.5968523  94.1985989  47.4251890
  20.2836466  95.5625725  48.0017853  48.6602592  88.9506435  29.7700238
  48.8338089  89.1687679  30.6857419  48.0357027  89.6153736  29.4796944
  28.4708786  74.2570734  53.5369444  28.0491352  73.7922859  52.8142166
  28.5318542  75.1635551  53.2356167 118.3311749  98.4333706  50.0162172
 119.0806484  98.9061832  50.3781176 117.5818348  99.0028763  50.1905107
  26.0418630  91.9882107  70.1351595  25.4926348  92.5356960  70.6962633
  26.8758869  92.4554539  70.0870323   2.0496482 100.7093620  53.7855959
   1.4714032  99.9466419  53.7965918   2.7356586 100.4808140  53.1583881
  44.0239573 105.9425354  51.8389654  44.0118217 106.1992741  50.9169197
  44.4228601 105.0724220  51.8400764  25.3999758 103.4800720  26.2683773
  25.9490657 103.9063072  25.6103086  25.3044415 104.1341400  26.9606924
  14.6172512 101.9504261  41.9075632  15.5696642 101.9976902  41.9906616
  14.4714344 101.4536667  41.1024523  42.9994249  92.4245644  13.5967278
  43.1675434  92.8225708  14.4508696  43.8459539  92.0675850  13.3280432
  52.8203106  10.7916808  23.8816786  52.9621410  10.7583249  24.8277259
  53.6999369  10.8561933  23.5097480  51.6023064  13.7834752  45.5681515
  51.1453247  14.5796752  45.2971077  50.9398174  13.2742488  46.0350895
  28.6966944  93.3232689  57.9687309  29.2951655  92.8203011  58.5210800
  29.0480471  94.2135239  57.9836416  11.0479736  87.6196289  49.0630102
  10.9666586  88.5412884  48.8177443  10.3221214  87.1871376  48.6132050
   5.8000469  98.4432793  44.7574329   6.5191823  98.0630302  44.2529678
   6.1196077  99.3077755  45.0158072   9.3365407  89.9347591  52.8381824
  10.0773656  89.6682835  53.3826113   8.6438662  90.1473427  53.4636784
  54.7838116  10.1720035  18.6104059  55.1519012  10.7257831  17.9218781
  54.3176556  10.7805634  19.1836309  13.4826612 100.1147270  31.6865087
  14.1640413  99.5048428  31.4036870  13.1416571  99.7342873  32.4959636
  27.9419637  91.9495201  14.7787213  27.9737759  92.1246529  15.7192242
  27.5395083  91.0837746  14.7097850  26.0378957  89.6679211  71.8665886
  26.0763621  90.5721188  71.5548754  25.2186799  89.6190643  72.3592663
  23.9430928  70.9262705  21.5028930  23.2191062  70.7113600  20.9147668
  24.6209288  71.2820625  20.9282780  52.1986723  82.7846336  53.4893751
  51.8183470  83.6537361  53.6168671  52.5176239  82.5332642  54.3561602
  22.6515651 107.6274776  49.2514324  23.0368662 108.3941174  49.6757412
  21.7740560 107.5610447  49.6279907  37.7937222  97.6569557  51.7145538
  37.7396226  97.9277229  52.6310587  38.7128973  97.7858353  51.4805889
  53.1506014  11.1372948  41.3022852  52.8998423  10.7476676  42.1398687
  53.5265493  11.9860041  41.5359259  57.3483801  11.1207747  46.2511539
  58.2957888  11.0293961  46.3526392  57.2374392  11.5223610  45.3893805
  13.2568729  81.2311077  49.9064016  13.9917302  81.7682076  49.6101809
  13.4772885  81.0004139  50.8088589  45.1444817  85.5626869  18.7183249
  45.8323002  86.0752583  18.2935750  44.8599720  86.1061287  19.4531453
   7.0753545  92.4238110  42.9384613   7.3877460  92.2816277  42.0449114
   6.1869210  92.0675659  42.9411125  42.9996538  59.2625809  49.2959929
  43.7465763  59.1911507  48.7016582  43.2340717  59.9750376  49.8907089
  67.3738861   2.1112195  25.3453207  67.0538568   2.2720166  26.2329912
  66.5982676   2.1996336  24.7914004  38.2715416  95.6104088  68.2706690
  37.3948789  95.5781937  68.6536264  38.6221170  94.7292137  68.4004116
  66.1588764  16.4307499  32.9150009  66.8622303  17.0631957  33.0617595
  65.7664776  16.3041866  33.7788510  39.4250250  86.1938763  44.0798569
  39.7161174  85.9625626  44.9618959  40.0912619  86.8019485  43.7595272
  26.5924573  93.7239361  74.8277473  26.0785985  94.4769001  74.5358038
  25.9394693  93.0814648  75.1053619  59.0601730   3.5391402  35.2894187
  58.7072086   3.0056787  36.0015035  58.5270691   3.3067727  34.5291328
  67.1696377  17.8741002  61.4258623  67.2977495  18.3579016  62.2418022
  66.9863033  16.9771969  61.7054796  80.3671169  11.7334187  14.3005705
  81.0049915  11.0201037  14.2774415  80.8755970  12.5163674  14.0891922
  66.2197113  24.9309444  51.1556244  66.9494295  24.5210648  50.6911421
  66.0436773  25.7334542  50.6644869   8.6955011  95.6086445  34.0488935
   8.9911622  95.5582142  34.9578881   9.3012679  95.0444221  33.5683417
  23.5632133  66.2451839  61.6295767  23.3824086  65.6287098  60.9200001
  22.7138495  66.6407108  61.8254709  19.7567523 104.5541096  61.2526512
  20.1691628 105.3999996  61.0776854  19.5404828 104.5813084  62.1847010
  51.7682362 105.9003639  15.7138383  52.5723410 106.1415100  16.1737216
  51.3435602 106.7359352  15.5196965 118.7651634  98.3225155  53.2541370
 119.3865490  98.0011654  52.6008034 118.4869576  99.1755962  52.9208469
   2.0868123  99.5750618  60.9433365   1.2720168  99.3461227  61.3904619
   1.8097082  99.8656559  60.0744247  11.2524056  85.9802532  46.2689734
  11.2330639  86.1894512  45.3351164  10.3881943  86.2377071  46.5900469
  22.7267718  87.6571369  47.2008324  22.7401710  87.5994205  46.2454700
  22.0593095  87.0258713  47.4695826  11.5006816  77.7482414  61.7243338
  11.5327084  77.3415041  62.5902271  12.4054360  78.0055046  61.5469456
   7.8141654  99.3826580  42.7774763   7.5175005 100.1479816  42.2850418
   8.5459661  99.7052002  43.3034658  27.4597931  78.6999226  10.5638778
  27.9755497  78.2628632  11.2415266  27.0282435  79.4223928  11.0199797
  72.1505070  25.6010795  29.5800734  71.4907932  26.2945914  29.5729685
  72.5293970  25.6399202  30.4582334  12.6320148  85.4095173  50.4740334
  12.1881807  86.2164307  50.2130365  12.8310728  84.9678516  49.6484756
  24.9301887  89.4832611  38.7487173  24.9794507  88.8876534  39.4964170
  25.7492781  89.3405151  38.2744265  37.3337984  95.1750851  14.0499675
  37.2833824  94.2270374  14.1720450  36.9429374  95.5399227  14.8439121
  67.5959444  13.9717567  31.8299747  66.9265795  13.7019193  31.2011862
  67.3205853  14.8435187  32.1135974 108.5348606 112.2566605  48.2406616
 108.3772087 111.9816017  47.3374891 109.4471645 112.5463104  48.2470417
  30.8770013  62.1842670  37.0473766  31.0454917  62.8311539  36.3622594
  30.0356102  62.4454212  37.4216604  18.7469566  82.8648472  30.6498313
  19.4495630  83.5149097  30.6481194  18.1066978  83.2058334  31.2743568
  34.4503498  97.3213482  18.9157605  34.5608997  97.2834682  19.8658001
  34.5577049  98.2474613  18.6988807  28.6319327  80.4517651  65.6719589
  29.5664859  80.6076717  65.8081150  28.5709167  79.5164299  65.4779291
  12.1769524  92.0086861  52.7381277  11.4839602  92.0075607  53.3984232
  12.9283214  92.4040127  53.1801653  90.5121517   7.6165706  52.4396515
  90.7805157   7.5068808  51.5274096  90.1462364   8.5002780  52.4770641
   7.8035790  95.6138420  67.9687834   7.5830805  96.5093231  68.2251644
   8.3876204  95.7167530  67.2174263   4.7093531 103.4963703  39.6000195
   5.2993697 103.7785816  38.9011145   5.0158221 102.6199627  39.8328829
  59.7605562   2.1252020  45.2181149  59.7710419   1.2398252  44.8544788
  58.8647509   2.4315178  45.0769424  27.8212523 109.8443317  49.2352867
  27.6035380 109.0270042  49.6834087  28.7196088 109.7181034  48.9299107
  21.0730720 107.2564125  41.7261934  21.3243914 106.9315147  42.5907803
  20.7106566 106.4916420  41.2789822  22.7891827 105.6255722  56.9618893
  23.0808449 104.7802162  56.6205263  22.4859262 106.1037827  56.1901474
  70.8337069   2.7848056  25.2061152  69.9473906   2.9985166  24.9145651
  71.0533810   3.4757152  25.8311129  71.4202929   2.9564363  72.9955244
  70.8718061   3.4972945  73.5637379  71.0890007   2.0669186  73.1189489
  22.1635270 105.1066017  14.8605561  23.0814862 105.3117752  15.0379992
  22.1056390 105.0740337  13.9056635  13.1955767 111.2296772  79.3352604
  13.0591273 110.2822781  79.3274593  12.7705419 111.5262604  80.1400089
  30.4787040  95.7089615  52.7361298  31.2811399  95.3561783  52.3515844
  29.7897530  95.1136971  52.4407721  18.3855796  83.5027790  41.0536146
  17.5302601  83.8882446  41.2435484  18.7975109  84.1199970  40.4489708
  26.4723086 107.6040363  52.9506207  26.1164927 108.3748627  52.5085163
  25.8925486 107.4689007  53.7001848  36.6371560  87.8333282  21.9192052
  36.8772411  87.5693417  21.0310054  37.2767401  88.5070610  22.1499610
  23.1716776  90.5241680  63.0161572  23.6047149  89.8706818  62.4669170
  22.2726250  90.2070522  63.1020355  35.5791283  79.4139194  57.4057865
  34.8280215  79.7672606  57.8824663  35.2057958  79.0611172  56.5980864
  11.6447532  77.6565599  28.3528423  11.0316253  78.1524181  27.8102279
  11.3465929  76.7496300  28.2834816  29.0309167  98.2776546  84.4871521
  29.3865800  98.6871529  85.2758598  29.2837954  97.3573685  84.5602512
  19.5821381  81.2196159  36.9114590  18.6266387  81.2754059  36.8996596
  19.7951186  80.6086922  36.2060142   2.7169922  74.1649342  18.6708248
   2.8076518  74.5607662  17.8040326   2.8135478  73.2252407  18.5162902
  45.1832676   1.3659526  22.6731491  45.6411743   1.8236282  23.3781958
  44.7965908   0.5995434  23.0966210 111.7446041  82.2627735  40.6925821
 111.9380569  82.9656982  41.3128328 112.1251488  81.4801502  41.0912085
 113.1535244 100.1625156  36.4528394 112.3268318 100.5226707  36.7739367
 112.9184818  99.3072128  36.0930514   6.7289084  96.1977768  64.0022326
   7.3944575  96.8853092  63.9782715   5.9484488  96.6318321  64.3467712
  25.2927256 103.0701733  64.0566492  25.0303912 102.5420189  63.3026838
  24.4955039 103.1533241  64.5798635  21.7424512  86.0874271  27.9618573
  22.3897743  86.2927055  27.2872710  21.1706591  86.8546772  27.9865050
   4.3228588  83.1070232  28.9415193   4.4773480  84.0514755  28.9608097
   3.4437087  83.0155849  28.5741425  80.2387047   4.5832619  40.7168436
  80.9927654   4.2749590  40.2142811  80.1959229   3.9942706  41.4701653
  22.6466775  11.4826524  43.6102390  22.3787594  11.1151850  42.7679682
  23.0246305  12.3342264  43.3906794  49.7538757  94.1106033  54.5943117
  50.5145359  94.6527481  54.8033619  49.0064955  94.7019577  54.6834755
  10.2923262  84.8186874  52.0077324  10.2802610  83.8643551  52.0807791
  11.0466051  85.0066280  51.4491892  42.0549154  60.5754614  62.8030634
  42.8684664  60.0768089  62.7274704  42.3103952  61.4797020  62.6205587
  38.4886169  92.6500511  42.5448132  38.8481617  91.7773914  42.7042866
  38.1628752  92.9345989  43.3987188  27.7734900 106.6439247  59.2072821
  28.1888580 106.7185497  60.0664282  26.8566275 106.8697643  59.3640900
  14.8311543  78.7385750  38.0756521  15.5497158  78.9061022  38.6854362
  15.2574050  78.6411810  37.2241497 118.3928394 104.3305969  36.7980170
 117.9885960 103.7984467  37.4833250 117.6574802 104.7699642  36.3708925
  14.1996312  99.4893360  34.4156909  14.2174387  99.5510292  35.3707337
  14.9536598  98.9417744  34.1969514   8.6844313  65.8570862  70.7466793
   9.5377153  65.6340885  70.3746462   8.0615973  65.6765938  70.0425959
  40.6170654  66.0817957  39.3801904  40.4913235  66.1245155  40.3281307
  40.4471684  65.1666021  39.1570473  12.0009768  98.2461166  57.0187616
  11.5382600  99.0257835  56.7117691  12.6980162  98.1128216  56.3764238
  19.3956256  93.7785721  31.7318296  19.9741650  94.3964481  31.2848997
  19.9863946  93.2189751  32.2358942  45.0620270   5.3010839  39.6515703
  44.6037531   4.7220221  39.0425515  45.4158783   4.7141567  40.3198051
  28.6656475  86.3166142  18.4712684  28.6328578  85.4321671  18.1067061
  27.8145599  86.6969585  18.2539558  43.3608055  81.6845322  28.0142188
  42.7747393  81.0579109  27.5898266  43.0565643  82.5400734  27.7113628
  15.7281315  83.7848568  73.5415316  14.7902787  83.8897705  73.3813524
  15.8279347  82.8647518  73.7858295  29.6659350   0.7526083   9.5938325
  29.5604634   0.3022531   8.7558061  30.3946924   0.3002968  10.0187564
  54.5276541  -0.2914071  30.0005794  55.1782007  -0.2094102  30.6979299
  54.2421443   0.6066489  29.8325753  12.0733511  95.3189373  42.8137302
  12.6176226  95.7305241  43.4849930  12.6183391  95.3245926  42.0268440
  22.2975039  92.6820850  44.0147495  23.1353927  92.2193813  44.0054417
  21.7008781  92.0879936  44.4700861  49.2956066  92.4749565  51.4174604
  49.3242359  93.2355595  51.9978905  50.1321077  92.4967384  50.9526825
  66.3473272  98.5308933  35.5440569  66.7743683  97.7547646  35.1814461
  65.4288864  98.2776737  35.6366658  63.2706594  13.6454177  35.0476694
  62.4513531  13.9882159  34.6906614  62.9966259  12.9933667  35.6926274
  49.6290350   7.2668737  31.4910340  50.5217552   7.2365099  31.1469936
  49.5091534   8.1758213  31.7661238  30.8197832 110.0867748  28.1606340
  30.6066775 110.4924202  29.0010309  31.4605427 110.6777096  27.7650809
  27.7775383  94.5034122  52.3321009  27.6917052  95.4455662  52.1864605
  27.2967410  94.3417549  53.1438494  31.9627237  96.1501312  60.0730038
  32.5450706  95.8155060  60.7550049  32.5303745  96.6773510  59.5108223
  54.3877459  13.3622777  24.0067649  54.8992157  13.8259196  23.3436894
  53.5141468  13.2834756  23.6235571  26.5255308  79.9853945  57.9959679
  26.1503386  80.2973270  57.1724606  27.4180937  80.3311634  57.9986811
  26.6435790 103.1669903  43.8540220  27.4510741 103.6359882  43.6437130
  26.8183017 102.7572632  44.7012711   5.9826261  92.3951149  51.1979580
   5.2544439  92.0292950  51.7001152   6.4551395  92.9423428  51.8252563
  36.1740923  74.5854568  53.5466576  36.9432712  74.0792227  53.8080454
  35.7730627  74.8555517  54.3727684  15.0367451  96.2582970  19.9712729
  15.7372773  96.8946075  20.1147580  14.5052099  96.6406250  19.2730415
  63.4036875   0.2899155  39.4869924  62.5266409   0.4072705  39.8520279
  63.3644199  -0.5532974  39.0356803  17.3860848  86.2983608  42.4092865
  17.2222626  87.2026253  42.6770353  17.9950833  86.3727093  41.6745567
  37.3025393 100.6409073  50.7497835  37.7223229 101.0290241  51.5174913
  37.7233410  99.7866344  50.6529427  26.3615322 101.8196774  73.0744410
  25.5569315 101.7388535  72.5622749  26.2078404 102.5730038  73.6446285
  49.3347025 108.8776875  39.3909383  48.8262558 108.7452793  38.5908246
  50.0186491 108.2090664  39.3534994  58.8314676  16.3791633  37.5025535
  59.5324707  16.8680334  37.9336357  59.2314959  15.5410421  37.2706914
  35.9471202 103.8248158  60.8536720  35.5327129 103.7360287  61.7119360
  36.4192224 103.0014706  60.7293272  70.0066948   7.6415306  32.7161956
  70.1799154   7.2979289  31.8397450  70.6772423   8.3118689  32.8475046
  72.2908878  12.8021777  53.4823513  72.8261614  12.1658576  53.0082083
  72.0010519  12.3348629  54.2658329  79.3106556  14.0870392  18.9568245
  80.2113819  14.0062988  19.2705166  78.9781332  13.1894803  18.9497507
  58.7756395   1.5433080  30.3202415  58.8930559   0.8480411  29.6729016
  58.0535221   1.2391938  30.8700490  53.0917931  86.0518074  81.9275665
  52.9931593  86.6499901  81.1868382  53.8084555  85.4708195  81.6724586
  31.8665409  89.1522026  45.4794979  31.6269469  88.4514141  46.0858917
  32.3601985  88.7119007  44.7876358  93.1674480   7.7802646  11.6624653
  92.4067402   7.8679895  11.0881352  93.0982590   6.8942201  12.0179510
  46.7624474  99.9432373  34.6156430  46.9096327  99.3711376  33.8624668
  46.1435938  99.4618511  35.1647520  24.5850587 108.5973740  57.2986794
  24.3391538 108.1455803  56.4914274  25.4443145 108.9745426  57.1098471
  65.1718760  10.8408153  37.1600819  65.6094074  11.4689219  36.5853810
  65.1994419  10.0147951  36.6772103  81.9809628  15.8402252  35.2449799
  81.2488842  16.1228633  34.6968794  82.3222351  15.0612366  34.8057342
  71.4579296   6.6579407  61.9260406  71.9355392   6.5670013  61.1015081
  71.7757034   7.4809581  62.2973871  31.8014455 107.6387882  72.7913857
  31.9076920 107.5448132  73.7380171  32.3655725 106.9612598  72.4186230
  41.1796570  57.2689581  49.3383741  41.4400911  58.1668186  49.1328239
  40.2424002  57.2414351  49.1459608  40.2723694  94.1582966  37.6297522
  40.3219080  94.6485615  38.4503722  39.9576807  93.2917118  37.8871036
  53.7387800 110.1567364  36.6824365  53.8510942 110.6116104  37.5171256
  53.4503889 109.2770958  36.9259501  41.0915327  14.0266967  56.8099070
  40.7135963  13.7679839  55.9693956  41.2208796  14.9720371  56.7335320
  61.0438204   7.6596934  62.4973011  60.1903582   7.2262919  62.4967957
  61.0558891   8.1639558  63.3108139  65.4187107  19.8625457  29.9144268
  66.2652254  19.4485736  30.0825787  64.7777605  19.2569971  30.2868867
  77.6928282  11.2588537  47.0926046  78.4469604  11.7584920  46.7797422
  78.0728579  10.5586123  47.6231384  57.2303534 104.8903465  39.9743462
  57.9152441 104.7777843  39.3151903  57.6869774 105.2489185  40.7353687
 103.4944153  92.4551010  66.8160248 103.7045479  91.6865063  66.2856150
 104.3303108  92.7144051  67.2036839  60.9116125   5.5397087  28.0004072
  61.2476110   5.4454482  27.1090865  61.6885662   5.7120132  28.5322833
  16.0880744  88.4976196  43.3426905  16.5879679  89.0430355  42.7353525
  15.2330410  88.3954906  42.9246950  26.9514394 106.1120796  67.4888945
  27.3434424 105.5711079  68.1744051  26.0749626 105.7469749  67.3675489
  68.0246115  13.9051366  49.1786242  67.4675846  13.3152068  48.6707497
  68.0346394  13.5272276  50.0580072  16.6757369 104.8350525  46.9196177
  15.8286047 104.6931267  47.3420572  16.4664102 104.9360085  45.9910583
  46.6690636   2.0203117  37.5133824  45.8860683   2.3203568  37.0517230
  47.3674107   2.0748881  36.8610311  36.7740130 106.4076233  50.0781584
  36.3010859 106.1253166  49.2952967  37.2678304 107.1772289  49.7951698
  59.3331766  96.0728359  45.7481956  58.8394260  96.4438343  46.4795017
  58.6701870  95.8783340  45.0857449  69.4880629  16.4540339  41.7488766
  70.0165462  16.9134021  41.0962534  68.7854528  17.0677459  41.9631815
  99.4408035   2.7765003  47.6208258  99.1641140   2.8041515  48.5367441
 100.3971004   2.7623150  47.6598263  64.4303560   1.7756088  35.4209900
  64.6912909   1.4923093  34.5446992  65.1565266   1.5093553  35.9849238
  38.7178206 101.9699001  62.3966503  38.3705425 101.9774437  61.5046978
  38.9452767 102.8828335  62.5728416  35.3879857 111.8481541  22.3989987
  35.0617957 112.6064968  22.8835082  36.3398099 111.9489956  22.4087930
  67.1416330   3.5074505  31.0981512  67.1559429   2.5524697  31.1617017
  67.9670191   3.7312743  30.6681871  44.3517685 111.3135815  14.6997023
  44.4880152 111.8186283  13.8980818  44.3217659 111.9709873  15.3947890
  71.6989088   4.3723911  27.5374436  72.3768425   4.3348888  28.2121539
  70.8772564   4.2690533  28.0174875  63.4171295  28.8165069  43.0098104
  63.8323355  28.2560062  43.6653090  62.7427244  28.2639360  42.6147509
  26.1162376 105.3950500  14.9906385  25.8178854 104.5069695  15.1868999
  26.6025782 105.3086281  14.1707397  78.0038452  14.9787712  28.4535313
  77.7192116  15.8259702  28.7962699  78.8557768  14.8286176  28.8632774
  33.5889649 103.3222580  35.8293581  34.3731499 103.8550282  35.6972647
  33.7243295 102.9034424  36.6793561  31.8326449  87.6706696  35.5665660
  31.9445157  86.8194103  35.9897280  32.1836066  87.5476742  34.6845651
  27.3773980 108.1385899  27.5989676  28.1388426 108.1188869  28.1786609
  26.6342688 108.2838535  28.1845379  90.2473068   3.4313351  52.3541689
  90.3075981   4.3015999  52.7481699  89.8747253   2.8816122  53.0435276
  60.5545616 108.5288239  19.8879671  60.3697443 108.7828732  20.7921433
  61.4454985 108.1798935  19.9145579  26.0513663  86.5176010  40.0444889
  26.0783124  85.9351063  39.2854047  25.1184797  86.6307926  40.2265358
  25.3015375 102.0455074  30.1823974  24.9165893 102.1954346  31.0458612
  24.5972443 102.2502422  29.5673466  74.6505642   9.7832346  39.1846728
  74.2798948  10.1764452  39.9747491  73.9528561   9.8519397  38.5329700
   9.0701705  90.1652241  36.0914350   9.0361196  90.2755070  35.1412201
   8.8657558  91.0326576  36.4407110  62.6117325  22.4445558  50.6370735
  63.4167099  22.2485757  50.1576662  62.6155281  23.3969998  50.7323027
  76.0261440  18.6149681  44.6221066  76.7406034  19.0106320  44.1228771
  75.2322388  18.9969897  44.2479324   5.0723147  99.5040226  24.8811579
   4.7312069  99.4388866  23.9891768   5.7328558 100.1952553  24.8351026
  69.0040350   6.2375176  37.7766728  69.5858288   6.9932842  37.6956320
  68.6351252   6.1242276  36.9007158  21.3655877  97.1170712  41.3506889
  21.2084460  96.6995430  42.1975708  22.2341967  97.5103092  41.4350271
 103.4441662  11.5874922  42.7345800 103.0254269  12.3809469  42.4009466
 102.8834915  11.3067627  43.4578133  72.0207500  10.1074159  16.0841966
  72.7550364   9.5164394  16.2509537  71.2433624   9.5856351  16.2833047
  10.5244040  92.3854733  93.9170456   9.7192490  91.9857311  93.5881710
  10.5272734  92.1834469  94.8526764  55.0266361  11.1833262  29.0886354
  54.5191526  11.2479746  29.8976541  55.0867271  12.0842707  28.7709570
  40.5732012 103.1790829  66.1898088  40.6483698 102.4393940  66.7926645
  40.2183008 103.8890171  66.7248440  60.9832954   3.6917886  40.8759308
  61.8050432   3.2117188  40.9783840  60.8131456   4.0628687  41.7417145
  45.3174829  99.2583656  36.8357897  44.8965979  98.3998585  36.8810821
  44.6334839  99.8435783  36.5103579  57.0263863  35.4402876  17.8196394
  56.5746593  34.9892306  18.5328877  56.9630146  36.3684154  18.0450153
  31.9116616  98.8620472  34.2007947  31.2171459  98.9005566  34.8583627
  31.4884257  98.4903240  33.4268928  38.1522250 110.3472900  41.0059357
  38.8390708 110.5629444  41.6367817  38.4345984 109.5189190  40.6182528
  34.3339777  95.2421761  54.7017765  34.0997910  96.1337471  54.4439173
  34.9755502  94.9644470  54.0479517  46.6922235 111.4298153  42.0954800
  47.1611929 112.2642612  42.0976830  46.9901180 110.9897518  41.2993479
   9.2549908 107.1100521  49.6006441   9.5577085 106.8004227  50.4542923
   9.0122074 106.3132000  49.1291428  50.1027107   5.6481004  47.0639086
  49.6767426   5.2472234  47.8215933  49.7266006   5.1942235  46.3097429
  37.1990108  24.6008205  32.2763824  36.4932561  24.8588538  32.8693080
  37.3936963  25.3935480  31.7764688  39.5946646  93.7472820  33.3496380
  38.8306761  93.3191013  33.7359190  40.0793457  93.0376244  32.9280949
  45.3887129   9.7393131  25.2857065  45.5660343   9.1801548  26.0420990
  45.5628300   9.1802448  24.5285034  80.4094601  22.4780369  27.5360894
  80.5334377  21.5484476  27.3444533  79.5425797  22.6814604  27.1848559
  60.6322670  13.5318124  48.8946676  60.1985598  13.8239932  48.0929422
  60.4936695  14.2465615  49.5160866  38.2703805  84.6991539  71.7974806
  38.8119221  85.2583885  71.2405062  38.5931659  84.8597527  72.6841879
  25.4714656 108.7186432  43.2372427  24.8905993 107.9656887  43.3462715
  24.9019098 109.4152355  42.9107428  34.3207788  96.2122726  44.9243116
  34.5214319  97.1476078  44.9575663  33.7926912  96.1085892  44.1327286
  44.6208096 108.0604744  46.7250824  45.0029993 107.3578644  46.1992407
  43.9392233 108.4341049  46.1664486  72.0163488  10.2222419  65.5233192
  72.1732759   9.4289333  66.0354424  72.4655199  10.9138227  66.0093212
  19.4811380  81.1970997  41.8515635  19.6368968  80.8152580  40.9877491
  19.2753446  82.1149254  41.6741419  59.9525547  24.5839477  20.4929495
  60.2717066  23.9634633  19.8376834  60.3561068  25.4173017  20.2502561
  43.4974813 103.0438042  48.5411358  44.1564035 103.3621025  49.1581774
  42.7035999 102.9472923  49.0671396  17.1159375  90.0135994  36.8253279
  16.6898108  89.7642708  37.6453805  16.9630492  90.9557152  36.7527509
  43.4639215 106.1644268  73.6184072  43.4720182 105.2072716  73.6226988
  42.6109457 106.3950825  73.2503510  69.7351170  18.2482982  59.9030638
  68.8614035  18.1263196  59.5316124  70.3230476  18.2145357  59.1484594
  41.8822908 109.4433689  41.8998241  41.3371181 110.2093315  42.0796251
  42.7694178 109.7222137  42.1267271   5.6894392  82.9444981  38.6556602
   6.3611901  83.6095905  38.8061070   6.0863608  82.1294212  38.9628005
  79.2696428  24.1276526  60.9082937  79.5730257  24.8531199  60.3625011
  79.1861868  23.3910060  60.3028059  29.8034286 103.8308048  57.8131390
  29.8929548 104.5940304  58.3838415  30.6947947 103.6480713  57.5159740
  70.3090906   3.8835126  30.9527540  70.9806013   4.4019422  31.3960767
  70.3383446   4.1809905  30.0434232 108.5778618  94.2117786  27.7675939
 108.7131405  95.1460838  27.6094222 108.8937759  94.0717793  28.6602497
  12.3846769 110.9655952  37.2266579  12.9172993 110.6214142  36.5096593
  13.0111730 111.1359882  37.9300070  48.5124016   9.9838418  44.4056320
  48.8641930   9.3558812  43.7746477  48.5029554   9.5087284  45.2365446
  57.8261471 107.4697018  70.2597761  57.7696466 107.1297359  69.3667698
  58.1208038 108.3742046  70.1535177  41.0620546  97.1396542  32.3499799
  40.3708744  96.7827606  32.9077649  41.8760729  96.8576622  32.7672243
  20.1129818  90.1489067  38.0099154  20.3827953  89.7333622  37.1909189
  19.3836522  89.6129704  38.3214974  33.1141114  85.0928402  18.4311688
  33.4821153  85.8403492  18.9023793  32.1674323  85.2298737  18.4665966
  48.8751030  89.6812153  38.8056087  48.8123322  89.3317413  37.9167008
  48.3747101  90.4967499  38.7782359   2.7256075 111.2652206  25.5899477
   3.3462182 111.9933319  25.6202650   2.4628605 111.2125587  24.6710229
  42.2308826 107.4085903  63.6874437  42.9582453 107.7500629  63.1672716
  42.0609617 108.0899715  64.3378878  51.0856819  94.9989223  31.2232137
  51.8693066  94.6547699  31.6518402  50.4050732  94.3536282  31.4145327
  45.8654785  59.6412516   8.3564812  46.0247612  59.7418976   7.4180090
  44.9925470  60.0097942   8.4921342  83.7850475   2.5372839  43.2553673
  84.5733547   2.7218392  43.7659979  83.1352043   2.2711112  43.9058208
  72.7241182   0.8147787  46.8174648  71.9140434   0.4050339  47.1209860
  73.3402538   0.6910050  47.5394678  53.7288475  98.2685566  75.1058531
  53.2235575  98.9759541  74.7052288  53.0804205  97.5922298  75.3017187
   9.2585331  96.2471867  26.0546494  10.0730097  96.4674759  25.6026196
   8.5678995  96.5451336  25.4626346  17.7866161  99.8376369  51.7371178
  17.2971416  99.3120956  51.1043119  17.1700335  99.9844551  52.4544096
  20.6993771 101.5135193  10.5471909  19.9107265 102.0542812  10.5901051
  21.0836744 101.5806580  11.4212847  26.2048578 108.7025833  67.1224976
  25.3765559 108.6836433  67.6018620  26.5958095 107.8442669  67.2858477
  30.1056170 111.3025093  33.9606285  30.7947135 110.6635571  33.7786746
  29.3442345 110.9769154  33.4805107  34.2034459 105.0644588  58.6701584
  33.4866071 105.4514408  59.1727686  34.8547077 104.8229980  59.3287849
  77.4849558   1.5364048  28.2355356  76.5451622   1.6277467  28.0784273
  77.7348375   0.7534645  27.7448273   6.3399172 105.8334064  35.5703855
   5.4135072 105.6000519  35.5108666   6.7788118 105.2251339  34.9757338
  44.0158033  93.9357567  46.2940598  44.0654469  94.3169403  47.1706867
  43.1132603  93.6260700  46.2183094  80.4625607  14.1941500  29.6194410
  80.2511692  13.8235700  30.4763055  81.3203239  14.6015942  29.7397041
  64.0682554   5.8760071  40.8847189  64.1871309   6.1745518  39.9830723
  64.9321747   5.5587715  41.1478519  27.2228932  99.4016647  47.6773977
  26.3265586  99.1903973  47.9385138  27.2375894 100.3572083  47.6229525
  80.3455162  21.2814736  34.1324425  81.2902927  21.1278272  34.1283417
  80.2556229  22.2245193  33.9952588  29.1663885  98.1329250  31.8361998
  30.0029039  98.2916927  31.3988590  28.5410190  98.6823940  31.3637209
  34.3058276  83.1266308  49.8177433  34.2264676  83.8971233  49.2553663
  34.8613811  83.4148979  50.5419588  40.3843975 106.0761261  27.5145531
  41.0155678 106.2911987  28.2012820  40.7756567 106.4225674  26.7126012
  48.7173128  97.3731518  48.2932663  48.5708046  98.3090687  48.4305048
  49.1732883  97.3227596  47.4531603  53.6748743 107.2813129  45.2475119
  53.7786388 107.5921249  44.3481398  54.5622349 107.0561028  45.5269766
  34.3555307 106.6508293  51.5712833  34.9924135 106.2389183  50.9873772
  33.5408378 106.1744595  51.4113569  76.4704561   6.4983028  36.8001008
  76.2846994   6.7037582  37.7163506  77.2755814   6.9780451  36.6055369
  36.7970681 101.2191677  35.6051683  37.5744438 101.4416027  36.1174631
  36.3069296 102.0391846  35.5453753  69.0037155 100.0730324  49.2688370
  69.2393446  99.2997932  49.7814941  69.7923660 100.6154251  49.2772388
   4.2713180  28.9235044  67.1058130   3.9652884  28.7777352  66.2106419
   5.0929004  29.4037461  67.0028448  15.7593596   2.7958205  50.0432539
  15.7237697   3.5200384  49.4183779  16.4825451   2.2493726  49.7356367
   5.6723094  45.6786156  30.5848265   5.0546455  44.9588776  30.4556179
   5.4232389  46.0597420  31.4268136   7.8666681  11.0181332  39.8862958
   7.1728247  10.8574235  40.5258131   7.8432769  11.9638097  39.7400737
 112.9074287  24.3748713  11.6130090 112.5559998  24.7907495  12.4002671
 112.5632095  24.9001694  10.8906448  92.6114273  33.6415434  41.9962311
  92.7923584  33.2869101  41.1257553  91.8562412  34.2157125  41.8687153
 115.2959633  10.0753975  53.1181908 116.0788059   9.6317691  52.7917242
 114.7304535  10.1592422  52.3504639 110.2127075  24.4780254  43.6690378
 109.8672962  25.1367521  44.2715311 111.0388088  24.8479605  43.3576727
  13.7532663  23.2389975  52.6424265  12.8858733  22.8540516  52.7676392
  14.3622088  22.5339699  52.8623247  12.1183050  47.4980497  49.2205763
  12.0543301  47.3974466  48.2708311  11.3697219  48.0469131  49.4542551
   7.0896024  72.4943447  25.8140898   7.6141226  73.1280327  25.3246498
   6.9497049  72.9067278  26.6664982  21.1614466  18.3340251   8.8342935
  20.3286123  18.8025534   8.8899791  21.5804386  18.6829877   8.0475903
 115.8363056  59.3285370  38.0391407 115.4365826  58.5370016  37.6786828
 116.7506599  59.2837667  37.7595329   9.8560220  61.1743593  22.3456335
   9.2298710  60.4642582  22.2044659   9.5920104  61.5643501  23.1789637
 116.0164261  49.3197536  30.8915973 116.9629192  49.4406652  30.8156705
 115.7362556  50.0007868  31.5030980 107.1634579  27.4353743  23.9269209
 107.0353699  27.9953480  23.1612468 108.0212402  27.6885629  24.2680144
 114.6746159  36.3384485  30.7174444 113.8544559  36.4410734  30.2346992
 115.3539658  36.5892434  30.0914907 104.3829155  43.6306906  23.7606263
 104.7296715  44.2759657  24.3767571 103.9448547  42.9832983  24.3130851
 101.7704201  42.4325895  43.1308031 101.8661308  42.8783321  42.2891474
 102.6150322  42.5551987  43.5641813  86.4506340 111.5542603  46.5000010
  86.3754845 111.3925743  45.5595541  85.8218575 110.9519291  46.8975782
  29.1820836  34.0297937  17.1625829  29.1931081  33.3882523  17.8728890
  29.7735882  34.7226310  17.4564052  22.8293920   7.4744016  20.9583902
  23.6936212   7.1343005  20.7267189  22.9772115   8.4033525  21.1356783
   9.6021450  47.1384621  52.7043056   9.5078045  47.6272392  51.8867302
   9.4251049  46.2295771  52.4617815   8.2258475  50.1714993  39.8247886
   7.8632975  50.9389448  40.2673006   7.7823544  49.4279003  40.2329636
 109.6123600  37.9212141  30.0616741 108.6573982  37.9730844  30.1016235
 109.7982216  37.6037598  29.1779828  14.9042690  41.9733143  54.9233007
  15.6728637  41.5149736  54.5835686  14.9894238  42.8654861  54.5871353
  99.4829941  29.1348076  43.5245848  98.7325668  29.4356084  43.0121231
  99.1200542  28.9387274  44.3883324  22.0174623  42.4589539  54.4321251
  22.7430105  41.8346643  54.4233847  22.1852279  43.0104733  55.1962662
  93.8505936  49.6544790  33.4331560  93.3447742  48.8714361  33.2158661
  94.2463017  49.9218464  32.6035976   4.3933785  73.2212591   5.1878095
   4.0301472  72.3423910   5.0788170   5.0045413  73.3200645   4.4577754
  32.6327634  70.0476313  43.0789375  33.5207224  70.0969458  43.4329557
  32.6872492  69.3891001  42.3864079   7.9474890  56.7964792  39.4426656
   7.4020630  56.9108963  38.6644292   7.4218923  56.2479353  40.0249720
  26.0814190  65.8980083  35.6386995  26.6578937  66.6351986  35.4375434
  26.4739442  65.4907799  36.4109159 111.9342232  67.0116663  38.7226963
 112.5759220  66.5072870  38.2226419 111.4172554  66.3511992  39.1839480
 118.3925629  65.3358030  54.0314674 117.6990318  64.7621298  54.3572664
 118.5476494  65.9536791  54.7458982 109.4889927  66.4272499  37.0303512
 109.8472977  66.9622850  37.7385831 109.9302673  66.7456532  36.2428641
   9.1742790  60.8929443  50.8556652   8.5605705  60.5661011  51.5135145
   9.3865436  60.1257801  50.3240347 109.8950863  34.2372084  47.0788670
 108.9558601  34.3881869  47.1851540 110.1750755  34.9028492  46.4505720
 113.7892818  60.3660583  56.5628338 114.6094513  59.8843050  56.6698837
 113.2956219  60.1789141  57.3612738   3.2313803  48.1342936  33.7241459
   3.9310619  47.6047087  33.3417606   3.4988415  48.2635498  34.6340847
  24.2833328  21.9638228   5.4194731  23.6273336  21.3343954   5.1199484
  24.1283369  22.7434039   4.8861220 103.7306404  28.1947064  22.2135997
 104.4871616  27.6715064  21.9486952 104.0972710  29.0505457  22.4357486
   1.4958480  55.0988436  17.4191928   2.2158468  55.6556320  17.1228492
   1.3664283  55.3423071  18.3358216 110.1911259  35.9470987  44.9327230
 110.7513618  35.2763915  44.5421839 110.3983498  36.7451382  44.4464874
   2.9072428  38.2923603   5.0860202   2.3980936  38.1056476   5.8747774
   3.6345434  37.6708603   5.1177198  37.0212245  44.2860985  35.4738164
  37.2962904  44.6779728  34.6449566  36.9559288  43.3497667  35.2860594
 105.8864689  45.2206421  19.1467011 106.1834145  44.7611189  19.9321294
 104.9353886  45.2695990  19.2430162   9.3824822  49.7787094  27.0506406
   8.8329482  48.9966726  27.1022654   8.7616330  50.5070782  27.0345926
   6.8378431  35.7274175   8.0933642   5.9740007  35.8871603   8.4734833
   7.4340099  36.2576032   8.6222488  97.6614380  60.8358049  24.4170022
  97.1204281  61.3707972  23.8362098  98.0165672  61.4568138  25.0529814
   3.6907387  54.6989393  42.2803593   2.7935719  54.5925283  41.9641304
   3.8182703  53.9708614  42.8885317   8.9461142  68.9188337  37.5292397
   8.6832803  68.0520105  37.8387022   9.6413571  68.7458849  36.8944502
  20.9606981  59.7381735  37.4262786  21.3351369  60.1521254  36.6486740
  20.2889299  59.1485643  37.0837593  15.4442811  36.7515612  31.9357514
  14.6838379  36.6651821  31.3608623  15.2217948  37.4764585  32.5199223
 117.3600864  64.4982958  19.9644780 117.4239922  65.3579664  20.3805542
 116.5607071  64.5448780  19.4400215 116.1689949  49.1900444   9.1629457
 115.4728413  49.4375658   8.5543978 115.7081032  48.9221096   9.9579430
 106.9871140  37.4303341  61.4500999 106.5959358  37.3040700  60.5856562
 107.3137856  36.5642881  61.6939831  15.8674645  57.7995491  39.4611406
  16.6796982  57.9076958  38.9663553  16.1545050  57.5885725  40.3495836
   9.2091334  55.1610994  20.8429003   9.0411663  55.3743315  19.9249959
   8.5530120  54.4984293  21.0587907  11.6170645  28.7005115  34.6309805
  12.1673238  29.2865014  35.1506567  12.2240937  28.2783675  34.0230823
  29.8879886  68.3917713  43.8410044  30.7133102  67.9077959  43.8700962
  30.1473951  69.2977476  43.6732340  99.2793465  25.2336264  42.0449781
  98.6938572  25.9026432  42.3997307  98.8899040  24.9963832  41.2033844
   3.6684665  31.5268993  50.1311541   4.0828568  31.2164474  50.9362221
   2.7709043  31.7366457  50.3892660 118.9052486  53.4083939  56.0580492
 118.7585735  53.8297033  55.2111626 118.2885361  52.6764727  56.0714579
 111.1364555  69.9859858  41.9597673 110.6879044  69.7421885  42.7694607
 110.8238697  70.8705425  41.7698002 107.9264545  32.4435234  49.7549486
 107.6176071  32.1999311  48.8823032 108.0062199  31.6116261  50.2216530
   1.7277090  51.8796015  60.0034142   1.4916022  51.4168835  59.1994381
   0.8938321  52.0227909  60.4510498   5.9321988  46.7204332  22.0398569
   5.7343280  46.1759424  22.8018332   6.5941447  46.2254095  21.5571427
 115.9055805  44.9094057  66.6631699 115.8627319  45.8148813  66.3557434
 116.7521286  44.5901680  66.3506508  95.1002216  47.6878262  35.2973843
  94.7645664  48.4704685  34.8603058  96.0520172  47.7690697  35.2364612
   7.9397637  33.1811738   4.5846644   8.1798422  32.5213051   3.9341533
   8.7303215  33.7099791   4.6924487  89.1255188  58.3463001  24.5610976
  88.8679123  57.6743031  25.1922035  89.2164516  57.8748941  23.7330031
  39.4475770  77.3117733  93.2418537  39.1319060  77.5609207  94.1104794
  40.3874540  77.1735239  93.3591366   8.8227296  34.4161654  50.5278969
   9.3552440  33.6543894  50.2990818   8.4954113  34.2243409  51.4067030
 117.6797581  18.1502271  21.7697215 118.5127544  18.0547345  21.3079500
 117.7210045  17.5036442  22.4743223 116.3818932  11.9109297  27.0305133
 115.9930515  12.2586703  26.2279463 117.0682335  11.3170934  26.7263412
   6.6864938  48.3264256  13.2399929   6.7782402  49.1968393  12.8524518
   6.8313694  48.4645176  14.1760337 109.3565369  39.1327763  42.5297832
 110.0207996  39.3792200  43.1734085 109.5031643  39.7277498  41.7944336
   3.0750105  54.0764761  23.3571267   2.2118026  54.0165663  22.9478407
   3.4799182  54.8429203  22.9511142  88.3770180  56.9995546  28.8381839
  88.8677311  57.8090239  28.6960864  88.8670444  56.5388203  29.5192337
 116.9583988  62.2261000  32.2197938 116.2399960  62.5437975  32.7667832
 117.0196819  62.8652763  31.5099144 108.4172821  54.0984249  34.6385884
 109.1481686  54.5401239  34.2062163 108.8297844  53.5502005  35.3060651
  22.4067092  74.3944883  49.5076132  21.5725827  74.1767836  49.9236298
  22.9280758  73.5953522  49.5836878 117.1415329  59.6811962  32.5515890
 117.2102261  60.6288338  32.4354076 117.0104408  59.3402910  31.6668129
 117.9078960  53.2677412  37.5596547 118.3108139  53.2581949  36.6914368
 118.1417465  52.4217415  37.9415369 115.9532070  44.9258184  51.8152189
 115.4781151  44.0951443  51.8377876 116.7992783  44.7288418  52.2172213
  25.1062346  42.8428459  41.2451077  25.4174876  43.3073807  42.0220041
  24.1625929  42.7558947  41.3800573  17.0125556  12.1749604  26.2053585
  16.3462663  12.7427030  25.8181119  16.8293452  11.3084650  25.8422446
   0.7499100  37.6759863  30.0201964   0.4849762  38.3253956  29.3688059
   0.1853175  37.8484106  30.7736802   6.1323428  49.4593620  17.6234746
   6.0909647  50.3009272  17.1692884   5.5946100  49.5826626  18.4056973
  24.0627384  59.5697403  13.7403226  24.2120314  58.6476088  13.9491606
  24.7828388  59.8021841  13.1540966  15.1449764  38.9750195  44.5086956
  14.8674285  39.7775841  44.0670061  14.5664322  38.9073062  45.2682543
 117.3197269  52.6109552  29.7163081 118.2049084  52.8510666  29.4424033
 116.9741440  52.0973396  28.9862370 108.6517620  30.0405836  50.9050035
 108.7277889  29.0975070  50.7598972 109.5108604  30.3894925  50.6674385
  40.9669876  69.0570164  20.7695723  41.4146900  69.8299789  20.4255891
  40.4041624  69.3961525  21.4655972  23.7243891  31.0853457  47.8061438
  24.5655823  31.4900756  47.5944471  23.8934946  30.1442432  47.7618313
   6.2462002  51.7015219  38.3313727   6.4145410  52.4883604  38.8498163
   6.9350088  51.0904741  38.5928893   2.8206873  55.1769924  34.6230984
   3.2825068  54.5894623  34.0249681   2.0750409  55.4976320  34.1157174
   7.5597292  47.5935078  54.8628187   7.9902297  47.9325294  54.0779829
   8.2785094  47.3900127  55.4612970   8.7102848  62.1518612  44.3364429
   8.2419527  61.6768789  43.6499357   9.5651734  61.7238474  44.3833303
 117.0225048  45.0299597  39.7806406 116.9012642  44.1814566  40.2067661
 116.1358356  45.3762007  39.6798110 115.4480457  19.0825593  31.5890050
 115.7591438  18.5639238  30.8470726 114.5055199  19.1660810  31.4444160
  21.0743690  30.6862831  49.4076729  21.5007257  30.2648258  50.1538801
  21.7729688  31.1832261  48.9819527  96.4720154  60.4630613  27.7167654
  97.1549892  60.6280184  28.3668184  96.1910820  61.3346338  27.4380755
   1.4628178  42.3451662  37.4260759   1.5709652  43.1577539  36.9318700
   2.3197383  41.9211149  37.3802567   8.9793611  30.2420998  44.3436670
   9.6765894  30.8707166  44.5306063   8.8607937  29.7647142  45.1648092
 104.1180897  55.9578133  29.3013954 104.6417427  56.7201424  29.0546775
 104.0924072  55.9842730  30.2578855 108.1753922  53.3161545  20.6522942
 107.2299671  53.4622908  20.6846619 108.3497143  52.7147388  21.3762712
  19.0517807  32.2422671  33.7084365  19.2102826  32.7718377  32.9269862
  18.7124717  31.4132047  33.3711576 116.6428280  50.2776337  47.8726816
 116.8072033  51.0322046  47.3071432 116.5160656  49.5474148  47.2669220
 116.4654827  40.1471186  30.1834321 115.6790733  39.9170017  29.6886158
 116.3296700  39.7538781  31.0454917 116.4221859  24.1336632  22.7039862
 115.6410694  24.1618776  22.1514487 116.9748402  24.8420310  22.3738003
   4.3306291  49.9245787  38.5509372   4.5108774  49.5066547  39.3930078
   4.8148653  50.7495785  38.5844779  10.8906686  45.3890944  30.4286957
  11.1084795  46.2788200  30.1508904   9.9660408  45.4338074  30.6722045
 107.5302410  44.6110201  49.6373940 108.2607174  44.4363737  49.0439844
 106.7496586  44.5091534  49.0928316  16.7981362  32.8056788  51.2506390
  16.5270197  32.0832849  51.8170977  17.3741889  32.3991799  50.6032181
   7.4369192  40.5231857  28.8669896   8.2507485  40.6694508  28.3847880
   7.5222057  41.0657454  29.6509480  40.6031370  21.3931084  28.0251074
  40.7840681  22.0864344  28.6597705  40.8669567  21.7642927  27.1831727
   4.4670013  13.6146092  23.7885833   4.9761793  12.8433776  24.0379262
   3.5580835  13.3145642  23.7971520  38.3157253  46.7200613  18.2650888
  38.4952688  45.8912277  17.8212070  38.8040137  47.3718262  17.7620876
 112.2766781  30.1024413  25.1836538 112.0308304  29.4610620  25.8503056
 112.3099995  30.9356403  25.6536555 106.6306496  39.9988031  52.3609924
 106.5088367  40.1498604  53.2983112 107.2309208  39.2546678  52.3143339
 110.7806873  39.3215847  26.4218497 110.5877781  39.9344611  27.1313572
 111.2742138  39.8392820  25.7857227  25.1777554  35.7695246  15.4912615
  25.3876472  35.2602363  16.2740791  24.2302537  35.6766486  15.3920186
 107.9636860  17.0100522  22.2762346 108.5588551  16.9369423  23.0223322
 107.2194958  17.5099897  22.6115918  12.9133141  61.5522051  33.9473581
  13.7515986  61.8388176  33.5849166  12.2601593  61.8827438  33.3306241
 110.1766396  50.6729698  38.1372762 109.3260670  50.9479284  38.4795547
 110.5754852  50.1802206  38.8544559  16.2182796  44.7968721  71.0921717
  16.8262768  44.1198730  70.7951117  16.7172074  45.6113100  71.0290003
  14.8013330  50.7696867  40.7783556  14.6170628  49.8889637  40.4518557
  14.2542303  51.3433504  40.2418661 113.9387226  25.3155398  25.8528519
 113.9390278  24.5502400  25.2779198 113.8792706  26.0625196  25.2572680
 115.8533859  56.1172342  35.2710938 115.3910732  56.4972162  36.0181618
 116.5144062  56.7702341  35.0411391  20.9256840  75.9771347  53.4537458
  20.2630258  76.5786266  53.7933397  20.7279706  75.9053755  52.5199413
  13.6393034  56.1166239  43.2180309  14.3803048  56.6330338  42.9010630
  13.0592823  56.7574167  43.6293554  16.9101381  62.9298019  69.6660185
  17.1998680  62.2638321  70.2895355  17.6898563  63.1275177  69.1471910
 117.6032066  58.9124012  46.6512251 117.0028114  58.2342815  46.9609022
 118.3783913  58.4316349  46.3610601  28.7662959  43.8861847  40.5042362
  29.2900681  43.3244705  41.0755253  28.7270379  43.4126282  39.6733093
  44.5113039  49.2118931  24.8870897  44.9942827  48.4040165  24.7130227
  44.3706846  49.5978880  24.0225267   1.2194244  80.4987144  20.6398249
   1.8754426  80.3066921  19.9697518   0.7414783  81.2541294  20.2975583
 117.2076035  81.5727615  49.7383404 117.4362278  81.5655899  48.8088751
 117.4602890  80.7050991  50.0538492  11.8491125  49.8002052  16.8351400
  11.3233340  50.5988550  16.7909598  11.4021122  49.2546701  17.4822974
  17.9960036  32.7217555  26.2905121  17.9553914  33.4225845  26.9412208
  17.0813859  32.5488329  26.0673475  31.5892410  65.7852650  42.8060436
  31.0309076  65.0449610  43.0436277  31.3474154  65.9872675  41.9021940
  31.1955547  32.4295592  34.0121436  30.6447744  32.8733587  34.6570587
  31.9832826  32.9705644  33.9571047  31.0151124  72.1122503  31.3967180
  31.6215062  72.7914572  31.6919971  30.2729774  72.1759224  31.9978929
 115.7304096  62.2307920  37.0557642 116.0129929  62.6898050  37.8467655
 115.9255123  61.3101196  37.2304916 108.4241962  50.4886103   8.5635293
 108.5233402  49.6343946   8.1431466 109.1631794  51.0027981   8.2383424
   3.3200100  76.8381023  15.1645827   3.8673323  76.9344091  14.3852270
   3.7523389  76.1556864  15.6780338  36.2383223  70.2463293  39.6751738
  36.8078613  70.2368498  40.4444361  36.0773587  71.1749315  39.5077634
   7.0825863  74.1834164  28.1538653   7.2032231  73.4346962  28.7378979
   7.4591279  74.9226904  28.6312795   8.9412695  54.3898726  41.5055895
   9.5170617  53.8088369  42.0026731   9.5373988  54.9477530  41.0059595
  15.4594350  74.3373966  29.0001225  16.1427712  74.3244886  28.3299589
  14.7210634  73.8797331  28.5981464   2.3253596  49.8629713  30.4189801
   2.4597412  49.4916153  29.5470452   3.1960237  50.1506853  30.6935644
   5.0200784  55.8433580  25.2099371   4.3450403  55.1660633  25.2526379
   4.5319447  56.6654301  25.1634598  18.7498701  38.6840463  33.0013514
  18.2737887  39.2499208  33.6091042  18.9443576  37.8966188  33.5096478
  14.3133402  58.0490732  56.8615007  13.7579238  57.9410553  57.6335573
  14.1327286  58.9391279  56.5591478  41.7735815  40.8859777  35.1691246
  40.9521151  41.2065077  34.7967196  42.3011065  40.6398582  34.4092751
  14.1702390  70.5302286  65.8430433  14.3066669  71.3476515  66.3220453
  14.6310675  70.6586790  65.0139666  12.2331524  56.9827938  19.1024733
  11.4300883  57.4428177  18.8581431  12.8984630  57.6695299  19.1470349
   5.0786054  63.9406538  42.8716946   4.5723689  64.7520351  42.9119015
   4.6568644  63.3634233  43.5082293  13.3419943  48.3669519  35.4925609
  12.5845015  48.2038641  34.9305654  12.9895437  48.8625717  36.2317300
  27.5579929  56.1382246  42.9785156  28.4502292  55.8050442  42.8829145
  27.6700926  57.0610094  43.2068348  10.8519435  49.7771120  40.7887173
  11.2041044  50.4689121  40.2286911   9.9700880  49.6210527  40.4507732
   7.3889333  47.5218105  40.9740019   7.7859515  47.0708752  41.7191601
   6.4487022  47.4957943  41.1515379  19.3081379  77.8762293  54.4515896
  18.5816216  78.4291983  54.1641283  19.2967451  77.9430103  55.4063892
  25.7213545  63.9123297  40.2129745  25.1832962  63.9088535  41.0046244
  25.3029370  63.2732105  39.6361852  22.0346403  54.7079897  28.8958049
  22.9053354  54.3934631  29.1391063  21.4647245  54.4064808  29.6032786
 109.4448376  40.1276445  37.5561142 108.5829926  39.7935867  37.3073673
 109.3479347  40.3802299  38.4742880  13.6434853  32.2671247  47.7262068
  14.4959950  32.6911163  47.8246403  13.0194271  32.9915476  47.6815510
   7.1196043  59.2898703  33.6295009   7.6184523  59.6313810  34.3716288
   6.2038469  59.4109917  33.8804007 103.4965420  95.2126789  32.5976562
 104.3097210  95.1966667  33.1023550 102.8330994  94.8793793  33.2017922
   4.5865744  44.4829464  25.9393358   4.0722841  43.8558960  26.4478040
   4.5707694  44.1377068  25.0467062  12.0245254  82.0453453  56.6608191
  12.7201545  82.6699066  56.8663645  11.5629125  81.9195652  57.4898672
   4.4898406  67.8279114  21.5541744   4.8067027  68.7051105  21.7694640
   4.9258614  67.2543812  22.1844006  16.1966681  65.0601912  25.8728313
  15.3028595  65.2550316  25.5910945  16.7013705  65.0239038  25.0603104
  32.3641109  79.5230532  54.2774630  32.7015400  80.4186153  54.2589664
  31.4403558  79.6102476  54.0422916 102.5414467  31.0900450  39.6264720
 103.4754086  31.0859179  39.4168878 102.1047974  31.0684776  38.7749410
 112.9600430  67.4390364  31.6159391 113.2042122  66.8510103  32.3306680
 112.7840710  68.2766819  32.0444393   2.9026213  67.5052357  28.9649916
   2.9772398  66.5536404  29.0366149   2.1566737  67.6437378  28.3813715
 117.0089245  59.0505838  29.9603534 116.1383343  58.8654709  29.6081448
 117.5218964  59.3237066  29.1997647 113.7689400  60.3704119  52.2160435
 114.6808529  60.4623413  52.4921036 113.7248898  60.8305502  51.3778543
  22.5899029  52.0920849  53.5199356  22.5349617  51.2602615  53.0495310
  22.2703862  51.8913317  54.3996143  17.7874911  65.8506393  54.6069002
  16.9967067  66.2607574  54.9571800  17.6584005  64.9141979  54.7573757
  38.0920887  74.3062782  58.6434460  37.9899263  74.8206902  57.8427124
  37.8672385  74.9134064  59.3484831   1.1186943  64.0040112  35.4386520
   0.9890883  64.5184517  36.2353826   0.3861108  64.2491484  34.8734450
   2.2370844  39.6494460  11.1506319   2.6991510  39.2340231  10.4225183
   2.9252726  40.0843859  11.6540778  15.9900486  84.8131943  25.4163051
  16.3102174  85.7068634  25.5390739  15.0627661  84.9181271  25.2033067
  16.3697028  32.1133733  34.3661880  16.4143229  31.2840462  34.8420620
  17.2784781  32.3065639  34.1358900  16.0050368  22.5427341  25.3323722
  15.8041370  22.7153182  24.4125438  15.1777005  22.6914668  25.7902193
  15.4580009  46.9791794  16.2868595  16.4058232  47.0938444  16.2181783
  15.1398611  47.8145504  16.6291595   0.8523829  62.1816301   3.4615701
   0.4654955  63.0076122   3.7519145   0.6649067  61.5669060   4.1709349
  33.8903189  41.8920803  19.0503430  33.2677746  42.0758724  19.7538280
  34.7488379  42.0510054  19.4426692  24.9810290  45.3396940  45.4469585
  25.2662754  45.4201269  44.5367956  24.8375607  46.2416315  45.7335949
 106.2655640  43.1711054  38.3024812 105.7592201  42.4228477  38.6186361
 105.6204605  43.7321615  37.8720236  23.4572220  65.8067942  31.2654209
  22.9753923  65.5103922  32.0375729  24.3715787  65.6012249  31.4601660
 113.8314629  50.2547503  24.0120578 114.1792393  49.7477531  24.7457027
 114.1399384  49.7915745  23.2332468  11.3704157  57.4510479  55.7145452
  10.8646643  58.0676651  56.2439156  11.4755332  57.8900909  54.8704910
  10.6164670  43.2695293   2.0098935  10.4313087  42.6649237   2.7285028
  10.9134507  44.0706682   2.4414209  20.0867605  58.2264090  28.0534315
  19.9676037  58.2620239  29.0025187  19.9258578  59.1225576  27.7580428
  15.3705096  70.5608845  28.6846304  14.6913230  70.2864504  29.3007660
  16.1794734  70.1932812  29.0405464  38.3212066  84.7816563  16.6898704
  38.6863899  85.6058216  16.3679600  37.3971176  84.9747181  16.8480384
  36.4791894  61.5742922  13.9543402  36.6455865  61.0591888  14.7437787
  36.8628550  61.0574961  13.2458544  21.0578823  46.5999889  12.7981496
  20.8378625  46.6328144  13.7291420  21.2909579  47.5012064  12.5751984
  14.8548067  66.5944719  21.8540716  14.0944648  67.0238447  21.4619589
  15.5970621  67.1428251  21.5999150   9.9017590  43.6154604  33.2667947
   9.1489822  44.1166592  32.9531717   9.5274073  42.9728794  33.8694453
  32.7186680  47.2593403  12.6164711  33.1507492  46.9162655  13.3986723
  33.4352612  47.4501944  12.0112431  15.6738794  44.5517778  10.9478068
  14.9512815  43.9540863  10.7558453  15.6802619  45.1639605  10.2119923
   7.1384645  46.4838505  43.8985825   7.5240886  47.1630096  44.4519949
   6.2282860  46.7568922  43.7834501 108.6198807  79.4044113  29.0162063
 109.2694664  79.0518379  28.4079623 108.0317497  79.9211740  28.4654808
  13.1767857  60.1266909  46.2572336  13.7196159  60.8848333  46.0409307
  13.7272501  59.5938969  46.8311262  53.2757664 106.2957478  89.6984577
  53.0908442 107.0863056  89.1914463  54.0840387 106.4972305  90.1699829
  11.6632402  48.6772490  22.4864578  10.9331810  48.3283043  22.9978132
  11.3646507  48.6281824  21.5783453  28.6328173  57.8657532  31.6384053
  29.3164825  57.8525686  32.3082256  28.7798429  57.0679379  31.1303639
 107.2662640  42.9436255   8.7826419 107.5766468  42.0525074   8.6219901
 106.4858627  42.8312302   9.3253917  26.2810230  67.8104925  31.5886378
  25.3610229  68.0686760  31.5323043  26.2564230  66.8970299  31.8736148
  96.6917896  48.7952375  31.2647152  97.2433186  49.2507982  31.9007206
  96.0552692  49.4531298  30.9849858  19.0335667  54.2384005  17.8225017
  18.6071348  55.0290728  18.1529915  18.8313365  53.5670185  18.4740984
   4.6103820  54.7553825  36.8720078   4.4351065  55.5347872  36.3447165
   4.8389062  54.0803289  36.2330174   7.8537172  68.6495972  41.8014526
   7.6571691  69.5689392  41.6214180   7.0930123  68.3329868  42.2886086
 113.8467598  55.0576019  15.1620591 114.4029903  54.8442793  15.9112775
 113.2284737  54.3289042  15.1076031   7.8582644  42.1853781  31.1776996
   7.7328932  43.0387306  31.5927911   8.0109316  41.5844297  31.9069386
 110.5152607  61.8350649  12.8533518 110.7388973  61.0602379  12.3377335
 109.5662022  61.9185686  12.7608681  15.0713718  61.0159016  42.9508924
  15.7221770  61.5957308  42.5553179  15.5011821  60.1613045  42.9849243
  16.4658153  52.3333502  59.3334723  17.1463287  52.9955626  59.2125988
  15.6566942  52.8359222  59.4282103  28.8220048  81.8287849  27.4571443
  28.6177182  82.4869251  28.1214857  28.9746332  81.0254860  27.9547858
 116.0172844  54.3217993  23.1718612 115.6027794  54.8042107  22.4565291
 115.5641937  54.6243048  23.9589047  24.6943951  46.2263393   5.7835132
  25.4370284  46.8153572   5.9168839  24.5612025  45.8120012   6.6360480
   7.9824907  87.6271820  36.7758226   7.1189833  87.4287033  36.4136219
   8.2317048  88.4534740  36.3618493   8.5367966  73.4817886  41.1915398
   8.4167707  73.4332943  42.1399450   8.0646455  72.7218723  40.8511925
  38.1368351  49.7555113  34.2735720  37.7419257  50.4596281  34.7878623
  38.0749393  50.0571728  33.3672595  12.1975183  51.2488794  34.5045638
  11.4884698  50.6268549  34.3415713  12.4175441  51.1247158  35.4278207
 110.0569153  73.7348604  22.6195335 109.1119003  73.6339951  22.5054932
 110.3658485  72.8575850  22.8457618   8.0770135  66.0541725  50.5717993
   8.5499942  65.2372265  50.7303095   8.7594759  66.7248344  50.5455685
  12.3328912  50.5000067  58.1225348  13.2079494  50.8878803  58.1303072
  12.4873316  49.5628929  58.0033779  34.4547963  82.0039940  22.2111559
  34.1538858  81.2790489  21.6633010  35.4095864  81.9668674  22.1543288
 108.5446644  65.8835983  21.5040803 109.3345642  65.7380199  22.0247483
 107.9436207  65.1925611  21.7823768  39.7691131  56.7511177  33.6814117
  40.0886965  55.8488512  33.6850309  40.2598000  57.1761942  32.9780102
 110.8467102  61.5405893  28.1339335 111.3211918  62.3694086  28.0694747
 109.9331856  61.7968082  28.2606506  23.7699270  78.5175180  18.9174056
  24.3211079  79.2874908  19.0573299  23.8672614  78.0043221  19.7195196
   8.6382473  60.0320768  27.9865599   9.4368231  60.0676394  27.4600196
   8.1182808  59.3351889  27.5862908  11.0143101  81.7645836  28.4684920
  11.3410676  81.1365318  27.8242779  11.7833841  82.2796822  28.7122822
  33.0971169  59.5192194  35.8904600  33.3522272  58.5996056  35.8165908
  33.6626244  59.8701382  36.5784216   7.5699586  72.7972794  66.8588066
   7.8516018  72.0520639  66.3281870   6.9427240  72.4260616  67.4792957
   2.9770941  59.5611906  21.9005275   2.1451136  59.7952986  21.4891458
   3.5482475  59.3264723  21.1691427  10.6775153  42.3850965  45.0007772
  10.1532173  41.6471720  44.6896362  10.3719199  43.1307268  44.4841719
 107.9536343  44.9128151  30.9917378 107.8570175  44.0266132  31.3403702
 107.5895977  45.4789495  31.6723251  15.4280090  96.2835979  33.0958223
  15.9946406  97.0357895  33.2671833  15.9620774  95.5237389  33.3273816
  15.4457045  46.0575390  31.5630293  15.4355729  46.9911814  31.3522100
  15.4831517  45.6203032  30.7123494  24.6465945  38.5779643  10.0633323
  24.1356087  37.7851820   9.9001664  25.5567837  38.2817364  10.0572658
   0.5945884  83.2054615  39.4076014   1.0813674  82.5360107  38.9268494
   0.6946529  82.9601383  40.3274059  16.6843557  47.2966623  53.9399672
  16.7590511  46.9816256  53.0391884  17.5889468  47.3667431  54.2449808
  20.6041670  75.3381062  41.7732620  20.8906078  76.2320089  41.9606733
  21.2129307  74.7841215  42.2618675  20.2228999  45.2045918  48.9525747
  21.0251570  45.2785921  48.4357214  20.1400638  46.0524893  49.3889713
  19.9116611  64.1980600  25.4123139  20.6632376  63.9027405  24.8983574
  20.2816296  64.4367838  26.2622356  10.7296228  76.2454987  37.9976225
  10.1455998  76.7572355  38.5573292  10.4156029  76.4113283  37.1087337
   8.5853589  81.1649990  23.6485195   8.9657789  80.2868557  23.6679554
   8.9438593  81.5638351  22.8556490  13.2108641  58.7462521  38.8694000
  13.3326221  59.4691896  39.4848418  14.0781045  58.3484793  38.7925625
  17.6323473  57.8609324  21.2020254  17.8721738  58.6826944  20.7737541
  16.7675745  58.0293465  21.5762401  45.3736687  54.8144341  10.1034141
  46.1534119  55.0714254   9.6112853  45.2885151  55.4827690  10.7833481
  19.4981897  44.6557474  40.8327484  18.8918138  45.0192785  40.1874685
  19.7851133  43.8261604  40.4510450  15.8166409  79.1493607  43.0316353
  16.1090744  79.9500942  42.5962734  15.0622547  78.8596249  42.5186205
 116.5124226  42.2623634  53.6089516 116.5128994  41.5942717  52.9234648
 117.2377968  42.8427458  53.3782578  19.2573678  73.6136532  50.7655668
  19.2422247  74.5705700  50.7478809  18.5020697  73.3523798  50.2387905
 115.7765388  51.9014597  31.9215178 116.3321304  52.3321486  31.2718654
 115.6850338  52.5458670  32.6233721 115.0001907  62.6847935  29.9507141
 115.5939960  61.9658184  29.7346067 114.1327763  62.2806358  29.9727535
  27.9787207  71.9617224  38.1940126  27.9500198  71.0818195  38.5697556
  27.1331024  72.3475313  38.4227371  22.4629951  52.3447704  42.4536037
  21.6023755  52.7140522  42.2556162  22.3600054  51.4046764  42.3057842
 113.8946342  68.7678289  26.5414476 114.4347095  67.9892111  26.6767359
 113.9211845  69.2265844  27.3811340 113.6566448  48.3768559  36.8363547
 113.4963894  49.2801189  37.1096134 114.5790482  48.2245398  37.0417929
   6.1287147  54.1541576  49.9721766   7.0480323  53.9332771  49.8228550
   5.8025759  53.4531736  50.5365276   8.7021565  53.5314226  34.8595667
   8.7872308  54.4266796  34.5316863   8.1659359  53.6150742  35.6480479
   3.9156005  41.5266752  54.5861626   3.0864292  41.4814520  55.0622559
   3.8185027  42.2828245  54.0073347  12.7816105  55.4248905  15.5979240
  12.4979687  56.3321400  15.4853320  12.2411978  55.0921679  16.3145006
  17.2311211  42.0501661  43.4948015  16.6668069  42.7205038  43.1095314
  17.5912130  42.4625635  44.2799711  23.0274463  48.1883478  26.4439535
  23.5017443  47.3569250  26.4456916  22.4694180  48.1441355  25.6674981
  17.8433609  63.1604576  27.2043991  17.2284484  63.5971975  26.6150165
  18.6350942  63.6969566  27.1649075 118.6758137  34.6406031  62.2126627
 118.2551670  35.3726935  62.6635933 118.2703304  34.6284842  61.3456726
 113.9568710  47.7761555  33.9141059 113.1199646  47.5884295  34.3390393
 114.2098045  48.6351824  34.2522407  30.4084063  36.2620306  31.4682674
  30.3305173  36.0860372  32.4059200  29.5487833  36.5988207  31.2155700
  16.0092795  62.5328398  49.4879198  15.5566144  61.6903877  49.5279360
  15.4051709  63.1072235  49.0174246  11.2661147  58.0713081  37.2816133
  11.9247329  58.3642340  37.9114127  11.6757822  58.2051516  36.4269257
  16.0715055  63.3662844  34.7007394  16.7463601  62.7109957  34.8779535
  16.5473735  64.1959429  34.6627164   5.5770469  70.1597023  22.7250695
   5.3732669  70.5404425  23.5793185   6.5334213  70.1585865  22.6853299
  18.5315025  61.8921757  48.8245058  17.6952839  62.0764303  49.2523146
  19.0865088  61.5451574  49.5229197  16.7344093  69.1312218  17.9438055
  16.7941201  70.0409222  18.2355416  17.6211953  68.9129400  17.6571095
  21.1675739  47.5119972  61.2056398  20.9636235  46.6086388  60.9636021
  22.0861268  47.4865866  61.4736748   2.8952855  40.2088690  39.1268873
   2.7220944  41.0974836  39.4377017   2.1272570  39.7062206  39.3983793
 107.4827671  76.1268282  30.8391929 107.4022388  76.5659904  31.6858840
 108.2454681  76.5348816  30.4293108  16.4484882  71.8512487  37.3827839
  15.9788871  72.5223541  37.8780818  17.2242451  71.6627073  37.9108834
   2.5481132  49.5921993  67.6485586   2.0137902  50.3269196  67.9500818
   3.2260185  49.9956512  67.1064281  17.6978827  64.5934105  50.5773926
  18.3624589  64.6354675  51.2649965  17.0994687  63.9037132  50.8645344
 105.4496861  73.8870621  33.8455272 105.2440834  73.0083132  34.1645312
 104.6327400  74.1972828  33.4548950   6.7052078  52.5860262  47.3804808
   6.8122590  53.5367775  47.4095201   5.7578373  52.4509048  47.4019766
 118.3335018  56.4850903  38.2047176 117.7627563  55.7739925  37.9134822
 118.1078339  56.6111612  39.1263533  37.9135466  78.2861042  36.5010142
  38.2345629  78.7488413  35.7270288  37.0817041  77.9027271  36.2230015
  35.2814555  53.5239220  18.5444629  35.4207444  54.4705963  18.5697103
  35.5033278  53.2730150  17.6477742  14.8653352  69.6262121  37.2175956
  15.3387809  70.4537725  37.3025942  14.0902746  69.7360134  37.7684641
 118.8996696  60.6167603  65.1145840 118.4196281  60.8230162  64.3125534
 118.3375549  60.9381819  65.8195353   3.7765732  28.5926461  20.6331229
   3.6623034  28.2924342  19.7314310   3.6099431  29.5344567  20.5949259
 109.1637993  88.9435291  33.8972235 108.2726479  89.0012455  33.5526228
 109.0775871  88.4279823  34.6991038   7.1236056  61.9901800  20.9694171
   7.7719784  62.6541185  20.7348251   6.5254551  61.9651079  20.2225447
  15.7729137  85.0242519  16.4729273  16.2970197  85.2060795  15.6928718
  16.3517272  84.5101929  17.0359027  25.5700064  53.8640881  18.9309251
  25.8879876  53.0314398  19.2799413  24.6441317  53.8871861  19.1726995
  19.7976267  47.8172255  41.7376232  19.8315120  47.0002604  42.2352695
  19.8906779  47.5455093  40.8245277  15.9440458  67.7343369  10.6213939
  16.2853789  67.9059124   9.7437352  16.4768744  67.0093632  10.9481072
  20.2533388  36.6117883  34.2018151  21.0389042  37.1002793  33.9558554
  20.4520321  35.7051373  33.9678597  17.9826319  46.3760519  26.2161374
  18.5093153  46.3091278  27.0126033  17.9800916  45.4894066  25.8554649
 111.2628365  62.9390049  10.5155480 110.7621765  62.4820423  11.1913896
 110.6048489  63.4217358  10.0152874  23.4731293  59.6394539   5.8025485
  24.0744638  60.3382683   5.5450869  23.7995815  58.8629580   5.3478849
  25.1428223  47.9328632  46.0788012  24.3365574  48.2596588  45.6795835
  25.0328898  48.1029510  47.0143270  25.8755636  65.3698587  32.7929688
  26.5974355  64.7414207  32.8069830  25.8432674  65.7174444  33.6842465
  39.3066096  64.2358971  45.3678083  39.0028834  64.9081564  44.7578526
  38.7546301  64.3477297  46.1417913  22.9064870  61.4732599  26.8949938
  22.1837687  60.8456707  26.8885970  23.6949468  60.9307480  26.8793011
  15.8152831  51.4495087   9.0872759  15.7300127  50.8168173   9.8004776
  16.5921974  51.1647415   8.6060864 101.5684605  49.0096998  16.7017376
 101.7433739  48.6399984  15.8363163 102.4053860  48.9480209  17.1621573
 104.0133381  67.0468760  20.9822774 104.0880489  67.4416161  20.1134658
 104.4357491  66.1924458  20.8942747 114.5793152  61.8558168  42.9508400
 114.0041733  61.1665344  42.6186848 115.3539276  61.3901615  43.2660913
 117.1989441  51.8195581  24.7456574 117.3945999  52.6575470  24.3264651
 116.6281128  52.0464754  25.4797506  17.2630692  64.7687244  42.7344894
  17.9982865  65.3449440  42.5255394  16.6157341  65.3444386  43.1416035
 112.0536137  64.6287203  26.6042399 111.3928699  64.1936970  26.0653472
 111.6966057  65.5027628  26.7618132   1.9849133  69.4133949  44.4400501
   1.7636000  68.6035919  44.8999119   1.1386695  69.8052311  44.2242575
  20.2405763  62.4949980  37.7754951  20.9267712  61.8391895  37.6518774
  20.6161308  63.3033228  37.4264884  41.3669062  51.9452190  17.3180044
  40.7753611  51.5360403  17.9495716  40.9652901  51.7719555  16.4665830
  93.2339287  30.2815342  53.3712530  93.5821152  30.0803304  54.2398787
  93.8439274  30.9258223  53.0120420  16.5077937  58.7846041  35.6627345
  17.2612786  58.4932756  36.1761761  16.1513233  59.5221806  36.1578488
 106.1265850  96.2086201  51.9701052 105.3863144  96.7670155  51.7325449
 106.3441563  95.7429504  51.1626101  17.4050236  49.5581532  38.1175828
  17.1905422  49.8914862  38.9888573  18.1775081  50.0578737  37.8534269
  15.8308125  49.2898798  34.2982888  15.5967629  49.9729443  33.6698961
  14.9909127  48.9405346  34.5962143  33.1814909  38.6727095  37.5558138
  33.1194592  39.5342755  37.1433926  33.4605789  38.0890203  36.8503737
  27.9652452  55.9505558  56.6066885  27.7682972  55.1481247  56.1234188
  27.2613311  56.5533257  56.3671017   4.5163915  74.8414946  38.5149574
   5.4494691  74.6580315  38.6242223   4.2117485  74.1749907  37.8991675
  21.5747786  54.9692583  17.7578413  20.6421828  54.7686815  17.6786864
  22.0166588  54.1970062  17.4048519  15.3544962  61.8483877  13.7119567
  15.9633708  62.3420286  14.2613387  15.3462040  60.9702778  14.0928602
  18.8561809  57.3686934  45.9628201  17.9885221  57.3331785  46.3654852
  18.8898611  56.5966797  45.3979397  31.2056208  46.5506601  40.2624035
  30.9480667  45.9879589  40.9926510  30.3921556  46.7086554  39.7832942
  22.1947384  89.6771812  31.3090801  22.7514195  90.3749466  31.6547036
  21.9030786  90.0030518  30.4576254  30.6427765  69.1974449  39.9158168
  30.3346610  69.9393749  40.4362345  31.3355136  69.5623541  39.3651891
  13.8497913  54.8925209  25.2337623  14.1149318  55.7271528  25.6201839
  12.9225373  55.0084114  25.0263929   2.7117017  40.5091333  14.7103131
   2.9953349  41.3830376  14.9787843   3.0847242  40.3942251  13.8363099
   0.7513869  70.0144005  50.9400749   1.2315942  69.1909027  51.0266209
   1.3624035  70.6024456  50.4961252  16.3011539  67.7066612  33.4270573
  15.6042886  68.2403326  33.8089013  15.9361446  67.3922634  32.5999212
  27.4856687  76.4812374  42.9197121  27.0521498  76.8658924  43.6815071
  26.7949963  75.9918642  42.4728155   7.4892002  58.8293648  57.3709917
   7.0748019  58.5738230  58.1951284   6.9753414  59.5772696  57.0663309
 112.3877239  44.4365931  25.8963394 112.2955990  43.8620996  26.6564035
 112.7805996  45.2360868  26.2466216 105.6231880  41.8402624  26.5809536
 105.6597805  42.6827145  26.1280012 106.2659073  41.2957764  26.1263227
   9.8275584  76.0429382  42.0229244   9.1587234  76.2792015  42.6656294
   9.7501355  75.0929451  41.9348717  31.5983367  47.6684475  15.8615768
  31.4487171  48.2342863  15.1041639  32.3083973  47.0869970  15.5896175
  17.2612882  56.5254402  41.5264940  18.1637657  56.6136312  41.2199163
  17.1503866  55.5868101  41.6778278  33.6840701  69.2975044  39.1526508
  33.4494019  68.6354971  39.8029637  34.5654702  69.5758057  39.4014764
  27.6645088  89.4153881  47.7289152  27.7902293  88.4691906  47.6572514
  28.5220408  89.7519302  47.9889297  53.0167913  94.9674606  36.0001254
  53.0080605  94.1003227  35.5948710  52.3500729  94.9183941  36.6851902
   5.8035046  69.5947981  13.2371140   5.6015915  68.9970160  12.5173116
   5.2475345  69.2984056  13.9577246  13.2660186  81.3806534  45.5789375
  12.4486756  81.1633778  46.0272360  13.0728412  81.2477207  44.6509075
  29.4558167  84.9458122  48.7799358  29.3730021  85.8332825  49.1288996
  29.8527646  84.4444561  49.4921875   6.4516550  42.3553896   9.2570812
   6.6141158  43.1881952   8.8140488   5.5239010  42.1783781   9.1016108
  31.7931342  77.0341301  15.7255220  31.4882374  77.6295424  16.4101768
  32.2000384  77.6059341  15.0745988  22.5030589  72.8528547  15.3690970
  22.9211497  72.3365688  14.6799815  23.2320523  73.2156324  15.8722782
  19.6902931  78.5539532  48.4842730  20.3487682  78.6872530  49.1660881
  19.6756887  79.3798685  48.0006599  23.1194067  63.5335255  28.3490181
  23.0216408  62.8273582  27.7102709  24.0261483  63.8233471  28.2487464
  28.3074474  77.9694843  65.2138376  28.4919310  77.5165319  64.3910170
  28.5926771  77.3581743  65.8929348  12.9504800  56.6868544  68.2980013
  13.6586761  56.3795376  68.8639069  12.5397325  57.3962975  68.7921715
  11.9562888  62.6943445  26.3510799  12.3385870  63.5246277  26.6351676
  12.5247800  62.0257235  26.7331767  26.9521832  63.3651161  44.4404745
  26.0004258  63.2823610  44.4999647  27.1037436  64.3017912  44.3143988
  20.6528950  90.2452087  34.5486903  20.5958939  89.6137714  33.8315678
  20.0796747  89.8890781  35.2275276  36.2532020  78.1586838  74.2359781
  36.9494486  77.8277397  74.8033810  35.4467130  77.8176451  74.6226311
  20.9747052  52.5559759  21.0931849  21.2888026  51.6521692  21.0665226
  20.1807666  52.5494957  20.5585361   8.2006186  40.9283638  43.8244820
   7.5807971  40.3501892  43.3797693   8.0804098  41.7787838  43.4019089
  33.1958032  86.7019176  38.7713861  33.7790346  86.2511253  39.3820119
  32.9619646  87.5148296  39.2194057  14.9230289  83.8231754  57.0640516
  15.2529061  83.9724159  56.1779690  14.0834439  84.2822838  57.0875406
  28.6940384  50.7111692  62.8196526  28.1339240  51.4148664  63.1472445
  29.5741892  50.9509659  63.1095839  30.7862401  55.5666971  34.0415931
  30.2149415  55.4828691  34.8050213  31.4547181  54.8932791  34.1675878
   5.2251786  73.7596512  42.7897024   5.1620722  72.8522635  42.4915457
   4.8329905  74.2719316  42.0826054  28.8932610  69.7135639  29.6886110
  28.3803558  69.2875719  30.3754091  28.2720661  69.8447895  28.9722800
  33.7954497  68.4577847  36.6807580  33.3204198  67.6311111  36.7655277
  33.6833644  68.8865232  37.5291991  28.7965655  88.1106663  21.2230015
  28.0344272  88.3040428  21.7688775  29.3854189  88.8523197  21.3624239
  39.9200749  80.3343105  23.4873509  39.6331525  79.4248247  23.5694575
  40.2496958  80.4014969  22.5912118  26.3338256  81.5409088  30.8388424
  25.7979918  80.9100151  31.3195539  26.0489535  81.4531803  29.9292374
  36.0206652  80.3687954  18.3602667  35.2544498  80.0850201  17.8616524
  35.7225871  81.1432362  18.8373637  34.7571468  55.7466269  15.5424380
  34.5984960  56.3155746  14.7892070  33.9568734  55.8105946  16.0636866
  18.1300664 102.6691437  48.0599737  17.3228741 103.1635094  47.9175901
  18.0231798 101.8785381  47.5310564  45.8276510  84.4819069  23.9287925
  46.2578917  84.7030830  23.1028342  45.9813881  85.2419567  24.4899678
   2.2246243  67.6032066  53.5372639   2.2884357  67.7096653  54.4863796
   3.1333411  67.5666571  53.2387161  22.0467019  73.8200760  33.7760806
  22.4867606  73.3343029  34.4736528  21.1212945  73.5965729  33.8755727
  35.5082464  91.3662910  47.7788830  36.0735703  92.0145226  48.1989288
  36.0625100  90.9616470  47.1115875  30.3525782  66.4835405  28.3622360
  30.0019312  66.8519831  29.1731167  30.1423311  65.5510569  28.4122872
 116.2102604  46.8635941  14.3944013 117.0772362  47.0657778  14.7461355
 116.1532784  45.9088278  14.4318736  16.3041961  89.3859005  45.8986568
  15.6278908  88.7659550  46.1716366  16.4957774  89.1473389  44.9916744
  19.1342592  92.6258183  53.5804224  19.2798042  92.1577644  54.4025946
  19.1832757  91.9475651  52.9067755  30.3644800  56.8197346  20.1125002
  29.7124934  57.4554682  19.8175669  31.0406232  57.3488617  20.5356836
  21.9780445  64.5748520  38.6087036  21.7590213  65.0718546  37.8205109
  22.5794721  65.1426601  39.0904832  28.2040572  70.3520060  35.8650160
  28.2254815  71.2546444  36.1828375  28.2999802  69.8180628  36.6536474
  19.2190266  91.1540890  45.5607939  20.0381970  90.7098961  45.3419685
  18.6654162  90.4667282  45.9313107   9.1858524  74.1460752  31.2009048
   8.4471262  73.6573410  31.5637493   9.9477786  73.8181162  31.6785502
  17.6961732  71.5407944  34.9826622  17.1689558  72.3201132  34.8067832
  17.3746622  71.2191963  35.8249450   5.5102158  74.0394306  10.1362312
   4.9460799  73.3447361  10.4759097   5.0752956  74.8508167  10.3983939
  38.1668425  58.0648994  35.5803204  37.4173951  57.5332832  35.8485436
  38.6694217  57.4942875  34.9988985 118.5976505  83.5203838  36.0232282
 118.9967918  83.7236023  36.8691707 118.5317230  82.5655079  36.0127139
  27.3799419  83.7389755  53.7883377  26.8155026  84.0683556  54.4877291
  26.7942643  83.2306099  53.2272863  13.1877136  54.3931580  45.4483700
  13.4615612  54.9424553  44.7138548  12.2314155  54.3972635  45.4070282
  31.4616680  59.1029501  48.7293530  31.3342977  59.1873598  49.6742821
  30.6383348  59.4083691  48.3484697   7.0542973  70.0499249  47.3573875
   7.7181733  69.6917677  47.9466438   7.5198430  70.1989794  46.5344143
  37.1350312  79.2059469  27.7003360  37.9440498  79.4672203  27.2605014
  36.8731165  78.3976030  27.2596407  34.9705911  76.1052227  15.5453241
  35.9203005  76.1550760  15.4366899  34.8084927  76.4805365  16.4108276
  32.0706153  70.3442240  35.2626896  32.2362041  71.2785530  35.1368332
  32.6654577  70.0883818  35.9676266  20.6766129  69.6888971  51.6903830
  19.7817552  69.8545074  51.9870901  20.7741380  70.2323675  50.9084845
  18.4158349  57.7631760  25.6857896  18.1686008  58.6837864  25.5987096
  19.0403068  57.7504587  26.4111233  21.4624381  70.2543116  32.0809126
  20.8804893  70.9787512  31.8512249  21.8760347  70.0078011  31.2536287
  29.3787813  74.7394514  22.3503637  29.8230958  74.8135710  21.5057778
  28.7843633  73.9967775  22.2439265   5.4184657  58.6589527  23.1745243
   4.7274604  59.1489077  23.6202717   4.9723476  57.8957129  22.8075457
  36.6756105  69.2673731  13.8810718  36.3208771  69.0583706  13.0169451
  36.0085130  69.8215246  14.2862010   1.2105331  78.5148096  14.4415092
   1.7327040  77.7246523  14.5801318   1.7406428  79.0519810  13.8527262
  36.6866589  59.9371195  39.9493766  35.9530163  60.5499554  39.9986815
  37.4255037  60.4174423  40.3230429  29.5050335  54.0255404  20.5296087
  28.9351487  54.4463539  21.1733294  30.1478124  54.6976805  20.3031182
  25.1381016  68.9966536  15.2985299  25.8297682  69.6570110  15.2565682
  24.4355154  69.3507338  14.7533417  21.2416434  70.6650639   1.5453741
  20.9661508  71.0688066   0.7223734  20.7314062  71.1178398   2.2168553
  27.8550243  61.5727806  59.6667719  28.2560134  61.2030220  60.4533577
  28.5723376  62.0240974  59.2217875  23.5668254  77.1986055  44.0635157
  24.4779539  76.9275522  44.1757965  23.6060071  78.1534338  44.0087509
   8.5153925  79.4289780  52.5835037   9.4196701  79.1270828  52.6693821
   8.2069677  79.0327358  51.7685843  46.9465971  75.5096960  43.2762575
  47.7613497  75.1554155  43.6324787  47.1863747  75.8362484  42.4090195
  29.7480106  72.1723509  50.3374100  29.7789335  73.1226540  50.2269793
  30.3263044  71.9985914  51.0801220  84.4221115   1.7775665  15.5102694
  84.5026398   1.5039837  16.4239991  83.7258816   2.4344087  15.5173838
  20.3479648  74.5061159  14.6399915  21.0214567  73.8955879  14.9398136
  20.2361822  75.1163101  15.3689659  18.9626455  47.3595428  37.2318363
  18.6919332  47.4996328  36.3244653  18.4725523  48.0124998  37.7315259
  24.3193054  58.7904024  19.0441525  24.8275471  58.9488745  18.2486606
  23.8278413  59.6005297  19.1797411  21.0885835  91.9596767  21.7402244
  20.9931993  91.4114094  20.9614229  21.8264890  91.5761852  22.2142053
  25.2066398  49.9080420  26.0000014  24.8165154  50.2825499  25.2102065
  24.6568108  49.1512728  26.2030244  30.4306912  82.2564697  31.2493110
  30.0542998  81.6247272  31.8620539  31.3560557  82.0173168  31.1970091
  16.1947095  53.9641094   8.3398193  16.3855398  54.3740559   9.1834778
  15.9556186  53.0637026   8.5596764  12.2040224  86.5107536  33.4414148
  12.0831263  86.9983101  32.6266170  12.2738028  87.1858501  34.1164017
   1.5979502  81.3084698  37.2938395   0.8778533  81.1383152  36.6865993
   2.2620428  80.6577873  37.0661950  37.8407669  57.3029947  16.9041681
  37.7030492  57.7920485  16.0929382  37.6513624  56.3941479  16.6710293
  25.7398081  76.3444042  29.8988104  26.0435414  76.6275644  29.0363717
  25.5018139  75.4250431  29.7789764  13.9468598  67.2230053  31.0721612
  14.8519504  67.1944380  30.7619572  13.6984491  66.3039064  31.1710715
 112.0714283  67.9872036  24.1655302 111.8634129  68.3059692  23.2872653
 112.6700974  68.6430788  24.5228195  12.5347066  71.3105011  20.1865506
  13.2894468  70.7330179  20.3010678  12.1939349  71.0902119  19.3196142
  11.1411476  61.0777140  44.6811056  11.7716515  61.7932415  44.5991564
  11.6743851  60.3117990  44.8938513  26.1519456  85.6119537  45.8947182
  26.7617106  84.8814774  45.9987450  26.2543011  85.8812523  44.9818993
  12.4383438  60.6286335  40.5873013  11.6579950  60.1635838  40.8889914
  12.1510541  61.0940886  39.8017764  22.4285483  95.4584885  25.6493115
  22.7365279  95.6264114  26.5399194  21.4919233  95.2875423  25.7480145
   8.9115041  80.9196663  30.7521081   9.3170565  80.9472752  29.8855090
   8.2567322  81.6176033  30.7324767  13.9320719  65.4636431  24.1586185
  14.1466117  65.7800722  23.2810783  13.3735013  66.1467123  24.5296240
  13.1497335  69.3068027   7.7993029  13.2486260  69.3054247   8.7513798
  13.5521972  70.1284266   7.5178874  17.4251175  63.9129114  31.5414333
  18.2965040  63.7143087  31.8841815  17.2273958  63.1842756  30.9530234
  20.9770989  76.0626030  74.5632887  20.0429988  75.9039450  74.4272232
  21.4094925  75.3134775  74.1533136  26.1154914  66.3541317   3.6496633
  25.7292247  65.6902266   3.0784711  26.2062335  67.1266365   3.0917788
   9.4923574  64.6202755  44.6242619  10.4124343  64.3972969  44.4829369
   9.0322298  63.7825060  44.5726824  46.4029789  90.5672359  52.6967239
  46.7982435  89.8126411  52.2601700  47.1170855  90.9504509  53.2060671
  22.0410156  68.3896446  42.1549797  22.8278065  67.8465319  42.1078730
  21.4218688  67.8703356  42.6680136  24.9591708  77.3689699  34.9444318
  24.7548962  76.8407011  34.1727901  25.6145620  76.8571186  35.4184580
  16.0260534  53.4642792  25.0974059  15.2731752  54.0531921  25.1482558
  16.4928687  53.6005783  25.9218669  40.6984091  82.8291035  38.4153438
  41.5133286  83.3308411  38.4352636  40.2452469  83.0761909  39.2214632
  11.5909791  53.0906105  31.5208578  11.5043449  52.6878595  30.6568432
  11.9471908  53.9613962  31.3445783   0.7830478  74.7363091  47.8731012
   0.6797942  73.8284874  48.1584501   1.6640234  74.7715139  47.5004435
  16.1371875  76.9281721  33.5029435  16.1237538  76.0381651  33.8549948
  15.7794166  76.8416500  32.6193452  13.6436749  59.5567179  18.8355100
  14.4237697  59.9074364  19.2652559  12.9180264  60.0528097  19.2144012
  22.4787927  46.8243408  40.9195185  21.8896174  47.4168539  40.4525805
  22.9489660  47.3886395  41.5333080  43.8894701  67.1309710  37.3462105
  43.3594847  66.8583488  36.5971947  44.0327406  68.0675364  37.2100306
  30.9220576 101.8455887  40.9295511  31.4379454 101.9755459  40.1338100
  30.0134635 101.8443775  40.6284142  22.5324869  79.4740820  24.6091914
  21.9334316  78.7400007  24.7451591  21.9644094  80.2437496  24.5755529
  28.1588507  69.1415215  38.3126831  28.4156871  68.6664772  39.1030002
  27.2373557  68.9155054  38.1862116   8.4336996  68.6868095  31.6882300
   9.0863764  69.0751886  32.2708154   8.9296484  68.0691671  31.1508417
  28.2203698  90.8344173  59.6080542  28.6236906  91.3823986  60.2813148
  27.7583647  91.4522552  59.0414286   4.8487273  58.7154436  19.8367107
   5.7862812  58.5279989  19.8824060   4.7143823  59.0504408  18.9501679
  16.4894497  66.6938162  28.2051587  15.6479216  67.1463108  28.1476283
  16.5328312  66.1664248  27.4075341  30.2174473  61.6247129  51.6750145
  29.2777681  61.7993641  51.6227055  30.6080818  62.2230339  51.0381031
  26.5120029  87.9290581  23.0050778  26.4620900  87.1803570  23.5993743
  25.7470250  87.8356171  22.4373555  53.7256479  89.4044876  56.0528326
  52.8721714  88.9846802  55.9452343  54.3172359  88.6885166  56.2844372
  32.2296405  42.5043726  27.9694843  32.6618791  42.7016687  27.1385360
  31.5365148  41.8861151  27.7380443  28.0154991  93.4735298  20.9110403
  27.6235437  94.1220951  21.4958191  28.2111526  93.9602184  20.1103592
  43.0825043  61.3606453  51.3647461  43.2870531  62.2863340  51.4970112
  42.2268724  61.2430859  51.7774248   7.6101863  88.4486580  28.6390400
   8.2145560  88.4433937  29.3812943   8.0992496  88.0328369  27.9290080
  28.7766767  92.3449516  28.3635235  28.9033794  92.6480770  29.2625785
  28.6312556  93.1453896  27.8591466   5.3048307  77.4834633  18.3130765
   5.3215808  78.2136583  18.9317572   5.0550330  76.7263651  18.8428319
  21.2200546  83.3320427  47.7431631  20.8367205  84.1846657  47.9488707
  22.0898414  83.5369778  47.4000835  32.4208975  91.5521717  26.8181515
  32.0235348  90.6832218  26.7609239  31.9584966  92.0708179  26.1598015
   6.6899943  69.4919252  33.7205482   6.8931043  69.3790150  32.7919841
   7.4983841  69.2518997  34.1734552  25.4462051  80.6681252  19.9732757
  26.2193894  80.8671761  19.4452620  25.0242281  81.5164375  20.1093626
  56.4065886  42.9436970  36.8927622  57.1624279  42.3581314  36.9380808
  56.5963364  43.5230255  36.1547875  41.3124466  77.3367739  44.1617727
  40.9762573  78.1810474  44.4624615  41.3560009  76.8005896  44.9535036
  24.2845011  67.2133732  64.8235941  24.0299964  67.9890347  64.3237877
  25.0760698  66.8969917  64.3882179 113.1829357  63.8050032  44.2662287
 113.7820530  63.1190443  43.9716959 112.3340130  63.3681822  44.3351316
  31.4986396  56.4809704  26.7733979  31.4912534  55.9641409  25.9677553
  30.7734323  56.1296415  27.2899985  17.9913437  46.0450649  21.8851542
  18.9353776  45.9006262  21.8205881  17.9033077  46.7925835  22.4765086
  11.0578048  98.2941246  42.1095324  10.9449375  99.2446136  42.1180058
  11.0313642  98.0415535  43.0324316  47.3461676  73.7250376  33.6322379
  47.0828056  74.6004581  33.9159727  47.6806736  73.3066702  34.4255280
  10.2901268  55.0392199  44.9906445   9.6233141  55.5076599  44.4884920
   9.8151076  54.6736002  45.7369089  15.0511980  74.5579720  15.9201801
  14.1667950  74.5249891  16.2848365  15.3720236  73.6587095  15.9882450
  19.8246074  31.4836359  17.0191956  19.9684250  31.8817997  16.1607015
  20.6175375  30.9728193  17.1821654 113.1959820  62.1043158  35.6097293
 112.9796219  63.0261230  35.4693937 114.1322231  62.1056747  35.8089113
  10.0381863  12.5906074  89.7777653   9.2176306  12.1324956  89.9595737
   9.9590260  13.4199226  90.2491474   5.1737320  32.6602721  48.1630945
   4.4490206  32.9399252  47.6037884   4.7975358  31.9782090  48.7194204
  34.5297384  67.4665594  24.9142957  34.0941978  66.6216373  24.8018670
  34.9789262  67.3942900  25.7564592  10.7227623  94.9134922  18.5492921
  10.0172091  94.6376514  17.9641950  11.5252376  94.7193813  18.0649495
  23.5922313  64.6399069  35.4977107  23.6563540  63.8765717  34.9237418
  24.5007801  64.8876286  35.6691957   3.4375298  60.3716469  38.7519288
   3.2784355  61.3077116  38.8732004   4.2309237  60.3307486  38.2179952
  13.2455432  75.3624535  32.1829486  14.1037750  74.9451494  32.2572827
  13.3929873  76.1124325  31.6067314  45.6881428  90.9518909  27.6398015
  45.0444221  90.2441120  27.6698709  46.5152740  90.5149174  27.4369717
  25.7513905  74.2929220  22.5596118  26.2873673  73.5765505  22.2193575
  25.6477785  74.0934992  23.4900570  37.3846745  99.4189167  33.3635902
  36.8607998  99.6547318  34.1292119  38.0827117 100.0734615  33.3401728
  53.5352373  76.8061161  45.4428244  53.6040831  77.5089645  44.7966814
  54.1595745  76.1446571  45.1446486  32.0665216  63.7914944  26.9390702
  31.7349124  64.3502760  26.2362003  31.2882876  63.3546495  27.2851229
  45.2340269  69.2433643  39.0345430  44.8255253  70.1043081  39.1247225
  46.0086250  69.2858696  39.5952773  19.4825399  81.1353111  33.5404444
  19.0427411  81.6917992  34.1832018  19.5019579  81.6617680  32.7412581
  15.5803072  79.5990992  33.5158491  15.6316996  78.6436129  33.4905934
  16.2052929  79.8902082  32.8518605   5.4669893  64.2886209  65.8231354
   5.8720982  63.5877323  65.3123760   5.2972633  64.9821806  65.1856422
  21.2769532  94.7050285  21.9270802  21.9470072  94.6718311  22.6098347
  21.3044357  93.8381195  21.5221715  29.5250487  71.4551687  33.6025214
  28.7800932  70.9921265  33.2192898  29.8567033  70.8601570  34.2749786
  30.8686686  57.2355366   3.4792089  30.3430271  58.0262995   3.6001316
  31.4355779  57.4363232   2.7345407  30.4427767  66.6650724  65.8494902
  29.4990039  66.8162823  65.9010506  30.8138490  67.5278902  65.6648779
  23.7546134  51.5123034  50.3707504  23.5635829  52.2345591  50.9691525
  23.1046081  51.6005182  49.6736574  11.8404436  79.2226887  48.4273434
  11.6884029  78.6377954  49.1696453  12.1309328  80.0435829  48.8248110
  32.3871088  58.8663816  17.8619218  32.8257918  58.4461784  18.6016607
  33.0987310  59.1205359  17.2743583  52.1465492  74.1566801  48.8871336
  53.0036688  73.9541912  48.5122061  52.1090174  75.1131010  48.8962746
  12.6300204  79.2431784  32.4535418  12.1439993  79.0969563  33.2651043
  13.4856212  79.5619535  32.7408767  37.0393300  64.5075178  63.9902925
  37.6094532  64.5737219  63.2242584  37.5614190  64.8641205  64.7089624
   0.6620081  57.3086596  46.1244631   1.1838992  57.8542614  45.5360937
   1.2842563  56.6714334  46.4751482  17.6823628  32.2489262  59.1969395
  18.5026860  31.8192697  59.4392109  17.7140248  33.0948806  59.6436977
  38.6643600  73.4722614  38.0500102  38.7131333  73.4456015  39.0055943
  39.0160942  74.3312168  37.8161049  23.2793093  52.6829100  17.1922779
  24.1921377  52.7090454  16.9054079  22.7759290  52.6011753  16.3822424
  11.1720037  67.3639536  43.5547590  11.8263543  66.6718912  43.4592962
  11.1376715  67.7814770  42.6941013  77.7736044   7.8985858   3.9149609
  77.7651072   8.5401154   3.2046092  77.3772526   8.3566427   4.6561232
  33.6057878  74.3711281  22.4581790  32.8979111  74.5856667  23.0657268
  33.3806443  73.5023880  22.1252728  35.3884530  67.7231121  50.7495403
  34.8668265  67.8389502  51.5437174  35.8189201  66.8762922  50.8671141
  30.9029675  84.8346138  23.2089353  31.8116879  84.5339298  23.2020617
  30.7150340  85.0080299  24.1313457  33.0040097  67.6927662  28.9184189
  32.1695805  67.2245121  28.8920760  32.8604150  68.4030867  29.5437670
  63.5128641  69.5082998  43.0908871  64.0945530  70.2038383  42.7841425
  64.0466928  69.0024281  43.7035513  49.9766922  68.4929848  30.6338286
  50.7355642  68.7276888  30.0997257  49.6751165  69.3243980  30.9999371
  38.2023859  48.8178349  20.6097507  38.4561634  48.0626488  20.0791645
  37.8042054  48.4375095  21.3927150  23.4048986  61.5583563  62.5327635
  23.0361342  61.5122604  63.4148741  24.0072012  60.8158875  62.4858522
  23.4568024  47.6697063  19.3707550  23.8626623  48.2496452  18.7264109
  22.5694704  47.5286102  19.0406537  10.3190410  72.4821138  63.8904667
   9.5982659  71.8876410  64.0985870   9.9061596  73.2006788  63.4114790
  10.9520626  79.0952206  34.5386553  10.1845789  78.5303545  34.6288204
  10.7343853  79.6811295  33.8137031  31.0564995  79.2531919  17.6148283
  30.2991056  78.9021587  18.0831909  31.1022687  80.1699162  17.8864169
  14.0647447  72.4364996  41.3678885  13.6101055  73.2719183  41.2601328
  14.7268057  72.6087236  42.0373964   3.5124376  56.9099617  46.0727024
   3.7119091  57.6930094  46.5858078   3.7832668  56.1817932  46.6318607
  32.3465204  66.0382509  37.3557138  31.4398456  66.3152361  37.2236109
  32.5263762  65.4496527  36.6226149 116.0123348  54.0409756  50.1680088
 115.2156639  54.5585775  50.0512266 115.8799934  53.5814238  50.9971809
 106.8133354   7.5637507  96.6265965 106.9075298   6.6123521  96.5796852
 105.9778214   7.7432615  96.1954021  25.2449536  50.7142210  35.6503773
  24.6692920  51.3801622  35.2743864  26.0197377  50.7223797  35.0883508
  30.7491612  96.3359070  40.5339003  30.5510283  96.9927406  41.2013912
  31.6793489  96.1449718  40.6544352  35.7300639  90.4118633  14.7940505
  35.4789495  89.9494934  13.9944291  35.7402182  89.7338295  15.4696286
   8.9111233  91.7346668  49.4138384   8.0583405  91.4987087  49.7789621
   8.8189954  92.6543903  49.1651392  38.7845993  82.9421520  46.8951464
  38.5155749  82.0429897  46.7070627  38.5395861  83.0790043  47.8102827
   9.4871706  52.9409885  38.3846235   9.6470666  53.5404158  39.1135621
   8.8119733  53.3739138  37.8622103  14.5082784  47.7500057  28.4393120
  14.4970894  48.6259651  28.0535650  14.4184911  47.1581984  27.6923633
  14.6711493  47.2818327  44.2873573  14.9023378  46.3567066  44.2041111
  14.6660805  47.4434853  45.2307940   6.7732501  78.7708044  11.4558685
   6.7335302  79.7078896  11.6470015   7.4335378  78.4309530  12.0598161
  30.5569577  75.4416656  19.8547542  30.7644200  75.1872063  18.9556193
  31.3742876  75.8051682  20.1954460  33.0609679  61.6135693  33.9226270
  33.1407213  60.7598734  34.3481541  33.9416552  61.9860411  33.9660549
  19.9963200  72.4804401  43.0394697  19.6642625  72.0897532  43.8477612
  20.7506418  73.0002689  43.3169746  35.3958416  48.8987255  22.0316005
  35.7635355  48.6915970  21.1724544  35.2293634  49.8408079  22.0000768
   7.0342869 103.8603878  33.8783216   6.8203455 102.9723740  34.1644955
   6.4985716 103.9957428  33.0967093  42.5367308  75.0999022   2.2260079
  42.1968079  75.9296227   2.5610450  43.2376814  75.3532743   1.6254231
  39.3197060  84.0660667   5.7629436  39.3940902  83.3542156   6.3985288
  38.7448359  83.7190056   5.0808108  22.8925347  54.4527626  20.1033664
  22.1137452  54.0287018  20.4637694  22.6062298  54.8018599  19.2593312
 100.2142906  58.1398773  34.1760993 100.2539158  59.0735054  34.3834662
  99.2837048  57.9649401  34.0359569   7.6379466  61.8973827  56.4999056
   6.6862738  61.9915724  56.4589214   7.8572893  62.0773554  57.4140882
  59.8031569  13.7190104  29.5327258  59.6881056  12.7792132  29.6733594
  59.4151735  14.1263449  30.3071785  15.8760369  81.6868305  29.8334789
  16.3312685  82.1792889  29.1504884  16.5564275  81.1431885  30.2306628
  34.5462751  74.8772430  25.5133986  34.1773868  74.3063259  26.1873436
  35.2635717  74.3687344  25.1350665  37.2661662  58.4554911  14.0406430
  37.2648120  58.9768553  13.2378924  36.4007926  58.0469656  14.0623713
  57.4462843  85.9173107  41.2565136  57.5800800  86.6142273  40.6141424
  56.5844488  86.0991764  41.6312122  24.8933101  81.5325451  49.2749500
  25.0400162  80.5887032  49.3372011  24.4846439  81.7668819  50.1081991
  89.2645931   1.9157600  24.4153452  88.3730507   1.9568075  24.7613192
  89.8063278   2.3034331  25.1027036  42.7342081  80.0843525  36.5392780
  42.2103310  80.2076244  37.3308539  42.8936291  80.9714603  36.2170076
  29.3011045  69.9475145  19.1813385  29.5657015  69.3560791  19.8859119
  30.0788426  70.4783869  19.0094995  63.5257006   1.9660290  15.8974826
  64.1477060   1.2608042  15.7185996  63.8929796   2.4231479  16.6540432
  29.7476578  91.3936996  40.6675959  29.5075059  90.4749012  40.5477285
  29.0229726  91.7672062  41.1691523  19.5992553  99.7682953  37.3136234
  18.9036417  99.3029594  37.7781868  20.1808262 100.0826740  38.0058432
  42.0451355 107.9203701  53.1226492  42.7163363 107.3411846  52.7617455
  41.9454050 107.6347542  54.0307856  41.2009859  92.5180435  31.6951418
  41.6205502  93.0049801  30.9858537  40.8331871  91.7437363  31.2692285
  57.3119259 110.4040718  36.9599271  56.8721247 110.5080223  37.8037262
  57.1173477 109.5043087  36.6976476  69.4356298  15.3985775  26.8271947
  70.3651333  15.5396986  26.6473508  69.1232824  14.8834026  26.0833764
  42.5454473  69.8841429   4.8325220  42.4334192  70.5276966   5.5321819
  43.1254435  69.2213297   5.2073759  32.5580382 103.1441593  30.2352619
  31.8714476 103.5137844  30.7904220  33.3733368 103.3546352  30.6904745
  65.3675604   9.0278941  28.3106613  66.3234711   8.9893693  28.2793045
  65.1631880   9.9607551  28.2455873  22.6599932  57.7086973  37.7314401
  22.2579145  57.1141958  37.0980859  22.1277237  58.5029507  37.6857972
  48.8811827  95.6452179  36.5886045  49.6686459  96.1071968  36.8761992
  48.1693840  96.0575962  37.0780110  43.1595087 107.6900482  32.0404959
  44.0858078 107.4674129  31.9475484  43.0644846 107.9408455  32.9593539
  40.7128382  96.6745186  10.4763782  40.5392408  97.3836613  11.0954225
  39.9982810  96.7301559   9.8419142  51.7038250 108.4413433  30.5763388
  52.1119404 109.3064117  30.5399585  51.3056087 108.3279037  29.7133303
  29.5311022  95.9612083  35.2829766  29.8936987  95.4524517  36.0081816
  29.8908901  96.8399906  35.4034519  47.3301792  85.9438610  40.5174446
  47.0294905  86.1316299  39.6283102  47.6484537  86.7849731  40.8452797
  26.5810299 102.5193024  34.3410587  27.2193527 102.5421429  33.6281395
  26.5487170 103.4203148  34.6625662  37.6586676  84.1014194  23.2073212
  37.3196435  84.9926949  23.1241894  37.2146153  83.7471485  23.9777374
  19.6778989  74.3275309  35.8040142  20.3740025  74.3696547  36.4596796
  19.0930331  73.6386204  36.1195469  49.9678898  92.5459003  45.4651213
  50.8553648  92.5579548  45.1066875  49.7189665  91.6216660  45.4573107
  46.9127369  90.4443359  64.1390991  47.6094389  90.0798607  63.5932159
  46.4569426  91.0606670  63.5658407  68.5397005  68.0182076  38.0629039
  67.6759911  68.3024168  38.3620071  69.0289545  67.8506947  38.8683867
  22.6665783  55.2989244  71.4393330  22.1212626  54.8291779  72.0703697
  22.9598856  54.6240807  70.8271360  36.4303279  88.0190086  59.9767113
  37.0383811  87.3627567  60.3170681  35.8225083  87.5214672  59.4296837
  36.4866781  79.9054527  24.1492081  36.8184352  80.4290485  23.4198117
  37.1143103  79.1877031  24.2337656  16.7551899  55.9121895   6.3602191
  16.5287530  55.2194023   6.9807082  16.3164008  56.6916847   6.7009270
  50.1819229  96.7873669  46.0094118  50.0670052  95.8399582  45.9356546
  50.8918858  96.9906425  45.4004288  47.8120661  88.5976315  56.0884047
  46.9624758  88.1569672  56.0728216  47.7504921  89.2107010  56.8209267
  43.8634062  63.1942701  22.8127503  44.1810083  64.0679789  22.5847268
  43.5854912  62.8152657  21.9788718  30.4085159  73.1837368  37.9513907
  29.5095849  72.8561497  37.9222798  30.8062935  72.7262115  38.6921167
  52.4107218  87.1248722   9.1233552  52.0426941  87.4888802   8.3181947
  53.2276678  87.6066971   9.2525041  32.4332476  78.2674837  65.7685661
  32.3287582  77.3858929  65.4106426  33.0141878  78.1533194  66.5207005
  10.5632591  81.0574627  40.1076078  10.9929609  81.8852043  40.3230715
  10.8658886  80.8537483  39.2226505  59.4029760  84.8793697  43.5348606
  59.9039602  85.5516052  43.9967537  59.5662880  85.0535297  42.6079130
  25.1549959  82.6872826  40.8314323  25.2198720  83.4210205  40.2201653
  24.4815278  82.1207523  40.4549742  24.6055937  99.2613125  33.6081886
  25.5546618  99.1961765  33.5020804  24.4647026 100.1353359  33.9721298
  22.3830032  93.5377407  50.0145388  22.1187711  93.2851791  49.1298771
  22.4647999  92.7086926  50.4859400  44.7710133  87.8104115  31.0747385
  44.6005487  88.6291218  31.5404534  43.9107800  87.5279236  30.7642007
  33.8296127 109.5121861  13.4276736  33.7482953 108.9135265  14.1701233
  33.2401466 109.1528797  12.7646053  60.8906174  73.5013390  20.8511734
  61.2363434  74.3521738  21.1209559  61.2358809  73.3716679  19.9678802
  10.8413780  90.2035999  17.4454880  11.0905802  89.5023346  18.0474496
  11.6571379  90.6747341  17.2757745   3.6533204  97.4245739  38.2178807
   3.2932907  97.2438431  37.3495793   3.9592606  98.3301163  38.1665778
  27.6563883  55.8133364  91.4129734  28.5414743  56.1706018  91.4852238
  27.7179527  54.9405909  91.8012428  16.2485445  77.1183634  57.6458979
  16.4924634  76.9971943  58.5635328  16.6338646  77.9607821  57.4048710
  46.4065886  95.9956646  48.5701942  46.8752670  96.8297958  48.5420418
  46.6278028  95.5685902  47.7426052  52.4195480   6.3126516  31.3658786
  53.0754185   6.9999087  31.2486529  52.5350904   5.7395226  30.6079841
  62.9449272  83.9434433  32.2397113  63.3814764  84.7578812  31.9900441
  63.2577419  83.7662125  33.1268263  19.6223044  83.9241123  23.8028836
  20.3873467  84.3836784  23.4568453  19.4732392  84.3199539  24.6615577
  28.3662510  66.6867733  26.1940742  27.7960157  66.8395042  26.9475579
  29.2483878  66.8615532  26.5219760  22.3248959  94.4055176  41.3034534
  21.7730284  95.1100063  40.9637928  21.9260359  94.1717339  42.1415997
  33.6238384  80.9364128  25.0640202  34.1767502  80.5868435  25.7628179
  34.2015481  80.9832191  24.3022490  27.9530668 102.0000935  41.2240601
  27.5594831 102.4439240  41.9752789  27.5773978 102.4405956  40.4617882
  82.1930695  69.7738886  36.3507891  82.2157955  70.7288122  36.2888741
  83.0114651  69.5428228  36.7901993  64.3612432  84.5800877  28.5893154
  64.5173693  85.1897049  29.3105793  63.4627247  84.2777348  28.7215066
  61.1550426  67.9111576  42.6010323  61.8273449  68.5381699  42.8676748
  61.3654757  67.7074146  41.6897488  22.0829487  76.3478565   1.7731726
  22.4059486  77.2488832   1.7662770  22.8318763  75.8271551   2.0633608
   8.6149526 107.3176193  36.3139415   7.7786160 106.8541241  36.2698555
   8.9335340 107.3232555  35.4113317  46.6563416  80.6800461  34.3608832
  46.7011166  81.4111519  33.7446809  47.3856640  80.1121807  34.1121745
  39.6597219  64.1932774  26.1343479  39.8278928  63.7003040  25.3312755
  40.4941940  64.1794395  26.6030669  36.0791874  92.5334549  10.3261435
  37.0035958  92.6983547  10.5119216  35.7264590  93.3904362  10.0865591
  44.9519157  82.4282360  39.7368765  45.8715582  82.1654701  39.6989465
  44.8014307  82.8928852  38.9136600  55.1263142  67.9082823  48.0835056
  55.3740072  68.5108185  48.7848091  54.1855097  67.7771711  48.2015276
  76.9085741   7.4049151  10.9292626  77.7766132   7.7872467  11.0579538
  76.6856670   7.0252746  11.7792130  16.7796719 108.7787151  18.2965708
  17.6322889 108.9411545  17.8929758  16.6215682 107.8453541  18.1549489
  76.8545580   2.9703808  39.1170406  77.3123026   2.6174805  39.8800349
  76.6585922   2.2031546  38.5792732  42.4982738  90.9247971  49.0068054
  42.2511959  90.2358532  49.6236753  42.9971409  91.5497398  49.5329332
  24.0746951  98.0599785  22.9913163  24.4490170  97.3143196  23.4604669
  23.8885403  97.7226830  22.1150708  33.3348513 106.9041824  29.6577239
  32.8582168 107.0044041  28.8337040  34.0880394 106.3575649  29.4338012
  33.4145594  77.3966265  31.5971422  32.6128936  77.6696587  31.1510229
  34.0135956  77.1592426  30.8893037  51.5846348  74.1572571  13.8023794
  51.6897535  73.7220621  12.9563379  52.2982264  73.8126469  14.3392861
  49.9523592  60.3626442  50.7377243  50.4349232  60.8692932  51.3909245
  49.8378134  60.9659243  50.0034428  39.5553756  90.0209332  47.6725721
  39.6246290  89.6793270  48.5640526  40.2485514  90.6783962  47.6134920
  47.0260286  96.8535805  30.7994342  47.1829844  97.5980186  31.3803005
  47.1760368  96.0847473  31.3495493  20.6629443 111.8561363  44.6699953
  20.8259606 111.0562897  44.1700792  21.2495399 111.7912960  45.4236078
  30.7579517 103.2838726  23.4403324  30.4470730 102.8728676  22.6336980
  30.0919032 103.0658817  24.0923214  15.4864144 108.1091404  27.0874667
  15.7515085 108.1672287  28.0053902  16.1169231 108.6577892  26.6209030
  30.7498813  77.0449591  39.0057302  30.4797292  76.8356323  38.1116199
  30.9163928  76.1939573  39.4110680  32.6492286  98.4511375  27.8249383
  33.2607508  97.9430103  27.2919416  32.6572084  99.3239784  27.4321175
  25.2716112  84.8080635  51.3247538  25.3073573  84.7507095  50.3699446
  25.6583786  83.9869213  51.6286707  30.0579023  95.4741383  31.2954521
  29.7067094  95.3758049  30.4104519  29.7588992  96.3387299  31.5770912
  68.1041813 106.0220528  32.7971601  68.9646816 106.3266277  32.5090599
  68.2784891 105.5434608  33.6075878  51.2664890  61.7012501  39.0466332
  51.3619995  61.3540983  38.1597328  50.9974241  62.6110888  38.9200234
   5.1214045  80.5612564  41.6097832   5.0710088  79.7115850  41.1718941
   6.0570061  80.7616329  41.6368723  68.5890484   2.2834751  37.0834064
  68.8784361   1.4128515  36.8104601  67.8276205   2.4662933  36.5329146
  44.1765690  74.0079021  41.5712833  44.4661951  74.0798283  40.6617928
  44.0175581  74.9114943  41.8441820  60.7176828  74.2805672  44.7446632
  61.3106680  74.8955107  45.1764536  61.2100124  73.4606314  44.7053146
  15.0480461  72.7970791  57.5580359  14.7161138  71.9757605  57.9206514
  15.4478717  73.2440186  58.3041000  52.3379803 100.6380844  61.7745733
  52.2896814 101.1933994  62.5527239  52.7174425  99.8175240  62.0890808
  75.3580141  53.4152269  18.3882129  75.3700972  53.1003952  19.2920744
  74.7752810  52.8088188  17.9311311  65.2800035 105.1601601  48.3602333
  65.9457874 105.7324314  47.9788256  64.7460461 104.8842430  47.6152563
  31.3864374 108.4020138  25.1218033  32.1149707 108.7933445  25.6038094
  31.4573050 108.7694073  24.2407656  19.6001792  92.9526043  36.8526912
  18.6681330  92.7687263  36.9697857  20.0432897  92.1893883  37.2233677
  42.6493835  89.3517971  33.2301974  41.8679285  89.6006489  32.7366114
  42.7218199  88.4058475  33.1030679  47.0030499  70.1941252  18.1185257
  46.4357853  69.9697876  18.8561654  47.2837210  71.0917664  18.2965624
  40.8694887  74.9381781  42.2015238  41.2099409  74.3527555  42.8779936
  40.8771133  75.8045149  42.6085138  42.4232578 103.9268112  31.2563014
  42.2626543 103.2404518  30.6087279  43.0903912 104.4835472  30.8547950
  45.0668812  77.4655104  22.0469427  44.2542934  76.9772482  22.1793556
  45.4867411  77.4695873  22.9071355  33.0280542  95.3339291  26.9347239
  33.5333490  95.5814743  27.7090812  33.5969567  94.7267437  26.4615297
  52.2093105 105.5604362  25.2149582  51.6877985 104.7810936  25.4069972
  52.7636385 105.6739140  25.9870172  60.3211737  85.9080029  15.4780912
  59.8403263  86.4858532  16.0706401  60.7706690  85.2920055  16.0566533
  20.7263112  81.4121342  44.1539192  20.8888793  82.3546219  44.1930008
  20.2184582  81.2897396  43.3518362  42.2451973 102.9691029  20.1791167
  41.9905853 102.0844269  20.4413462  43.0944872 102.8572178  19.7520161
  27.1310496  88.9151955  37.4046159  27.2575521  89.4138145  36.5973926
  27.9828739  88.5125351  37.5733995  55.9526634 106.4120102  31.3363886
  56.4087868 107.2535419  31.3404536  56.3115644 105.9414101  32.0886850
  31.3882613  82.7974796  16.6947746  31.4658976  83.7459469  16.7977667
  32.0835686  82.5656986  16.0790956  55.0151587  85.2072334  38.6912012
  54.1157150  85.4691410  38.4946442  55.4347467  86.0083008  39.0049839
  49.5739508  85.2030945  58.1209755  49.2155313  85.0757027  58.9993477
  50.2920580  85.8240986  58.2430553  41.8635321  77.2322083  38.6037016
  41.5055084  78.1198025  38.6188316  42.7959108  77.3530626  38.4240007
  29.7918940  54.4512129  27.5415587  29.9242997  54.4679880  28.4894085
  30.0269818  53.5601950  27.2826147  25.7575083  98.0338669  12.6760471
  25.6352234  98.7518883  12.0549750  24.8689747  97.7691746  12.9141152
  12.2762775  90.8441353  46.1859035  12.1619570  90.1121807  45.5797672
  11.6012108  91.4733219  45.9316587  30.9787226 103.6467934  45.6437922
  30.6023216 102.8300762  45.9717178  31.8299794 103.3922100  45.2877283
  38.6688232  84.4766617  34.9791098  37.7777696  84.7632313  34.7787690
  38.5789657  83.9545727  35.7763433  23.3444023  90.2494621  35.1635194
  23.8029313  89.7655487  34.4766307  22.5438499  90.5624771  34.7423673
  54.4819641  99.0869617  33.1391978  53.9039612  99.7035027  32.6897240
  54.0200472  98.2497692  33.0949044  26.4465904  93.7243271  32.4103022
  27.0524311  93.0105209  32.6094556  26.7984509  94.4768333  32.8858733
  24.3982983  48.8935566  68.3924437  23.6828256  49.1710281  67.8203058
  25.1927137  49.1502094  67.9241848  57.8517389  93.9406490  47.0954275
  57.8976536  94.1218376  46.1566591  56.9294405  94.0660477  47.3187399
  41.9188929 104.4138336  40.8882141  42.6365423 104.7361755  41.4334726
  42.1008348 103.4803200  40.7801580  16.0034442 103.9479923  34.6588731
  15.8293307 103.4940434  35.4834008  16.3077867 103.2604218  34.0665412
  23.4049463  97.2226334  20.2176380  22.4710798  97.1381950  20.4099751
  23.4518409  97.9132652  19.5565355  25.7493138  57.3931122  55.7813931
  24.8080373  57.5468063  55.8626890  26.1506295  58.2231808  56.0386086
  35.5047154  58.8812017  51.7777014  35.3515840  58.8809967  52.7225685
  34.8668432  59.5054770  51.4318228  46.8875790 109.6402359  37.1900058
  47.4748039 109.4629097  36.4551902  47.2714472 110.4015636  37.6250386
  33.2954431  94.5248032  34.6883845  33.1184340  95.4142284  34.9946952
  32.4439764  94.1974354  34.3984389   3.2247031   0.7811461  40.2584648
   3.8180873   1.3349238  40.7658672   3.5755351  -0.1034305  40.3617764
  40.8962774  77.9199839  25.1997423  40.8738661  77.1604061  24.6177053
  40.2851439  77.7008772  25.9031153  96.5544128   8.2221740  24.8805285
  96.7005157   8.0919611  25.8175063  95.6829834   7.8595340  24.7213411
  40.9821367  65.5082130  42.7537823  41.4462471  65.4247570  43.5867739
  40.5344725  66.3522387  42.8125429  32.7847314  76.2930441  43.3101797
  31.9081283  76.6753244  43.2694244  32.8210950  75.6969595  42.5621223
  19.9390900  85.7750988  47.3718166  19.3826437  85.0280285  47.1516085
  19.6211052  86.4837265  46.8123865  41.9086742 100.6801796   7.9318619
  41.7618704  99.8356342   7.5059342  42.8008556 100.6239891   8.2740420
  99.6074867   3.9230224  44.9427605  99.5147514   3.5950574  45.8372259
  98.9430904   4.6080953  44.8687553  42.9575920 101.4796543  32.8798175
  42.8726864 100.6748104  32.3686838  43.1842232 102.1499825  32.2351980
  51.7194939  86.6005802  34.9516678  52.5066233  86.1746502  34.6121955
  51.0018158  86.2098980  34.4531274  39.6781635  87.4132442   9.4737703
  38.9165545  87.5356007   8.9070153  40.4150200  87.7426338   8.9592046
  12.9834783  25.8676314  94.8258781  12.7330208  26.4635658  94.1199303
  13.9115596  26.0488725  94.9743652  36.5803289  84.7136879  55.8161831
  36.2395859  84.7144985  56.7106819  36.6141796  83.7883472  55.5736208
  66.8595409   3.3615375  52.9163980  67.7760124   3.2216683  53.1546164
  66.7214346   2.7984971  52.1547270  50.6972027  69.2219496  33.6532712
  49.9522305  69.7740650  33.4157395  51.0587215  69.6324539  34.4387794
  78.4251499   2.2948249  19.1743863  77.5529385   1.9815016  19.4137669
  78.9806080   2.0442468  19.9125659  26.2818789  86.5693760  34.6260810
  26.6300321  87.4396324  34.8201561  26.1618495  86.5657330  33.6764431
  48.6443233  64.3460608  16.4061284  48.1954670  64.6625853  17.1900737
  48.9461279  63.4685230  16.6407990  29.4159079  64.5800877  35.6615281
  28.8878536  65.0273895  35.0002313  30.2773952  64.4842339  35.2554655
  23.8254619  68.5231543  31.6772556  23.3821177  67.7504110  31.3271952
  23.4217978  69.2595339  31.2178779 119.1487598   9.1170937  82.7671242
 118.3805847   8.7002069  82.3768139 119.8859024   8.7936109  82.2492313
  14.0079939  77.3470020  47.3461103  14.3315792  78.2313442  47.1744776
  13.1434023  77.4795675  47.7348757  58.5216856  66.3333845  14.9753058
  57.7334261  66.0083246  15.4102969  58.4118795  66.0789061  14.0591097
  75.9461308   1.7522983  34.8737383  76.8120861   2.1270017  34.7126412
  75.6964827   2.0876095  35.7348251  45.4468441  93.3188820  52.2939634
  45.8640051  92.4986172  52.0305681  46.0910320  93.9942265  52.0814514
  21.3579893  78.4936714  17.5849831  20.8887792  78.5146141  18.4190297
  22.2046328  78.1002522  17.7962816  26.3818312 103.8752270  39.8118019
  26.0378003 104.4560814  39.1332150  26.7394280 104.4663334  40.4743338
  36.5610647  93.4646797  27.5917077  36.0465264  93.3291245  26.7960262
  37.3239303  93.9646339  27.3013449  19.5316362  84.7834015  51.4552212
  20.4586029  84.6239471  51.6328049  19.3619084  85.6488514  51.8272877
  41.3884115  94.1145420  42.4568415  41.1638832  94.4794273  43.3128071
  40.8904123  93.2986641  42.4061680  14.6218276 103.3055210  48.2093859
  14.8958838 102.4821186  47.8054857  14.6232653 103.1234646  49.1491127
   3.3330902  25.1479840  92.1902943   2.6953775  24.9330854  92.8710079
   3.3434910  26.1048007  92.1653080  28.2306576  83.6141682  46.7027330
  28.9567089  83.8366795  46.1200094  28.5049725  83.9368248  47.5611496
  51.7561054  90.8372021  22.1840811  51.3836765  91.5822124  22.6557660
  51.5233755  90.0762844  22.7161241  52.8184032 112.5015259  35.7192039
  52.2176838 112.8031826  36.4006519  53.1523228 111.6664124  36.0468125
  36.1382556  82.9252434  25.1478124  35.8767748  82.0189571  24.9850154
  35.4293942  83.2872200  25.6795263  48.2694149  59.9493027  37.6503277
  48.8872385  59.3153620  37.2861314  47.5851870  60.0261259  36.9853759
  30.8479524  92.9444981  38.6939168  30.5517626  92.4488735  39.4573689
  31.8011379  92.9675674  38.7783980  40.1432800  80.9334087  17.9687953
  40.4276514  81.0166454  17.0586097  40.9243441  80.6399155  18.4378672
  29.4071984  82.6895523  20.2520418  29.4658756  82.3567581  21.1476064
  29.2662406  83.6306953  20.3550148  30.6945109  66.4766645  40.1928663
  30.7508254  67.4189281  40.3516150  30.6406713  66.3970232  39.2405081
 105.5286217  66.0376024  87.0146084 105.5057621  66.9899416  86.9210339
 105.9065342  65.7251596  86.1925411  39.1443634  67.3637486  35.6005740
  38.4977436  67.8424597  36.1191773  39.1231632  66.4741421  35.9532475
  49.9712992  85.2960491  33.2924914  50.4959583  84.9419212  32.5744700
  49.5487547  84.5299816  33.6808610  26.3806677  88.0828285  18.7762845
  25.4470301  88.2830811  18.7095916  26.4492512  87.5128174  19.5421958
   9.2672938  26.8883419  95.4057217   9.2406589  25.9521270  95.6032753
   9.3442810  26.9299054  94.4525337  32.4658823  99.6189499  18.3338475
  32.5640726  99.5802975  17.3824811  31.5418243  99.4220829  18.4874535
  32.9478693  75.5537891  13.3949614  33.5300469  75.8779669  14.0821362
  32.0876670  75.9055901  13.6241376  56.2800312  83.1382942  33.6332607
  57.1492434  83.5319138  33.7091947  56.0348034  83.2739449  32.7180028
  15.3885114  52.3421907  29.5276093  14.6981144  52.3324394  28.8646698
  15.6992722  53.2474947  29.5364881  65.3203583 108.7525082  10.0646448
  65.5259228 109.2356586   9.2643058  65.6531715 107.8695965   9.9035877
  41.6773272  79.9206829  21.5383387  42.5450134  79.8916721  21.1352110
  41.0990191  79.5166731  20.8913708   9.0857440  89.0388107  41.3401270
   9.1062117  89.9322796  40.9972906   8.1587672  88.8003159  41.3319635
  53.7052584  95.1153946  44.8279333  53.3223915  95.9757042  44.6561289
  53.2388020  94.5234680  44.2377901  15.7656240  81.8194866  23.2117033
  15.3171027  81.0077572  22.9747152  15.2958071  82.5016022  22.7318907
  47.1845961  81.9788074  36.6602373  47.2968340  81.4672470  37.4614501
  46.9012356  81.3401222  36.0060024  22.8075457  62.0685959  38.6123395
  22.6151037  63.0045462  38.6688590  23.7312865  62.0285320  38.3646917
  53.2675934  94.0939999  39.5662594  54.1309452  94.1437721  39.9766016
  53.3247328  93.3404922  38.9787316  24.3178177  92.7382660  52.2077036
  25.1610184  92.3388386  52.4214649  23.6698174  92.0836258  52.4680233
  53.1083441  74.3499804  29.9945879  52.2992182  74.4570112  29.4944978
  53.4601927  73.5086679  29.7036839  27.5273252  92.5277710  17.3883569
  27.8404498  93.3114338  17.8400850  26.6792464  92.3417854  17.7913511
  47.5459433  91.5216160  29.3925524  46.7430544  91.5923500  28.8762212
  47.9760790  92.3697948  29.2839050  46.0064650  50.4840899  26.9738412
  46.8383598  50.0645161  26.7544246  45.3540182  50.0031614  26.4646769
  28.0976224  73.7157297  34.9540019  28.5252881  73.0661249  34.3960166
  27.1623802  73.5367489  34.8564315  35.4477334 100.3480434  42.1932077
  36.0147405  99.5851517  42.0804119  34.5605993 100.0051880  42.0851374
   6.3219237 107.1362400  40.9485960   7.1135980 106.7286301  40.5974054
   5.7002711 107.1182156  40.2209616  50.4177284   3.8730070  53.5883188
  51.2024164   3.9134902  53.0416393  50.5055809   4.6133798  54.1886187
  47.8796339  72.0350838  44.8832464  47.6008224  72.4948263  45.6751633
  48.6937714  72.4691868  44.6283627  43.4494066  62.0139885  32.6589465
  43.2634306  61.6679287  33.5318089  44.3661165  62.2864151  32.6996183
  45.1032209  99.6306038  44.8762894  44.9983025  99.1500759  44.0551186
  44.2342234  99.9890995  45.0567245  56.5244300   0.2839637  31.9746447
  56.1199588   0.5213904  32.8090715  57.0534951  -0.4879117  32.1759725
  29.7600055  91.2565899  18.2480824  30.4423380  91.8934059  18.0356884
  28.9735126  91.5971088  17.8218138  55.7243061  75.2637911  45.4537487
  55.9514236  74.6685886  44.7393322  56.5495110  75.6932497  45.6791973
  42.6123953  75.5133438  31.8444896  43.2030964  76.2645864  31.8987393
  41.8481970  75.7718515  32.3596644  49.4621372  72.8089762  15.1330411
  49.6197748  73.0449390  16.0472095  50.1453304  73.2693148  14.6456265
  25.2613282 109.9420452  48.2099915  26.1991405 110.0883961  48.3337545
  24.8940444 109.9823093  49.0930033  65.7717323  98.6346149  49.8122787
  64.8946428  98.3391571  49.5680571  66.2652683  97.8270626  49.9555159
  19.2061055  70.8462524  21.1640263  19.0384066  70.1093483  21.7514634
  20.0362539  70.6299543  20.7394075  29.9552011  87.5012112  49.9210215
  30.7588959  87.5061607  50.4409027  29.2920804  87.8746033  50.5016041
  26.6866207  80.0764847  40.1980829  26.3298130  79.1909313  40.2667379
  25.9279847  80.6257248  40.0005102  27.9672980  70.7143641  46.4089108
  27.5093532  69.8776579  46.4891529  27.2901583  71.3326406  46.1342287
  29.0325475  91.3006973  36.5779924  29.3743205  90.5914593  37.1224236
  29.6345997  92.0295048  36.7283654  53.4700537   3.7106818  44.9636221
  53.8738680   3.0816284  45.5615044  54.1620445   3.9245406  44.3378019
  39.4408321  81.2629128  30.8448958  39.6263623  81.8575478  31.5716815
  39.5373797  81.8045807  30.0616288   2.3459557  72.1418858  42.3867321
   2.2305001  72.9781389  41.9355297   3.2417297  71.8779945  42.1765327
  99.0946770   5.4810560  31.6240978  99.5612717   4.8532060  31.0724473
  99.6249104   5.5421197  32.4186754 105.7550430  13.0658543  23.6471891
 105.5457020  13.9909327  23.5181928 105.1268482  12.7675951  24.3049526
  42.4413443 100.0835323  45.1850080  41.9834185  99.7223473  45.9440088
  42.3012495  99.4387245  44.4915867  37.6404428  93.0330753  48.7607479
  38.5353374  92.8977108  48.4491825  37.6037121  93.9623451  48.9873266
  56.0800791 102.5846195  38.5122395  57.0179224 102.4043179  38.5768414
  56.0189676 103.5398483  38.5165405  56.2996292 103.8171959  12.3530793
  56.9008350 103.0777073  12.4421656  55.5868149 103.4821701  11.8091202
   5.0526798  35.3028536  78.8756847   4.1812238  34.9266434  78.7521458
   4.9908528  36.1798048  78.4970474  71.0279512  17.7156150   8.2188010
  70.2412844  18.0388820   7.7796119  71.6966391  18.3731258   8.0270380
  26.6267061  97.5932407  28.7805271  26.2716937  97.2404480  29.5964527
  25.8735442  97.9911423  28.3438849  66.5975857   3.4042704  21.3944817
  66.9670391   4.1028827  21.9345498  65.6553173   3.5726848  21.3967204
  55.5506229  86.6382504   2.2550188  55.3591633  86.9310856   1.3640517
  56.4783430  86.8387985   2.3788951  24.3589473 106.0084438   3.4417617
  23.5615110 106.5161228   3.5920620  24.1187835 105.3816509   2.7593535
 108.9324856  16.1464179  28.4371257 108.8269138  16.5384734  29.3039465
 109.8250484  15.8006418  28.4377456  78.7073803  23.8508844  35.6451321
  77.8752089  23.4216356  35.8437967  79.2356825  23.7256217  36.4334440
  63.1355619  95.0682068  24.2172456  62.6936054  95.5359745  24.9258399
  62.4792910  94.4526291  23.8907433  39.3413424  99.4225216  44.1239643
  38.9464593 100.2783394  44.2908764  38.6875415  98.7934685  44.4290400
  90.1318455   4.9746808  22.7489829  90.1659298   5.5244368  23.5318232
  90.9081078   5.2237904  22.2473884  87.6175880  14.2247725  22.3761201
  86.9173431  14.0944362  21.7366695  87.1611786  14.3689823  23.2050538
  47.0337391  94.1502666  68.6037493  46.4701796  94.1412067  67.8300858
  46.4311028  94.0472984  69.3402672  71.1266232  98.4248924  47.0347071
  70.7581377  97.9274750  47.7648020  71.7711926  97.8348637  46.6440296
  38.4913516  87.2886276  26.4464355  38.0541587  87.0556259  25.6274104
  38.1980348  86.6257095  27.0715213 104.2464352  24.6380281  38.6630011
 105.1679420  24.5353746  38.9007354 104.1892433  25.5228615  38.3024001
  49.4069958  74.4459343  21.9653296  50.0335217  75.1578093  21.8352056
  48.6325836  74.8725033  22.3321581  96.9086075   7.7667993  39.4575429
  97.4677277   7.1755874  39.9616146  96.3005924   7.1877247  38.9979601
  59.3116045  98.9903641  41.1787844  58.4290648  99.1605377  41.5080118
  59.7788000  99.8157215  41.3081932  43.4104967 103.4041882  10.2894413
  44.0080500 103.9912987  10.7525444  43.4703207 102.5765038  10.7665074
  31.5635514 108.1511021  40.5482435  31.0601020 108.2157707  39.7367048
  32.4315763 107.8598785  40.2690458  76.7819405   5.6472600  27.2118950
  76.6182804   5.6035656  28.1539869  76.9775009   6.5693372  27.0452809
  34.6806479  91.8639660  34.8179531  33.9326906  91.3122845  35.0469542
  34.3847895  92.7560043  34.9995017  55.3630924  96.4467907  21.6016912
  54.9673080  95.5784512  21.5270567  56.1776638  96.3823891  21.1031318
  50.4902744 107.7881622  13.3395755  49.8489571 107.7965832  14.0501177
  50.1037550 107.2181416  12.6748109  36.9763041  66.1636400  20.2971697
  36.8786335  65.2627897  20.6056547  37.1324921  66.0791063  19.3565881
  43.2058907 112.3783970  20.0436282  42.3959112 112.1083260  19.6109283
  43.8341951 112.4867821  19.3296814  34.7664404  84.6264839  14.7047949
  35.2422428  84.4592476  13.8912368  33.9227581  84.1911507  14.5826590
  86.1798477   2.4676886  45.0064421  86.2845325   1.5906283  45.3752708
  86.9733238   2.9342300  45.2690363  22.1010041  90.6467628  39.7507811
  22.7610373  91.1392593  39.2628980  21.4521575  90.3985023  39.0922976
  69.9401903  22.1392250  17.3668706  69.5109844  21.5287924  17.9663587
  69.7507620  23.0044436  17.7298379  66.9940519   7.8134763  44.5268297
  67.9167891   7.5703031  44.4516468  66.6994572   7.3892343  45.3327274
  40.8492374 109.8476219  56.9025278  41.2462234 110.3721714  56.2071943
  40.4512644 110.4902458  57.4898052  44.3690443 107.9430389  27.6864219
  43.6787844 108.5877037  27.8419089  45.1816559 108.4113979  27.8775668
  98.3717823   9.0702778  14.9885023  97.6941967   8.5658300  14.5383441
  98.5202599   9.8289835  14.4240975  51.2676001  83.9264011  39.9498749
  50.9165668  83.0443764  40.0724936  51.9729805  83.9950371  40.5932713
  36.4434624 111.3901329  35.3447127  37.3112988 111.4147091  35.7478142
  36.3159251 112.2726727  34.9967313  80.2302120 112.0644847  37.1160150
  80.3425979 112.9717723  37.3996186  79.6841601 111.6673523  37.7945042
  26.1938357 112.6131153  37.2502589  26.1101842 112.7473736  38.1942964
  25.9893703 111.6869831  37.1210074  61.3542032  81.5500450  28.1308866
  60.4103899  81.6510677  28.2543373  61.7420053  82.2289753  28.6830616
  33.1240225  78.9846802  14.4254661  33.6552215  78.7577248  13.6622167
  32.3540235  79.4205761  14.0603280  69.8296261  10.2685654  13.8665557
  70.6790972  10.1407313  14.2887938  69.5467615  11.1362183  14.1553473
  64.1120529  80.4814911  47.1496153  64.6420622  80.2842426  46.3773346
  63.5214281  79.7327948  47.2323608  36.6341114 109.4033813  46.7488623
  37.3643208 109.3757820  47.3671389  36.0625839 108.6853790  47.0209980
  78.2897663  14.2393172  43.7095022  78.7898254  13.4231901  43.6991835
  78.2326651  14.4968784  42.7893734  36.1903667 100.2577019  30.2487254
  36.9430923  99.9562740  30.7574248  36.4352345 101.1354733  29.9558282
  78.8956738   7.7672029  24.3483925  79.6505117   7.8721929  23.7692285
  79.1298532   8.2551265  25.1378989  64.2682791 111.3958549  44.6684122
  63.9588499 112.2989178  44.7388411  65.0228643 111.4462948  44.0816545
 100.3096962   3.5970962  41.0978270  99.6708107   3.3923295  40.4150915
  99.7941971   3.6397156  41.9032288  29.8777580  90.7191277  48.7367916
  29.3962860  90.9229755  49.5385790  30.7438636  91.1031246  48.8733244
  58.0875015  86.3020706   3.4412459  57.9462624  85.3686237   3.5992512
  58.8797045  86.3370609   2.9051331  50.7033348 109.7870350  54.4432068
  49.8900938 109.2904472  54.3522453  51.0771179 109.4849491  55.2710104
  51.6396666  94.5280552  58.3012915  52.5130844  94.6267605  58.6802721
  51.7394447  94.8116779  57.3925352  20.7053089  77.3791122  44.3025780
  21.6419435  77.5379229  44.1854143  20.6558228  76.7722750  45.0411797
  45.8660126  77.7419901  24.8167658  46.2764788  77.5118732  25.6503129
  44.9297905  77.6103592  24.9664092  41.8448734  96.9708443  28.5284328
  41.8373394  97.6322269  27.8365183  42.7296352  97.0137882  28.8911843
  34.9345779  79.8589468  35.1247740  35.1417542  79.8368263  34.1905260
  34.8333955  80.7893372  35.3257012 107.5551796   5.7565618  46.4234161
 107.5374413   4.8435956  46.1363459 107.1669769   6.2437409  45.6966496
  76.8808937   8.3761251  27.5765657  77.6156712   8.8130057  28.0072260
  76.2094212   8.3112770  28.2556462  85.3611279  10.6412578  19.5461297
  85.8509445  11.4352906  19.3320525  85.9268093   9.9254847  19.2564678
  40.5007887 111.6975212  13.9747512  40.2885389 112.3216438  13.2807362
  40.5604744 110.8532810  13.5276210  65.9224129  85.0420284  26.5179229
  65.2531910  85.2550220  25.8675337  65.4299212  84.8667049  27.3197603
  88.9128590   9.1688228   8.5358638  88.5987377   9.0348732   9.4300759
  88.3567142   9.8661953   8.1885785  65.7367182  92.7883244  22.7815557
  65.9290504  93.7248993  22.7361345  65.6431913  92.5184345  21.8679667
  44.4941282  96.7172146  22.2434902  44.7708130  97.5412846  22.6442242
  45.2785873  96.1688805  22.2573495  39.6342516  77.8506422  58.3554649
  38.9685774  77.4124336  58.8856363  40.2214336  77.1471405  58.0788183
  67.4648762   0.6501928  20.4109120  66.7627001   1.1916311  20.0503254
  68.1576633   1.2725562  20.6321430  34.6399689 110.5342102  38.8968301
  33.8745499 110.9763908  38.5296178  35.3723311 111.1170769  38.6964822
  55.6413651  83.8695908  22.6515436  55.8159590  83.7600517  23.5862899
  54.8271894  84.3717575  22.6172018  36.3629317  95.0661373  42.4694204
  36.0295868  94.6049881  43.2391310  36.2648869  94.4387245  41.7532063
  33.0615854  81.8667412  31.1458158  33.4792709  81.2508488  31.7478466
  33.7769866  82.1872139  30.5965185   3.9823198 106.4147472  30.0224328
   4.3593660 106.5593910  29.1545916   3.0572683 106.2347984  29.8547149
  29.1460943 106.7765713  24.4064140  29.7467995 106.8152142  25.1506543
  29.5754027 107.2938633  23.7249947  25.2477789 107.9245949  20.6638741
  25.3720760 108.8100529  21.0055637  25.1032615 107.3857975  21.4417219
  83.3217716  23.1572890   9.3155980  84.0617371  22.5614166   9.4323111
  82.6361847  22.6144266   8.9263630  46.4826632 110.2986908  28.2859254
  45.9303141 110.5596828  29.0228271  47.3107672 110.0368023  28.6882782
  47.4026823 104.7737217  33.4847307  47.0168447 104.0911293  34.0337563
  46.7566442 105.4799938  33.4912300  67.2050333  90.4853058  38.3193827
  66.3153267  90.8355045  38.3642459  67.0876837  89.5356369  38.2950068
 108.4464264   0.8163748  46.1688852 107.9667950   0.3095716  46.8241215
 109.3684101   0.6517092  46.3665199  55.2627230  95.2905750  37.4996853
  55.7848310  94.6299744  37.0444393  54.4398642  95.3235054  37.0117784
  79.9857140   3.2519275  43.3574390  80.0136566   2.3979276  43.7888718
  79.4005394   3.7770420  43.9033842 102.3708630   0.1700064  46.9913101
 102.5371265   0.6314541  46.1693287 102.2418690   0.8664925  47.6351261
  72.7219057   5.5002278  41.5552759  72.0887899   4.8350763  41.8254089
  73.2427311   5.0729877  40.8752489  33.9039826  86.3412285  26.2715244
  33.2447648  85.6723404  26.0864496  33.5431671  86.8360233  27.0072031
  86.2997913   0.3159690  38.4801960  87.0232391  -0.0277708  39.0043235
  85.8197403   0.8870329  39.0799141  60.0648642 106.2261391  14.6140480
  59.2990208 106.5674400  14.1522729  60.0561476 105.2867126  14.4306600
  77.8997803  10.5559480  40.7632399  77.9259109   9.7177768  40.3016996
  77.9810715  11.2127864  40.0717306  58.8164711   1.6877976   2.8572580
  58.9574099   1.6495393   1.9112645  58.2142639   0.9663228   3.0390641
  75.9132385   2.9386038  52.5844002  76.4215422   2.2645003  52.1333504
  76.5530968   3.6172241  52.7995491  66.7360497   5.2552384  41.5540600
  66.6732597   4.3166137  41.7308998  67.6617241   5.4007471  41.3586378
  31.4605904  98.2116222  24.5782447  31.9712234  98.9320087  24.2087483
  31.7644572  97.4360847  24.1066194  47.7113342 100.7214737   0.7245757
  47.3896217 101.3624954   1.3584745  47.7195978  99.8933411   1.2045362
  50.0715399 104.6269989  29.7021198  50.3477907 105.2974701  29.0773034
  50.8789110 104.3643284  30.1441503  43.1966543 105.0659084  21.6521549
  43.2856560 104.9703121  22.6004028  42.8822803 104.2124367  21.3538456
  44.3325996  99.1425514  42.3398113  43.4445953  99.3234634  42.0316648
  44.8832655  99.2596722  41.5656805  94.6196747  26.6416812  36.3891983
  95.4639530  26.2233591  36.5577912  94.8317528  27.5663233  36.2615609
  16.1189485  95.8419323  58.7976789  16.6004217  96.6309071  59.0465498
  16.2127423  95.2569580  59.5495033  90.5383682   5.2972245  10.3954589
  90.3369522   5.5649143  11.2921214  90.6421852   4.3470547  10.4467607
  49.2513609 108.1741810  48.2313490  50.0208712 107.9161930  47.7238750
  49.6087408 108.6312008  48.9926910  24.8086786  92.0854378  64.4681454
  24.4352627  91.3461781  63.9882708  25.7080984  91.8182659  64.6576023
  12.6105750  99.2833519  46.0836411  12.9013741  98.9525318  46.9334793
  13.2777858  99.9228859  45.8345175  83.5916138   4.3104485  40.9482002
  83.5342884   3.6606967  41.6487455  83.4585857   5.1498485  41.3885880
  97.0954704   3.5677814  42.0401335  97.2289276   4.5082566  41.9221163
  96.1632156   3.4347677  41.8685484  31.5493965  83.5197067  39.6781898
  31.4182401  82.7652264  39.1039109  32.4176073  83.3838177  40.0576353
  65.3674030 106.3200665  44.0817547  64.7811460 105.7552052  44.5852089
  64.8253679 106.6496277  43.3649445  40.7236671 103.0307579   7.3672915
  41.4374256 103.6011314   7.6526970  41.1089659 102.1546841   7.3512441
  40.8364725 101.1122990  15.4438317  41.0238647 101.4747143  14.5779371
  40.5232763 100.2247810  15.2693546  51.0842037 106.8338490  40.2974081
  51.4064598 107.3486233  41.0372639  51.8324852 106.2979603  40.0344753
  50.3014326 101.7374229  11.4953554  49.7025681 101.1971283  12.0107985
  50.9081078 102.1033382  12.1389961  64.2414093   2.9101720  13.5019028
  63.6028481   2.4114218  14.0115297  63.9225721   2.8574106  12.6009083
  18.7505817  93.3153534  22.7442718  19.4629061  93.0796146  22.1499205
  18.1778026  93.8761234  22.2211170  43.7903261  73.2292891  19.8839664
  44.6545076  73.4769154  20.2127624  43.6404467  73.8134718  19.1406608
  44.3378592  85.0244808  14.0299749  43.4706831  85.3276062  14.2989528
  44.4112778  85.2912903  13.1136477  67.4245119   5.9815741  58.1411886
  68.2899570   6.2560534  58.4443331  66.8150997   6.5564096  58.6042356
  57.2435188  95.0657654  12.9762983  57.8258371  95.7837009  12.7278912
  56.4449072  95.2195358  12.4715161  29.2830205  98.2625294  49.4591904
  29.3557000  97.9549217  48.5556793  28.4533167  97.8999615  49.7696304
  77.6746035   2.2527367  41.6291046  76.9781351   1.6804901  41.9511223
  78.1648684   2.4981987  42.4137211  66.6924047  24.2621493  35.8269143
  66.5252590  24.5002508  34.9149919  66.3763809  23.3616781  35.9011316
  32.0752048  89.0064812  40.8169079  32.3110914  89.0124702  41.7445707
  31.1198330  88.9474678  40.8130836  37.8564978 100.8522224  38.3608794
  38.3233881 100.8576584  39.1964722  36.9812989 100.5308437  38.5776210
  69.9565744 100.2355194  45.4321051  70.4945660  99.7575283  46.0632420
  69.9942732  99.7059345  44.6356440  51.0936928 102.3117352  23.2770467
  50.8384371 102.3788834  24.1971397  51.7878342 101.6527081  23.2685375
  59.4682217 104.1952324  17.2271097  58.7385368 104.7328758  17.5349009
  59.2203331 103.3000469  17.4582684  81.6911411   3.3562145  18.7564683
  82.4866867   2.8657275  18.5496688  81.1263180   3.2288864  17.9942405
  88.4255505   4.4978684  44.1045237  89.2787457   4.6593523  44.5072842
  88.2877159   5.2482337  43.5264349  46.7267036  94.6833992  23.9076686
  46.9878769  94.5230675  23.0008531  47.2341347  94.0524483  24.4181943
  31.8123579  92.5117779  14.0733385  32.1905351  92.9207802  13.2949233
  31.2443662  93.1860161  14.4461811  33.7537575 110.4509544  64.5800543
  34.4231606 109.9591637  64.1043711  33.2933283 110.9459019  63.9023638
  45.7537556 109.9393654  34.3882799  46.5765715 109.5540619  34.6895289
  46.0147429 110.5591488  33.7071204  70.6829119  19.5149004  34.2089868
  70.2037573  20.3157926  33.9963388  70.7641506  19.0553510  33.3732557
  60.9562445   8.3883780  21.6807866  61.0565090   7.6209623  21.1175346
  60.2992773   8.9259386  21.2384582  47.5510311 102.3188400  31.8417907
  48.4538651 102.2609806  32.1544862  47.0517492 102.6112938  32.6042986
  51.3547277 101.3611889   8.3286518  50.6100130 101.7590332   8.7795979
  50.9663439 100.9019279   7.5840235  32.1725512  85.7925224  29.7287703
  32.3006153  84.9784565  29.2418146  33.0421853  86.1911011  29.7619629
  31.2660289  76.2615108  33.2604480  30.9214950  76.8060827  33.9682436
  32.1667624  76.5632915  33.1428051  21.3764691  90.0451565  44.5622110
  21.2253809  90.1137161  43.6194992  21.8124795  89.2004013  44.6740818
  79.8781252  34.6893716  29.4078994  78.9857578  35.0302267  29.4689536
  79.8130846  33.9560604  28.7961364   9.5733809 108.7902832  54.5765305
   9.4467598 109.3088245  53.7819815   8.9740223 108.0505180  54.4777966
  40.0369787 106.4897919  35.2729821  39.6933913 106.8517685  34.4561863
  40.8605671 106.0716057  35.0218940  35.1615071 111.0057926   7.1920639
  35.2504849 111.4837551   6.3675261  35.2211094 110.0837421   6.9420528
  15.4098988 108.2758617  29.8650312  14.4681859 108.2758141  30.0365210
  15.7708895 107.6679802  30.5103135  38.2612729  89.5753193  30.3237653
  38.4942985  89.7405815  29.4101906  37.5750947  90.2146149  30.5153370
  53.1312895  83.0434895  44.7205591  52.9516602  83.0618763  45.6605721
  54.0628242  83.2522392  44.6505976  71.8749428 102.1070194   1.0937789
  71.7478180 102.6858521   0.3420962  71.8603992 101.2250519   0.7220812
  82.9896927   2.0024215  22.2469854  83.5604382   1.3547480  22.6605105
  82.8460693   1.6652498  21.3627243  37.2867084 111.1249352  27.4990201
  36.6460061 110.8953857  26.8259406  36.7786598 111.1660385  28.3092237
  43.4268379 109.5310974  24.3077064  44.0697956 109.2991638  23.6375999
  43.8621283 110.2002525  24.8358870  29.8244834 107.6746941  28.9105201
  30.2137661 106.9992447  28.3551288  30.2930951 108.4760571  28.6771750
  76.9465256  11.3668561  19.3364060  77.3794937  10.5200267  19.4443381
  77.0594168  11.5771568  18.4094429  30.6054735 100.2609253  13.0831146
  31.3424778  99.8610878  12.6213932  29.9505639  99.5649242  13.1369984
  77.8088140   4.7401473  53.2227802  78.0433178   4.3959415  54.0846157
  78.6031675   5.1765555  52.9149151  21.6115761 104.7726631  27.9602647
  21.1390638 105.1942062  27.2424483  20.9248710 104.4760990  28.5575223
  50.4645205 104.5873260  22.1585131  49.5947218 104.6065998  22.5576448
  50.8342886 103.7473679  22.4304891  79.5212698   7.7470535  31.5156937
  79.9362230   7.1450168  30.8979559  80.1525688   7.8295720  32.2304583
  65.6170225 108.6618996  48.0636930  66.0863590 108.1244373  47.4256659
  66.1583900 108.6251259  48.8522387  73.7804413   2.4171270   0.4528061
  74.6779203   2.0843565   0.4576236  73.2541895   1.6822094   0.1378693
  45.7074928 106.3293552  25.5468297  46.3861179 106.8707848  25.1436591
  45.3027630 106.8997955  26.2002945  33.8052607 102.4531460  54.5127869
  33.4918952 102.3911762  55.4151106  34.1949964 103.3254337  54.4539595
 102.8546143  24.0583038  40.9717703 102.4693394  24.8824883  41.2692785
 103.2553768  24.2716599  40.1290941  76.6567183  88.9005566  41.1120701
  77.2418261  89.3492794  41.7224216  77.2383356  88.3645630  40.5729389
  89.0658188 102.1026802  37.4242926  89.6365356 102.8582191  37.2840524
  89.6353149 101.3446522  37.2927570  45.7497025  90.6449509  35.8852649
  46.1313725  91.5216351  35.8408308  45.7715940  90.4210663  36.8156576
  19.6983314  88.2890224  75.5156040  20.4031658  88.8445282  75.8485508
  19.1680300  88.8737011  74.9741507  48.8134336   3.5986978  26.0799694
  48.7764454   3.9473909  25.1893091  49.2362356   2.7451330  25.9856462
  40.9678411 106.5785408  30.8143067  41.8252563 106.5893936  31.2396884
  40.6132174 105.7117748  31.0122633  29.4434667 102.6901436  26.0070682
  30.2692366 102.7277660  26.4896870  29.0927362 101.8206406  26.1999178
  45.2273846  98.5876179  51.9516134  45.7401991  99.2262077  51.4561749
  44.5422411  98.3078194  51.3445520  28.6115360  98.2292366  12.8422773
  27.7488518  98.2637596  13.2555795  28.4364057  98.3632946  11.9108319
  45.9675455 100.8191681  16.2134612  45.1052475 100.5691528  16.5453696
  46.5190887 100.0547314  16.3798249  19.8047519 107.7488518  27.9175949
  19.6078384 107.1274662  28.6185503  20.1481819 107.2073174  27.2069407
 100.1366997  11.5117967  49.2790222  99.2224789  11.3957655  49.5378017
 100.0999641  12.1066928  48.5300350  11.0668933  40.5567694  91.1441708
  11.5799725  40.6114292  90.3379536  10.6846726  39.6793842  91.1258125
  40.2096844 109.8732090  12.0118773  40.1002645 110.2184296  11.1258316
  39.3743467 109.4492435  12.2085929  92.1776772   5.1200843  20.5086946
  93.1229877   4.9793592  20.5617738  91.8554497   4.3869248  19.9844074
  96.1965752   6.6515076  49.4228935  95.7354736   6.1395901  48.7583923
  95.5465221   6.7909902  50.1115179  38.8053823  89.9127388  27.7359629
  38.3862734  89.2840576  27.1483088  38.9325285  90.6947422  27.1988106
  53.4405899  80.0449944  13.5767365  53.7955761  80.0287724  14.4655299
  52.7818394  79.3505764  13.5692155  47.4861622  79.8431110  23.5342097
  46.8484640  79.2176580  23.8782835  47.9554701  79.3578482  22.8556037
  54.6486092  94.2332554  54.2863989  54.9595881  93.5159492  53.7341261
  55.1792860  94.9852848  54.0235901  39.9511647 104.6864033  44.0059376
  40.2994537 105.5605602  43.8304806  40.6774521 104.2171669  44.4164896
  90.2882576  16.0296893  12.7824497  90.5872345  16.7127526  13.3826780
  90.7180882  16.2354016  11.9522941  58.7315941  88.0191612  22.0240760
  59.4031811  87.8567600  22.6865149  58.3303738  87.1630192  21.8748641
  19.1087151  99.0962696  47.8534698  19.0947139  98.6393070  48.6944294
  18.3284760  98.7816334  47.3968935  39.9595356  82.9239464  28.6927867
  40.7816172  83.3846283  28.5248899  39.6829271  82.6065922  27.8331327
  47.4002600   5.6383145  37.1850681  47.6230288   5.9540981  38.0607867
  47.8240871   4.7822237  37.1241593  65.6618595  96.3963509  24.1896176
  64.7436380  96.3701534  24.4587183  66.0281467  95.5709839  24.5071530
  54.1150236 106.1502934  27.4461389  55.0317907 105.8753109  27.4336267
  53.9132166 106.2689686  28.3742666  76.0104752  12.6590276  50.0208855
  76.5722847  11.8996561  49.8661137  75.3780937  12.3599160  50.6742287
  49.5683193   6.7793906  26.7088509  49.3792725   6.1339086  26.0277867
  50.4747534   7.0405483  26.5463543  27.1864343  14.6267986  35.1061821
  27.1523190  13.8010597  35.5891156  26.2716794  14.8250198  34.9057674
  41.0443115  68.6179638  50.8807993  41.8873978  68.3806562  51.2669611
  40.7454252  69.3652725  51.3989019  21.8798494  89.5387650   8.6053389
  21.3486052  88.9002323   9.0810418  21.7637825  89.3077660   7.6837105
  47.5574970 103.9374924  23.2764077  47.8493404 104.8333836  23.1077623
  47.5611496 103.8599873  24.2304587  58.6801147  71.6415691  31.3426089
  58.7068367  70.9157228  31.9660401  57.8734636  72.1107578  31.5557027
  28.5960889 112.2904396  50.1453161  29.1629124 112.0603848  50.8815336
  28.2892513 111.4491367  49.8072529  36.6154385 109.6605968  14.6259892
  37.2267485 109.0931511  14.1563725  35.7788634 109.5337486  14.1784596
  49.2725325 102.5725842  36.0004973  49.0731192 102.8712082  36.8877935
  50.2067947 102.3653984  36.0218096  34.8363090  36.4530444  96.7020226
  35.4325247  36.7586493  96.0183811  34.3765879  35.7129502  96.3056087
 100.7863998   5.6859624  33.6880708 100.9011555   6.5601271  34.0607643
 101.5109825   5.1748681  34.0486169 105.9082508  51.9223499  97.5764656
 105.6855297  51.0107708  97.3876476 105.4766273  52.4227428  96.8839741
  40.0387859  94.5638943  24.4674683  40.9025478  94.2665100  24.7533202
  40.2206421  95.2925301  23.8739610  87.8929234  13.9954829   9.9933738
  88.3775139  14.0494096   9.1696662  88.5144329  14.2948651  10.6569421
  83.1276131  10.1467025  11.2741256  83.5697174  10.1937377  10.4264474
  83.3316898  10.9806752  11.6972959  45.5376911 112.3296452   9.6449810
  46.0875750 111.5462208   9.6550703  45.0232887 112.2508812   8.8416034
  41.5558100  70.7835007  23.9533949  40.7973194  70.4446316  24.4288874
  41.3109446  71.6785431  23.7185025  47.8742218  85.6940079  14.8961139
  48.7890673  85.7106209  14.6150208  47.4919415  86.4841175  14.5142531
  46.7681837 104.1897392  27.0035648  46.8475056 104.1919422  27.9574704
  46.6431332 105.1099205  26.7714977  40.4350090  80.4750252  51.9293499
  40.5777168  80.6623936  52.8571224  41.0352993  81.0631752  51.4711285
  56.1678886  82.3664188  11.2604868  56.3793135  82.0242310  10.3919017
  57.0158815  82.4570847  11.6951287  93.4094620  24.6097064  42.5649118
  93.8089657  24.9424577  41.7612267  94.1101456  24.1202092  42.9958057
  78.9165401   3.8051519  27.3327899  78.2670069   4.5082331  27.3363996
  78.4003305   3.0018336  27.3994040  64.9536562 100.8263588  54.6308517
  64.2127705 101.0347652  55.1999664  65.4221821 101.6554642  54.5343542
  43.2368946 108.2206821  44.3963671  43.7581778 108.9202023  44.0024567
  42.4231291 108.2155609  43.8923931  78.5518312  17.9976606  30.8899808
  78.5478401  17.2247362  31.4546084  79.0973711  18.6315739  31.3555646
   0.4583354   8.7411427  46.0781527   0.7945646   9.4253051  46.6570377
  -0.4421388   9.0066332  45.8913565  91.9744682  13.5539865  32.3656082
  92.3157692  13.8103986  33.2223463  92.7511120  13.4785640  31.8111920
  19.4519377   1.9970913  46.4133596  19.0792203   2.3102589  45.5892038
  19.3000782   1.0520937  46.4011288  48.1761694  99.2663479  23.3235478
  48.9380455  98.6962032  23.4270692  48.3078861  99.6905136  22.4756312
  70.7644987   6.9683343  23.5262823  70.0534344   7.5917065  23.6746788
  70.4033136   6.3365895  22.9044509  60.8697367  15.9074581  34.3843794
  61.3419437  16.2688434  33.6342764  61.2182093  16.3829827  35.1384878
  54.5022392 100.7787800  41.0853481  55.1960087 100.4028511  41.6271925
  54.9259281 101.5001869  40.6202650  92.0252705   3.3494729  37.0765924
  92.4087811   3.9026412  36.3960361  91.2227726   3.8048115  37.3313451
  91.4518547   3.6269680  13.2180810  90.7645798   2.9608354  13.2058680
  90.9880447   4.4465202  13.3896828   1.6282512   3.8537425  24.6592140
   2.2591522   3.7834004  25.3756285   1.4584993   2.9481447  24.3997765
 104.9423218   0.9618116  33.7527323 104.2511845   0.3105953  33.8730884
 104.6652031   1.4666565  32.9881620  53.4230518  81.7743874  51.2589693
  53.0652857  82.0015335  50.4006910  52.9389811  82.3256969  51.8737650
 100.7467842  29.8657203  24.1833162 100.2313519  29.8366737  24.9893641
 100.0961876  29.9451780  23.4857202  45.9347582  96.7021942  34.8801279
  46.1967611  95.9651375  34.3284607  46.6350269  96.7769432  35.5284047
 107.1374512  22.3460340  27.2220993 106.4573097  22.7443790  26.6790032
 106.8793678  21.4270449  27.2933960  97.4504089  20.5556917  44.1760635
  98.1851292  21.1691618  44.1671371  97.8280449  19.7342813  44.4905615
  39.5170498 103.9458466  39.1448975  40.3693151 103.5104084  39.1614127
  39.1741133 103.8347721  40.0316238  91.8840599  11.2978745  44.2346001
  91.3873482  10.6234145  44.6978569  91.7981720  12.0777047  44.7829771
 108.3132744   8.6375248  28.6260629 108.5664558   8.6065423  27.7034736
 107.7261925   9.3909913  28.6881471  54.0340805  98.2050323  62.1497202
  54.9082232  97.9324055  61.8708181  53.4423065  97.5861454  61.7219114
  76.2567472   9.7562957  13.3593130  75.3182745   9.7996294  13.5426879
  76.5108776  10.6644094  13.1950569  41.8744993  80.5699825  65.5931616
  41.7320156  80.1711369  64.7347593  41.0256433  80.5060101  66.0308647
  76.2864304 104.1306973  31.7636895  75.9367323 103.3547211  32.2016549
  77.2356939 104.0514660  31.8578005  90.8064938  33.0537200  46.3325500
  91.2905979  33.8769674  46.3969517  90.6360626  32.9486799  45.3965187
 111.6970158   0.9767262  25.4761505 111.8090916   1.8321469  25.0615120
 111.2535381   0.4460481  24.8143816  39.7809076 108.8271046  30.2652121
  40.0678205 107.9470348  30.5089092  38.8420248 108.7364292  30.1023936
  63.1216574   7.3481613  42.8579903  63.6160421   6.6866308  42.3740578
  62.8849697   6.9170916  43.6792040  17.9419625  63.0602026  88.7648582
  18.3514297  62.2855139  88.3796024  17.5521040  63.5198784  88.0212593
 109.7115421   5.2780473  27.5586343 109.2971325   4.4368327  27.3666644
 109.1771889   5.6542146  28.2580566  98.6534882  19.6439040  14.6029186
  99.5713711  19.6723425  14.3329060  98.3465481  20.5450869  14.5034897
  68.1822968 111.4738846   6.4134055  68.7685728 111.5687656   5.6627327
  67.4097776 111.9888878   6.1805719 105.7048512  16.6283715  58.7236166
 105.3188705  17.0738542  57.9694319 106.6264629  16.5170884  58.4901953
 102.6482391   8.8037360  40.1815176 102.0708656   8.0506164  40.3067827
 102.0882797   9.5637572  40.3397799  63.3676481  97.8622913  48.9935732
  62.6285076  97.6928902  49.5776987  62.9749537  98.2730484  48.2233095
  93.9074135  26.6427422  11.7386496  94.4917583  27.3599029  11.4927769
  94.4024372  25.8494997  11.5338457  68.8301468 110.0395489  31.8961501
  69.4769716 110.0032425  31.1914992  68.1802559 109.3779945  31.6590285
  95.3298473  19.9529541  15.9113622  95.8917427  20.4617143  15.3268385
  95.8371925  19.1647685  16.1052608 105.5516052   5.8816069  26.3747501
 105.2442932   5.7334584  25.4804087 105.8654690   5.0252128  26.6651082
  84.5644665  99.4003773   9.9900615  85.5074406  99.5298100   9.8887187
  84.2558670  99.1877460   9.1092730 112.9262638   3.3619681  40.8688164
 113.3314705   3.8682398  41.5728951 113.1544209   3.8374361  40.0699997
  78.3803940   0.6171372  32.1773791  77.7053595   0.0476045  31.8083334
  78.8795853   0.0482760  32.7634120  49.4140005  86.3176250  55.4068422
  48.8733244  87.1028233  55.4927015  49.2806530  85.8440399  56.2279177
  85.8126163   6.1105335  61.9176388  86.1832619   5.2796340  62.2150564
  85.4080772   5.9043670  61.0749817  99.3925762  20.9175253  31.9723415
  98.9254093  20.0948524  31.8267488  99.7732830  21.1307859  31.1203957
 103.1843567   3.4845009  34.4638538 103.5457325   3.3498219  35.3399229
 103.9356709   3.7486896  33.9328551  89.6387672  23.2092381  33.8025546
  89.5752048  22.5109196  33.1509876  88.9383411  23.0190277  34.4266105
 100.0914097  24.7122717  27.4612927  99.7024155  23.9677715  27.0023441
  99.3694210  25.3315902  27.5681257  77.2342777   1.3221212  22.2102880
  77.5880575   1.6688894  23.0293250  77.9920101   0.9461938  21.7622328
  75.1914024   0.4585531  32.1564388  74.5285273   1.0989042  31.8980193
  75.6002712   0.8377451  32.9344296  98.2573509  19.1876876  54.5941496
  98.2904816  18.3933568  54.0610695  97.3235130  19.3791175  54.6809435
  48.1555367  99.7363853  37.1603775  48.1099129 100.5764866  36.7038989
  47.2664881  99.3858242  37.1063042  64.2654753 106.8490028  50.2065611
  64.0069628 107.6614285  49.7713947  64.5917940 106.2920570  49.4997692
 113.1716824   7.3271984  40.4939985 113.3731842   8.2624137  40.4623747
 112.6395893   7.1703267  39.7139359  79.5866013  18.5901558  18.4572542
  79.1086721  19.4056404  18.6082506  79.6208334  18.1699634  19.3166149
  92.9409599  17.3427415  44.9494410  92.6201057  18.0115283  45.5544281
  92.3037815  17.3404133  44.2351389  99.2733383   1.2517098  36.0065818
  99.8953724   0.6508416  36.4167762  99.7923946   1.7283976  35.3588295
  53.2613468 109.6420574  39.3148470  52.6278591 109.8966980  39.9857330
  52.9569197 108.7872601  39.0101027  36.3040113 103.0363750  29.5906258
  36.8102169 103.5527515  30.2177954  35.9971571 103.6749554  28.9469743
  97.3782444  18.7800062  27.0481205  97.0581913  18.3222175  27.8254414
  98.2920170  18.9825499  27.2487020 116.9767284   9.9515146  42.1696711
 116.3583565  10.6477237  41.9479990 117.3822880   9.7166872  41.3350391
  91.1745071   8.5423738  42.3494673  90.4404545   8.9796281  41.9179535
  91.0082150   8.6616880  43.2845306  77.1581602   5.3349912  30.0321317
  77.8601170   5.8465338  30.4343891  77.0312119   4.5945579  30.6253195
  72.5888681 109.9468803  22.6818085  72.4129200 110.0456619  21.7461157
  73.5085535 109.6852875  22.7262712  98.2052612   8.3905160  60.7388783
  98.6796474   9.0097314  61.2936401  98.7531757   7.6056683  60.7331228
  70.0678492 111.9447041  23.7854767  69.4348812 111.3345337  24.1639900
  70.0174809 111.7877674  22.8425741  49.7978592   8.6930275  13.7791526
  50.3989887   8.0207276  13.4583938  50.0174713   9.4732964  13.2700527
  44.3796253 105.6913280  36.4904571  43.6710262 105.6503773  37.1326685
  44.8246717 104.8476887  36.5707326  36.2021279  95.1548672  19.0548754
  35.8032990  94.4729805  19.5954251  35.4866362  95.7633972  18.8704789
  51.3155985 110.6382847  45.1127338  52.2039413 110.5971813  45.4668379
  51.0362244 111.5400505  45.2708530  51.6478539  98.7453365  48.0422068
  52.3572254  99.0241146  47.4631500  51.1386633  98.1279087  47.5170898
  93.8074112   4.0863347  31.0339022  94.2041779   3.6308300  30.2913928
  94.5459938   4.3096673  31.6003323  44.0515661  82.8773594  22.7960253
  44.5467043  83.5433292  23.2730532  43.4594965  82.5051594  23.4495926
  77.8578568  37.4661636  42.6569557  77.6912832  38.3825159  42.4360752
  77.4461603  37.3474574  43.5129023  48.5314035 109.7899914  45.8941603
  49.3805885 109.6988773  45.4619360  48.6409092 109.3436337  46.7338085
  68.6761856 106.1049652  52.6526690  68.6317682 105.2424622  53.0654192
  67.7619648 106.3715553  52.5559139   5.6184292  25.5585146  24.1851592
   5.2859855  24.7398329  24.5532298   5.7497364  25.3676748  23.2564116
  99.2306137   7.3076957  19.8940182  98.8017941   7.6163995  20.6921744
  99.1506577   8.0385935  19.2811334  65.2304316  95.7652473  47.9037714
  64.6457911  96.5177345  47.9942369  64.6649122  95.0049210  48.0391550
  85.8476067  68.1391239  21.8832016  85.5339813  67.3376989  22.3022366
  86.6967964  67.8990221  21.5124488  64.2843008 102.0647144  33.8826632
  64.2506218 101.3770866  34.5476937  65.0524187 101.8490219  33.3538008
   4.6534058   5.8396208  31.7779613   4.0866479   5.1378942  31.4576554
   5.5310035   5.4574507  31.7781305  12.1089387  72.5241899  87.6555729
  12.7748239  72.2964764  88.3044052  11.3679087  71.9548845  87.8629398
  74.9193525 102.4485016  56.0738087  74.9691820 102.0316410  56.9340277
  74.3736458 103.2223320  56.2139034  94.9330425   0.5214426  43.5784101
  95.5163002   0.1048052  42.9440165  95.4908085   0.6995389  44.3356466
 119.0077305  19.5804381  37.3569918 118.7938976  18.9590073  36.6610527
 118.9606762  20.4382563  36.9348955  77.5445890  15.2033937  41.2276840
  77.1972752  15.2000380  40.3357220  77.5173426  16.1230123  41.4918613
  79.0988159  99.8157120  49.8081875  79.3974257  99.5048141  50.6628275
  79.4665146 100.6961536  49.7317410 109.0883732   2.6130280  26.9357228
 108.9825439   2.7633643  25.9963441 109.3758678   1.7024064  27.0016527
  78.5013437  76.3426924  40.9322786  78.0815554  77.0627832  40.4616642
  77.7824831  75.9001827  41.3835669  70.9783602   0.2899876   2.0226711
  70.9936380   0.3169866   1.0659740  71.9005919   0.2501920   2.2759145
  52.5306654 104.5198441  11.1951649  52.5123167 104.0302467  12.0174706
  53.3151102 104.2046928  10.7462204  57.3182392  94.8246288   6.6408372
  57.2606039  94.9097729   7.5924993  56.4548302  95.0897980   6.3239175
 115.0893021   7.7516681  46.9140768 115.1191235   6.9543612  46.3852596
 114.9837589   7.4392629  47.8126812  91.5923405 109.6742916   4.4848615
  91.1995411 110.0578117   5.2689868  92.3335934 109.1651535   4.8128277
  73.3872080  18.0984557   1.2634100  73.4827232  19.0256882   1.0458145
  73.9253473  17.6437116   0.6154533  54.1537905  96.8683529  26.4577961
  54.7271252  96.3627625  27.0338964  54.2990685  96.4956665  25.5881834
 116.6712093   2.8527817  25.7145596 116.7447758   3.7416804  25.3671694
 116.1472797   2.9490265  26.5098357  66.3718653 108.4852505  42.5509071
  66.0242796 107.9188061  43.2397842  66.6766500 109.2657566  43.0136776
  77.3184681  99.0206814  53.6694288  77.8493166  98.2263279  53.6108923
  77.8065538  99.6725464  53.1663513  39.4416857 100.1883030  30.7351661
  39.4353867  99.2409611  30.8720231  39.5306134 100.5566978  31.6141486
  54.8441362 105.1445389  37.3545265  55.0151873 105.2626801  36.4201736
  54.5765638 106.0111618  37.6604819  54.2578936 109.9079514  15.7458031
  54.5984602 109.3622780  16.4546633  53.6005354 109.3603039  15.3166282
  94.9753952   6.6428089  29.2706943  95.4235649   6.2116122  29.9983239
  94.8591995   7.5468683  29.5629358  61.4359570 106.9893169  38.5169125
  62.3198891 106.7233944  38.2635736  61.5480089 107.8596401  38.8992953
  62.5822639  92.2865486  34.2311716  62.7925396  93.0098629  33.6405468
  62.4713278  91.5307999  33.6543155  71.5373087 110.5983257  16.6985202
  72.1325111 110.4038143  17.4224913  71.0368490 109.7915459  16.5765333
  53.6977577 108.9011860  26.3094878  54.1437721 109.1674042  25.5054784
  53.9954758 108.0044842  26.4628816 102.8822517  14.6057546  18.4531236
 102.1742058  14.9683678  17.9207563 103.5504627  14.3466961  17.8186011
  53.1413031  96.8453598  33.6504507  52.1875048  96.7647457  33.6487865
  53.4335709  96.2175846  34.3112898  82.0533276 101.5943909  26.6900039
  82.9804039 101.6453552  26.9227552  81.6086006 101.4087963  27.5170493
  86.9058514 105.5761814  20.6557631  86.9711876 104.7372437  21.1119962
  86.1002350 105.5080605  20.1433468  65.0055170  97.0228863   5.0661165
  65.3035402  97.3639393   5.9093809  64.0795851  96.8222713   5.2026230
  57.3119164  98.3950520  27.7448964  56.4889812  98.8173389  27.9912400
  57.0454407  97.6319313  27.2321987  64.5335722   1.4587136  32.1467733
  64.4158602   1.4128970  31.1979437  63.6690617   1.6930315  32.4843359
   7.2230887  43.8308954  94.3463230   6.8390942  43.3729267  93.5986233
   7.6591462  43.1435728  94.8499870  22.2612309 108.1466675  12.5598443
  22.9045773 107.7282810  13.1319368  22.1483588 107.5309277  11.8357229
  56.4974785  93.0333233  36.2583017  56.3672829  92.5965214  35.4165864
  56.9169664  92.3721790  36.8088889  59.9412823 106.5269756  54.9178505
  60.8546734 106.2660503  54.8001146  59.4357061 105.7750702  54.6092129
  95.6070328  15.7435930  46.6732931  96.0115337  16.6084790  46.7410088
  95.4574585  15.6218827  45.7357168  98.2244778   1.0406565  13.2700348
  98.3123398   1.9607821  13.5187948  97.4630642   0.7315025  13.7608540
  83.9872742   9.1175020  22.5606585  84.3804646   9.0753508  23.4323549
  84.1749191  10.0052893  22.2559404   6.0054684  16.5622413  45.0433922
   5.8954304  16.6808200  45.9868193   6.9079292  16.2591469  44.9437380
  87.9227829  20.2125859   5.9781367  88.0376244  21.1048913   5.6512845
  88.5643291  20.1316047   6.6838932  82.6746464   0.4372593  12.5353372
  82.0528889   1.0935976  12.2209084  82.2663689   0.0787046  13.3233607
  89.8703003 107.7977180  48.8347340  90.1848412 106.8941689  48.8049555
  90.6239033 108.3226776  48.5650301  56.2126684  98.4668732  90.3328991
  55.4100513  98.9327240  90.0983238  56.1290646  97.6149750  89.9044991
  22.0205760  37.8571510  13.7306631  21.6310906  38.4723759  13.1093490
  22.6503062  38.3821154  14.2247152   4.4095159  53.0675459  11.2336600
   4.2458817  53.8584661  11.7473698   4.7429818  53.3903980  10.3965223
  17.9319394  34.9301291  42.1834993  18.4187007  34.1116714  42.0864344
  17.0278263  34.6976280  41.9719505  13.9690554  32.3271251  22.3493123
  13.2335436  31.8137217  22.6834869  14.2355311  32.8732872  23.0888605
   5.8569074  16.6576862  35.6866622   5.7545918  17.1860647  34.8950958
   5.1530290  16.9528532  36.2643003   4.0350559  16.4878035   0.9088308
   3.1641418  16.5697622   0.5202131   4.1681156  15.5444503   1.0016245
 101.3520718   8.9572519  31.8394685 101.0325718   9.6731806  31.2902904
 101.4400101   8.2163233  31.2398648  19.7378385  56.3339472  34.5001411
  19.0677822  55.7260513  34.1875434  20.4832673  55.7756948  34.7213244
   9.4804639  63.4291983  14.3189406   9.9846315  64.0791035  14.8085046
  10.0532115  63.1779718  13.5943186   5.8872855  36.7850614  16.8222141
   5.0235534  37.1876097  16.7319131   6.3359511  37.3243165  17.4734712
 110.3366089  27.4707270  13.0802083 110.2636909  28.3426332  12.6920164
 110.8608532  27.6032805  13.8700378  26.9165277  53.1534338   8.9065021
  26.5941358  52.8637552   8.0530506  27.8633404  53.0197430   8.8628465
  18.9592993  19.9430704   9.5648921  18.4071684  19.2657387   9.9555361
  18.7132621  20.7465124  10.0233436  18.4330881  28.7554383   6.0877150
  18.8900864  28.8985467   5.2589172  17.7304327  28.1425977   5.8710712
   5.5151945  31.8483353  10.8033216   5.4939675  32.7503991  11.1227930
   6.4130616  31.5582800  10.9643626  20.7942009  30.6004357  10.9030282
  20.6050515  31.5364265  10.9691978  20.0917125  30.2523589  10.3538609
  13.2667828  11.4742601  26.9809103  13.4407866  12.1690607  27.6158953
  13.9945936  10.8622169  27.0901179   2.0394975  41.6265726  21.3621640
   2.4414770  40.7907104  21.1255741   1.9360223  42.0868349  20.5292869
  17.2290289  78.4563255   7.0085132  17.9245138  78.1196642   7.5734830
  17.4429619  78.1192923   6.1385292  21.4460540  22.5386786  34.1098237
  20.9242630  22.6027894  33.3099151  22.2985077  22.2185802  33.8147140
 106.4381981  27.9209685  13.0386341 106.7455292  27.9610682  12.1329999
 105.8297253  28.6556220  13.1178236   3.6926404  52.6601076  43.9766502
   3.1136239  52.4312496  44.7036982   4.2135790  51.8709946  43.8278008
  24.6610260  24.7896099  35.3735256  23.8096786  24.4789314  35.6816125
  24.5118499  25.7061887  35.1414466  47.5095749  45.0952244  36.3509727
  46.6811419  44.7442913  36.0242081  47.2618151  45.6333017  37.1028471
  32.0818329  44.3252707  17.5207543  31.8554425  43.4525537  17.8422248
  31.2666011  44.8228550  17.5843072   2.3758648  14.1416240   6.2040919
   2.0465977  15.0148106   5.9911108   2.6019961  14.1908860   7.1328920
  37.3655748  53.6083078   9.4888258  38.1955862  54.0847445   9.4708836
  37.5990653  52.7113390   9.2497426 109.8959827  33.7946463  34.3954253
 109.4316769  33.4036708  35.1355553 110.3197002  34.5709491  34.7615576
   6.1151445  37.9123616  33.3399105   6.9757676  38.2865691  33.1514215
   5.7765847  37.6475453  32.4846458  31.8061018  32.7946234  37.2177601
  32.5262380  32.2565269  36.8889904  31.9563746  32.8450298  38.1617451
  23.7564445  34.0520525  31.5155387  23.2656741  34.3703341  30.7578635
  24.6721148  34.2274022  31.2986732  31.3922286  37.4306035  24.0595531
  30.4639363  37.4212646  23.8262725  31.4041591  37.2614503  25.0016141
 112.4508381  35.5592394  29.1776705 111.8846512  34.8021674  29.3276978
 113.2349682  35.1943660  28.7674975 107.2793388  63.5893536  23.0246401
 107.4578381  63.9688873  23.8850594 107.7741337  62.7699900  23.0169606
 115.6959724  37.6585007  23.4397173 115.1149845  36.9337130  23.2087111
 116.5349770  37.2404933  23.6335492 111.6813183  35.9638619  14.1943860
 112.5131702  36.0995412  14.6480834 111.0681152  35.7178140  14.8869658
  48.0191088  84.7418976  89.1677952  48.9046335  84.5266438  89.4606113
  47.6804447  85.3309345  89.8420143 104.3350506  67.9974174  12.1010053
 104.6861553  68.8002825  11.7158282 104.9440861  67.3127699  11.8243039
   4.3586424  40.5866432  23.6152291   4.4235399  40.5220556  24.5680380
   4.0032730  41.4614344  23.4581161  28.5649085  40.0332880  37.5187325
  27.8454924  39.4046688  37.4594927  29.0351820  39.7847962  38.3145499
   4.5677030  61.3876724  17.8210270   3.6729160  61.0591507  17.7334964
   4.4630229  62.2911787  18.1192648  15.3996301  59.3795872  26.3780951
  16.0273647  59.2809439  27.0939517  15.0123596  60.2439308  26.5165353
  32.0770669  14.9420083  23.4338784  32.9381943  15.2178895  23.7478542
  31.8361878  15.6023407  22.7841306  33.0053878 109.7835255  82.3726654
  33.0485225 110.1978302  83.2344723  32.1356201 109.3850517  82.3417377
  10.5906153  34.4516540  27.1022010  10.9778452  33.6453962  27.4431300
   9.6700954  34.4029450  27.3600817  20.2926946  47.0813465  18.9113045
  19.3680906  46.9673204  19.1311622  20.7619858  46.8030405  19.6977794
  29.3524885  96.4268875  94.7797203  29.0732551  96.6351604  93.8881588
  30.3051615  96.3543606  94.7215462 116.7987251  42.5891018  11.6969240
 116.9382954  41.7474127  11.2629735 117.1353626  43.2366323  11.0775626
  40.3451490  50.8153725   2.6121286  39.9919033  50.4154253   3.4067935
  41.1856651  50.3777504   2.4770081  39.9477601  35.8735609  13.4207761
  39.1320491  35.7286978  13.9002144  40.3667164  35.0132871  13.3954644
   5.5645603  52.9858160  35.0421596   5.0311327  52.2136736  34.8537898
   6.1675823  53.0468750  34.3013048  12.4940002  39.8462009  27.1203494
  12.8750157  39.4449902  26.3392663  13.0627239  39.5635080  27.8364992
  43.2491016  22.6945162  28.2296658  43.1448030  23.2371783  29.0112495
  43.3599377  23.3220553  27.5154233   0.3722449  32.8441405   6.4295548
   0.0364500  32.2529292   5.7558012   0.8865239  32.2808075   7.0078325
  22.4111319  45.1591253  24.3907189  22.0584774  45.3564739  25.2584291
  23.0497551  44.4628716  24.5444107   6.2644625  32.5066662  20.6097412
   5.9730875  32.5375819  21.5209913   6.4210951  31.5777946  20.4397488
  24.8429203  37.1262884  54.9831295  25.1577067  36.5912628  55.7117462
  24.0704441  37.5726295  55.3299618  93.5702515   6.3951063  78.4268188
  92.9706478   5.6648916  78.5800838  93.4746647   6.9500279  79.2008734
  13.3048558  43.4058332  10.0954401  12.6191533  44.0583611  10.2377427
  12.9746091  42.6146317  10.5210793   9.7114325   8.6435008  11.5403938
  10.5871773   8.9973944  11.6955161   9.1330951   9.1966313  12.0655644
 103.7177753  22.2131968  27.3974133 103.4959316  21.3219023  27.1279454
 103.3967209  22.2784114  28.2968044  10.6014180  55.4935551  39.7020793
  11.5322983  55.6793118  39.8253226  10.1843798  56.3550854  39.6933031
   8.8896608  52.3573828  18.2600963   8.4117961  51.5544271  18.4677923
   8.2809049  53.0623007  18.4808695  23.6016178  23.6322546   9.1966856
  24.0402937  24.1729116   9.8535603  22.9237413  24.2012453   8.8320458
  15.4772782  45.4378510  37.6668620  14.9545968  44.6504498  37.8186512
  15.6558299  45.4292154  36.7265034   2.4362473  34.6776676   5.8072180
   1.5795946  34.2964220   5.9996492   2.5395000  34.5697832   4.8617384
  25.0183129  43.5093212  16.2680566  25.3375459  42.6209021  16.1098552
  25.7752538  43.9763737  16.6218007  32.1317840  37.4240708  10.8446217
  31.8551207  38.1624389  11.3872993  32.2302246  37.7949619   9.9677062
  14.4733250  73.7196827  25.4602003  13.6397636  73.6866856  25.9295797
  14.8129261  72.8262520  25.5120492  21.0106921  39.1446924  11.2725234
  20.5461931  39.9795675  11.2137270  21.8002605  39.2723465  10.7466733
  23.2041597  40.8743191  10.1752496  23.6879015  40.0742483  10.3804600
  23.4292150  41.0632896   9.2642754  13.6970973  24.2022967  12.6933718
  13.7451553  25.1465511  12.5440133  13.1009662  24.1073442  13.4362328
  15.5201757  43.4102917   4.8516959  15.7615411  43.7093449   5.7283604
  15.2177596  42.5112486   4.9801311   1.9476320  20.0929475  22.2573709
   1.7151308  21.0103965  22.4004197   2.8924105  20.0591087  22.4073052
  27.4249887  34.7223616  35.4056978  27.5184989  33.8694549  34.9813890
  28.0137849  35.2983212  34.9180293  26.2805271  33.9903212  17.1764696
  26.1001325  33.5607743  18.0126393  27.1671200  34.3381810  17.2722626
 112.3634529  43.6040926  13.8481069 112.3579025  43.8105679  14.7827566
 113.1295204  44.0646172  13.5056269 110.4869366  61.5084696  17.9676461
 111.0347843  61.5746307  18.7497747 111.0800934  61.7046738  17.2424519
 116.6561604  64.9960232  43.4915686 116.5948582  65.0619841  44.4445229
 115.8663845  65.4309177  43.1700850 115.5982590  32.1846795  11.3989353
 115.3879929  33.0902696  11.1710501 115.1933861  31.6631198  10.7059097
  13.9378583  55.6089211  36.9687819  14.5627737  55.5222273  36.2489223
  13.0982542  55.3489208  36.5897059  21.5781116  53.0386925  14.9634230
  20.7408166  52.6450539  15.2088130  21.3387585  53.8409662  14.4994128
  27.2554088  43.7746668  10.3447521  26.9974995  43.5892200   9.4418001
  27.3378158  42.9124451  10.7521987  13.2955539  23.7716460  18.7001109
  13.6921430  23.4054637  17.9096305  13.5285866  23.1539416  19.3931985
 109.1363239   3.4997907  95.3397465 109.4722843   4.2314473  94.8220253
 109.2715740   2.7316749  94.7848320 102.6636887  38.7600565  29.2013001
 102.8573990  37.8234124  29.2387486 103.5218620  39.1799736  29.1427493
  11.1479831  52.3552513  19.6112931  10.3823102  52.1638298  19.0696895
  10.8090520  52.3765182  20.5062270 119.0861702  28.6255598   2.8359807
 119.6932983  28.1250024   3.3810201 118.3804512  28.0104113   2.6365119
  19.5333123  21.3504052  15.2657080  20.2003407  20.6853914  15.4361773
  19.9402666  21.9407964  14.6316278 117.7257442  41.6910362  35.0026727
 117.0155716  41.3742065  34.4445419 118.5153961  41.2962532  34.6327758
   0.6566528  31.8240094  22.4879003   0.4225394  32.2871351  21.6835761
   0.1196705  31.0317588  22.4730611  14.5284784  36.6683245  21.9696474
  13.6041689  36.5396810  22.1825671  14.9981225  36.1287570  22.6056767
  22.7774763  35.7332087  38.3232856  23.6156678  35.7314086  37.8610468
  23.0087709  35.8942819  39.2380476  69.5180035  94.9720860  95.8948898
  68.6809301  95.0792122  96.3466263  69.5094204  94.0660191  95.5863380
  28.7097716  47.6199532  16.3256919  28.6732030  47.6731300  15.3706706
  29.0037274  48.4877205  16.6028154   3.2857743  56.9545221  16.3092363
   2.6227260  57.0702410  15.6286418   4.0311021  57.4743176  16.0083556
  48.4321737 103.0973434  94.8540974  48.7620592 102.2026730  94.7706127
  47.7818155 103.0484104  95.5547237  18.5996711  38.2453442  10.0143123
  17.7945125  38.0258274  10.4831028  19.2895949  38.1659436  10.6730473
  23.1710577  65.0411892  10.9009588  23.1729579  64.7428513   9.9914408
  22.2561479  64.9722004  11.1737454   4.3563879  48.7266302  50.9681654
   4.7514331  47.8562641  51.0195303   3.6881649  48.7271881  51.6535187
  14.4700706  45.4800797  26.6048145  14.1645825  44.6359110  26.2727213
  14.7882295  45.2893925  27.4872231  32.9685855  33.4239078  10.2543342
  33.6115837  32.7543330  10.4876876  32.2019267  32.9292202   9.9649405
  17.9344749  59.2035723  11.9773507  17.0018744  59.3793821  12.1021748
  18.2584786  59.9625731  11.4924026   5.4159397  54.6957254  19.5489895
   4.7342604  54.3929720  18.9490855   6.0529053  55.1351452  18.9855957
  29.4179177  48.0091381   2.7149829  29.9014640  47.8416538   3.5239106
  28.5762215  47.5720072   2.8442001  41.2271690  44.2480612   5.8650178
  41.6582966  44.1187811   5.0202417  41.1477518  43.3670378   6.2306994
   2.2431330  46.0523415  21.7333722   2.2872467  46.7932940  22.3377514
   3.0781019  45.5988359  21.8490839  17.3284388  20.0011659  13.9709294
  17.9696238  20.4842544  14.4922149  17.0187187  20.6353807  13.3243430
  40.6291485  51.1575365  25.4733562  39.9150896  50.5825377  25.7485437
  40.3479815  51.4991951  24.6245646 112.6586819  15.3957379  21.1012197
 113.3907795  15.2531981  20.5012608 111.8785095  15.2548385  20.5648279
  30.8667707  46.5267754  36.5660858  30.2496290  45.7969284  36.5142441
  30.5606031  47.0470190  37.3089457   8.1696039  33.0831456  28.1762719
   8.5604453  32.9623246  29.0416479   7.3737192  33.5886526  28.3413792
  34.5443678  54.2601728  35.7474613  33.9378810  53.5198021  35.7315564
  35.0296593  54.1899586  34.9253941   0.3839662  49.8189878  35.2804255
   0.6320311  49.0149355  34.8241401   1.1248329  50.0054216  35.8571339
  26.5791941  25.6560016  25.1193190  26.0973907  25.6164575  24.2931604
  26.3022852  24.8733473  25.5957699  23.2821298  41.9881773  25.9074545
  22.6224923  41.9607306  26.6005325  24.0938592  42.2204494  26.3584256
  22.7849698  17.5951684  27.4524307  22.0394707  16.9962251  27.4108362
  22.3935843  18.4540272  27.6118374   9.5376557  39.9288774  25.0824928
   9.7717011  40.2385616  25.9574509   9.4966310  40.7233906  24.5502329
  91.2033081  31.1227441  32.0282221  90.2738190  31.2400365  32.2244835
  91.2897110  31.3859940  31.1119986 104.2889309   7.0333660  28.6344767
 104.8876953   6.7000920  29.3027902 104.6112251   6.6575342  27.8152633
  37.3724699  24.6334267   0.3706693  36.4768505  24.5963025   0.7064041
  37.5194979  23.7699914  -0.0154537   3.3938661  42.9177904  15.7783616
   3.0624121  43.7919903  15.9836411   4.3013158  42.9281187  16.0827625
   4.0149850  46.8126965   2.8330874   3.6928394  46.2819004   3.5615855
   4.1627333  46.1845875   2.1260665 105.9945679  56.3469744  24.1939807
 106.7324162  56.6065788  24.7457266 105.2608204  56.8728399  24.5122719
  19.2670727  33.3387995  30.7497931  19.1274393  32.6865101  30.0633144
  19.4235098  34.1555786  30.2758408  10.7205760  48.7664747  20.0310254
  10.8875084  48.0522728  19.4159842   9.9257898  49.1857290  19.7012162
  37.0980787  45.3910112  12.3368621  36.8649697  45.5664253  11.4252043
  36.5110731  45.9499788  12.8459883  13.4184909  38.8980722  20.2011967
  13.2674813  39.6879196  20.7203984  13.9371443  38.3315134  20.7723737
 104.9100208   5.6924564  66.6560507 104.8167229   5.1411200  67.4329376
 104.0896511   6.1835629  66.6109514  21.9269490  56.4779043  26.9104648
  22.0489788  55.7473755  27.5168180  21.2931824  57.0476389  27.3463273
 108.1700802  22.2038221  96.2084579 108.8577843  21.6582537  95.8268166
 107.7638245  22.6370573  95.4577923  93.5294628  97.5105095  88.4562206
  94.2265606  96.9113445  88.7232304  92.7387047  96.9711494  88.4517670
  25.3926229  64.1422844  12.2457409  24.6135116  64.3675232  11.7373288
  25.7310343  64.9840260  12.5509930  15.9770679  33.4860587  21.1598420
  15.3068209  33.1946898  21.7779899  15.5324292  33.4975457  20.3122592
   7.4580997  57.8221607  19.7033346   8.2774651  57.3276520  19.6851659
   7.5480068  58.4070969  20.4556632  28.6881781  31.0686016  18.5507512
  29.4695067  30.7558250  18.0947626  28.5378265  30.4214406  19.2398143
  31.4784861  41.9105339  22.6790142  31.2237883  41.2162542  22.0712852
  32.2679710  42.2894382  22.2925186  74.0357876 103.2342339  94.1758251
  73.4412384 103.9823627  94.1206264  73.7804890 102.7843285  94.9812031
  25.8591127  46.7325449  13.9913785  25.2299428  46.6945791  13.2710063
  25.3734708  47.1326447  14.7126985  61.5166092  67.4551725  23.2938004
  61.9503021  67.7400398  22.4894404  61.7166901  66.5211821  23.3559227
  22.0620751  80.0835037  11.0620165  22.4245238  79.5528460  10.3526080
  21.1623073  80.2644348  10.7901394  43.9531898  70.4559803  22.7446127
  43.1736279  70.4966116  23.2985616  44.3059778  71.3456297  22.7619672
  25.4447365  46.7077494  10.1892650  24.8442078  46.2618542  10.7865715
  25.6189513  47.5500154  10.6093526  27.1990561  32.9801464  44.6234751
  27.1007466  32.4341750  43.8434267  26.5815878  33.6995840  44.4916534
  25.9373236  19.2069316  24.1963482  25.9348750  18.5789466  23.4739494
  26.8304920  19.5507956  24.2117596  22.3464108  49.7577524  21.8417501
  21.5641618  49.3512011  21.4688802  22.8339362  50.0792122  21.0833192
  37.0231438  57.3219156  32.3714828  37.0176339  56.5622950  31.7890930
  37.8600979  57.2642946  32.8323746  29.2040801  34.1413379  28.2221317
  30.0879693  34.0328217  28.5731268  29.1973066  33.6143517  27.4230886
  43.5195875  24.8527193  41.6411352  43.3075333  25.7694578  41.8168020
  42.9593754  24.3583918  42.2394943  12.9470992  63.2644653  13.1036735
  12.8832948  64.0552187  13.6392760  13.6843276  62.7812719  13.4768355
  43.2575846  96.6155148  82.4047661  43.3402681  96.3570023  81.4868546
  42.4284554  96.2303257  82.6883221 117.9424763  89.9073410   6.2590134
 118.3405399  89.2143726   6.7858613 117.0058346  89.8415565   6.4450234
  26.5320015  29.2469049  32.6118684  27.2293305  29.7466469  32.1873426
  26.7727590  29.2391610  33.5382628  28.2933807  51.9255877  19.1847718
  27.7650809  51.5925646  19.9101853  28.4938645  52.8290033  19.4294775
  25.2936625  63.6373091   5.2962536  24.6740317  63.1691122   4.7367138
  26.0567689  63.0613518   5.3428578  43.3594131  58.7165976  43.2465935
  43.9826012  59.3538046  43.5956478  42.7452898  59.2396688  42.7313423
  11.0522783  51.2210941  11.3442934  11.4348257  51.0354424  12.2018611
  11.6447508  50.7999802  10.7214987  98.0535412  66.0618019  12.3668265
  98.3639812  65.4028463  12.9878211  98.7307167  66.0918283  11.6909862
  23.7959790  49.2210102  14.6445358  23.9176226  49.9977589  15.1905203
  23.8913083  48.4855461  15.2497065  30.9695792  44.6646261  42.3023081
  30.9204650  43.7598133  42.6107454  30.5243111  45.1732016  42.9800415
  24.2666435  36.5278292  20.9025002  23.9056444  35.6910658  21.1953115
  23.5765076  36.9098020  20.3602481  48.8901615  83.3143520  22.7424884
  48.1418514  83.3835411  22.1496367  49.6210098  83.6883831  22.2503591
  51.1512709  72.8176689  23.1977296  50.8810854  72.9549074  24.1056919
  50.5619526  73.3718920  22.6860905  29.9357986  54.7134399   8.8937241
  30.8809161  54.8396778   8.9776689  29.6395469  55.4607964   8.3741808
  34.7244382  32.8016853  16.5421140  34.8068166  33.6564469  16.1192322
  33.8135386  32.7656674  16.8340003   1.1099830  58.2177687  14.9835837
   0.8438956  57.7938986  14.1676414   0.3157689  58.6483717  15.2998698
  16.1837494  52.0704651  49.0999508  16.5679801  51.8089294  49.9367285
  16.7991662  52.7112007  48.7436438  24.4091511  70.2494478  34.0251064
  23.8094211  69.9971390  33.3230400  23.9729977  69.9624491  34.8273754
  10.1647234  46.6631699  24.1204953  10.3013730  45.8232975  23.6821222
   9.2848569  46.5991163  24.4919276  26.7441368  51.7476749  31.8751550
  25.8563447  51.9961548  31.6176367  27.1849585  51.5449142  31.0500526
  13.2016814  56.9496632  13.2655871  12.4585807  56.6638708  12.7342141
  13.5506284  56.1423063  13.6432743  30.1373363  62.0720768  27.7415514
  30.5439520  61.2061834  27.7079558  29.3932533  62.0106697  27.1425486
  33.3647275  66.4532280  16.3218820  33.3176994  67.3830605  16.0995412
  34.0641952  66.1092043  15.7663441  33.7361860  61.6079187  25.8147645
  33.3439398  62.4807882  25.7931328  34.0069127  61.4445353  24.9113011
  17.6144755  56.4202642  18.9066136  16.6668510  56.2926054  18.9507198
  17.8243864  56.9286346  19.6900201  46.5443087  96.3225555  95.0707054
  47.2790670  96.9329453  95.0091839  45.7809305  96.8400478  94.8144150
  84.6573162  11.4056587  96.7313671  85.4827690  11.3560355  97.2134399
  84.0406895  11.7945325  97.3516750  29.5460057  43.4079742  23.8862920
  29.4955897  44.3161678  23.5881734  30.1878905  43.0003214  23.3048844
  18.7833011  52.2760868  19.6657228  18.8009536  51.3478518  19.4326985
  17.9297853  52.4028206  20.0800681   8.9005625  58.5735416  24.6060562
   8.2731164  58.3146906  25.2809930   9.4523662  57.8011227  24.4831181
  30.3659868  93.1082535   3.6757156  30.2688670  92.4069023   4.3198460
  30.3600192  93.9125633   4.1946486  32.3253942  58.3729172  21.2898612
  32.4384260  58.0883646  22.1967697  33.1548405  58.7950516  21.0661364
  14.8416734  62.3494625  45.3353786  15.6467223  62.8668213  45.3137112
  15.0183296  61.6072273  44.7573566  20.2159977  46.1255646  52.8949738
  19.9830210  46.6219521  52.1104002  19.9149442  45.2352858  52.7133131
   7.9547298  55.0621557   8.1603134   8.7622714  54.8665428   8.6355448
   7.9730707  56.0112476   8.0373859  23.3426857  51.1248207  19.6398222
  23.1819725  51.8881035  19.0850198  24.1690207  50.7645178  19.3179834
  14.1270125  29.8299623  25.9108543  13.9461327  29.4638729  26.7765856
  14.5401549  29.1132760  25.4292917  50.5560064  36.8181992  31.5932560
  49.7211456  36.3509893  31.5622950  50.9122944  36.7308354  30.7091403
   8.7846673  59.8029041  11.5980196   9.6409702  59.3920803  11.7171872
   8.1737852  59.2175007  12.0456362  93.3848858  99.1956329  92.5011826
  94.2095089  98.9206123  92.9019451  92.7158642  98.6809158  92.9525185
  33.1028509  42.2094297  25.0224090  33.5346007  43.0355167  24.8046851
  32.2875690  42.2258902  24.5211363  26.8078709  44.7826290  25.4544902
  27.6447105  45.2472353  25.4457784  26.6934013  44.4784784  24.5541453
  28.3810949  55.5243969  22.6116061  27.8040695  55.7889366  21.8951631
  27.9584360  55.8677769  23.3988047   7.1340340  38.2873297  18.7063527
   6.7590147  39.0423393  19.1597319   7.8595668  38.0085683  19.2650354
  33.6430788  56.1460543  33.2359338  34.3286157  56.0313272  32.5778246
  32.8341150  55.9076977  32.7831721  19.7249997  64.1911030   0.6618800
  19.7832692  65.1377726   0.7909487  18.8370371  63.9657593   0.9393221
  23.5501742  57.0423603  21.1580729  24.0961528  57.6543760  20.6645393
  23.7562513  56.1845112  20.7867837 114.5758343  49.3904257  39.8950195
 115.4119301  49.1641808  39.4876099 114.2594719  50.1407242  39.3918324
  26.4919090  84.9829102  21.1228156  27.4033070  85.1074505  21.3875365
  26.0354638  85.7506180  21.4670801  27.9735827  59.7720528  29.2198539
  28.2358599  60.2982140  29.9752307  28.7777758  59.6646214  28.7119532
  12.5221312  40.5007267   9.6402752  13.3793652  40.2761984   9.2783797
  12.2528386  39.7182512  10.1213598  18.1175923  91.0718822   3.4739855
  18.8796449  91.6385651   3.5938835  18.0913126  90.9018803   2.5323689
  43.3395863  46.4879274  13.1469679  44.0511703  45.9819412  12.7547312
  42.6181746  45.8639908  13.2275856 116.9053227   0.2875876  96.5034485
 116.2654549   0.7531905  95.9649181 116.4142186   0.0179553  97.2795486
 101.0450649  59.0684414  20.8558512 100.5213261  59.8066759  21.1672068
 101.4427185  58.7060976  21.6475630  33.2243347  27.3494577  17.9997599
  33.9369893  27.7166271  17.4767506  33.0845428  26.4758682  17.6343405
  41.9258785  27.0116639  24.9118662  42.0969582  27.8554940  24.4936371
  41.3295078  26.5635872  24.3120384  35.6934381  44.8753452  20.9728765
  36.1845613  45.5307102  21.4683867  36.3657188  44.3474674  20.5420470
   9.0607756  49.4043350   1.0788717   9.3992436  49.1006136   0.2365983
   9.8378259  49.6855974   1.5619005  16.3278699  62.8997755  10.8698094
  16.4343250  63.8284349  11.0759342  15.9044492  62.5295305  11.6443205
  13.6740649  57.5727320  29.5490241  14.3015790  58.0021667  30.1304412
  12.8751314  57.4994612  30.0711060  95.7001495  62.4349356  29.8632717
  95.0136471  61.7719269  29.7899508  95.6024075  62.9690981  29.0750170
  26.5113926  58.3001471   4.6081075  27.1285892  58.3949184   3.8826287
  26.7660975  57.4815655   5.0338769  24.0172791  71.4129305  30.2841854
  24.8549485  71.8738985  30.2388668  24.0013576  70.8672190  29.4979405
  54.4416761  51.8110514  14.7240257  54.7754908  52.6843309  14.5186508
  54.9901438  51.5091515  15.4480922   8.8425612  12.2875810  83.5568333
   8.6836135  11.3690996  83.7744522   9.6126401  12.5261879  84.0728569
  19.2115450  51.9299746  42.5638437  18.4947038  52.2336054  43.1207800
  19.6661985  51.2755442  43.0941677   4.9900225  49.4898939  22.0781660
   5.8712971  49.8566103  22.1496201   5.1176614  48.5439682  22.1500874
 112.4996948  42.2693872  18.8061798 111.8579388  42.5333977  19.4654775
 113.3450413  42.5114250  19.1843843   4.4531414  40.8480120  12.6018000
   4.3877035  41.7816401  12.8025174   5.1080400  40.7980490  11.9054937
  57.0794821  54.0118837  46.8061066  57.5246429  54.5652914  46.1643839
  56.6183615  53.3585358  46.2800503  11.1772585  51.6319418  29.0463519
  11.8657875  52.0025778  28.4942746  10.5773187  51.2108707  28.4307146
  46.7255068  69.7441149  27.3340702  46.4653921  70.1816177  26.5234160
  45.8989906  69.4947433  27.7474976  17.1210372  52.8093195  43.8509607
  16.8235385  53.0775166  42.9815960  16.3315666  52.4860811  44.2851114
  18.6613584  49.7669506  26.9387102  18.5082197  48.9910173  27.4778819
  17.8366792  50.2514219  26.9764781  58.9019060 112.0446968  89.9353504
  59.1986752 111.1978626  89.6021271  58.7472391 112.5701237  89.1503525
  24.9023557  73.6593866  16.1577249  25.3788185  74.4811773  16.0399497
  25.5616069  73.0442190  16.4789546   5.6246209  48.0218458   7.3068416
   5.7776910  48.0824614   6.3639069   4.6726677  47.9693747   7.3920697
  31.6337252  64.9823904  17.9828346  32.1743250  65.4874420  17.3754573
  31.5327144  65.5528927  18.7447774 118.6942196  43.1288052  13.3444476
 118.8456440  42.3792601  13.9201915 117.9866505  42.8465462  12.7648783
  35.2638412  51.6759634  20.9318900  35.3362894  51.2938643  20.0572586
  34.7516227  52.4742222  20.8028483  21.0504937  60.8177853   7.2219300
  21.8448329  60.3614950   6.9443399  20.3391600  60.2170563   6.9997692
  26.3409209  49.7725296  41.0084057  26.5995026  49.6713161  40.0923681
  25.6693745  50.4544687  40.9937716  24.5588040  53.7607002  22.2765803
  24.2115188  54.0272474  23.1278014  23.8591933  53.9677620  21.6569805
  16.1513627  85.5411053   5.5057549  16.4284956  84.6749973   5.2069414
  16.7041552  86.1511707   5.0174171  12.1627641  43.1497812  37.4851251
  12.1277010  43.3769846  36.5559435  13.0851626  42.9534578  37.6490450
  84.6501255   0.6480209  89.9167442  83.8432789   0.1629345  89.7437668
  84.6655750   1.3332199  89.2485428   9.9667674  11.3643754  93.9396954
   9.0403783  11.1538422  94.0567875  10.4001868  10.5130124  93.8800335
  55.4914284  25.4853678   8.7519652  55.3497410  25.9577537   7.9315943
  54.6541357  25.0566959   8.9291954  45.2192450  31.7399335  30.3380871
  45.7152414  30.9325027  30.4732656  44.7056198  31.8424916  31.1392784
  31.9341731  49.3310738   8.9533812  31.1716032  48.9195061   8.5467696
  31.6467190  49.5434332   9.8413593   3.4234151  39.2423320  26.1096168
   3.8649106  39.3562746  26.9512391   3.8079956  38.4460092  25.7432842
  40.2182579  98.0495834  88.8711071  40.0758076  98.9565468  88.6002731
  39.3376732  97.6960182  88.9967823  24.4600224  26.7985916  19.2021263
  23.7252545  27.3699784  19.4254315  24.4963741  26.8178439  18.2458103
  21.9379854  59.5823956  21.2573695  22.5037909  60.3278732  21.0564709
  22.4456573  58.8169432  20.9879541  22.2678804  46.2267494  30.0818539
  22.6671839  47.0832872  29.9297595  21.5373111  46.4048386  30.6741238
  30.4294515  52.0082617  26.5239024  30.9352779  51.8493080  25.7269692
  30.2331948  51.1342716  26.8613338 111.0603142  72.0004654  11.2804258
 111.8832302  72.0265818  11.7686534 111.2308121  72.5212622  10.4956126
 112.0154858  10.1431108  91.2715912 111.5611267   9.3093467  91.1506462
 112.9435158   9.9094534  91.2915993  19.8495710  68.0596924  36.1158061
  18.9966667  68.1667519  36.5369034  20.0690937  67.1377754  36.2503934
  47.2714758  76.9948816  27.1581769  48.2085752  77.1737671  27.2361565
  46.9674921  76.9117212  28.0620074  12.7671051  82.6232815  30.8062959
  13.4271514  83.2167435  30.4479980  13.1140292  81.7477417  30.6350756
  28.5483384  88.8398075   7.9127091  27.6138306  89.0441513   7.8784871
  28.9463377  89.6069336   8.3242232  38.4269786  62.3917198  37.8141212
  38.9733505  61.7212582  38.2242250  37.7240491  61.9006348  37.3887277
  15.6735814  76.5819740  54.6450138  15.7840180  76.7908287  55.5726004
  16.5326321  76.2640810  54.3671560  21.6439128  72.4811268  18.2591343
  22.1313787  72.4608850  17.4356055  20.9599686  73.1354475  18.1165993
 115.5744457  42.5875807  27.7105880 115.5129051  42.1295547  28.5488343
 116.2512016  43.2502365  27.8488469   1.6189106  49.8351908  49.4998169
   2.2860157  49.2809200  49.9047709   1.3997073  49.3878317  48.6824751
  31.0378456  71.3866997   9.2974591  31.6658926  72.0964193   9.4319409
  31.5798807  70.6158209   9.1295928  31.4797831  48.2013655  25.9734416
  31.6135097  48.0887556  25.0323415  32.1965957  48.7719584  26.2506318
  24.9751115  17.3368561  29.3373680  24.6077847  17.9444361  29.9793553
  24.2233849  17.0568919  28.8151026  48.6087799  42.1589708  19.8472691
  48.6940575  42.4273586  18.9324319  47.6664448  42.1744919  20.0145864
  17.6659465  46.7542982  19.3555784  16.7185283  46.7568684  19.2191076
  17.7716541  46.8379736  20.3032351   3.8322747  56.1949253  31.3714695
   3.4576261  56.3240290  30.5001473   3.6828044  55.2687883  31.5616298
  11.7723298  34.3076396  33.2634592  10.8469629  34.1525292  33.4528494
  11.9282222  33.8481832  32.4383354   2.5528413  50.9387207  36.5137720
   3.2547954  50.5686951  37.0490980   2.3375349  51.7678261  36.9409227
  28.6232781  52.6577330  33.5647750  28.1922698  53.4483194  33.8894820
  27.9764223  52.2522449  32.9873729  23.7840271  62.3577166   3.3179694
  22.9468632  62.5587797   2.8996843  23.9507532  61.4425230   3.0924642
  25.5655003  42.3137474  37.4250603  24.8903775  41.9234514  37.9801345
  25.6403136  41.7149925  36.6820097  39.0446353  59.4668674   9.3667698
  39.0983415  58.5478735   9.6290600  38.8399410  59.4376326   8.4321696
  54.3882704  37.0609975  21.9666910  54.9782515  36.4718843  22.4369049
  53.5409975  36.9448256  22.3966503  11.2190723  27.5388813  22.6568842
  11.8350399  26.8821263  22.9816747  11.3334608  27.5253129  21.7066407
  21.2958384  31.9609690  14.5270205  22.1776152  32.1534991  14.8458159
  21.2968874  31.0157943  14.3757832  16.6891253  68.3469868  50.1656580
  16.4254010  68.3278179  51.0856104  15.8667099  68.4261274  49.6823359
  26.7919350  66.7193413  28.8708901  25.9727454  67.0206356  28.4779692
  26.8793297  67.2385454  29.6702790  10.7859969  23.9074230  17.2007430
  10.1585066  24.5739865  17.4803460  11.4402390  23.8864136  17.8991389
  15.0131083  55.2989006  32.1594048  15.1854968  54.4910574  32.6430416
  14.9065483  55.9659576  32.8375721  44.7570753  19.3876576   4.9444684
  45.5160093  19.8306847   5.3239113  44.0025711  19.8488617   5.3108728
  36.3162351  32.7082324  33.8379383  35.7670879  32.8477955  34.6094251
  36.5721035  33.5888577  33.5635948  15.5357635  51.6844368  17.7005637
  14.6337759  51.9689274  17.5532019  15.7524323  52.0167542  18.5716856
   3.8150042  77.5436926  23.6687660   3.6188963  76.9576025  24.3997097
   4.3204764  78.2554197  24.0614128  47.7284908  76.4261866  19.9829710
  48.3486938  75.9215736  19.4567144  47.2417784  76.9478369  19.3448246
  23.3574772  81.5941811  36.6931009  23.2940102  82.5481510  36.7393064
  23.7292242  81.4204788  35.8283091  30.7280612  47.0276737  29.0820026
  29.8277807  46.7585611  28.8995051  31.1980104  46.2070274  29.2300606
 104.9477291  47.9049301  25.8935189 105.8516693  48.0919838  26.1467719
 104.8059464  48.4304667  25.1061559  26.6634798  49.8190022  38.4649706
  26.2458158  49.0975571  37.9945374  26.6406631  50.5515051  37.8492165
 115.1698971  57.6549911  23.0779862 114.3981552  57.8058100  23.6237979
 115.6402683  58.4885168  23.0927038  33.4062505  33.8525391  33.6902928
  34.0835476  34.2906499  33.1749678  33.8144231  33.7008882  34.5427179
  28.6648512  42.6201916  30.8182883  28.8305736  42.9487467  29.9346495
  28.2158566  43.3402061  31.2612486  42.4495792  30.0500798  19.2492390
  42.4287510  30.9937906  19.0904701  43.2744598  29.7598529  18.8599145
  27.4227452  44.0059662  13.9906871  28.1620312  44.5688772  14.2205119
  26.6681790  44.4177771  14.4117236  15.4214430  50.5297279  11.6689622
  15.8731961  49.9101639  12.2419286  14.7995055  50.9770155  12.2428608
  21.9198251  43.3849239  50.9878016  22.7755976  43.8118458  50.9474897
  21.3978076  43.8313723  50.3211546   2.5859824   6.6787112  93.3725548
   1.9997205   7.3465538  93.7282372   2.3078044   6.5759456  92.4624443
  56.5199327  36.1441851  23.9918137  56.1948824  35.6365800  24.7353935
  57.3955059  35.7941437  23.8272858  30.6916261  40.3846788  24.9904847
  30.7271934  40.4940271  24.0402174  30.5750418  39.4433451  25.1190591
  30.1141620  46.1303663  12.6127207  30.2474761  45.3982019  13.2147074
  30.9963179  46.3722754  12.3307395  44.4840670  47.5728464  27.9399276
  45.1503992  47.9501867  28.5142517  44.9734402  47.2576380  27.1800661
  15.2857614  32.2643590  25.9561372  15.0504363  32.5427985  26.8411946
  14.8725784  31.4066291  25.8570862  39.2849827  25.6926847  33.8455415
  39.3560958  24.9644113  34.4626284  38.3577275  25.7166839  33.6092043
  38.5285854  49.1329861  13.5077786  38.5524607  49.7866154  12.8089023
  38.9684296  48.3684969  13.1358516  23.5837507  32.1193504  10.7851338
  22.6310849  32.0785260  10.8687723  23.7363100  32.7688622  10.0987720
  61.8799591  43.7472534  25.2172351  62.2247314  44.2717505  25.9399128
  61.1510372  44.2634678  24.8730946  23.8336086  76.4251709  10.3493309
  23.9167666  76.8241882  11.2154150  23.9308262  75.4862165  10.5078781
  44.9718237  43.5249853   7.2025633  45.9016132  43.3048344   7.1454322
  44.7652149  43.9142656   6.3528544  31.6360593  55.5390882  13.1712532
  31.9543576  56.4343262  13.0552220  31.0352302  55.4017019  12.4388874
  12.8911078  67.4616146  20.2426314  13.5760748  67.8451300  19.6949375
  12.4369478  66.8489218  19.6642053  53.7215757  46.0341406  38.5765409
  52.8161764  46.2315035  38.3366752  54.1711187  46.8779135  38.5297370
  25.8894444  44.8240280  35.7654977  26.1580372  44.3700647  34.9667430
  25.7204485  44.1224909  36.3944006  32.2791266  49.6704006  17.8783405
  32.3026299  49.0067959  17.1889174  32.0861125  50.4871941  17.4180937
  29.9463034  27.6160145  19.0921724  30.5379224  26.9203019  19.3788826
  29.6082473  27.3110771  18.2501733   9.7303325  67.6048517   4.2292005
   8.8369668  67.9140615   4.3792647  10.2366674  67.9755163   4.9520183
  17.9218996  49.7141314  19.1582894  17.7775443  48.7715960  19.0744841
  17.6418018  49.9209881  20.0499105   9.3205994  57.7755594   1.4068179
   8.8997567  57.7020025   2.2633885   8.6125994  58.0245495   0.8127018
  32.4740934  95.5026531  87.5185394  31.9225502  96.2554932  87.7312851
  32.3560476  95.3777504  86.5768909   1.2091051  27.2350144   4.6605730
   1.7084345  27.4348402   5.4523885   1.7766392  26.6477203   4.1613519
  75.9653378  81.9161224  85.3462791  75.2287865  82.2474766  84.8325443
  76.1128759  82.5865173  86.0134029  22.4367213  39.6532297  17.0189810
  21.5714073  39.3106198  17.2427750  22.2674632  40.5374241  16.6937399
  56.7366505  89.4225788  95.1950550  56.1652994  90.1648521  94.9980354
  57.2520876  89.2989159  94.3980217  23.9021468  47.3335266  23.7599206
  23.4428668  48.1676531  23.8575029  23.2212615  46.6704512  23.8737750
  25.2494717  47.5711012  37.7785969  24.4434762  47.3623610  37.3063302
  25.5504012  46.7299271  38.1222510  25.0575113  27.4547648  13.6679339
  24.3594384  27.6112866  13.0319870  25.4800081  28.3070469  13.7744331
  98.6519051  52.9947853  31.3035870  98.1801510  53.1247520  32.1262598
  99.2264557  52.2480345  31.4723539  18.6486280  86.2629128   4.4470116
  18.5771120  87.1677017   4.7510901  19.4302702  85.9245205   4.8837727
 103.9730453  76.3958120  63.0755615 104.8557091  76.6664219  62.8227758
 103.5996723  77.1662903  63.5035753  52.0526361  39.3237925  19.4685602
  52.0684862  38.4126711  19.7615433  52.1167612  39.2699122  18.5150313
  41.2414122  70.4241943  10.2704012  41.7012167  69.9015141   9.6134275
  41.0707426  71.2595463   9.8353225  14.7734034   6.9554669  95.2882099
  14.2228007   7.7001506  95.5301094  14.1747427   6.3445282  94.8585701
   2.1579386  33.3422279   3.3800003   2.3389255  34.1945577   2.9837549
   3.0123991  32.9132819   3.4261915  41.0728264  49.8155642  14.9058998
  41.5731668  50.0241137  14.1169763  40.1665592  49.7510147  14.6046710
  20.3809595  35.3969073  29.1430545  21.3221598  35.2459073  29.0560293
  20.2725077  36.3336968  28.9790559  31.9483185  62.2570419  31.6705537
  32.6434231  62.3306751  31.0166121  32.4037147  62.0204592  32.4785590
  23.1312895  62.2305679  33.2207441  22.5226259  62.7395964  32.6853466
  23.9022303  62.1173000  32.6648211  12.9075217  84.7240543  25.7022834
  13.1079769  84.3446159  26.5579009  12.3272526  84.0858650  25.2872682
  42.7633619  64.1839552  38.2730150  43.3106089  63.4030199  38.1899834
  42.6199484  64.4728518  37.3717928  20.6747389  68.2129622   5.6525487
  21.0435152  67.6552105   4.9676025  20.5668449  69.0669155   5.2337986
  22.2087002  54.9592972  39.0228462  22.7369523  54.8491096  39.8134398
  22.4570227  55.8205462  38.6869740  34.6988177  80.2723885  50.5761051
  35.2156806  81.0776997  50.5995131  34.9076676  79.8297501  51.3987112
   5.2572340  34.5806932  11.3942492   5.8265835  35.0341558  12.0158970
   4.3953741  34.5863819  11.8106592  13.0239427  26.2238193  17.6217806
  12.9043198  26.2155509  16.6721213  12.9663491  25.3034759  17.8784609
  27.8398275  57.9091835  26.2790418  27.7851748  57.0145416  25.9430909
  27.4455190  57.8624725  27.1500015  26.5879226  59.6533823  16.9425976
  26.0440040  59.2259836  16.2809980  27.4866128  59.4743967  16.6659141
   8.8882405  53.6685944  24.0026402   9.2807502  53.1875801  23.2740831
   8.0322200  53.9438057  23.6744356  24.8506236  72.5590944  43.2886457
  23.9368820  72.3049831  43.4180260  25.0712609  73.0658293  44.0701628
  30.5757308  74.9375772  40.6160641  31.4857244  74.7525835  40.8482695
  30.2670741  75.5247498  41.3061285  39.6580791  80.9725285   7.3275882
  39.9759007  80.2582550   6.7752892  40.2381086  80.9628582   8.0889708
  32.6185799  74.0921831  32.0904040  32.1274185  74.8906708  32.2838092
  33.5301995  74.3223476  32.2698641  37.8470898  70.8073187  56.1208057
  38.0009890  71.2741613  55.2994633  36.9646239  71.0691166  56.3833857
  33.6365104  71.6685200  21.7987156  33.9461017  71.1280870  21.0718608
  33.8346267  71.1539173  22.5811291  40.2642965  74.1182709   3.4710279
  41.0890007  74.4694567   3.1352255  39.5953512  74.7143841   3.1342912
   4.6467644  68.4204006  34.8399186   5.0497079  67.8873444  35.5252767
   5.3849304  68.7470913  34.3255091  15.1675200  72.2094727  22.8692603
  16.0049272  72.6713181  22.8282452  14.5090866  72.9007912  22.8001380
  65.9674692  99.4847107  92.0057869  65.2861214  99.6592045  91.3565159
  65.5433178  98.9205742  92.6523781  36.6078877  63.8823986  42.0592308
  36.0220385  64.5981646  42.3055935  37.1115804  64.2280149  41.3222980
  29.5038533  82.1098614   3.8443470  29.3857384  83.0471420   3.9985734
  29.4089961  81.7109776   4.7092912  56.8239975  86.0828590  14.2254770
  56.3888645  85.7838821  13.4270382  56.4511251  86.9486523  14.3916249
 117.8594208  57.8542709  10.6539381 116.9894028  57.7082253  11.0253882
 117.6963329  58.0475521   9.7307491  14.0551531  52.9943323  33.5633945
  13.3127117  52.3913574  33.6012912  13.6766434  53.8525915  33.7540483
  10.5570018  75.2120829  45.5283308  11.3650799  74.8950624  45.1249170
  10.8395219  75.6037140  46.3547897  26.6617298  62.8671980  14.1933644
  26.2402034  63.2963943  13.4488261  27.3630500  62.3453569  13.8034105
  25.0184035  71.7631006  38.3069754  24.4775200  72.3536301  37.7826190
  24.7986317  70.8885288  37.9859495   7.4157667  46.9286108   8.8390923
   6.7183483  47.2387791   8.2614797   7.7324271  46.1267948   8.4231025
  31.2287331  64.9006224  31.9720936  31.9758296  64.8164606  31.3796449
  31.0177135  64.0007114  32.2208047   3.5217237  64.2753649  18.0101991
   2.6240367  64.2771149  18.3424437   3.4371376  64.5260954  17.0903015
  48.6183119  62.3145866  24.2949581  48.1124449  62.7969980  24.9488759
  49.4616175  62.1511793  24.7172880  27.5446415  77.1884012  32.2573495
  27.0468807  76.7129135  32.9224658  26.9450998  77.2591209  31.5145302
  38.5487366  73.1180048  54.5872545  38.4452891  73.4857464  55.4649210
  39.4834399  72.9238224  54.5175695  30.7244110  58.0515623  33.2802534
  30.2929139  58.5048676  34.0045166  30.8949280  57.1715736  33.6160684
 100.5462074  19.9665833  91.2966728 100.1103687  19.5866847  92.0595264
  99.9347591  19.8216593  90.5746174  15.2691448  71.7243099  16.6357911
  14.4981790  71.1987686  16.4221287  15.1766860  71.9168425  17.5688577
  18.2714307  47.9266119  15.2993786  18.7495911  48.7028122  15.5911064
  18.9462113  47.2565126  15.1904428  68.0149460  58.7416601  38.8058782
  68.3044338  57.9627609  39.2810082  67.9541540  59.4222832  39.4761682
  30.7611799  57.4562168  36.8417430  30.4312468  56.5707397  36.9943905
  31.6726899  57.3300600  36.5781784  48.8606119  56.8508577  29.2533898
  49.6112776  57.4180794  29.0773487  48.3966017  56.8013716  28.4176373
  32.7548599  62.4478722  17.8321779  32.0620012  62.0291376  18.3429015
  32.6469588  63.3833456  18.0038822  51.8776512  72.4211407  20.2457714
  51.5439081  71.5516663  20.0247288  52.1555185  72.3460817  21.1586714
  28.7201571  40.0135279  15.1349473  29.5704198  39.8589206  14.7233880
  28.5828090  39.2496705  15.6952024  14.2999685  70.1628208  24.7162127
  14.9664044  70.1932096  25.4026318  14.5372725  70.8733702  24.1203642
  28.1849861  81.6325283  16.0089314  28.8411236  81.5025520  15.3242254
  28.2907891  82.5468826  16.2715745 117.1526337  50.1197863   5.9851027
 117.1537209  50.1491880   5.0283551 116.2265587  50.0707579   6.2221771
  38.4451914  74.2855406  17.7242923  39.3072486  74.6944904  17.8007519
  37.8733158  74.8290968  18.2662642  19.8330235  75.4108524  30.8455729
  20.1753688  76.2891388  30.6793046  18.8866830  75.4968834  30.7303762
  35.2366042  67.3658371  27.4700022  34.4503832  67.4648237  28.0069256
  35.6254554  66.5421677  27.7642608  41.2123919  68.1486702  41.6951656
  42.0790052  68.0509567  41.3006210  41.0550785  69.0928507  41.6968584
  48.4284735  75.8396864  14.3046165  49.2664671  75.8862114  14.7648740
  47.8905106  75.2605915  14.8445046  24.3949628  66.7718554  41.6919994
  24.5889211  65.9518099  42.1460247  25.2054191  67.2773886  41.7539024
  44.9755383  48.8278341  19.0849888  44.6523046  48.9909124  18.1988990
  44.2846107  49.1616392  19.6571982  68.0629976 111.2043461  96.8472685
  67.2697957 111.7313608  96.9438048  68.7245138 111.6714939  97.3575637
  14.9278784  69.8546839  20.9625983  15.7802463  69.4191647  20.9675407
  15.0065994  70.5426598  21.6234469  19.6624243  85.5258942  25.9347653
  19.3825042  86.3042355  25.4530382  19.3220437  85.6566811  26.8197870
  34.3813682  70.3446674   8.5367250  33.5581899  70.1600218   8.0844927
  34.7018862  69.4854593   8.8110644  24.9204826  47.4823475  32.7309799
  25.7648540  47.6225281  33.1594849  24.9518919  46.5738201  32.4312711
 118.5749722  47.9481363  29.1588187 118.6935234  48.5360432  29.9048376
 118.1704617  47.1653080  29.5326972  47.9619265  54.2094898  23.1355667
  47.3953962  54.8713207  22.7390170  47.5881958  53.3744621  22.8539991
  50.5686903  88.8557148  23.7557149  49.6956348  89.2244720  23.8899946
  50.9473610  88.8108253  24.6336794  43.3747435  68.5863638  34.6790314
  43.8244343  67.8769112  34.2200279  43.3952093  69.3200254  34.0645766
  26.3457203  83.8092136  32.4407172  26.6672111  83.4708023  33.2763934
  26.3766050  83.0568123  31.8498087  29.8933911  51.1518288  35.7616067
  29.3039560  51.4981222  36.4315915  29.4881201  51.4047575  34.9321413
  25.9529996  77.1375895   6.6153032  25.7306814  77.4535561   5.7395333
  26.7001677  76.5553999   6.4773667  34.7290826  88.6760521  24.7078776
  34.6707869  87.9662037  25.3473735  35.1912880  89.3762207  25.1687050
  23.5991621   6.0307384  86.6816425  23.7311578   6.4138073  85.8144283
  22.9036975   6.5589660  87.0734882  36.5839338  49.1982126  30.2641940
  36.1438298  49.2929888  29.4194698  36.0743713  48.5326767  30.7264090
  36.5576935  40.8176851  19.6349585  37.2418594  41.4647245  19.8066819
  36.7289019  40.5194044  18.7416792  94.0436363 105.8762836  94.5416641
  94.9309540 105.7117176  94.2225552  93.7987041 105.0696278  94.9950409
  24.0531111  90.6164742  20.2848506  24.6056581  91.2170887  19.7846711
  24.1547227  90.8983517  21.1939430  39.5668435  72.0661211  15.6779456
  39.2002392  71.5254116  14.9783278  39.7079587  71.4568424  16.4025831
  63.3999920  73.1515598  35.5941176  64.1492987  72.8036737  35.1106405
  62.9816961  73.7583971  34.9833751 100.9207821   3.8175082  92.6924515
 100.1074696   3.7378505  92.1940422 101.5419865   4.2062259  92.0766258
  24.8564625  79.2734909   9.2110896  25.5434370  78.7715340   8.7725312
  24.0543246  78.7787628   9.0435970  51.2842894  71.3160563  26.6309023
  52.2110605  71.5554714  26.6306996  51.2756252  70.3917837  26.3821554
   4.3344206  42.5418472  19.1215718   4.6448293  43.4302711  18.9466941
   3.4806949  42.4973249  18.6909878  30.7219625  68.8947248  21.1073112
  31.1796308  69.1399956  21.9114351  31.2659240  68.2077122  20.7221556
 114.2612076   9.9399096  82.3309708 115.0373173   9.4939029  82.6700497
 113.5556221   9.3005341  82.4288273  24.0697742  47.2527361  16.5079665
  24.7538400  47.4448061  17.1493661  23.6802864  46.4327288  16.8114781
  19.6658492  74.6698093  23.3263087  20.2084351  75.4229641  23.0926657
  20.2807474  73.9379406  23.3763146  24.1154814  86.8083858  21.5267348
  24.0260124  86.3988972  20.6661892  23.2655120  87.2186661  21.6862845
  52.6310015  48.1705189  34.0716410  53.5009241  48.0465364  33.6920428
  52.0865488  48.4513378  33.3361530  21.2727952  51.8850327   4.8035285
  21.7978883  52.5692368   4.3883502  20.4177022  52.2915506   4.9441972
 113.9937878  51.8531656  93.8261890 113.1558514  52.0415449  94.2488003
 114.0658092  52.5100470  93.1336880  20.2051854  31.1592364   7.3022044
  19.8819697  30.6862283   8.0690324  20.3849173  30.4752946   6.6571051
  22.6681280  62.0091391   9.4101024  22.5737381  61.2787628  10.0215554
  22.0224261  61.8334913   8.7256700  41.4496851  54.7075510  33.9064407
  41.2123823  53.8481665  34.2548370  42.3126888  54.8872614  34.2794919
  30.0603080  59.7445869  35.7625103  30.3191471  58.9072275  36.1472964
  30.6176138  60.3902769  36.1969376  64.6791220  65.0834322   3.4338382
  65.5217695  65.4384136   3.7169686  64.5514250  65.4414082   2.5553292
  52.8359318  75.6992483   9.7240120  53.1059694  76.1895514  10.5004883
  53.6203909  75.6667137   9.1764808  41.2320328  75.4929686  46.3191032
  41.2077856  74.7276068  45.7447672  40.5395031  75.3332996  46.9603014
  44.8174810  72.4199295  28.6440253  44.0984154  72.7774477  29.1649389
  45.5639696  72.9834366  28.8476086  43.8976192  56.2066793  28.3805346
  43.2432127  55.9768009  27.7208853  44.7375202  56.0355043  27.9545069
  35.8785486  76.0142136  22.3361230  36.6835570  75.5008078  22.2682619
  35.1798463  75.3608084  22.3694205  38.3327341  66.2533426  48.4286547
  38.8619709  67.0484447  48.4914875  37.5828266  66.5066862  47.8904295
  26.4790249  61.6952038  24.0944672  26.5673041  62.0491409  23.2095003
  26.0309124  60.8579969  23.9739919  30.8067846  70.6385326   1.4702013
  30.5327892  71.5494823   1.5766436  30.0415087  70.1261950   1.7311491
  40.1538610  54.2227602   5.9762752  39.9761033  53.7804890   5.1461971
  40.1736593  55.1532173   5.7524717   3.4253684  38.3284521  17.0030308
   3.0560774  38.9658117  16.3917792   3.1656167  38.6472154  17.8674090
  28.3158875  71.5488291   8.6340904  29.2655659  71.4787912   8.7312263
  28.0542731  72.1905613   9.2943692  38.9301872  57.5051546  47.5351000
  38.2120991  58.1349611  47.4724293  38.7046432  56.8212318  46.9045353
  55.4685354  76.6870880  23.0476832  55.4423666  76.5813494  22.0967031
  55.9016943  75.8946562  23.3649516  42.1964407  67.6512432  17.8083324
  42.9416466  67.1993351  18.2041645  42.4583387  68.5716677  17.7869046
  21.5260577  76.8528509  33.1993508  21.3475347  75.9130239  33.2323122
  22.3824525  76.9193029  32.7769709  32.5314999  74.7732878   5.2335894
  33.3945775  74.3958569   5.0636649  32.5910473  75.1152754   6.1256254
  62.5966072  85.9230137  35.7048774  63.5339928  85.9465694  35.8971953
  62.2199440  85.4002380  36.4127374  20.2076840  78.8610363  32.1438527
  20.5550480  78.1721830  32.7104664  19.8279572  79.4991827  32.7478456
  27.7927256  69.7101784  13.0004799  27.1488953  69.4948196  12.3256958
  28.5259295  69.1191244  12.8292990  20.6093526  82.9560661  26.8354487
  20.8898306  83.8708878  26.8614364  19.8820698  82.9461193  26.2132025
  56.3069773  69.9742842  27.4437332  56.2743092  69.6123981  28.3292866
  56.7180300  70.8320999  27.5505567  41.7766333  64.8193264  32.8589034
  42.5423813  64.6876907  32.2998524  41.1378717  65.2518511  32.2922182
  44.9496174  84.7358322  41.6249084  45.8187103  85.1277447  41.5393353
  44.9972534  83.9321613  41.1071491  37.7620435  86.1877823  38.4227610
  37.8675532  85.2798843  38.1384969  36.8504357  86.3978291  38.2200670
  44.6356344  71.7804575  38.8580799  44.7237587  72.7086020  39.0749073
  44.4443130  71.7707014  37.9202461  23.3306623  67.5959921   9.0916634
  23.1272769  66.7218924   9.4245553  24.2855644  67.6115417   9.0272188
  53.3733654  64.9124861  29.3346930  54.3109751  64.8749971  29.5236683
  52.9946899  65.3628922  30.0896573  54.0991020  88.9453888  29.6468091
  54.0303707  89.0598297  30.5946565  53.9982414  88.0032063  29.5113778
  45.9422541  73.3739138  21.3806272  45.4312277  73.0382395  22.1171093
  46.3357353  74.1817236  21.7105508  36.9325042  68.9810419  48.5732746
  37.8498864  68.7375736  48.6972332  36.6098070  69.1567898  49.4571352
  45.8370304  71.0385561  25.2433300  45.3777552  71.8673849  25.3787518
  46.0005713  71.0065794  24.3007469  48.1536055  87.4200726  33.0644274
  48.7671185  86.9255543  33.6078358  48.6639833  88.1631088  32.7424955
  41.9852209  81.7588329  42.9958391  41.8433666  81.7482471  43.9424133
  41.5244770  82.5414181  42.6933432  38.7180018  39.3369699   0.5277792
  38.2769799  38.4964848   0.4040188  38.0067778  39.9627542   0.6648436
  53.7364817  76.6650629  28.5578966  54.5265436  76.3750792  28.1018925
  53.5573053  75.9706259  29.1918349 113.6628914  88.5929680  10.1078033
 113.7323189  89.5061970  10.3860521 112.7600193  88.3486080  10.3111255
  44.3833399  73.4407902  23.6018062  44.1866589  73.6730099  24.5093417
  43.9470339  74.1157627  23.0819201   5.9255099  63.2290602  23.8069820
   5.9903371  62.3393536  24.1540384   6.4709496  63.2196712  23.0204463
  50.4449511  82.6605988  26.1914301  49.8486185  82.6292992  26.9395232
  50.3464365  81.8064785  25.7707071  30.4818797  73.2445383  28.8707471
  30.2380133  72.5257778  28.2875323  30.7429218  72.8142691  29.6849680
  67.3188353  71.4541245  36.5663695  67.8325939  70.9490299  35.9361577
  67.1090031  72.2674084  36.1072731  46.9826651  49.2777872  39.2065573
  47.7945566  49.6563768  39.5438027  46.3868666  49.2825699  39.9557161
   4.5157310  83.5542202  36.1413193   4.5420671  83.3937931  37.0846105
   5.4243171  83.4568024  35.8563399  34.8860073  79.8169041  32.0478463
  34.4955707  78.9531660  31.9146252  35.6434679  79.8301792  31.4627743
  17.7870321  64.4687605  23.7605095  18.0908144  64.7551870  22.8991723
  18.5839534  64.2031240  24.2194057  36.9744372  65.3964567  27.7706766
  37.9303455  65.3580666  27.7390647  36.6879869  64.5921803  27.3378754
  30.0436449  55.5876160  31.3531566  29.8137522  54.6832895  31.1396718
  30.2294469  55.5722570  32.2920251  24.7414994  52.2100735   4.2462838
  24.1988707  51.4529705   4.4667032  24.1146874  52.9156780   4.0867051
  75.3756142  61.0493040  24.0244842  75.4248285  60.3848267  24.7117114
  74.5944548  60.8171558  23.5223627  13.9394486  63.8626575  15.9311008
  14.7947299  63.9731741  15.5157566  13.3564079  64.4376898  15.4354846
  47.4199104  79.3345785  10.6895435  46.7545938  79.9631310  10.9697390
  48.2349682  79.6636009  11.0685742  41.0496807  46.0738897  33.0507660
  41.5636253  46.7467880  32.6043415  41.6276503  45.7501125  33.7416697
  50.3567934  55.4793930  41.9876766  49.5336676  55.4670715  41.4992619
  50.1097012  55.7681227  42.8662062  41.3843346  44.4200993  13.1693232
  40.4280043  44.4049788  13.1314087  41.6179657  43.6211109  13.6418331
 118.2422924  29.8753595  85.0787163 118.8478851  30.3033113  84.4734478
 118.0547237  30.5410337  85.7404804  24.6328044  81.2098026  24.5959115
  25.3198028  80.9013844  25.1867938  23.9794230  80.5103207  24.6024704
   0.3330087  11.8760121  83.2584953   0.7284060  12.4416709  82.5952339
   0.0916164  11.0813785  82.7825546  35.1948166  90.3177166  21.2525010
  34.8685837  90.1536369  20.3676963  35.1927614  89.4573021  21.6719270
  13.8290989  50.2939939  25.4346251  13.0519843  50.8430672  25.3304815
  13.5859859  49.4572258  25.0384617  54.0583134  39.7448444  22.5456429
  54.0842438  38.7896514  22.6019382  54.6928072  40.0405598  23.1984806
  32.2022271  66.4418936  13.0763209  32.7496457  66.1180210  13.7916327
  32.4208069  67.3713970  13.0093932  23.1919336  60.5664492  16.2008667
  23.2536054  60.6497622  15.2492952  23.3353448  59.6352100  16.3695574
  21.3463402  48.7627268  24.3814778  20.5888700  49.3297482  24.5262432
  21.6606355  49.0009356  23.5092950  56.7032194  52.1440172  29.4615412
  56.0878134  51.6432524  29.9970245  57.1073008  51.4924479  28.8884711
  45.8056402  54.8283339  19.3057954  46.6856241  55.2020979  19.3522418
  45.2293921  55.5850267  19.1981590  44.6503830  41.4796352   0.8992481
  44.8574829  40.7350636   0.3344856  44.7184849  42.2422361   0.3247647
   8.1923926  69.9217892   1.1295751   7.2758925  70.0060415   1.3925569
   8.2091892  70.2209616   0.2204853  39.9069166  48.5258293  17.1605742
  39.6190977  49.4383287  17.1877062  40.5061483  48.4857559  16.4152241
  16.5978634  73.6238623   2.9146343  15.9433532  73.3793020   2.2603878
  17.4095702  73.2239342   2.6025134  39.1655564  64.3103981  35.9088492
  39.9544406  63.9074993  35.5461287  38.7480664  63.6102629  36.4105916
  24.1617155  74.0766954  11.4976013  23.4013343  73.9216328  12.0579660
  24.8892736  74.1945553  12.1083403  45.0621462  85.2450562  28.8466930
  45.3252172  84.7861195  28.0489397  45.6980276  85.9549999  28.9353442
  38.0527401  61.5116119  31.0025382  38.1975794  62.2541380  31.5889764
  38.7410593  60.8873034  31.2320709  19.2630064  77.4585819   8.3389723
  19.7631788  76.6946888   8.6262536  19.8746741  78.1902170   8.4214401
  96.1722469  11.5826416  91.8795681  95.9432697  12.0929861  91.1028099
  97.1291637  11.5940320  91.9001198  22.0666981  79.9514151   6.0449612
  21.5940690  80.7622337   5.8567399  22.8331447  79.9825191   5.4724038
  44.2229414 104.7809219  15.8810270  44.1590977 105.4958534  15.2477551
  45.1362038 104.4984436  15.8320773  10.3078771  78.6333895  25.8443570
  10.0578427  78.4253263  24.9441218  11.0564244  79.2232084  25.7548022
  64.1545630  73.6949396  47.1881056  63.8563061  74.5249224  47.5601292
  64.9229050  73.9283419  46.6671324  46.1251926  62.3799419  32.1993113
  46.7556095  62.0294142  31.5700746  46.2456989  63.3285379  32.1559572
  28.8304377  79.7654772  38.5782766  28.1200552  79.8765182  39.2101455
  29.1326857  78.8673115  38.7130833  35.6628203  63.6555243  24.3168759
  35.2489114  62.8510094  24.0043569  35.9761620  63.4382296  25.1948452
  62.4481869  77.9769182  15.3401744  61.9602251  78.4779644  14.6866632
  63.1926584  77.6162577  14.8585904  24.9997902  55.2293682   6.6165620
  25.1361299  54.2861795   6.5268642  24.4612479  55.3198290   7.4027044
  29.0232611  96.0749149  28.8221359  28.1764150  96.5197277  28.7870765
  29.5399141  96.4886284  28.1306553  62.8554821 101.5062141  31.0882497
  62.1510792 100.8585548  31.1123681  63.0209684 101.7144585  32.0077515
  40.5131006  38.8179684  21.8676949  40.3620768  37.9741621  21.4417648
  40.8286142  39.3874073  21.1659670  32.9431057  84.3216801   7.6342928
  32.3180914  84.4481277   6.9204301  33.2208896  85.2070808   7.8690690
  32.0415640  49.0453911  20.5066013  31.6601253  49.8653698  20.8202362
  32.1599388  49.1804790  19.5664048  35.2542853  58.7515211  37.7679801
  35.8697796  59.0417767  38.4411454  35.5653858  57.8814554  37.5181150
  34.1868234  46.5724134  15.0349581  34.1911173  45.6557989  15.3106868
  35.0796342  46.8760633  15.1990294  14.8769379  71.5853500  12.7973390
  15.4790199  71.2470102  12.1345747  15.0381196  72.5288200  12.8080416
  43.3794689  54.3434811  36.4001870  43.9301968  54.1465425  37.1579123
  43.9140177  54.0975809  35.6451893  46.4128971  48.8913870  10.4791176
  46.5821028  47.9812717  10.7226133  47.1945763  49.1593695   9.9960059
  55.2788973  99.1984177  21.0047340  55.2652693  98.2677460  21.2281251
  55.6286097  99.6271229  21.7858458  50.5484819  95.1085949  18.5435450
  49.9308348  94.9466038  19.2566359  49.9992847  95.1818943  17.7630031
  37.9283810  60.5506849  55.7229185  38.2795405  59.6885633  55.5000591
  38.6692166  61.1467743  55.6130409  55.3042936  53.9890862  41.7814255
  55.4636288  53.9096355  40.8409309  54.6277189  54.6623278  41.8536949
  44.9024010  57.8878832  23.9136076  45.2020979  58.6430550  24.4197035
  43.9978266  58.0984783  23.6820364  50.8094358  83.4092617  31.2931418
  50.4495668  82.5225258  31.2724876  50.2137709  83.9222717  30.7470298
  29.3068337  47.0697308   5.3006172  28.9558816  46.4402199   5.9305227
  30.1032710  46.6564035   4.9673274  13.5028815   4.5712623  86.8715191
  13.8610995   3.8438708  87.3802567  13.4696162   5.3019190  87.4889851
  26.3258767  57.2258329  28.9417553  25.6973124  57.9080486  28.7057066
  26.8841028  57.6332617  29.6040392  11.3712466  58.7661743   3.3186951
  11.1898863  57.8365803   3.4572405  12.3002625  58.7975073   3.0902672
  44.1531229  65.5921364  25.7127762  43.7519121  66.4422512  25.5323172
  44.5650387  65.3413391  24.8859406   1.0469838  65.5311394  37.8378868
   0.6338883  65.1222134  38.5983896   0.7547269  66.4421463  37.8675318
   9.4004309  63.1972170  27.8565884   8.6069191  63.7312031  27.8187394
   9.7268671  63.1891918  26.9568062  78.3858299  30.9582472  12.3072672
  78.8699770  30.8038116  13.1184268  77.4652243  30.9108567  12.5650859
  24.3694806  68.5362148  44.2734480  24.6352434  68.3744335  45.1786709
  23.4609723  68.8303041  44.3394756  35.4292536  81.3228607   1.0552914
  35.2267551  81.6453266   1.9334960  35.0517035  80.4436302   1.0300215
  10.3012979  60.6264210  37.9924011  10.5296135  59.7021770  37.8930092
  10.9824753  61.0946512  37.5097132  34.5252180  77.4326849  18.0350375
  34.5450616  78.3726406  18.2148194  33.9152050  77.0779610  18.6817873
  45.4077721  56.3346195  38.2066488  45.2841282  57.1736765  38.6504149
  45.0416040  55.6882048  38.8102245  30.3527236  59.0126991  27.3083043
  29.5948052  58.8396263  26.7498803  31.0346889  58.4302473  26.9737816
   7.0015836  52.9793644  55.7309914   6.3146460  53.4089136  55.2212477
   7.0943397  53.5226727  56.5135813 109.9192810  65.1844931   7.0074999
 109.1842747  65.7652760   7.2041774 110.6795883  65.7647848   6.9696039
  11.5230381  58.9443111  11.8916142  11.8963873  59.5986176  11.3010800
  12.2342730  58.7343121  12.4968231  28.1744146  64.4529438  24.5199800
  28.2817078  65.2519798  25.0359893  29.0569925  64.2459965  24.2126298
  65.0189543  37.2027302  16.7575896  65.4548454  36.5124249  16.2578785
  64.8145866  36.7961812  17.5997210  26.5357804  58.5324955  12.5701177
  26.2218213  59.3952608  12.2993803  26.2127209  57.9370117  11.8939066
 118.4490299  76.4874506  13.0530787 118.4757423  75.5394745  13.1829166
 118.3230686  76.8460655  13.9315784  29.4660807  61.6256905  30.6551600
  29.6593738  62.0536423  29.8210573  30.2785540  61.6989899  31.1559057
  44.3320513  60.5234241  21.5187335  43.7200069  60.3926563  22.2429776
  45.1497793  60.7868862  21.9407988  28.2556129  75.5759192   6.6128439
  28.6822987  76.2518120   6.0862136  28.9669704  74.9910927   6.8739539
  51.5194130  36.7147803  20.2359509  51.8524694  35.9703684  19.7347963
  50.7485723  36.3729286  20.6889176  33.5200810  85.4169083   4.2807680
  33.8779545  86.2639236   4.0148383  32.5831366  85.5773735   4.3930957
  45.2053070  64.3331194  46.5440369  45.6405401  64.4881248  47.3823547
  44.3782806  63.9117050  46.7778492  24.0232754  77.3938036  12.9538143
  24.6900392  78.0796003  12.9904950  23.8281226  77.2002029  13.8706923
  21.2679672  76.9228935  23.4023404  22.1119475  76.6103411  23.0764008
  21.0614467  77.6760006  22.8487921  30.9797740  65.0491571  24.5134377
  30.8880806  65.9718895  24.7508931  31.5151143  65.0580835  23.7199855
  17.5375855  84.9367619  14.2210877  17.1674740  85.5105877  13.5502863
  17.5022280  84.0620041  13.8340735  63.6786413  81.2002563  38.9261889
  64.0173578  80.3790569  38.5696244  64.4599009  81.6907120  39.1817522
  23.2411456  67.6012945  12.6717806  23.1270790  66.8623734  12.0741010
  23.2178497  67.2091293  13.5446477  39.0658140  62.4915075  12.3353291
  39.0773940  62.7684498  13.2515168  39.8043466  62.9517746  11.9366336
  32.5250602  61.6569614  39.0284824  32.0727897  60.9069014  39.4146132
  32.0409179  61.8400383  38.2233000  59.6774149  61.2043858  33.8925719
  60.1561975  61.3213539  33.0720115  59.5095015  60.2632141  33.9398289
  34.3971276  88.9072418  34.3106604  34.1626668  89.5587254  33.6497307
  33.8470292  88.1508255  34.1070676  88.7430382   5.7560730  97.4915981
  88.8566780   6.5009683  96.9013023  89.5271683   5.2234089  97.3587704
  56.2360096  92.9372215  30.0894856  56.6473150  93.1835461  30.9179688
  56.1252308  91.9883728  30.1498747  69.3287992  11.1172950  25.3448510
  69.4937706  11.4816213  26.2144947  69.8428297  11.6670263  24.7534108
  46.2793732  82.1843243   6.3829142  47.0099449  82.1052074   5.7695311
  45.5999756  81.6155148   6.0208416  44.2203999  77.3358822  13.7753093
  44.4571304  77.2279310  14.6964705  44.9501133  77.8259039  13.3963239
  35.5076289  69.5512819  22.8727460  35.2317977  68.8342905  23.4437776
  35.2688265  69.2616320  21.9922280   1.5752818  20.7034492  83.1690311
   0.6252657  20.6275702  83.0799007   1.7681700  20.3101778  84.0201283
  52.2209311  94.6865463  28.6313748  51.8057489  94.9922562  29.4378471
  52.4124193  95.4867935  28.1423235  34.5830512  77.0512152  40.0941133
  34.9602175  77.0138121  40.9730768  34.1776443  77.9168797  40.0440788
  43.6152887  60.7044792   9.4038653  43.2230330  60.5964375  10.2702904
  42.8714609  60.6961727   8.8014680  54.3919134  93.7806511  21.5372109
  54.3145275  92.8370285  21.6779685  53.9624977  93.9332676  20.6954598
  14.8441625  78.8435030   8.8506645  15.4694879  78.8558722   8.1260622
  15.2659237  78.3070135   9.5218784  37.6211667  93.0166626  45.1831722
  37.8000879  92.1540070  45.5574131  36.7918706  92.9084301  44.7175694
  61.3624287  84.6582890   0.2116135  61.6411495  83.7765408   0.4587303
  61.8417215  84.8434639  -0.5959877  42.9877234  66.2417889   3.9079913
  42.6598644  65.9895468   4.7711915  42.2152996  66.2213135   3.3430350
  48.8214970  97.6498795  56.3734484  49.2836046  97.3903179  57.1705151
  48.1295586  96.9959831  56.2740421  66.1731577  93.0912590  36.9246578
  65.4467535  92.5120163  36.6943741  66.1817408  93.7517166  36.2318683
  43.7314939  74.5417786  12.5777018  43.8759327  75.0461578  13.3783090
  42.8222275  74.2491722  12.6397288  34.0219212  51.4651537  23.5560870
  34.5909381  51.6678476  22.8135467  33.1403565  51.6719246  23.2457328
  39.6513081  89.5036030  24.4674373  40.0727463  88.6615944  24.2952681
  40.1081514  89.8475933  25.2350283  43.8843393 101.2449741  11.9112420
  43.5496521 100.4899120  12.3950791  44.2120409 101.8371201  12.5881577
  19.6041036  61.0456038  27.3072672  19.1322267  61.7760897  27.7072120
  19.1619873  60.9045219  26.4700913  48.9988232  87.6892376   8.4798789
  48.6414766  86.8912125   8.8693684  49.0701437  88.3018589   9.2118883
  44.2143345  79.9470520   6.0691851  43.5009050  79.7242975   6.6672057
  44.8999119  79.3086815   6.2659138  65.5137444  72.8451729   3.3858284
  65.6577539  72.4254465   2.5376984  64.6278238  73.2030916   3.3285865
  57.8512573  91.5095711  33.9206648  58.4535599  91.9835091  34.4941163
  57.9322815  90.5950832  34.1915703  57.3981524  54.3823814  43.5518789
  58.0563545  53.7416267  43.2827377  56.7042923  54.3023491  42.8973722
  41.0816002  82.5841427  45.6643915  41.9886160  82.7612400  45.9137583
  40.5587196  83.0199718  46.3373566  25.8560586  66.9407511  12.8671038
  25.9636760  67.4756575  13.6535656  24.9858284  67.1683979  12.5398386
  40.7214451  69.2226219  38.4771085  40.3971148  70.0299168  38.8762617
  40.7696152  68.5995150  39.2021251  67.3475456  69.6492290   7.9420090
  67.0249557  70.4894257   8.2679421  66.6865110  69.3679571   7.3094344
  66.3888931  67.3069286  33.4270310  66.8885374  67.6680946  32.6948118
  66.8308687  67.6421881  34.2070889 119.0180683  22.7010512  93.1785107
 118.4468937  23.0087805  92.4747372 119.6053982  22.0756245  92.7541256
  29.9087739  89.8470974  29.6813273  30.3157425  89.5383644  30.4908252
  30.2571082  90.7303619  29.5598626  55.1335573  71.5007257   5.3281426
  55.7214832  71.9893789   5.9041548  54.4198608  71.2168837   5.8993775
  79.7139120  50.0632572  18.0285764  79.7520065  50.0897646  17.0725024
  80.1794720  49.2609215  18.2646739  20.2161598  89.8682499  11.6127396
  20.5447125  90.3164101  10.8333588  19.2822385  90.0770664  11.6332686
  61.3047695  89.4165039  39.1261911  61.2183952  89.3868828  40.0790262
  60.4912615  89.0318584  38.7998796  42.1859026  78.7804365  34.1825891
  42.9368734  79.1859341  33.7491751  42.2157764  79.1169691  35.0781798
  44.2944670  83.0305481   2.3936217  43.7575150  82.8597069   3.1673965
  44.0523624  83.9168072   2.1250054  42.6581860  81.2583065  24.9242902
  42.0410967  80.8884621  24.2929006  42.8781080  80.5266857  25.5010033
  36.3538146  63.5296631  21.1874413  36.4781284  63.8345957  22.0862150
  36.6327667  62.6141644  21.2043858  60.0737762  79.7556353  40.0656366
  59.1402435  79.9622869  40.0204897  60.5092144  80.6076717  40.0399208
  43.9562750  55.9482670  33.8001323  43.9418125  55.4475689  32.9844594
  43.8303137  56.8566322  33.5258389 109.0167046  22.5568604  86.8345356
 109.7589397  22.7554226  87.4054050 108.2900238  23.0592608  87.2030067
  50.8911180  78.3151054  15.2587914  51.7863321  78.1306219  15.5430317
  50.7338953  77.6962090  14.5457125  42.4211264  70.4711819  54.8519468
  43.3131170  70.7008028  55.1124477  42.0420074  70.0626373  55.6301451
  34.6603084  69.3035078  33.7051296  34.9277020  68.7275791  34.4213986
  33.8247061  68.9436436  33.4076428  12.8623068  43.0142689  97.0914459
  12.6078403  42.8847742  98.0050659  12.0326471  43.0697870  96.6172981
  33.6697006 105.0665760  16.7530441  34.3152070 105.4077435  17.3720443
  32.8543854 105.0297832  17.2531807  71.7711115  62.4450111  18.3295429
  72.6490116  62.5426054  17.9607570  71.9145727  62.0431089  19.1863549
  26.6950917 104.3176460  18.8524997  25.9159875 104.6433640  19.3032050
  26.7787910 104.8797607  18.0822730  26.5803552  44.3617868   4.2693928
  26.3205838  45.0679970   4.8610151  26.9030190  44.8105383   3.4878913
  40.8851290  85.9211159   0.9259742  41.1990452  86.0835171   1.8155327
  40.1066971  85.3763962   1.0423972  51.8783283  88.0669212   3.2513905
  51.0999918  87.9353619   2.7099898  51.5528917  88.5097980   4.0350884
  63.4813261  70.6720686  24.4866610  62.9012156  71.0308552  23.8151121
  62.9870415  69.9460030  24.8671174  19.3138421  77.1149015  27.0165563
  19.8543596  76.7239952  26.3300681  18.6735594  76.4369154  27.2324419
  45.5002880  65.3374147  56.9061804  45.3680229  64.8779583  57.7354193
  46.2974739  64.9515629  56.5430737  40.9624910 107.3261833   0.8815043
  40.5058241 107.1549892   1.7051429  41.8504620 107.5670433   1.1455528
  42.8366613  79.1549778  26.4515877  43.4532547  78.4341717  26.5799618
  42.0761204  78.7484741  26.0361814  23.6027050  76.9751787   7.6678014
  23.7674832  76.5751171   8.5216343  24.4258571  76.8693972   7.1908724
  68.4885931  85.6449509  20.8398485  68.5019255  85.2987766  21.7321587
  69.2056131  85.1916981  20.3963661  57.1059847  74.5169544  23.2648134
  57.3864698  74.2639112  22.3853064  57.6438618  75.2796125  23.4775925
  38.5825682  63.3236980  32.8395081  38.8089108  63.3305979  33.7695360
  38.7315702  64.2238379  32.5500584  57.8680420  80.9836102  14.4215870
  58.5471010  80.9214211  13.7498403  57.5885344  81.8987274  14.3956006
  25.9339285  61.6328096  18.8854647  26.3200665  62.5024271  18.7811160
  26.2845087  61.1256456  18.1532681  56.2755919  88.3503342  38.4744644
  55.7374668  88.8930321  39.0507627  55.7579184  88.2647038  37.6738977
  52.1153307  96.2820911  10.3814375  52.4895573  96.5183544   9.5326942
  51.4557505  96.9554234  10.5481720  42.2465658  76.2422609  10.9042168
  43.0829620  76.2618876  10.4391420  42.4660206  75.9194613  11.7782152
  33.4059167  67.4084473  58.1854296  33.5050249  68.3604383  58.1742287
  34.2741179  67.0745802  57.9596138  41.9095182  85.4027081  19.9979854
  41.7037392  84.5417118  20.3620958  41.2744904  85.9925652  20.4042459
  65.5717897  91.3123512   9.0365773  64.9818420  90.8931446   9.6630424
  66.4019680  91.3927746   9.5062220  61.5288305  71.0733223  39.4903636
  61.4391136  71.6931868  38.7665153  62.2687149  71.4047766  39.9992251
  27.6301432  70.1940966  26.2336040  27.5709486  70.0699568  25.2863336
  26.7227888  70.3041601  26.5179014  45.4509163  50.6258202  34.1664815
  45.6951094  50.1052284  34.9317169  45.5527639  51.5337372  34.4520450
  49.2055655  97.0669270   2.7139872  48.4967566  97.5747204   2.3190600
  49.1094923  96.1908531   2.3404920  31.7258906  69.2447662  32.9193163
  31.6264200  69.6298218  33.7899899  31.5285134  69.9615765  32.3164439
  23.7425661  80.8047962  39.4576812  23.5256767  79.8818541  39.5894885
  23.8131428  80.9009743  38.5079455  42.6965046  73.3035040  34.3820405
  41.7908382  73.4142542  34.6714044  42.7884817  73.9085579  33.6460495
  30.3234935  90.9857273   5.3127879  30.9731460  90.3407192   5.0332361
  30.8163977  91.6036320   5.8526695  25.7544470  90.7025146  22.7727628
  26.6303349  90.9456730  22.4728966  25.8823490  89.8784542  23.2426572
  67.5044489  64.3292522   9.0867710  67.8858042  65.0505590   9.5872903
  66.7373991  64.0646029   9.5945406  71.0029936  99.6226406  14.9351299
  70.7601643  99.2238331  15.7707238  71.3745499 100.4718208  15.1740301
  47.1364355  51.2067080   3.5993537  46.8356562  50.3440952   3.3135843
  46.3438892  51.7431879   3.6163872  35.1810789  98.7557411  44.7052240
  36.0823941  98.4372616  44.7545767  35.1161194  99.1575146  43.8388586
  39.6718526 100.7318974  27.9196548  40.4228163 100.1574039  27.7705288
  39.4888353 100.6488037  28.8555145  32.6177740  73.4576416  41.5695143
  33.5726047  73.5075855  41.6146231  32.4434876  72.6858139  41.0308695
   9.3131244  46.8117094  92.0163631   9.4779277  46.4768839  92.8978157
   9.1329557  46.0306025  91.4932537  67.0305157  25.9067965  37.9881120
  66.6240215  25.4213572  37.2702384  67.7236795  25.3283334  38.3061361
  77.1993589  90.7613945  30.7588267  76.2729549  90.7156754  30.9952950
  77.2360325  91.4134693  30.0590491  29.2468548  71.4764881  16.5125084
  29.7703910  71.9568634  17.1539009  28.3622766  71.4749908  16.8782258
  46.6340208  85.4244232  31.8375921  47.3858643  85.9811401  32.0401454
  46.0829496  85.9633350  31.2700319  74.9118567  82.9210472  35.2284336
  74.2109919  83.5476208  35.0483775  75.7126284  83.3758450  34.9673676
  58.0239677 100.4935455  29.8297739  57.7652550 101.4078236  29.9455166
  57.2053146 100.0351143  29.6403718  45.6736422  90.4448509  22.5830460
  45.7690239  89.4926929  22.6059556  45.8812428  90.6847000  21.6799355
  61.2120342  82.3418045  33.8957453  61.3446045  82.0572472  34.8000073
  62.0930099  82.3723888  33.5226798  16.5931022  66.6236019  30.9466314
  16.5748858  65.6686306  31.0093021  16.8327141  66.7993879  30.0367332
  56.1211014 109.6232414  19.6462154  56.2537956 109.0497971  20.4010534
  56.3988447 109.0987587  18.8952160  58.1000185  72.5727940  26.1285901
  58.0674839  73.5292053  26.1072850  58.1526852  72.3556089  27.0593357
  66.7952108  62.4499607  42.5702333  67.1551561  62.9864216  41.8639183
  67.4256992  61.7373896  42.6749134  45.6703138  60.6955767  24.2854095
  46.0561466  60.3397322  25.0858688  46.4213228  60.9051609  23.7301683
  44.2750788 102.4591446   6.1267751  43.5337782 102.3492432   6.7222828
  44.4555998 103.3990765   6.1399728   6.1429107  33.6047268  85.3719616
   6.6060674  32.9254436  84.8817635   5.5177629  33.9684510  84.7449589
  58.9377642  83.7355232  19.0359080  58.9742517  84.2554855  19.8387420
  59.6915531  84.0305328  18.5250211   0.7716955  83.2287884  32.2177100
   0.0189354  83.8120937  32.3143291   1.4725758  83.6591244  32.7074122
  23.7572742  81.9294167   7.5022858  23.8551021  82.0019245   8.4517092
  23.1121683  82.5994396   7.2761178  87.1692371   1.6252212  35.9636688
  86.7828178   1.4351417  36.8185282  86.4293671   1.9002089  35.4221869
  85.4648972   8.3709615   5.8682138  85.7480431   8.8745308   5.1050103
  84.5087910   8.3902824   5.8266473  32.3769355  69.2604780  53.7090063
  31.9098020  69.1462851  54.5366383  32.6502347  68.3763742  53.4642649
  46.2524319  59.2038298  34.5106578  46.0530758  58.4952402  35.1225328
  45.4006052  59.4647503  34.1605949  58.3495045  78.3922243  37.4464655
  58.2984543  78.3184195  38.3994484  58.3404255  79.3345070  37.2783828
  14.9317884  65.2031183   5.8944589  14.9637139  66.1363363   5.6839341
  15.6350565  65.0770950   6.5314537  51.3070774  67.4891186   5.1376241
  51.0814381  66.5924120   5.3850853  51.8451214  67.8092146   5.8616912
  60.3170776  79.3823576   3.8882017  61.2633657  79.3799257   4.0322945
  60.0785589  80.3093147   3.8791904  40.5067921  84.4457626  23.4486103
  39.6516562  84.0165615  23.4761453  40.8679008  84.2057037  22.5952601
  51.5212727  88.2530212  26.3932085  51.2003469  87.6594543  27.0721197
  51.0870504  89.0857410  26.5782976  44.3528080  65.3129578  13.3903039
  44.4438601  65.7984066  12.5703752  43.8582325  65.8997488  13.9624071
  39.2989707  89.9707031  20.6669092  40.0326395  90.5735779  20.7873583
  38.7629819  90.0859356  21.4515591 112.9644585  45.0977230  92.6599693
 113.0560970  44.6897840  93.5210228 113.5668373  45.8412933  92.6818848
  46.2742519  89.8757458  14.3701088  47.1006346  90.1288700  14.7815168
  46.0192251  89.0705585  14.8205042  53.7504292  77.7688932  47.9431343
  54.6146584  77.3754311  48.0636597  53.4413099  77.4168921  47.1084023
  83.3266735  13.3558881  95.1649189  83.6239529  12.5313544  95.5496311
  84.0442371  13.6250842  94.5914555  70.0979185  76.3885880  27.7270579
  70.7705402  75.7244110  27.8776550  70.5341339  77.0552206  27.1964478
  25.2318120  95.2071476  20.6535840  25.6787300  95.3797340  21.4822650
  24.7100139  95.9937000  20.4945278  18.8529968 107.6239681  10.1347709
  18.6528075 107.4431324  11.0531688  17.9990244 107.6433659   9.7028130
  46.5472031  50.5348825  12.8928137  47.2166777  50.0428486  13.3681488
  46.4815187  50.0934172  12.0460391  47.7514982  82.9403687  52.0165634
  48.2339287  82.3392773  51.4489555  48.2434225  83.7601852  51.9703960
  22.3664379  70.3948212  24.0276647  22.9623461  70.2259970  24.7574735
  22.9091167  70.2899837  23.2461643  37.4085784 110.7669067   1.0432487
  36.5569687 110.4182720   0.7797195  37.6180720 110.3009224   1.8526936
  63.6666632  85.6966591  24.6554661  63.3581924  86.4063263  25.2188873
  63.0060768  85.0105667  24.7510719  47.0189571  66.8508387  38.5582042
  46.8777370  67.3565054  39.3585730  46.1376858  66.6517591  38.2420444
  40.8595991  74.2425537  13.3174086  40.2414370  73.5956573  12.9773569
  40.3737020  74.7008467  14.0030503  41.6565943  72.7076149  50.4067564
  41.9024897  73.6259270  50.2951050  41.9888258  72.2734642  49.6210289
  52.2350597  94.3562317  42.5931787  52.3717594  94.8202705  41.7672205
  51.2993479  94.1547680  42.6026964  20.2578473  22.4314928  88.6935520
  20.9409928  21.9072723  88.2755280  19.8735261  21.8469954  89.3469143
  36.8665481  94.9732494  24.6535134  37.7811599  94.7943878  24.4350576
  36.6407585  95.7413101  24.1287899  61.8475389 101.9358730  50.8680677
  61.6384459 102.8086662  50.5352926  62.7934074 101.9552994  51.0136223
  31.3373184  82.3128605  42.5027704  30.8971786  82.5216579  41.6788101
  32.2116899  82.0245457  42.2408867  32.9517770  75.4692030   7.9472500
  33.8736057  75.3604650   7.7134955  32.9704142  75.9142113   8.7945110
  41.5831614  57.8567553  32.0202065  41.3446712  58.4539557  31.3111877
  42.0488691  57.1424818  31.5852809  50.4778242  82.7838993  57.0799494
  49.7267532  82.6129341  56.5117121  50.3901720  83.7058735  57.3218584
  52.5674582  62.5825262  28.7215328  51.7303467  62.9468489  28.4338713
  53.0557203  63.3364058  29.0524364  46.9490051  82.2380733   9.2786187
  47.3729563  81.9967651   8.4550488  46.0547113  81.9075966   9.1934669
  46.0276890  91.7692375  39.8163128  45.2323914  92.2066116  39.5122695
  46.1071825  90.9987068  39.2539978  44.0468216  96.6552258  30.2681017
  44.0818739  95.8813572  30.8303499  44.2501116  97.3854065  30.8526826
  51.9042778  77.3031425  19.2666459  51.1882591  77.7425051  18.8078296
  52.3211384  76.7611694  18.5967803  43.4550428  78.9647102  10.3312743
  44.0689182  78.2732105  10.0838554  43.1667089  78.7251520  11.2120175
  38.2602930  68.8050699   2.1703219  38.1660128  69.5363283   1.5599039
  38.7830591  69.1593981   2.8896272  76.3732624  64.4044876  15.0682080
  75.4497337  64.2163086  14.9011326  76.5324354  65.2368212  14.6231055
  59.4026327  84.3337059  29.8337388  59.5305204  83.8099003  30.6246257
  58.5883999  84.0016460  29.4555950  26.6906881  76.4801693  36.8472314
  25.9760118  76.0406065  37.3079443  27.4682188  75.9663248  37.0654964
  27.9069471   9.8393720  92.5968170  27.7266788  10.7793772  92.5856400
  28.8095307   9.7648877  92.2869301  20.5965590  84.8538208  30.4591060
  21.2899423  84.6978188  29.8179221  21.0606360  85.1090336  31.2564325
  51.4911938  85.8201218  18.2328939  50.8485889  85.1362514  18.0441678
  52.0847702  85.8047962  17.4821210   8.7476486 106.5434837  33.3173084
   8.5605878 105.6586647  33.0037332   7.9486531 107.0370674  33.1323242
  52.2378016  94.2673206  12.2185910  52.1238899  95.0778866  11.7223620
  52.2101307  94.5417404  13.1351948  49.4410610  83.6080265  46.8590879
  49.8263931  82.7683353  46.6087675  48.8222504  83.8065910  46.1563206
  55.9039688  99.2619801  35.8357072  55.7670212 100.1521397  36.1598754
  55.4413986  99.2383194  34.9980307  32.8792596  64.3505955  39.9618864
  32.1659422  64.9361277  40.2159786  32.4591827  63.6821985  39.4205785
  47.8399515  90.6372070  58.2194233  48.6079931  91.1825848  58.3894444
  47.2065639  91.2333775  57.8198767  37.5789356 100.7072449  22.9400015
  37.8832746 100.4143524  23.7989688  36.8057442 100.1710415  22.7642131
  36.5586901  74.6258926  45.2735949  36.6094160  75.1399469  44.4677353
  35.6306744  74.6386480  45.5078077  29.3963408  83.6860180  37.0628619
  28.5166836  84.0341377  37.2086096  29.2761421  82.9975796  36.4087629
  47.5594234  93.9027977  45.8908701  47.0743465  93.4587955  46.5864229
  48.1874561  93.2496548  45.5823183  44.9779367  74.2773914  44.7259903
  45.7365370  74.5929003  44.2348576  44.3434000  74.0296316  44.0535212
  49.8604155  58.0770969  36.0635924  49.4507170  58.0142546  35.2007890
  49.4276524  57.4003220  36.5840983  46.2710476  91.0339642  19.7690511
  46.2241316  91.1768818  18.8237453  45.4675770  91.4262676  20.1107621
  70.0335503  59.7103643  21.3748741  69.6975183  60.2410269  20.6525755
  69.7437572  60.1685715  22.1637344  46.8249083  66.4912510  10.2394485
  47.6349068  66.8212414  10.6283474  46.2463236  67.2531652  10.2085042
  62.4089050  74.3163681  33.3504057  62.7972651  74.3680334  32.4770570
  61.7328167  73.6432695  33.2724500 110.6429958  23.7944722  93.9095592
 109.9063206  24.0395260  93.3496571 110.4261112  24.1632843  94.7658157
  53.2038021  94.9673367  19.0648365  52.2660065  95.1508522  19.0091908
  53.6205149  95.8261871  18.9944339  50.6535196  61.2862873  55.3312874
  50.5434179  62.1282148  55.7731771  49.9484015  61.2612724  54.6844387
  65.7294369  82.1222115  29.4809675  65.3160906  81.6403008  30.1973057
  65.2666187  82.9597569  29.4573164  51.5967178  90.9328556  19.2612493
  51.8078995  90.7901287  20.1838875  50.6865120  90.6487942  19.1771579
  39.4514966  72.5016499  26.6418314  39.6917558  71.5930605  26.4602399
  38.7432480  72.4386168  27.2826481  62.8281736  86.1468983  20.7053971
  62.7755642  86.6312599  19.8814678  62.9315615  85.2331066  20.4398584
  49.7896099  74.7455645  19.2277598  50.0032330  74.3690872  20.0814915
  50.6190538  74.7418118  18.7500167  43.2309818  60.5640316  35.0371957
  42.8234482  59.7342396  35.2853703  43.6505032  60.8742857  35.8396745
  40.8157253  55.7966471  28.9604354  41.6822338  55.4603338  29.1891098
  40.9821987  56.4368057  28.2685423  32.9061508  20.7566452  94.3857479
  32.2074342  21.2500715  93.9561462  33.6869168  20.9438992  93.8646221
  52.6505089  75.7936382  25.1444602  53.0340099  75.1403332  24.5593524
  51.7812157  75.4498768  25.3503489   7.3755735  81.9680977  19.6207285
   6.6911113  81.7515469  18.9876044   7.7808750  82.7624702  19.2729640
  10.9757674  88.3770180  37.9185033  10.0455844  88.3294582  38.1392527
  11.0220027  89.0233898  37.2140169  43.0083847  66.3526106  30.9103084
  42.8568268  67.0479059  30.2701354  42.7251768  65.5529451  30.4669571
  50.0899935  63.8278484   9.5737058  49.7836733  64.6798754   9.8842710
  50.8922672  63.6662436  10.0701642  57.5086689  60.7638836   8.7114781
  57.6579905  60.3062725   9.5388383  57.8507423  61.6454172   8.8602144
  39.7074842  62.3777866  55.1765490  40.4283333  62.0854473  54.6187449
  39.2950177  63.0866718  54.6830082 110.9344959   3.6610070  91.7517471
 110.2114964   3.0758488  91.9778061 111.6290855   3.0769822  91.4472961
  26.1020017 104.8915291  30.0378966  25.5343485 105.0041199  29.2754507
  26.1742377 103.9430523  30.1447463  44.5058775  52.4092007   4.2462656
  44.8753405  53.2785892   4.4008338  43.7242031  52.3795986   4.7979406
  37.1958423  71.7580652  23.2108736  36.6899657  70.9459639  23.1824207
  37.0645523  72.1523619  22.3485947  47.0471144  62.5038958  44.0918779
  46.9162464  62.7131510  43.1670427  47.1504307  63.3549118  44.5177078
  24.5935750  90.2416992   5.2253550  24.3074775  90.2798271   6.1380029
  25.4025626  90.7529926   5.2063984  52.0015097  98.3577156  27.4425912
  51.2299824  97.9692650  27.0301819  52.7300310  97.8086376  27.1527624
  44.5231867  61.4388990  42.5485516  45.1579714  62.1541882  42.5080824
  44.2522144  61.3074493  41.6399622  30.9980464   3.2377234  87.0934296
  30.4899454   4.0415478  87.2026730  30.8303928   2.9693016  86.1900616
   8.8154751  20.9474564  83.4288120   8.0600053  20.3641033  83.5009098
   9.5011616  20.5154061  83.9381218  38.9436483  59.9328613  24.3022323
  39.7721648  59.9442720  24.7814584  38.3108354  59.5775223  24.9263430
  46.1195564  74.3352175  26.0058808  45.7997417  75.1725006  26.3418913
  46.4263201  73.8669729  26.7823362  29.6069574  76.1662149  26.4891863
  30.1438785  76.1854267  27.2813869  30.0764275  76.7230606  25.8680964
  67.3791790  79.2122412  41.7963791  68.0409098  79.8176527  42.1307707
  67.6809788  78.3484411  42.0774364  47.4271059  73.1897545  36.5306163
  47.1737480  72.2743845  36.6495681  48.2017899  73.2975006  37.0824146
  65.7114077  83.6034012  19.8879433  65.9393835  84.3000317  19.2723429
  66.4549351  83.0014992  19.8545861  11.4432228  35.1964450  89.7253799
  11.2875986  35.2433395  90.6686783  11.2705362  34.2825007  89.4992828
  65.5006695  91.2261868  13.0146050  65.2237797  90.4188728  12.5812376
  66.0567856  90.9321499  13.7360680  50.0364351 101.8086052  17.4466920
  50.8476639 101.5826130  16.9916391  50.0164747 101.2246799  18.2048965
  39.6104550 103.8988018   1.5754397  38.8399887 104.1946697   2.0602861
  39.9749112 104.6976280   1.1942758  37.9115391 101.7156696  59.7299814
  38.8045335 101.8150806  59.3999672  37.3548603 101.9867039  58.9999914
  96.9558716  11.9721651  75.0957727  97.3934460  11.6763091  74.2975092
  96.2006474  12.4709129  74.7841406  50.4459190  88.4807205  15.0741160
  49.8999834  87.7169895  14.8872888  49.8878431  89.2304134  14.8673677
  67.2778893  94.0760708  32.8802371  68.1253147  93.8806343  33.2801247
  66.8066740  94.5735168  33.5486150  93.0424213 101.4233589  94.4210625
  92.5883579 101.1146545  93.6369896  92.3712540 101.8912220  94.9179268
  29.0267730  62.0323277  39.6448517  28.8751030  62.9765368  39.6036482
  28.2107711  61.6736698  39.9937558  75.4810286  98.4228516  40.8403301
  76.1406374  98.3321667  40.1526356  75.7616758  99.1882610  41.3419485
  53.9693975  74.9732542  21.1184263  54.1182423  74.2959929  20.4585862
  54.6593523  75.6175804  20.9601736  44.8402357  93.4363937  30.0503922
  43.8922024  93.3837700  30.1716280  45.2049971  93.0167580  30.8295512
  58.0859804  76.6209650  34.9957633  58.0309296  77.1477842  35.7930493
  58.4712982  75.7928228  35.2820253  57.9230642  95.5346489  24.4923425
  56.9755220  95.6617546  24.4450212  58.0708504  94.6810818  24.0851307
  42.5259256  94.3031216  11.8402362  42.4739027  93.4383297  12.2472453
  42.4703789  94.1293240  10.9005857  41.5136099  97.5934410   6.4867431
  40.8014536  98.1912613   6.7140561  41.0811090  96.8627739   6.0448211
  67.5054455 105.0510311   8.3158040  67.3465443 104.1412640   8.0641973
  68.4005833 105.2268600   8.0259109  82.4241829   6.5388471  16.7699790
  81.5083027   6.4160645  17.0196140  82.8526020   6.8396384  17.5713611
   2.1824621  19.8835361  74.1941404   1.5055871  20.1776838  73.5845947
   2.6296043  20.6866169  74.4612694  36.8231034 108.6068439  29.7203541
  37.0310140 108.4461212  28.7999344  36.9747019 107.7653408  30.1506233
  54.4960356 100.8426952   0.4654491  53.6134529 100.5205154   0.2824549
  54.9695396 100.7249069  -0.3580502  76.3785362 107.2615623  12.5888550
  75.9113407 108.0953312  12.6417255  76.1635208 106.9211769  11.7204452
 113.3598042  73.2389688  95.4320431 112.5892162  72.6771784  95.3494644
 113.9508057  72.7519941  96.0063362  47.7935600 108.1890488  20.3269219
  47.2053385 107.4555874  20.5065155  48.4663486 107.8217030  19.7536516
  82.0270634  92.1957302  31.7782903  81.8553829  92.4221325  30.8642340
  81.5023041  91.4103127  31.9331264  84.0217018  73.4320307   5.8769017
  84.9748039  73.5148096   5.8456260  83.7006283  74.1562939   5.3397006
  42.8662586  98.0952358  24.8720574  43.6876011  98.4596062  24.5421219
  43.0969429  97.2150230  25.1691151  40.0472450  33.0747247  31.1854815
  40.1412106  32.6062536  30.3560638  39.3819737  32.5812793  31.6652322
  47.8120518  97.5357342   9.6149302  48.6891127  97.7188683   9.9517637
  47.7504015  96.5805149   9.6141732  60.3414631  88.4238434  35.0267386
  60.8455229  88.0472851  34.3053818  60.8506918  89.1859818  35.3025508
  30.3488874  72.4048185  18.8466287  30.6218243  73.1897831  18.3716917
  30.5029345  72.6162863  19.7673810  51.4618063 111.4403439  14.2866933
  51.5027571 110.7496262  13.6252820  51.0350275 111.0278606  15.0376570
  59.1002989  91.8532181  18.4060681  58.9478064  91.0174751  18.8471007
  59.4994736  91.6133785  17.5697839  63.3258772  86.4213276  13.1934512
  63.5762072  85.8670425  13.9325917  62.4546814  86.1114883  12.9459786
  41.5897703  59.7566032  16.3992190  42.4280834  59.3190432  16.2508881
  41.0946178  59.6047926  15.5942273  50.7775974  98.6287022  23.4102702
  50.7375002  98.2283974  24.2788219  51.5138054  99.2383194  23.4612656
  56.7543411  65.2086926  37.9837418  57.3833323  65.6518507  38.5531378
  56.3430023  65.9150887  37.4857116  62.2233725  94.8101425  26.9012880
  62.1067238  94.1013908  26.2685966  61.3918209  95.2839851  26.8861556
  69.9110556  95.8369541  15.0610232  70.4810047  95.5309010  15.7665145
  70.1720142  95.3181076  14.3001497  99.8621845   0.3684007   6.1082309
  99.2135906   0.9888664   6.4407736 100.7021713   0.7168800   6.4069217
  68.5350990  96.9938278  34.1801429  67.9742479  97.2325802  33.4421229
  68.7661362  96.0789680  34.0192533  62.0068455  75.2749157  13.8991356
  61.4119864  75.0532436  13.1827307  62.2833014  76.1720181  13.7120152
  44.3412352  68.0906677  50.2186155  44.4389725  68.9836597  49.8880959
  44.3042898  68.1900787  51.1699200  81.1287785   7.5832480   2.4088345
  82.0769882   7.5034583   2.3050618  80.9049034   8.3928710   1.9499010
  52.8885841  65.7585478  35.4909039  52.4172783  64.9587250  35.2576995
  53.4705210  65.9188747  34.7480202  54.0406704  83.8274002  19.6105218
  54.2022419  84.7535229  19.4304883  54.2095757  83.3883286  18.7769020
  52.8071117 100.6071186  20.9958959  53.6282206 100.1158619  20.9699130
  52.9159689 101.2171745  21.7254329  49.6472216 100.0914574  30.5830002
  49.7905016  99.5536900  29.8042130  49.6606159 100.9917545  30.2581739
  67.5921774 111.1385632  11.4228272  68.5104752 111.2845612  11.6500902
  67.4548769 110.2027607  11.5700185  19.1919053 110.3544044  20.6868458
  20.0626183 110.7339096  20.5682516  19.2089915 109.5493698  20.1692867
  63.3112526 108.9918995  35.1701736  63.7781382 109.5474052  35.7944083
  63.6350489 108.1086063  35.3467560  54.4001961 100.4664898  37.8320837
  54.9401140 101.2558842  37.7922821  54.2987633 100.2926254  38.7678790
  57.1576452  87.0170975  19.2253304  56.3148212  86.7894268  18.8328373
  57.2132397  86.4689159  20.0080395  55.8109713 100.6870365  15.5972135
  56.4144468 100.2445412  16.1940765  55.4675484 101.4220238  16.1052346
  47.2600079  95.1913548  51.4748812  48.1995630  95.2128410  51.2932158
  46.8553305  95.5538750  50.6868124  37.5494885 108.0589294  24.1319919
  38.0902910 107.3084259  24.3779635  36.9068360 107.7006626  23.5197258
  39.9956346 106.1461067  13.5805452  40.7440233 105.5701351  13.7367499
  39.7142839 105.9370136  12.6898408  77.1844769  68.9053154  20.6646895
  77.7940178  68.7051153  21.3750505  77.3379374  69.8300457  20.4708886
  56.8776226 104.9282455  14.8316026  56.5430689 104.4647217  14.0638447
  57.7855301 104.6356773  14.9112248  43.5698748  74.9862099  17.8480649
  43.7731791  75.8454514  17.4784648  43.9968061  74.3647289  17.2583890
  54.0767765  89.2581367  18.7688899  54.1928291  90.0073242  18.1845188
  54.9225521  89.1627026  19.2068231  63.4831715  94.8498249  33.0724978
  63.3709431  94.4635010  32.2039413  62.9857683  95.6668758  33.0373096
  61.3762760  94.1976452  17.7927840  61.6561699  94.9298859  18.3420587
  60.4449129  94.0941620  17.9879415  38.8216972  85.9540939  57.3962355
  38.0661273  85.6441021  56.8969774  39.4080520  85.1986122  57.4371338
  36.2558603 101.3978100  27.2119522  37.1404314 101.2972736  26.8603039
  36.3472033 101.2126541  28.1466222  61.4170408 104.5003414  22.6649165
  60.6772470 104.4696236  22.0582914  61.4383125 105.4070473  22.9709816
  25.8655167  12.1198618  93.8436317  26.1620665  13.0295181  93.8150597
  24.9715471  12.1485591  93.5027122  96.8196399  -0.1621747  27.3768616
  95.9900624   0.2132106  27.0816922  96.8256146  -0.0159002  28.3227992
  62.7375793 107.9324055  28.8471365  62.5108576 108.8602734  28.7847853
  62.6529741 107.7272224  29.7782493  53.9612007  73.6655569  23.9501214
  53.8570976  73.9249754  23.0346441  53.3626556  72.9265881  24.0592098
  41.4088726  92.0416641  20.9606934  41.5238857  92.1438122  21.9054508
  40.8022690  92.7406216  20.7163000  57.6863241  83.9407253   8.6474484
  57.3785019  84.7853184   8.3185911  58.4807348  83.7627792   8.1439793
  47.2099495  98.8165379  16.9483483  48.1380796  98.9844513  17.1114671
  47.2029257  98.2066441  16.2106383  54.8728752  57.0120907  31.1741090
  55.5344343  56.3268185  31.2688589  54.2105579  56.7981005  31.8312073
  66.0604858  98.5274792   9.8692983  66.5659332  99.3373489   9.9390036
  65.6490946  98.4272575  10.7277536  26.4825320 111.8089867  27.7345896
  27.3295927 111.8947124  28.1720495  26.4984012 110.9318638  27.3516607
  61.7816448  75.3884983  39.4085002  62.5203419  74.8198080  39.1913629
  61.0179186  74.8124552  39.3747997  44.2533350  87.2972298  20.5032229
  43.7403536  86.5235519  20.7366776  43.5993528  87.9702759  20.3146863
  71.5052462   8.2759023  56.6207981  72.4079847   7.9581356  56.6387320
  71.0249329   7.6643687  57.1789742  56.5354586 103.9069557  18.8771653
  56.7851400 103.0793095  19.2881227  57.0097971 104.5736885  19.3738639
 100.3985023   3.3643582  30.4224825 100.6889057   3.1995383  29.5254135
 100.8168793   2.6762742  30.9399128  57.6728821 105.7695675  20.6010199
  57.3722363 106.6615200  20.7749605  57.2455883 105.2375984  21.2723327
  90.4695606 107.1487999  45.2048159  90.2361393 106.2373161  45.0289249
  91.1070538 107.0996189  45.9171486 114.7345257  37.3264551  95.8201408
 115.4611492  37.9304242  95.6669521 114.0449810  37.6261854  95.2277470
  11.9996333  29.7930431  97.0454407  11.5514886  28.9690351  97.2362614
  12.8113317  29.7468114  97.5506592  22.8938031  96.7473316   7.7611899
  23.0743694  97.6304340   8.0833012  23.1975794  96.1700916   8.4617215
  50.2945805  98.6010361  10.7038283  50.1668882  99.5496750  10.7015383
  50.6838608  98.4138203  11.5580201  40.8765125  94.5709991   2.3622918
  41.4548111  94.1855526   1.7040926  40.0028944  94.5165825   1.9749069
  91.6606903   1.2669931  38.7439919  91.8189335   1.9547588  38.0973291
  92.4599934   1.2444460  39.2701364  60.7037020  84.6731949  12.6631975
  60.9193802  84.9190044  13.5628045  60.4067135  85.4874897  12.2570574
  55.1524210 108.7954521  34.7132182  55.0215244 109.2388248  33.8750577
  54.6406317 109.3088818  35.3382730  97.9139423   2.8920987  18.0533862
  97.7970409   2.1465634  17.4645364  98.2452869   3.5920313  17.4907696
  55.9827518  92.9671478  25.4421425  56.3298035  92.6169300  24.6216917
  55.3875303  92.2880745  25.7596564  80.7795715  97.6318264  12.6429510
  81.6289330  97.5779533  12.2048724  80.4813576  96.7240429  12.6997387
 101.2245655   8.0750167   8.2455218 101.7372322   8.1460243   7.4403071
 100.3194237   8.2123441   7.9660732  57.5052214 110.8061600  23.3747411
  58.0668116 111.2550163  24.0067053  57.0810652 111.5123653  22.8873038
  56.8446827  49.2250490  13.2427824  56.7348766  49.6271324  12.3810947
  57.1055031  49.9482346  13.8130569  32.4650407  53.6398029  31.4878988
  33.1796455  53.8458490  30.8853078  32.8853226  53.1633520  32.2038531
  23.1846690 104.4388962  21.5398622  22.9189372 104.9840069  22.2804523
  23.7075186 103.7398052  21.9324636  70.9944916 100.8572674  26.5225625
  70.2942371 100.8360577  27.1748114  70.9984350  99.9769688  26.1466765
  72.1010828  99.9139786  23.8226438  72.8071022  99.8928738  23.1766367
  72.1039677 100.8129692  24.1513252  75.0818968 106.8160439  23.1128693
  74.6539259 107.2135735  22.3545504  74.5345068 106.0609341  23.3282804
  72.4491596 102.1862125  46.2463188  71.7424726 102.5023270  46.8092585
  73.0419302 101.7268276  46.8411541  78.9766884  12.9005420   9.2125350
  78.6793232  13.7741375   9.4667709  78.4983015  12.3068500   9.7912472
  39.5384526 107.0709801  18.1253934  40.3706551 106.9315243  18.5773051
  39.7881126 107.3432159  17.2423363   9.5122743  53.1704855  91.2855148
   9.9093413  53.1464863  92.1561432   9.4636053  54.1018534  91.0700512
  39.2876315  86.9758224  30.0636315  39.0935731  86.4318562  29.3003011
  38.7510681  87.7591324  29.9421787  54.7968435  80.8128166   7.1688938
  54.1640329  80.8114910   7.8870726  55.6336212  81.0151291   7.5873530
  75.0591993  12.1115434  24.7553158  74.9140930  11.2246120  24.4258761
  75.8979034  12.3737836  24.3757987 102.8936291  16.9651687  33.6315441
 103.2075596  16.1421418  34.0061188 101.9605827  16.9846547  33.8443017
  39.2086816  76.0934925  37.3733735  39.9541640  76.4037657  37.8873944
  38.6595845  76.8686676  37.2558022  95.8138084   8.1706870   8.8923544
  95.1729870   8.6684275   8.3845735  95.4771805   7.2746342   8.8903356
  41.4511251  97.9182434  15.3130066  41.6121531  97.0524502  14.9378943
  40.8624887  97.7543354  16.0498035  14.7936022  96.0007763  13.6656201
  15.1511991  95.1242447  13.8071907  15.5071008  96.5921307  13.9053190
  41.8534660  95.5238819  22.3267961  42.7331400  95.7095242  22.6553392
  41.8428278  95.8982754  21.4459181  31.0642481  85.4109192  15.8548379
  31.0645866  85.6042576  14.9173665  31.5229154  86.1511517  16.2522161
  40.1071501  87.6493645  41.9278669  39.5928431  88.2276154  41.3645267
  40.7124043  87.2095585  41.3308191  68.8333416  87.5448418  18.3186805
  68.4622622  86.9638252  17.6546419  68.6146879  87.1270561  19.1516745
  51.5223455  84.3313217   8.9417821  50.7934809  84.3758202   8.3229077
  51.7641544  85.2450180   9.0931416  88.9686203   0.5242757  19.8603535
  88.9757442   1.0630858  20.6514692  88.7362576   1.1323008  19.1585410
  70.4929686 104.8053074  18.4973121  70.0112629 105.0062847  17.6949382
  70.0971508 105.3691387  19.1618896  15.1865911  43.9019299  86.1403179
  16.0517144  44.1062403  86.4953518  14.6208084  44.5991373  86.4720154
  56.9425440 107.8534889  27.7485299  57.5192881 107.9881191  28.5005116
  57.1767902 108.5531425  27.1387362  33.9743781  42.7650166  92.4569225
  33.1655455  43.2651901  92.5657463  34.0853524  42.3050737  93.2890129
  54.0674019  12.9993272  19.1678810  53.7840319  12.8317618  20.0666881
  54.7024822  13.7112522  19.2457581  62.5611591  82.3138809   0.6182427
  62.7649593  82.1200085  -0.2966936  63.0980635  81.6993999   1.1186233
  77.0389795  89.2358112  18.1028354  76.2603855  89.0499210  18.6276913
  77.7272224  88.7001038  18.4972692  72.9862547  65.1052618  35.7278132
  72.1110010  65.2235317  36.0968328  73.3782101  65.9780645  35.7564497
  52.9846525  68.3942223  22.4971390  53.5303926  67.7114868  22.8873634
  52.8534985  68.1084442  21.5930581  35.1022911  41.9046831  94.6696091
  35.0492311  42.2093201  95.5754852  35.5791688  41.0764503  94.7229767
  74.5017290 102.6024151  37.8292775  74.0034819 102.9569626  37.0928836
  73.9192295 101.9520187  38.2215858  47.7360010  80.0832939  26.5979457
  47.1888447  79.2989492  26.6384912  48.0384016  80.1177216  25.6904221
  96.7805344   0.3548598   6.9170815  97.4874598   0.9090209   7.2478229
  96.9050033  -0.4833246   7.3622692  85.0066376   0.2819647  22.2432113
  84.5929337   0.2268817  21.3817930  85.7188034  -0.3566454  22.2081614
  52.6952553 106.0911083  22.4636841  51.8331575 105.7860851  22.1808767
  52.6501036 106.0838604  23.4197927  56.3216448  74.9356842  36.6289854
  55.4429722  74.5613718  36.6926885  56.5736151  74.8011971  35.7153916
  23.9056230  80.2029705  32.2728014  23.8336539  79.2522192  32.3572063
  23.3209324  80.4240131  31.5478778  68.2020760 103.8055325  41.8661022
  68.1714487 103.4413528  40.9814167  68.4209013 103.0596638  42.4246979
  46.6258526  98.3752346   1.6325456  45.7973242  98.2192612   1.1792891
  46.5023994  97.9856205   2.4981025  45.7354212  80.8943653  12.3392725
  44.9881124  81.2640190  12.8094995  46.2846136  80.5130577  13.0242753
   9.4693667  82.3029613  21.3649774   8.9138848  81.7631531  20.8025908
   9.1655093  83.1979561  21.2137008  67.5862598  96.5852642  28.0914164
  66.9007206  96.6341305  28.7576628  67.8114939  95.6559944  28.0472207
  78.6216784  71.8069887  38.1408048  78.9707708  71.3260841  37.3904061
  78.7741280  72.7275372  37.9272962  82.2702599   1.8951586   5.3129035
  82.9252625   2.5213599   5.0045568  81.4589024   2.4008492   5.3598773
  40.4840279  71.2571049  33.9893126  41.0214424  70.9574461  34.7225404
  40.2824736  72.1694517  34.1972232  27.9820371 100.8958054   6.6877836
  28.3415031 100.2527428   6.0766464  28.6362576 100.9564877   7.3838758
  49.6437502  77.7675724  40.7866669  48.9257240  78.3826828  40.6373072
  50.2768183  77.9663324  40.0967741  34.1944981  91.1732864  37.6302433
  34.2012382  90.5123234  38.3225727  33.5515094  90.8516502  36.9983006
  13.4024918  23.4701896  92.5662327  13.4900367  23.4802938  93.5193729
  12.4578512  23.4530115  92.4126434  20.2024627   8.3747673  94.2508698
  19.6000481   8.5365754  93.5248184  19.7757876   7.6919311  94.7684765
   6.1651814  34.9166274  96.2140465   6.0337472  34.1352797  95.6769657
   6.9747251  34.7435570  96.6945839  45.5639362  87.5701427  15.8264291
  45.5691767  86.7426586  15.3453028  46.2494898  87.4677181  16.4865530
  68.6358786 105.0365162  13.1030214  67.9552412 105.3443909  12.5045419
  68.1705046 104.8465061  13.9176083  22.6986790  71.0981274  43.0280018
  22.2039509  70.5411768  43.6290693  22.4909806  70.7559204  42.1585274
  60.3487492 111.6902447  25.0455403  60.3572655 112.4189281  24.4249105
  60.7870388 112.0336437  25.8241367  35.2563977  99.3631840  22.2728324
  34.8798823  99.8229694  21.5224552  35.5321622  98.5166645  21.9212937
  78.5291815   2.9935846  23.8944626  79.1218281   2.2893007  23.6318088
  78.9347458   3.7890369  23.5494900  56.3522196  90.1213264  28.5686970
  55.5563545  89.7000217  28.8932490  57.0114470  89.9352360  29.2372918
  95.3973770   3.0233169  33.2482243  95.5749226   2.0959722  33.0909252
  96.2579632   3.4065279  33.4178519  53.4796429  93.3078861   3.0251721
  52.7365541  93.2546616   3.6261851  54.1276741  92.7062416   3.3916548
  42.1875668 105.1073170  38.1246948  41.5073013 105.7786655  38.0721331
  42.0250845 104.6664810  38.9586568  49.9367046  80.8356571   9.1762036
  49.7801065  80.3440285   9.9824381  49.1467905  80.6967735   8.6537290
  50.3255987 110.3734589  19.4740915  49.7027302 111.0885334  19.3439293
  51.1661148 110.8101273  19.6122396  58.8951302  96.8678951  39.1335964
  59.0281057  97.4162006  39.9068403  58.2925367  97.3698330  38.5848069
  30.6785870  86.6805935   9.4773501  29.9140477  86.1121273   9.3848258
  30.3196621  87.5679111   9.4693977  87.3206425  16.8177307  10.5638552
  87.4173927  16.0296929  10.0291884  87.1111012  16.4896297  11.4383113
  57.4572277 101.3569641  11.4111900  56.6114521 100.9162235  11.4926863
  57.9442549 100.8260155  10.7810068  46.3905764  70.1861906  12.9797864
  46.7221165  69.2960596  13.0980504  46.4463615  70.5801916  13.8503504
  75.1556826  78.2271194  32.6365829  74.4897652  77.5861740  32.8855371
  75.4112864  77.9746389  31.7493677  59.4429159  97.6630020  23.7914777
  58.9419127  96.8581867  23.9237809  60.1088953  97.6462746  24.4788051
  40.1223373 103.9148808  16.4649844  40.2133608 102.9637241  16.5219223
  39.3317056 104.1103554  16.9678986  46.8331432 102.3948479  19.4695771
  47.2928762 101.9962978  20.2085161  47.4243832 103.0819416  19.1620612
  31.6740561 105.4149342  25.0922275  32.5929594 105.3478527  24.8327136
  31.2839484 104.5883465  24.8079801 104.2134285   0.7285392  27.3769784
 104.7549820   1.4390746  27.7206182 104.8385620   0.0422090  27.1437597
  60.0695705  97.9425907  28.2302332  59.1376781  98.1260681  28.3491683
  60.0917578  97.1008396  27.7750421  79.7691679  77.1250105  36.0325456
  79.2749882  76.6583729  36.7065406  80.6226635  77.2907305  36.4329243
   5.4331005  18.7535393  94.3586349   6.0989803  18.2534921  93.8866329
   5.3238434  19.5528316  93.8434410  45.2355242  84.4259548  36.7852831
  45.6821060  83.5864162  36.6758633  45.0795794  84.7325134  35.8920097
  49.7944641 106.3551331  19.6699798  50.6133509 106.6430187  19.2665195
  50.0671625 105.8980942  20.4655838  40.9788656  80.5298138   9.5874333
  41.8850517  80.3878593   9.8611271  40.4725695  80.4755402  10.3979564
  87.7020359  15.9842980  13.1322753  88.6019897  15.8373928  12.8412044
  87.7349758  16.8183076  13.6008632  49.1444731  96.7000961  42.6987839
  48.6959648  97.5456619  42.7085066  49.8892832  96.8307781  42.1119118
  97.0038509   2.5674918  36.3531327  97.2582340   3.2009301  35.6821084
  97.7250195   1.9384453  36.3743782  54.8241806  95.0035667  11.5377545
  54.7909117  95.0062943  10.5811369  54.1339397  94.3943119  11.7996812
  60.9509134  96.3530350   2.8961155  60.9153509  96.7784691   2.0393959
  61.4905977  95.5751705   2.7550393  65.2776003  81.4845276  32.2318864
  64.8369455  81.8773746  32.9853654  66.1720324  81.8227959  32.2743416
  58.6826277 100.3034878  25.9582615  58.2347631  99.6303082  26.4705825
  59.3500662 100.6504726  26.5501690  51.9381523 100.2515507  32.3486614
  52.0291996  99.3897533  31.9421482  51.0104370 100.3120995  32.5764871
   3.0132502  10.7386172  40.1531172   3.2974088  11.3707829  39.4929266
   3.2148579  11.1585903  40.9893036 106.2821293  92.1990776  23.2225442
 106.3528824  92.3935795  24.1570997 105.5477142  92.7340698  22.9214859
  55.5547523 104.0658569  59.9930239  56.2325430 104.4961357  60.5142689
  55.8874130 104.0957069  59.0959835  35.8945727  80.5076599   5.3697842
  36.0096526  79.5608807   5.4510117  36.6112542  80.7880878   4.8006105
  51.1697197  80.0434017  43.7692165  50.4186153  79.4535923  43.7043619
  50.9036016  80.7002449  44.4126225  29.2872906  90.6700706  26.1483669
  28.9783835  91.3771534  26.7148042  29.8927879  90.1711178  26.6966748
  10.4486275  50.9194899  90.0165939  10.0575340  51.6851234  90.4374027
  10.6150138  51.1997080  89.1165733  67.2890997  79.2394495   9.2117876
  66.6709900  78.7958956   8.6308932  67.8257895  79.7743750   8.6269355
  45.9479523  91.8143845  16.7430902  45.7563019  92.7490044  16.8204796
  45.6914711  91.5905762  15.8484626  53.6059141  74.5661688  36.1770964
  52.8606081  74.5769882  35.5765700  53.3267212  73.9980936  36.8951321
  68.8778353   5.4163975  25.9940910  68.0125093   5.2960187  25.6029963
  69.0010357   6.3653922  26.0156012  46.3901281  73.9970303  11.7301619
  46.7137671  74.8946285  11.6539395  45.4714251  74.0941381  11.9807374
  59.3486118  67.3161030   4.6319079  58.9251995  68.1498337   4.8364803
  60.2618170  67.4416065   4.8898542  50.2021694 102.8614521  25.8219004
  49.3340921 102.4801254  25.6905222  50.5821085 102.3513126  26.5371895
  72.6295853  10.6124532  23.3067870  72.8350019   9.9479687  23.9644313
  72.4430370  10.1130104  22.5118089  61.1931419  86.2204361  45.3089571
  61.8359184  85.7177544  44.8085690  61.4823008  86.1413479  46.2180042
  47.6153708 107.4487209  28.4149790  48.0085373 106.5815830  28.5136080
  48.0966711 108.0013657  29.0307403  55.8654690  93.9369011  49.9470568
  55.4246902  94.3801498  49.2221546  55.1803541  93.4089851  50.3571177
  38.0988336  89.3169212  11.4133465  38.1795859  88.4831429  10.9501779
  38.9292240  89.7637081  11.2488198  35.8254313  88.3005524  30.9732342
  36.7212868  88.5557175  31.1936045  35.7674265  87.3811722  31.2332582
  50.0425529 103.7340832  15.3909636  50.1562214 103.2370377  16.2010622
  50.6535721 104.4664669  15.4715848  58.2894993  72.1527576   2.6027030
  58.2958460  73.0477476   2.2633152  59.1612577  71.8134737   2.3998094
  60.8719301  65.4277945   2.8911859  60.3724909  65.9991217   3.4746051
  61.0764217  64.6600866   3.4250766  58.0005646  75.4097557  26.2448812
  58.4087753  76.0438538  25.6553769  58.5203028  75.4594612  27.0471525
  34.0839887  70.5670023  18.3206606  33.5775256  70.7378578  17.5265980
  34.8971891  71.0562801  18.1959856  49.9687052  94.2232895  34.3037271
  49.5635653  94.4020653  35.1523352  50.3546667  95.0591373  34.0417528
  90.1902294   2.2041798  21.8452096  89.9577332   1.8066660  22.6843524
  90.4399014   3.1014282  22.0662141   4.2641401  52.5613642  68.3564472
   4.9958515  53.1778717  68.3838606   3.4904301  53.1129313  68.2407713
  44.1690350  58.9113092  38.0148506  43.2520199  58.7005472  38.1906009
  44.3676329  58.4537554  37.1978831  35.5319738 106.1783600  37.9319835
  36.0601854 105.5337048  38.4027672  36.1619329 106.6561317  37.3924303
  55.1309013  97.8608322   8.1357718  54.5784760  97.8586769   7.3540735
  54.7189903  98.4988880   8.7183923  40.1086569  98.7114716  12.1776998
  40.1585817  99.6491241  12.3636067  39.1931772  98.5626221  11.9411087
  41.8345547  77.8494740   2.5620437  41.8882179  78.7597656   2.8531030
  42.6473713  77.7045584   2.0777291  81.2875748  73.5638666  15.3120565
  80.8307743  73.9711905  14.5760894  82.2100353  73.7747717  15.1677370
  37.1114230  73.9047098  72.5013924  37.6889014  73.5690498  71.8157673
  36.6347980  74.6218061  72.0832586 113.2433891   9.9662066  35.9160590
 114.0829754  10.2998149  35.5997944 112.6581287  10.0369930  35.1619411
  60.0981617 110.0536919  33.1046033  60.4953194 109.4490814  33.7314606
  59.4230700 110.5100822  33.6067843  70.4147530  86.4019203  25.8728194
  70.4310513  87.1788788  25.3139830  69.7985888  86.6222382  26.5714097
  51.5123701  94.7935009  15.0273311  50.6108856  95.1129055  15.0665390
  51.5709305  94.1538906  15.7370484  52.3505068 103.6530304  42.7592564
  53.1314039 103.6715698  42.2060013  51.6208506 103.6000347  42.1419859
  98.9355469  22.5155544   3.5804000  99.5202255  21.8392086   3.2384253
  98.1255150  22.0495415   3.7875539  80.3053379   4.2934036  36.1610937
  80.6798458   3.7056071  36.8171930  79.6361923   4.7867098  36.6355705
  60.8944082 105.2490139  49.8495150  61.0956764 105.9989929  49.2898273
  60.9463263 104.4929886  49.2647409   0.0302199   0.7647010  33.1562662
   0.9163073   1.0781519  32.9750872  -0.4657957   1.5562442  33.3652210
   2.6865667   1.3108970  33.6753058   3.5998625   1.5907346  33.7370586
   2.4530098   1.0568614  34.5681381 111.1264706  14.6767879  32.0206046
 111.8902969  14.2293811  31.6564250 111.3573837  15.6053281  31.9937038
  94.9873924   2.4761048  15.6245768  94.9586868   3.1666967  14.9623895
  95.5322552   1.7926466  15.2344000  45.2256250  86.8790340  51.2741899
  45.0697279  85.9346390  51.2678766  44.4207716  87.2570324  50.9198475
  78.4457159  68.0228472  18.5499740  78.8007402  67.1348715  18.5910785
  78.1187010  68.1911898  19.4336891   6.6721910  24.2127776  36.8572521
   6.9208652  23.3244514  37.1127295   6.6396683  24.1867328  35.9009600
 112.6350212  12.5877917  18.6948121 113.4909058  12.8773403  18.3788049
 112.8041267  12.2602379  19.5781827  32.0191073 102.3921108  15.7346809
  32.0127106 103.0356121  16.4432704  32.5199175 102.8113556  15.0349259
  69.2856169  90.5823803  30.7215357  69.0099621  90.5980682  29.8050213
  70.2376318  90.4903316  30.6837702   9.0559673  11.2233555  27.2049522
   8.2602882  11.7168272  27.0059204   9.4565547  11.0602748  26.3510394
   2.3356317  16.0981977  30.6545663   2.8102124  16.1640108  29.8259091
   2.1410450  17.0048881  30.8917999  35.9523368 107.0704269  32.2165704
  35.9760070 107.2281551  33.1603885  35.0199580 107.0392227  32.0022631
  51.6273260 111.4455128  24.8709631  50.9699726 111.1544800  24.2389703
  51.1183834 111.7625999  25.6170678  39.5544863 109.6433258  25.6192517
  38.7627316 109.1697979  25.3640461  39.2570615 110.2685833  26.2801790
  69.2190504  14.8605347  18.6322188  69.3861914  14.0472817  19.1085756
  70.0622606  15.0853634  18.2389176  59.7044134 110.4360580  17.7644253
  60.1612043 109.7813988  17.2362304  59.9211454 110.2080917  18.6684644
  53.9701557 111.2452316  27.9244542  54.1811705 111.9826412  27.3517990
  54.0276527 110.4768562  27.3565459  87.4833870  82.5294209  17.2869313
  87.5389671  82.1436501  16.4126754  87.8368092  83.4127522  17.1818590
  73.1992197  90.2882195  42.7874184  74.0462160  90.6123638  43.0936193
  72.5807047  90.9825230  43.0145884 101.8465710   2.2623478  14.0682614
 102.0819759   1.3583991  13.8592398 102.6779652   2.6808473  14.2915821
  44.3753624 102.6658058  42.5663757  44.1738510 103.5949993  42.6769829
  45.3053141 102.5951099  42.7818203   9.0550321  74.9128819  92.5508308
   9.6174604  74.6640778  93.2843208   9.2655563  74.2816734  91.8627357
  93.8849735  13.9436781  30.1382756  93.3658791  13.4847343  29.4778681
  94.0706062  14.7970581  29.7464657   5.3070086  14.3044221  41.5809584
   5.0211447  14.2047298  42.4890232   5.4000443  13.4076893  41.2593269
  62.6458597  88.2225132   5.5179739  62.8069925  87.8402519   6.3806099
  62.9125881  87.5414181   4.9005640  94.4112682  15.1038098  15.0191379
  94.2162991  15.5421150  15.8474553  95.3284836  14.8414040  15.0971019
  20.2132583  65.4658651  87.0822239  19.5268118  65.7812262  86.4943695
  20.3028941  64.5369768  86.8692398 105.9493256   3.4258553   5.4187286
 106.4156342   3.6512196   4.6137455 105.5188465   4.2392838   5.6818926
  36.1849022 105.8615875  56.8771505  35.8321023 106.2469006  56.0750914
  35.4219127 105.7474232  57.4437571  50.4277372 107.9345512  57.0294046
  49.5550108 108.0342960  57.4097013  50.9839487 108.5129166  57.5512743
  62.5751019  89.1558170  28.4125328  62.5649405  90.1076794  28.5130143
  61.6901112  88.8802910  28.6515141  69.3944788 101.8006897  43.2726669
  70.2808380 101.8843365  42.9210997  69.5096111 101.3453388  44.1067076
  75.3595304  81.2859058  15.2444839  76.0064507  81.7262650  15.7956719
  75.3233671  80.3920841  15.5850816  53.2597446 105.9627724  30.3876686
  54.0785694 106.3828659  30.6508827  52.5967216 106.6456127  30.4894042
  72.3386049  21.0354161  27.2634816  72.5936365  21.9579339  27.2757888
  72.2020435  20.8370090  26.3370800  56.4446735 112.5895882  32.8160977
  55.9190035 111.8344116  32.5522590  57.0759773 112.2350025  33.4421587
  74.4109011 100.0878525  27.2730660  73.9844418  99.5294380  26.6230392
  75.3275442 100.1174355  26.9989705  68.8994646 103.0433178  53.3976936
  69.0526342 102.1906853  53.8048840  68.5788155 102.8354740  52.5200748
  91.9999027  25.0378108  33.2069731  91.3928509  25.7556009  33.0267048
  91.5414143  24.4908595  33.8448358 112.4334240  33.2569456  13.9756441
 113.3736610  33.0810452  13.9404798 112.3184681  34.0503621  13.4526634
  51.7958164  98.4504986  30.1702785  50.8736324  98.6620998  30.3152919
  51.9304132  98.5954571  29.2337418  80.2810955 102.6838684  52.0308352
  81.1953735 102.9603291  52.0932961  79.7847319 103.4114170  52.4057055
 104.2377758   6.8145990  38.2983232 103.7334251   7.4134761  38.8489699
 103.8036156   6.8498456  37.4459791  81.1314297 112.2886372  26.7611718
  80.8265877 111.4212227  26.4948964  80.4421139 112.6181793  27.3377848
  95.7075214  38.0666852  31.4076042  95.0755501  38.7834883  31.4628124
  95.2398586  37.3700166  30.9469748 100.8742428   5.5845749  51.7415524
 100.3884792   5.6339133  52.5648546 101.1343861   4.6660614  51.6716194
  84.2181396  39.7704291  51.4823818  84.1755867  39.8003626  52.4381638
  83.3098125  39.6491551  51.2058640  62.5152493 103.9862061  29.7550869
  63.4212637 104.2891502  29.8149943  62.5567198 103.0590534  29.9894238
 104.3421459  19.1847157  66.5771866 104.4461536  18.3182752  66.9704962
 103.4111404  19.2397273  66.3616896  67.8195333  96.0593796  30.8545709
  67.6906109  95.2768803  31.3905859  67.3172426  96.7409801  31.3010645
  83.6621952  13.0167353  17.5964355  83.5949326  12.2783101  16.9910967
  84.6019936  13.1845784  17.6659966  55.1310730  94.9739742  47.4906778
  54.9186563  95.7019806  48.0747366  54.6400166  95.1581860  46.6899490
  47.6438189 107.0713234   7.5262153  47.6638699 106.6105652   8.3649838
  47.6666498 106.3749981   6.8698299  14.4708526  64.2920065  89.2061901
  15.3435087  64.2567921  89.5979404  14.5013273  65.0489759  88.6211205
  98.9477825  10.7861638  25.2423096  98.3278847  10.5889809  24.5401120
  98.9892387   9.9810112  25.7582974   5.5575883  55.6165695  96.7805004
   5.9119385  54.8207474  97.1771526   4.7579217  55.3290129  96.3399601
 107.4165249  89.0476131   7.5867856 107.3859119  89.9796009   7.8028411
 107.9935169  88.6670589   8.2489794 112.8031635  17.1153712  14.1431355
 112.7684689  16.2889922  14.6249306 113.6587524  17.4845254  14.3620777
  83.9088440   6.7371851  43.0660868  84.2718887   6.2630457  43.8141632
  82.9607868   6.6880792  43.1885910  52.4918938 109.3889713  12.5736225
  51.8406248 108.8057423  12.9633999  53.0423212 108.8129044  12.0431507
  71.6774273  11.2845314   7.9401582  71.1971998  11.6559923   8.6801773
  71.7589855  12.0088387   7.3197067  54.9684906 109.5858574  23.9312434
  54.6315622 110.1189613  23.2111597  55.9065723 109.7751999  23.9508700
 118.3018398  13.9260602  51.7746782 118.3470917  13.3076513  51.0454655
 117.5808334  14.5128989  51.5466642 100.6784344  30.5770850  48.7168026
 101.1467457  29.7427559  48.6882782 100.0835323  30.5435562  47.9676771
  56.1105299 110.1819420   8.3730966  56.2800407 110.5679131   9.2324698
  55.2606297 109.7517681   8.4671670  62.3065424  10.9723294  64.1870975
  62.1606159  11.8369019  64.5710945  63.2004547  11.0091758  63.8468027
  71.8852186 100.4704952  12.3916471  71.6699409 101.3983536  12.2969711
  71.4543056 100.2063751  13.2045352 105.9013844   4.7454870  15.1377189
 105.6861019   4.6663332  14.2084074 105.5438328   3.9513558  15.5348897
  66.1388111 102.5531673  22.6947832  65.3643036 102.8422737  22.2123098
  65.8639717 102.5540257  23.6116767  68.4991121 103.1024551   5.9091920
  68.8119268 103.8349438   5.3783035  69.1684294 102.9932213   6.5847033
  92.0803833 100.7714939  19.6124780  92.5760460 100.8037949  20.4307103
  91.1903477 100.5428886  19.8804700  47.7533627 107.6363564  44.2788029
  47.9251432 108.3357716  44.9093151  48.4064054 106.9662571  44.4806004
  46.1383295  94.5692062  17.1459806  45.4549980  95.2160740  16.9703472
  46.6974163  94.9837971  17.8030717  56.7063093  63.6671162   8.8920581
  56.1288691  64.4100904   9.0675116  56.1117649  62.9404688   8.7056899
  61.7266846 101.8620491   6.6920525  60.7937670 101.7230034   6.5290821
  62.1619844 101.1643028   6.2022537  80.9778976 107.5409889  22.3699689
  80.9431648 107.1658516  21.4900279  80.2744102 107.1000004  22.8462768
  58.1718969  83.7424660  14.2793643  57.6762772  84.5478821  14.1313493
  59.0408993  83.9270878  13.9230108  44.9040604  67.1361876  18.3948481
  45.1505375  67.4727440  17.5333297  44.7388840  66.2045765  18.2497692
 108.7935448  12.1726656  28.5786772 108.0576324  12.5479484  28.0951142
 108.4401798  11.9909096  29.4494987  78.8157701  99.6465969  16.9734371
  78.6204100  99.4364452  16.0602558  79.4445896  98.9775372  17.2439420
  58.8701010 107.0938778  25.4931116  58.7178612 107.8968048  25.9914613
  59.6279240 106.6897297  25.9157252  50.1468897 106.0327530  11.1146188
  49.5895910 105.9281349  10.3434455  50.9314299 105.5223083  10.9142005
  11.2410498  21.4675927  42.9183531  10.3978205  21.0937428  43.1741524
  11.0938716  22.4134088  42.9192400  36.4181018   8.5627222  40.6590414
  35.4755282   8.7029701  40.7491589  36.7851162   9.4434923  40.5830431
  61.0820007  89.4387722  41.8205976  61.4589262  89.3331146  42.6940918
  61.1169910  90.3812408  41.6570330 118.1086540   2.8153172  44.9399328
 117.5705814   2.1080390  44.5843077 117.5623608   3.2146686  45.6169176
  51.5129089  96.1849499  22.1545148  51.2700605  97.0744228  22.4115777
  51.3650370  95.6595707  22.9408622 105.8562660 112.0920086  40.0711441
 105.2155972 112.1282101  39.3608856 105.7809162 111.2024975  40.4165602
  53.5021400  95.2631378   0.9180576  53.3419704  94.3276596   0.7937423
  53.8026667  95.3363800   1.8239009  72.0376968  89.6210384  30.4187608
  71.7292166  88.9597034  31.0382009  72.5428820  89.1271400  29.7729373
  75.0248003 101.6641998  23.7618637  75.0410032 100.9664917  23.1067514
  74.0956354 101.7911911  23.9535928  67.0858479  99.5606709  40.8195210
  67.6525974  98.8646507  40.4869843  67.6182079 100.3536701  40.7564783
  72.7108574 102.9119492  27.7248454  73.5037470 102.4413872  27.4676752
  71.9941664 102.3832989  27.3739576  55.1581240 107.0547104  23.1146622
  54.8300171 107.8882980  23.4518790  54.3729734 106.5832615  22.8362584
  65.8437729 101.3221741  31.5710163  65.2351952 100.9590912  30.9275603
  66.2761354 102.0423317  31.1120248 102.3579025   5.3172338  12.1844375
 102.2000885   5.6409329  11.2975621 103.2186222   4.9010420  12.1378803
  98.3263874   6.4838791   9.8292273  98.2847691   7.2324556   9.2341363
  97.8622246   6.7755908  10.6138885  84.8785400   7.0531511  12.1674085
  84.9302578   7.6815820  12.8875697  85.2820206   6.2575078  12.5143862
  59.3891764 109.8426723  14.6831644  59.1779900 110.0058556  15.6024039
  59.4197178 108.8887501  14.6101236  79.0482330 103.7551022  31.7922592
  78.9238358 102.8065014  31.8227410  79.2275429 104.0024185  32.6994061
  98.0448723  12.7355921   7.1084714  97.4166775  12.1335793   6.7094970
  98.7648201  12.1743381   7.3963958   5.7111037  11.6272891  33.3620667
   5.7972687  12.5034559  32.9863811   5.2201647  11.1325788  32.7059627
  73.0337000 109.9014664  11.7111778  72.6236296 109.0383816  11.6550505
  72.3084736 110.5000305  11.8900788  84.0092182   2.0837310  18.3911180
  84.4236279   2.4950197  19.1496277  84.6283913   1.4069670  18.1175435
  82.0934868 104.3431187  18.4845400  82.0146656 103.6748409  19.1652930
  82.7428150 103.9900208  17.8763235  80.8419609  16.3003957  23.1880331
  80.4564953  15.5347610  22.7620673  80.2259731  16.5213203  23.8865876
  52.7749205 100.6043339   3.8234925  53.1638575 101.2408829   3.2236874
  52.7736330 101.0454369   4.6730000  52.4317694  84.1575909  27.6224780
  51.7129993  83.9238167  27.0351505  52.9439831  84.7993565  27.1305346
  24.8166251  99.3759060  48.7830210  24.1984153  98.6751366  48.5757303
  24.2695332 100.1540184  48.8901186  30.9977221 107.8972530  33.2357240
  30.2042770 107.6588345  32.7563167  31.6620469 107.2853374  32.9187799
  58.3499479 104.2844963   1.1571585  58.1812811 103.5253906   0.5990019
  57.6037073 104.8642921   1.0048794  54.9431753 103.5941124  16.5102565
  55.2424383 103.7918568  17.3977077  55.5202627 104.1057587  15.9433115
  97.8939629  95.6118870  56.1391115  97.0213985  95.3391647  55.8554077
  97.7753448  96.5097618  56.4489174  86.7287636   4.9255717  29.0638828
  87.0365334   5.4175216  29.8251271  86.2637234   5.5721241  28.5329032
  70.3558207  98.5242939  43.3413267  71.2830639  98.3067703  43.4369421
  70.1916075  98.4645748  42.4002075 118.4464931   0.3451639  48.3433867
 118.8060951   1.1907251  48.6116028 119.1577148  -0.0750709  47.8598642
  72.3590231 101.4369678  42.3461294  72.4642038 100.4861736  42.3801374
  72.5110388 101.6620827  41.4282799  47.0385933 102.2110367  42.8545713
  47.2690201 102.5955391  42.0088196  47.2085381 101.2752628  42.7465200
 112.5889778  11.5523541  38.0473495 112.6750278  11.1725104  37.1729660
 113.1744480  12.3095703  38.0382180  13.5275745  28.7534642   3.0342385
  12.8932393  29.1339731   3.6417460  13.7461293  27.9038739   3.4172001
  19.7101831  36.1789632   5.3054154  19.2339456  36.6278100   6.0039616
  19.0734601  35.5668640   4.9364311  29.8700142  18.4300327  11.0745203
  29.1557217  17.9775143  10.6259155  30.2682161  18.9783168  10.3984642
  38.3785415  19.0577233  26.9533563  38.7191772  19.9020958  27.2487116
  38.4323168  19.0985012  25.9985375  21.0580420  42.8562164  27.2687745
  20.5272388  42.6082754  26.5118027  20.9984875  43.8110304  27.3006558
  74.2551041  86.8064880  95.7641602  73.5603046  87.4160290  95.5152798
  73.7933540  86.0063553  96.0147572  19.7174537  23.9488006  19.5802546
  19.3788731  23.9142966  18.6856008  19.2545044  24.6832347  19.9833882
  12.1696508  38.7601280  12.0855200  11.6408730  37.9638219  12.0352650
  12.7278161  38.6290169  12.8520000  80.4580212  71.1071682  92.9883099
  79.7900152  71.6552019  93.4002113  80.0413990  70.7803202  92.1909237
  85.6355190 103.3674908  95.5161476  85.4125214 102.9216480  96.3333035
  86.3094711 104.0001392  95.7646847 100.6216717  97.3140717  87.9031086
 101.4835739  97.3506546  88.3178616 100.6185341  98.0507088  87.2918797
  65.4254246 101.4120483  94.6521664  65.5091810 102.2223377  94.1495228
  65.4547310 100.7177448  93.9938927  43.4860754  30.6160498  36.0197282
  42.9042912  29.9301171  35.6922269  43.7191010  30.3308105  36.9032264
  34.7147076  36.7143646   0.1595232  35.0107758  36.4163700  -0.7005766
  35.3800432  36.3911930   0.7670709  29.4197321  59.8557329   3.8270432
  29.3918920  60.3503990   4.6460450  29.8498750  60.4439974   3.2064354
  28.5029078  37.0122623  41.0557985  28.8285375  36.1878324  41.4170647
  29.2828131  37.5604153  40.9691477  36.4144516  34.2057776  25.9722519
  36.4862776  33.8711429  25.0783324  36.1783314  35.1271582  25.8648324
  86.6471481  89.3361473  89.3860245  87.1465492  89.9662209  88.8665485
  85.7746124  89.3393707  88.9924431  35.9339094  50.3441858  11.4885414
  36.0545897  49.4284391  11.7396772  36.5932250  50.8199596  11.9936895
  35.4240727  39.9989939  22.0976305  35.1755357  40.2287579  21.2022710
  36.3674998  39.8437762  22.0519733  38.4211516  41.8503141   4.3344656
  37.9876208  42.6349640   4.6700358  39.0489483  42.1799803   3.6914864
 116.4256382   7.1468955  94.8445225 116.1049652   6.3848966  95.3269672
 116.9142342   7.6530904  95.4935741  26.2397313  61.0712671  40.5224276
  26.2980986  60.1692390  40.2075243  25.9784532  61.5771437  39.7529769
  45.0036804  38.6316505  -0.0798491  45.7485573  38.1255737   0.2446195
  44.2677491  38.3498303   0.4634878 113.6168671  24.7852445   2.1264845
 112.9885960  24.2047906   2.5561124 113.2772064  24.8900318   1.2377306
  41.5201664  56.9034004   4.8746163  40.7098770  57.3718739   4.6741167
  42.0696735  57.5524807   5.3139031  52.7761459  46.0273695  20.0449181
  53.2931614  46.6901112  19.5869875  52.8761053  45.2369118  19.5144284
  16.5775394  30.8647919  30.3926039  16.0002565  31.0221767  29.6454716
  17.4499559  30.7811046  30.0077438  66.6825056  84.8477077  94.1720009
  66.9166136  84.5880604  93.2809258  67.4249792  85.3723812  94.4714737
  59.0229177  55.5776548  11.4721096  59.7437859  55.9373569  11.9890213
  58.4377098  55.1835251  12.1189654  94.3651485  73.2772589  79.2854214
  95.3059483  73.4530640  79.2709208  94.0595627  73.5368156  78.4162378
  64.4349480  78.8847876  92.8071785  64.5669079  79.5807934  93.4509087
  65.3198195  78.6134720  92.5629902  36.6191363  49.8785305  38.1588316
  35.9198952  49.3055344  38.4734297  36.4423656  50.7225132  38.5743833
  26.7043495  67.6319981   8.1353444  26.8879890  66.6925812   8.1356812
  26.1706805  67.7714396   7.3530495  27.5098538  25.4819036   8.0440819
  27.8793049  26.2071657   7.5403637  26.9132113  25.9006286   8.6645013
  61.9622707 101.1601162  87.5264549  61.0738134 101.0586357  87.1850109
  61.9281197 101.9616699  88.0485439  18.4578991  37.2948337  25.7994390
  19.0000784  36.5148878  25.6813025  18.6291671  37.5714850  26.6996408
  58.7648678  36.8936706  26.1497092  59.4438839  37.5673938  26.1140752
  58.0997610  37.2547126  26.7358112  13.1904864  54.9414682   6.4904130
  12.5543988  54.2289495   6.5532005  14.0398502  54.5149994   6.6041398
   7.3821956  17.2320771  93.0218410   7.2023106  17.1604776  92.0844269
   8.2679415  17.5918925  93.0689526  35.2188325  53.0890751  15.8685791
  35.0841236  53.9976215  15.5990815  35.0861979  52.5798893  15.0689733
  41.3255024  63.9371061   9.0658259  41.9306517  64.6787024   9.0738571
  41.5995359  63.4124947   8.3135486  38.0124879  34.8062277  11.6003275
  38.1420803  35.3494644  12.3777151  38.8982558  34.5930958  11.3066936
  44.9745131  41.5810108  14.0604508  45.8866835  41.3448906  14.2290437
  44.5218468  41.3897514  14.8818791  47.3951435  30.0535846  16.8531048
  48.3260393  29.9467659  17.0486844  47.1411991  30.8477211  17.3233092
  30.1926184  72.2949457  12.0389163  30.7834029  72.8933716  11.5816557
  29.3631816  72.3701668  11.5671015   3.3038026  38.2880497  29.8467207
   2.4735242  37.8176713  29.9216509   3.9329273  37.7396178  30.3153968
 111.4948654   0.2322062  96.4079952 111.6231251   1.0781793  96.8370724
 110.8287811   0.4002795  95.7414246  49.9805498  49.1756248  18.3382142
  49.9728775  48.2283688  18.4755874  49.1082048  49.4637012  18.6070383
  37.1479940  41.4394426   7.2246253  36.8375397  42.2989273   6.9397825
  38.0410266  41.3826418   6.8847740  88.4818077 102.0462322  77.9079676
  87.6185799 101.6341591  77.8723574  88.9134121 101.7682457  77.1000862
  37.4435568  32.2494030  16.0862958  37.5700688  31.6230249  15.3736424
  36.5100598  32.4591875  16.0578954  13.6616468  14.1755295  19.2520165
  13.0280805  13.9537013  18.5696554  14.2476761  14.8090374  18.8379276
  52.3141766  54.1258192  26.5194058  53.2319641  53.8767719  26.4104319
  52.3310995  54.8208475  27.1773434 103.5444736  95.7859802  93.4092236
 103.7161446  95.7175255  92.4700356 103.7363148  96.6993332  93.6218262
  20.9627080  62.3608780  19.2137742  21.1622190  61.4310980  19.1045296
  20.8568215  62.4737453  20.1583815  33.3476543  43.1903362  14.1426921
  33.7840080  43.6635351  14.8511517  32.4659109  43.5617447  14.1140997
  30.0405502  64.5883703  12.5232399  30.0861716  64.2947340  13.4331453
  30.7683301  65.2035809  12.4333251  23.1221962  65.5981159  20.6101227
  22.2970271  65.4031610  20.1659155  23.7907338  65.4831791  19.9347878
  81.7040443  91.8427849  95.4200077  81.6787243  91.7936707  94.4644070
  81.3702965  92.7164459  95.6238651  19.4101930  46.8769550  28.6417627
  18.9238739  47.4374342  29.2464018  20.0307751  46.4062119  29.1980982
  60.9952974   9.0964633  10.8839405  60.3804684   9.5997852  11.4176881
  60.7236242   8.1859970  11.0000372  42.6256752  72.1297264  14.9499774
  42.8313875  71.7215204  14.1089749  41.7057705  72.3833132  14.8744869
  33.0748248  82.2123146  87.3995018  33.6041784  81.8520164  86.6880131
  32.1758628  81.9729519  87.1741009  35.9879684  71.8664932  13.6731386
  36.5299416  72.6445818  13.8038039  35.1378918  72.2101164  13.3983171
  46.5915632  41.0655069  41.2699461  46.7495680  40.9346867  42.2049093
  46.9662762  40.2897072  40.8528662  40.3063202  47.2409058   7.9099172
  40.9549189  47.0790672   8.5950166  40.7075596  47.9080582   7.3530143
   1.4558633   4.8917198  95.3053379   1.9628985   5.6580937  95.0373554
   1.9471174   4.1465843  94.9594021  53.8655853  26.9191170   6.6694081
  54.7185516  27.0096874   6.2445813  53.2338572  26.9739890   5.9523749
  29.3099856  41.3327074   5.3703672  28.9825177  40.4377365   5.2807605
  28.8335586  41.8297768   4.7054076  80.2025318 100.8566093  85.3840446
  80.2851391 101.7876339  85.5904388  79.5965624 100.8282757  84.6436119
  20.4032040  63.6010075   4.3511149  21.1389899  63.1174278   3.9756164
  20.5442786  64.5059061   4.0727371  25.6496692  50.5782461  18.3765507
  26.1456537  49.8386240  18.0255723  25.9829450  51.3381481  17.8993642
  75.1159525  73.5970402  94.9728680  75.6134748  73.0920458  95.6160545
  75.7830763  74.0334463  94.4430256  31.9862700  40.8551836  15.0291586
  32.5230622  41.5504074  14.6486938  32.4931788  40.0558805  14.8863649
  32.0979524  58.0672359  12.6677060  32.2096920  58.0874825  11.7172658
  31.6222715  58.8728189  12.8701603  22.1006775  33.0034518   6.8205082
  22.5533581  32.5763226   6.0932726  21.4645433  32.3543978   7.1209973
  55.3272676  84.4207859  83.8281536  55.1095152  85.2967453  84.1467476
  56.2489176  84.3042660  84.0588379  29.0336013  67.0849037  15.1808083
  29.3687224  67.6737309  15.8569825  28.9618158  67.6334333  14.3996596
  80.2982521 110.2494240  91.7460728  79.5893049 110.4774857  91.1447334
  81.0824871 110.2354050  91.1974335  15.8733237  44.4941330  21.0728502
  16.5676856  45.0850964  21.3641524  15.3992045  44.9916744  20.4065967
  44.5694304  32.7946544  27.8249645  44.7208118  33.7329531  27.9385877
  44.8948526  32.3998499  28.6339545  63.6862183  54.4412613  14.5628870
  63.4448147  54.0477085  13.7243915  63.5328531  53.7486458  15.2055383
  45.3353596  66.1827898  28.0135703  44.9865866  65.5826664  28.6726904
  44.7905684  66.0328436  27.2409439  29.0744853  56.6284323  16.2426698
  28.9606643  55.9342861  16.8918538  28.3575058  56.4962149  15.6224358
  92.4662590  83.7760925  96.3835144  91.6861629  83.2214069  96.3864231
  93.0445766  83.3794880  97.0350361  35.3711748  50.0480270  18.6189055
  34.5727921  50.2177906  18.1189084  35.4092431  49.0944529  18.6928809
  72.9500294  80.1457024  95.5341244  72.7549362  80.8056736  96.1994076
  73.6560869  79.6233606  95.9147263 117.7160645  32.5494766  17.9784632
 118.1403160  33.1972313  17.4157381 117.7775288  31.7295480  17.4883914
   7.9532361  17.3700178  78.5701609   7.0262992  17.2795546  78.3491707
   8.2000393  18.2266927  78.2216930  20.3656435  47.1909142   2.6540330
  20.6004596  48.1153822   2.5737196  19.5360029  47.1951246   3.1314331
  53.7749243  97.3662567  91.7297935  53.2394886  97.1557903  92.4948025
  54.6349812  97.5807476  92.0910835 101.3956642   2.9194382  85.9416389
 102.0154476   2.5309882  86.5590572 100.7069492   2.2613546  85.8476257
  23.5218573  67.2057199  39.2797399  22.7259207  67.7106476  39.4463706
  23.8672519  67.0087862  40.1504564  25.8515286  36.3802481  12.8411233
  25.6176376  36.3436174  13.7685847  25.7319069  35.4835343  12.5283492
   9.8355156  37.4751925  15.2922666   9.5328081  37.3824120  16.1955881
  10.2699208  38.3278942  15.2716208  45.0228548  79.6746063  28.6221528
  44.9625158  80.5543804  28.2498860  44.1157961  79.3729973  28.6722445
  35.2203608  97.6668930  95.2150631  34.4777584  97.5689602  95.8110332
  35.9712625  97.8138924  95.7901859  28.1644869  51.6276789   3.1914207
  27.8905344  51.6403818   2.2743490  29.0417600  52.0105362   3.1846520
  35.6596327  54.0112352  11.7296588  36.0950255  53.7531471  10.9172225
  36.3610005  54.3688250  12.2741246  44.5608616  49.0275526   7.9570228
  45.0035715  48.4728432   8.5993111  43.8264799  48.4970188   7.6480722
  33.4140658  62.7501011  29.2122459  32.9643798  61.9074726  29.1490769
  33.1657791  63.2146025  28.4129810  34.0532470  24.4380260   9.2811668
  34.5142365  24.2334485  10.0947189  34.2053676  23.6764240   8.7216538
  41.2117481  33.3743715  13.6299801  41.2065411  32.5135660  14.0485716
  42.1328306  33.6348271  13.6293530  49.5195007  48.5289145  10.6234729
  49.3972015  49.2956066  11.1833489  49.8983908  48.8790941   9.8172170
  39.1185141  56.7709446  20.8171773  39.5177436  55.9771347  20.4612017
  39.0113354  56.5873241  21.7504668  50.9899616   5.8429229   3.7692699
  51.1279392   5.5006307   4.6524635  50.6463242   5.0987464   3.2749581
  32.8668737  38.4658861   8.4650749  32.2296643  39.1790795   8.4256828
  33.6595130  38.8308954   8.0717272  27.3354435  13.3690870   0.8956677
  27.8397083  12.9274297   1.5789609  27.9816484  13.5866082   0.2238510
  38.2010627  24.4639397  12.8847337  39.1561341  24.4008279  12.8941560
  38.0201817  25.3863072  13.0657101  43.8938808  56.6611576  12.0249724
  44.1028547  57.5950527  12.0449746  43.4751177  56.5275860  11.1746609
  78.0136490  88.7268639  93.4430408  78.1374073  88.8140106  92.4978828
  78.4827042  89.4733429  93.8158512  10.0175858   6.9239342  82.0544052
   9.4433546   6.5770996  82.7371979   9.9979335   6.2602240  81.3649654
  51.6396475  36.5805483   2.4772839  52.2892189  36.8372846   1.8227813
  51.8512440  37.1108222   3.2455736  57.1741152  44.3515158  14.4006050
  57.2776318  43.5828829  14.9616039  56.6175652  44.0505838  13.6823261
  22.4634242  54.5681858  11.4766443  21.8680930  55.2625227  11.7589653
  23.2247424  54.6576738  12.0498943  29.0770197  30.3619552  36.9902468
  29.4748783  31.0992026  37.4532890  29.8190808  29.8790359  36.6264272
  34.9969411  56.5116072   3.2738623  34.2772102  57.0575237   3.5903913
  34.9856591  55.7447195   3.8465658  53.0272818  26.9846439  26.2291479
  52.6270819  26.6303039  27.0231986  53.8409519  27.3886132  26.5307808
  47.5604010  67.1469355  27.1399999  47.3559856  68.0813313  27.1767545
  46.8458366  66.7264414  27.6183462  27.6834846  33.6333895   0.4181617
  27.7781653  33.0742097   1.1892562  27.9353905  34.5053482   0.7222373
  85.7140350  74.2180824  93.1694603  85.1103210  73.4776115  93.2283401
  85.4807568  74.7768402  93.9108181  23.2128835  36.2021852   9.4437772
  22.9481864  35.8570623  10.2964520  23.5697842  35.4451513   8.9792854
  80.7507133  97.5570011  82.9651546  79.8483372  97.2642326  82.8377342
  80.7709599  97.8866768  83.8635635  40.4947233  54.1377401   8.6580259
  40.4862118  53.9301205   7.7236527  40.3518581  53.2964277   9.0916318
  31.4686656  53.1396437  14.1015828  32.2681594  52.6847124  13.8368595
  31.5894985  54.0368509  13.7906969  55.7904768  46.4827776  25.5691171
  56.2373686  45.6561804  25.3867555  55.5189753  46.8031168  24.7089434
  33.3440590  50.1738977  26.0894608  33.1329536  50.8221340  26.7613673
  33.6350560  50.6924772  25.3393745  54.8825693  88.5425568  87.9999352
  55.6443119  88.9571857  88.4049702  54.1317797  88.9265919  88.4527779
 116.5328598  52.3186731  20.9891009 116.4532280  52.6712179  21.8754435
 115.7959175  52.7005672  20.5123353   7.7680504  11.1937118  89.4916821
   7.6143503  10.9393525  88.5817814   7.4065483  10.4721856  90.0064087
  47.9006433 110.9632969  93.9019871  47.7509212 110.1443672  94.3743896
  47.9248190 111.6330624  94.5853996  19.7909474  60.3223801  10.2751720
  19.6307826  59.5900011   9.6800286  20.5612445  60.0581646  10.7782292
  50.0336933  57.4148607  26.3858032  49.9995232  56.4632034  26.2887740
  50.8957720  57.6591444  26.0490942  20.8868837  63.8365269  14.1271627
  20.7924795  63.1935930  14.8299825  20.8167410  63.3234215  13.3221555
 118.9449978   5.5496770  87.0413113 118.3942890   5.0383228  87.6341629
 119.2854118   4.9083093  86.4176178 112.4770737  21.3286638  96.0006905
 112.1002865  21.7996216  95.2574062 113.0757427  20.6955290  95.6044865
  33.6353850  35.4742622  12.1257186  33.6622310  34.7667241  11.4815903
  33.0430627  36.1225724  11.7448223  42.9471445  64.2725468   0.8964725
  43.3966160  64.6713400   1.6415712  43.5220528  64.4434834   0.1504870
 105.0941753  16.7014217  93.7613392 104.5660496  15.9048307  93.7088490
 105.7303238  16.5218472  94.4536591  59.6091747  47.4655437  16.9114864
  60.0769615  46.8438196  16.3539314  60.0705957  47.4300528  17.7493799
  33.2196760  52.2240067  27.9846239  33.6673141  52.3581600  28.8200021
  33.5565233  52.9182196  27.4182010  90.9408855 111.4819241  92.0532227
  91.6007233 111.6940784  91.3930416  90.1694298 111.2265491  91.5473747
 116.8085194  13.8866079  80.7249260 116.4991570  13.3309102  81.4402771
 117.1534157  14.6666157  81.1595249   5.4564029   8.0750757  96.0609818
   6.3668060   8.3629876  95.9938622   5.5090004   7.1198457  96.0926247
  28.5135937   2.5903073  92.4965096  28.3809423   3.1311208  93.2750702
  28.4349513   3.2015222  91.7640686  63.5608482 108.5817528  76.8054247
  63.5075283 108.4310055  77.7491760  62.7189112 108.9762497  76.5779448
  48.5281467  47.9982042  13.6773741  49.4713831  47.8371239  13.7015426
  48.1753397  47.2772980  13.1557882  21.8365359   5.7733786  94.2416382
  21.6988707   6.4865887  94.8650265  22.2811151   6.1853099  93.5007572
  51.9763613  60.5874205  36.3865900  52.1479797  60.2924204  35.4922986
  51.3595867  59.9445486  36.7366505  44.6495771  74.0230608   9.1571492
  44.2541790  73.2519150   9.5636225  45.1322269  73.6771631   8.4063911
  23.5263801  69.9583960  10.8276129  23.2852507  69.6546984   9.9524808
  24.4605517  70.1569319  10.7632911  60.5564976  42.9646587  30.4507256
  60.6803608  43.5391808  29.6952057  60.2870655  42.1273088  30.0732565
  26.2545466  60.9956408   5.7833833  26.3434052  60.1811075   5.2885377
  27.1472144  61.3349724   5.8484232  86.5132236  89.8446274  92.2945595
  86.2258911  90.6779575  92.6676941  86.5125084  89.9927044  91.3488865
  51.9098043  36.4653492  23.4165454  51.0265255  36.0965157  23.4195876
  52.3914146  35.9388447  24.0545750  31.1574745  60.7348299  12.9211128
  31.8890953  61.1219835  13.4018147  31.4202189  60.7871342  12.0021665
 100.8774948  90.5374146  91.2110710 100.9652138  91.4749908  91.3827991
 100.9427929  90.4611397  90.2591515 118.4182262   4.9023029  75.2365065
 119.2169857   5.4297513  75.2354717 118.6346531   4.1388237  74.7012615
  54.0224504  71.0036278  26.4655900  54.0540791  71.1536646  25.5207515
  54.8668718  70.6033850  26.6729426  56.7974186  79.1144085   3.8202766
  56.9334793  79.1493416   2.8734404  56.3237429  78.2951593   3.9641157
  65.0904417  37.9940200  23.7331939  65.3849745  37.9456306  24.6426678
  64.9341631  37.0833349  23.4832716  31.3845539  74.1929579  24.0149617
  31.3395667  73.3444309  24.4556546  30.5803490  74.2371511  23.4977269
  61.7142677 108.1849194  81.9580555  61.8660975 108.1151485  82.9005623
  60.8958244 107.7106667  81.8115425  17.1620786  59.3661118   2.3587431
  17.2499371  58.4386587   2.5786173  17.8269172  59.8025656   2.8914052
  40.4253387  65.9655285   2.6884550  40.3375006  65.0123835   2.6827502
  39.5569754  66.2846184   2.9341233   3.0100685   0.5826894  84.7863483
   3.3828869  -0.0007903  84.1254425   2.7039021   1.3418941  84.2902565
  38.7154961  56.6405535  23.6460733  38.2222629  57.1297359  24.3045974
  39.6330738  56.8134975  23.8567233  51.7181015  55.1151180  14.4843674
  51.3240147  54.6302605  13.7592196  52.0548010  54.4374990  15.0706244
  57.2826862  78.2610226  17.5785351  57.9684401  78.7716913  18.0088770
  57.7576590  77.6287985  17.0391572   5.0050247  22.5480676  86.5975952
   4.5747042  22.8387260  85.7934952   5.3146321  23.3551168  87.0087433
 118.9527988  20.0551152  95.6746578 118.3582115  20.5125833  95.0801563
 118.3972454  19.7793829  96.4037418  41.1364889  42.3625278  32.4824476
  40.5910730  41.5928459  32.6447296  40.5118990  43.0785465  32.3665047
  99.0584850  98.0998039  93.2549477  99.3827152  97.8925991  92.3785019
  98.8721657  99.0382481  93.2257366  11.7822647  18.4614694  80.8529568
  11.9132769  18.1821501  79.9468422  11.0867834  17.8915083  81.1811161
  27.8315020  47.3347855  19.9676418  28.5547614  47.6001787  20.5357003
  27.1365333  47.0725965  20.5713892  28.6909032  78.8830566   8.1511497
  29.4148564  78.2568645   8.1540686  28.1398320  78.6155033   8.8866550
  33.7236142  80.2637100  20.4400039  33.1683230  79.5544338  20.7637453
  33.1079745  80.9196281  20.1129103  75.5286646  91.5376377  86.4034748
  75.4582500  90.9811592  85.6278419  74.7134256  91.3862228  86.8816948
  34.0859127  46.7923641  23.1437087  34.5892787  47.4223852  22.6280284
  33.1850934  47.1131802  23.1009293  17.6341522  86.6465759  20.0358820
  17.1724761  86.1585045  20.7176971  18.2270026  86.0061741  19.6426392
  35.1848841  53.0969381   7.7365905  35.8982420  53.4550190   8.2649142
  34.6861649  52.5520325   8.3453542  40.1874971  57.4444294  11.7637813
  39.3787360  57.4177694  11.2524784  40.8759117  57.2292852  11.1344731
  28.4130812  68.8213062   1.8495326  27.6274633  69.1839218   1.4402127
  28.5584378  67.9913378   1.3953771  45.6759214  64.9289322   3.8975844
  46.1467409  65.4516649   4.5466715  44.7817039  65.2697659   3.9185193
  45.0275326  56.8275023   2.9373801  44.6684265  57.6825333   2.7003092
  45.9476662  57.0009327   3.1361568  42.2425032  68.2884502  29.1368341
  42.0741415  68.0904675  28.2155895  41.5289497  68.8739824  29.3902636
  31.8266511  63.5203981   5.0645202  32.0165896  63.8240671   5.9521812
  31.9773173  64.2871571   4.5116997  46.6447687  35.0930047  10.0566471
  46.4079475  35.9788680  10.3312325  46.1830282  34.5208001  10.6695163
  31.5377569  49.1795444   1.5597734  30.6846929  48.7805080   1.7309014
  32.1601796  48.4564114   1.6366297  66.5270042  56.1633635  29.3988514
  66.3975000  57.1018410  29.2620182  66.7795801  55.8284807  28.5384536
  50.0677204  60.0191975   2.3464411  50.4374981  60.8426237   2.0279132
  50.4880428  59.3453360   1.8121441  33.5652137  61.5079403   2.3311464
  34.3815589  61.6623402   2.8065142  33.6094236  62.1002960   1.5805514
   9.3022907  26.9561768  92.4377823   8.3655810  26.8212557  92.5813198
   9.3919289  27.0216131  91.4870358  26.5012383  55.8852577  20.7405710
  26.5153551  55.6409121  19.8151934  26.2256527  55.0888252  21.1944175
   3.5781273   3.3437386  90.0684261   3.7715143   2.4472731  90.3426170
   2.8452951   3.2550099  89.4590664  17.8603137  70.3537798   1.8943614
  18.1952536  69.9081182   1.1162660  16.9087863  70.2784872   1.8225348
  51.2379694  49.1412592   3.4461376  50.6340742  48.9818430   4.1714838
  51.9183588  49.7014332   3.8196474 115.0535774  10.7588971  75.5502748
 115.3368282  10.3515816  74.7316790 115.8384991  11.1911643  75.8868504
 109.5757675  20.3628635  65.7465792 110.0824928  20.3629375  66.5586519
 109.4089031  19.4373024  65.5684710  42.0752335  10.8448374  18.2559323
  41.4877081  11.2092423  17.5939226  42.6161289  11.5855098  18.5299110
  55.0293350  59.5493984   5.9655869  55.0247622  58.7353134   6.4690495
  54.7335005  60.2160549   6.5854955  40.0950146  39.8975778   8.7892997
  40.3248167  40.4307795   9.5502996  39.2526197  39.5046234   9.0177423
  31.4698267  74.7312784  17.1892691  32.1692014  74.1017532  17.0137620
  31.6029000  75.4237604  16.5419745  38.3045340  49.6728659   4.4293854
  38.4453750  48.8433886   3.9729130  37.7739096  49.4399071   5.1912260
  46.8027925  78.1191635  30.0595284  47.6979542  78.4569216  30.0884151
  46.3072014  78.7935829  29.5950127  19.5151687   5.9274155  97.2455025
  19.0029287   5.8114094  96.4452648  19.7773898   5.0406414  97.4926949
 119.3226814  49.1243124   7.6341003 118.5216427  49.1915464   7.1144509
 119.5363998  50.0288725   7.8628653  17.0236063  23.8027358  96.2661839
  17.5895202  24.4365668  95.8254623  16.2425840  24.3029451  96.5028858
  52.8354359  64.6888351  10.3129852  52.8622293  65.4692268  10.8666170
  52.9453897  63.9589405  10.9224081  14.7273469  36.6796541  27.6377821
  13.9067090  36.7217946  27.1468520  15.1405525  35.8676219  27.3443580
  35.6102657  47.1885586  18.9136219  36.4718652  46.8395185  18.6854756
  35.1285839  46.4343405  19.2532885  52.2672272  45.8306360   0.7130793
  51.7729807  45.0116730   0.6776997  52.4070072  45.9858608   1.6472086
  14.8803687   2.4581978  88.1468105  15.7725751   2.1139094  88.1876183
  14.6827269   2.7185473  89.0464783  42.3575497  50.4397440   9.5166904
  43.0560112  49.7854948   9.5351577  42.8119278  51.2777042   9.6038729
  57.6276827  56.1001444  33.9628243  57.4954844  57.0400620  34.0865588
  58.4976578  56.0303307  33.5697579  34.5948958  92.2846508  12.6074600
  35.2806330  92.3387623  11.9418263  35.0653601  92.1084595  13.4222329
  82.2403717  78.4914446  18.3664525  81.3870049  78.4984684  18.7999880
  82.8637314  78.3020163  19.0677154  19.3660176  54.9621391   7.3424113
  18.4796071  55.3218603   7.3090869  19.4516778  54.6182585   8.2315916
  34.2967558  33.9196491   2.2468010  34.3945122  33.8161373   1.3002488
  33.7014675  34.6625924   2.3462825  11.9441926  61.8065262  16.3001764
  12.2482884  61.5929508  17.1823001  12.4874723  62.5477457  16.0324574
  50.7144690  74.0721035  28.5174227  50.7240677  73.1395245  28.3019447
  50.7340956  74.5142460  27.6686835  59.2495632  69.0624332  23.8569498
  59.5807076  69.9596977  23.8183427  60.0078440  68.5179615  23.6452889
  49.6680069  65.4770327  27.6228976  48.8084841  65.8842325  27.5150251
  49.9137306  65.6722498  28.5271907  36.3673544  48.7705421  25.1123881
  37.3123050  48.6785507  24.9905801  36.0040402  48.6995459  24.2296696
  55.1446104  37.6474762  16.1273706  56.0178518  37.8535748  16.4608514
  54.6999693  37.2275758  16.8637180  56.0589027  80.2902603  34.1428542
  56.1588192  81.2420654  34.1251707  56.6142416  79.9778271  33.4285641
  27.6837158  50.4975843   5.5351096  27.1716404  51.2505627   5.8301270
  27.9269958  50.7114649   4.6343854  11.1599612   4.9407512  92.3964119
  11.3573885   5.0104028  91.4623833  11.3624990   4.0315729  92.6168728
  37.7938557  65.6291342  11.5547347  37.8771973  65.0557613  10.7928085
  38.6454892  65.5763435  11.9885123  63.1304884  61.5320253  17.0837426
  62.8658342  61.0921240  16.2758589  62.6003599  62.3286629  17.1074116
  33.8373780  51.7346764   9.7571230  33.3413744  51.0187626   9.3600368
  34.3487692  51.3164234  10.4497802  36.6017079  74.5428801  32.2237778
  36.1221480  74.8734713  32.9833579  36.3033390  73.6385107  32.1271873
  27.3594809  75.6448793   9.3759090  27.6608801  75.6722975   8.4678131
  27.1239281  76.5504694   9.5775330  59.3720627  68.3524370  20.8402085
  59.8859406  67.5614452  21.0029888  59.2524958  68.7427711  21.7059875
  57.6379681  33.4929895  10.1136768  57.6425409  32.5564003  10.3111804
  56.7437553  33.6720943   9.8229194  36.4819074  35.3764105  33.9043808
  36.7323065  35.2475977  34.8192239  37.2372580  35.8108258  33.5082006
  36.9656205  69.3761158  26.1188126  36.3822079  69.8073339  25.4943800
  36.4008260  68.7646246  26.5913725  19.0962040  16.1599016   1.2021735
  19.2836142  15.3560388   0.7174936  19.9558949  16.4825511   1.4724736
  52.3406553  71.7827654   1.0515887  52.9927683  71.8692636   1.7469263
  51.8308258  71.0104179   1.2960929  28.7079310   5.1073873  94.2382812
  28.5186481   5.7175153  94.9511242  29.2351460   4.4198275  94.6451473
  50.9649801  62.0118523   4.7402349  51.6454554  62.6705647   4.6013767
  51.1151171  61.3636541   4.0521017   8.0525643 111.5121365  92.3782253
   8.2213187 111.5249348  93.3203506   7.3725855 110.8479023  92.2657108
  38.4077334  67.9736185  21.6705513  38.0165648  67.1500683  21.9620657
  38.3978319  67.9184628  20.7149935  42.8995514  58.6669827   6.7995960
  43.4278250  59.3085241   6.3246417  42.0568132  59.1012764   6.9315696
  26.6019416  42.9323578   7.8313982  27.0375228  42.0849228   7.7399880
  26.8192649  43.4014893   7.0258439  54.6255064  47.0498562   7.8563023
  53.9423847  46.4178944   8.0803680  55.4451036  46.5728474   7.9865056
  50.8069754  54.9520111  21.9023609  50.0129414  54.6352911  22.3329806
  51.4791298  54.3130732  22.1394229  36.8064141  22.8491497  75.1303387
  36.3008547  23.3173156  75.7947683  36.2202978  22.7980947  74.3752956
  26.2572384  70.2571678   7.3274672  26.6509843  69.3874693   7.3968649
  26.9799805  70.8614969   7.4967581  40.8874226  75.9098721   7.1551687
  40.3358412  75.2144098   7.5133932  40.2961206  76.6555452   7.0523655
  36.5120268  66.5743971  34.5027900  36.1698866  67.2306538  35.1098275
  37.1819639  67.0385981  34.0008640  28.2824349  83.0774879  29.8133874
  27.7400780  82.4098873  30.2333784  29.1530728  82.9508018  30.1904464
  40.2423477  66.0441208  12.7062154  40.6823254  66.8648291  12.9277694
  40.8511400  65.5971575  12.1181440  18.8587236  57.8813267   8.9462674
  18.1730282  58.3178902   8.4408337  18.3836901  57.3328543   9.5705724
  57.3193073  48.2562780  26.5492177  56.6906500  47.6397371  26.1738539
  57.5868845  47.8526211  27.3748636  79.7089720 107.5617313  91.2446404
  79.1348362 107.2766495  91.9555092  79.9217224 108.4702110  91.4582920
  35.4252768  54.7507191  21.3522983  35.3898025  55.0230312  20.4353356
  35.6354761  55.5518627  21.8321061  40.6999350  59.1953802  21.1734462
  41.1938286  58.7980080  20.4562306  39.9680877  58.5963440  21.3210273
  34.2996478  59.0698385  29.6702051  33.4742618  59.0681314  30.1549387
  34.8718071  59.6490860  30.1735330  44.8988914  62.3985624  37.1162963
  45.7580042  62.5980997  37.4882340  44.8919964  62.8512764  36.2729502
   1.7329831  10.0966072  85.0521946   1.3809076  10.5763483  84.3024445
   1.0722338  10.2032495  85.7364941  65.4516172  79.1074038  11.3454413
  65.6697607  79.9053764  11.8269849  65.9301472  79.1872263  10.5202925
  50.1310158  57.7958870   4.7169006  49.9425745  58.4910297   5.3473741
  51.0694075  57.8756857   4.5457605  77.6899147  96.2686920  94.4499016
  77.5939846  97.2094917  94.3018627  77.1511364  96.0913944  95.2209473
 111.2114525  25.5130839  96.2737274 112.0811939  25.7027197  95.9218502
 111.3789082  25.1493263  97.1431351  98.3180904  93.7574768  89.6582890
  97.8453064  92.9579544  89.8895264  97.9671001  94.4229317  90.2500629
  50.4151344  68.5208225  23.3497643  50.1829195  67.6753521  23.7338114
  51.3569736  68.4606886  23.1899095 108.5371113  90.3250504  76.5442324
 108.5055256  89.6482658  77.2203922 108.5871506  89.8390865  75.7210875
  53.4348869  60.1135683  28.3259010  53.1624031  60.9972954  28.5729146
  54.0068388  59.8310232  29.0395331  76.8963289  98.9112091  83.1610489
  77.5738239  98.3375835  82.8030300  76.6336679  98.4898758  83.9794159
  58.4323502  39.5969939   6.0259652  58.1554794  38.7928057   5.5868107
  57.7879047  40.2512980   5.7561409  61.2426424  88.5744381  94.7542572
  61.5573025  89.3435574  94.2792034  61.4074993  88.7776184  95.6750011
  69.8531199  42.2373486  12.0000052  68.9271545  42.0436382  12.1459436
  70.0803280  42.8570461  12.6932442  31.9041610  52.2399521  16.8064892
  32.8330278  52.4677944  16.7674446  31.4730644  52.8977060  16.2608278
  24.6580839  76.3331747  17.5445032  24.5299578  77.0684814  18.1437898
  23.7910008  75.9357500  17.4641919   8.2000029   8.4817791  95.2682018
   8.7192339   7.8883767  94.7255135   7.9739296   9.2050910  94.6834373
  46.4097357  62.3158455   6.8866235  46.9121218  61.9482613   7.6137543
  47.0704222  62.6916885   6.3048470  63.6912251  59.7865295   8.4611785
  64.0864277  58.9815521   8.1264293  64.4253063  60.2790880   8.8282496
  15.8823144  17.0460308  86.8781376  15.8000171  16.1184359  87.0995522
  15.5143809  17.5059402  87.6326847  55.5070448  71.8895292   8.2389450
  55.5945396  72.7884245   7.9218215  56.4078808  71.5793037   8.3310807
   0.2129274   1.6735828  79.5071793   0.3998251   1.0801862  78.7797308
   0.8973390   2.3406568  79.4540310  38.3524275  93.3118916   0.7703862
  37.9077101  92.5335217   0.4348171  37.6647520  93.8077641   1.2147238
  52.5531054  57.9917145  14.5025575  52.0055676  57.4630928  15.0830710
  52.5760508  57.5000763  13.6815846  11.6563678  13.1575525  92.9349041
  12.1046698  12.8008580  92.1680832  11.0220718  12.4827766  93.1769371
  91.9113445   9.5758277  90.5363941  91.3789177   8.8367254  90.8304787
  92.7527142   9.4550610  90.9765625   2.4821363   2.6366600  94.0038013
   3.4180862   2.4694677  93.8930035   2.1458927   2.7171114  93.1112194
  10.4256511  13.9810073  87.3792076  10.7690585  13.3787537  86.7192078
  10.3094232  13.4397018  88.1600475  48.0920267  56.0514593  18.3258617
  48.7049770  56.5879059  17.8231215  48.6397743  55.3812551  18.7345660
  35.3037620   6.5133661  91.8118668  34.5734477   5.9817177  91.4952850
  35.9216237   6.5310591  91.0809994  38.3587193  56.7909956   5.9566534
  38.2346773  56.6199398   5.0230652  37.5606513  56.4602327   6.3688618
  76.0539293 108.2348919  81.3731575  75.5483580 109.0085793  81.6222286
  75.8102322 108.0727100  80.4618168  41.6825485  40.1629972   3.1058636
  40.8182859  39.7987747   2.9144850  41.5089321  41.0675907   3.3662626
  41.2451315  60.9337521   7.8255415  40.2921629  60.8597088   7.8764802
  41.3965893  61.7009497   7.2735405  57.7227831  22.9338503  19.8675787
  56.9092846  23.3777857  20.1071072  58.3992338  23.3840036  20.3735495
  73.5135603  55.7192945  43.6688328  73.9288950  55.2997398  42.9153728
  73.7273884  55.1499653  44.4080019  49.6828985  38.7782478  24.9518108
  49.2630100  38.0047989  24.5753717  50.3047419  39.0630031  24.2821431
 107.8764343   2.4389286  77.9512358 107.6951313   2.5545090  78.8839769
 108.1216335   3.3120140  77.6449156  39.2655396  28.2790923  21.7429304
  40.2094698  28.1723952  21.6252804  38.8845539  27.9588652  20.9252882
  49.2583561  50.9111214  12.0814133  48.5294771  51.2806845  12.5798035
  50.0369549  51.1448860  12.5867498  84.4516659 101.9563484  86.4554977
  85.3281879 101.7279625  86.1460304  83.9329433 102.0517731  85.6567192
  20.6669188  11.7245877  78.6874819  20.4295731  10.8345282  78.9476633
  20.2824187  11.8303275  77.8173018  84.9851799  98.8705254  82.2781754
  85.4471016  99.6388721  81.9427681  84.2346859  98.7678814  81.6929817
  89.4989014 105.6042576  88.3588123  88.6815739 105.3299713  88.7747288
  89.2606449 105.7658100  87.4459267  27.9130888  61.3683224  21.4567018
  28.7836099  60.9770107  21.5294981  27.3277140  60.6249857  21.3117170
 103.5466862   5.0757295  96.9030380 104.4403362   4.8500642  96.6447926
 103.5191822   4.9053246  97.8445435  83.3416939  47.2481298   5.9964466
  83.3352852  47.9286528   6.6695565  83.1740475  47.7177906   5.1794136
 104.8196030  93.3230686  79.1596889 104.9870110  92.5214863  79.6553421
 103.9229965  93.5651588  79.3914795  60.2876520  38.6880207   3.5283762
  59.3367672  38.7899208   3.5692331  60.5004644  38.1254959   4.2730296
 117.9723740  12.1050870  70.9076595 117.0350933  12.0984876  71.1017895
 118.3206081  11.3503611  71.3823748  60.7500505  41.2235785   2.2500338
  60.3512907  40.4848719   2.7099612  60.8199596  40.9305239   1.3414842
  47.1453524  97.0015717  14.6866155  46.2656403  96.6482830  14.8190045
  47.2040796  97.1506405  13.7429202  38.0839252  58.8454151  30.1049089
  37.6334500  59.6898699  30.1191711  37.5952601  58.3027935  30.7237768
  36.3625646  61.2302637   6.8662786  36.6718411  60.3622007   7.1252000
  36.7891479  61.8291521   7.4791342 100.1522827  12.4921882  95.3630352
  99.8521900  12.2142863  94.4976139 100.9405518  11.9727826  95.5213928
  45.4846525  89.8385048   5.2373993  45.3908205  90.7432652   4.9393222
  46.1483049  89.8807716   5.9258884  23.1227732  52.0268917   7.8880680
  22.7641463  52.8928709   8.0822283  22.3592687  51.4498377   7.8707874
  47.5322866  60.3130960   2.9007834  47.5656319  61.2532425   3.0775568
  48.3592749  60.1232100   2.4577630  31.4565444  27.4483514  11.1721003
  31.2131524  27.4854589  12.0970953  31.8747973  28.2920551  11.0004568
  10.8584750  47.6781273   4.8875132  10.6371462  46.8506241   5.3146940
  11.2251222  48.2184267   5.5874258  68.2807446  65.8723402  28.6344576
  68.0027437  66.3528776  27.8546929  68.8610983  66.4783764  29.0950418
  28.8469577  13.6254621  95.8817577  28.8971448  12.7807844  96.3292408
  29.0684533  13.4279430  94.9717331  62.4015760  64.0966702  37.8220677
  62.0380354  63.3770370  37.3061228  62.9434872  63.6670208  38.4838557
  19.5681345  74.1163635  17.9882014  19.1930914  74.5326233  18.7642825
  19.7324502  74.8402882  17.3839128  27.9016161  84.5575714  13.0627799
  27.8541088  83.6849403  12.6722789  27.1489334  84.5972347  13.6528027
  34.4718027  64.6962261   4.6448970  35.0793409  64.1509533   4.1450924
  34.5013952  65.5483627   4.2099079  45.3370190  54.8088455   5.2609676
  45.2835369  55.4686022   4.5695233  45.3166151  55.3125048   6.0746896
  98.6983013 103.9749813  95.1753521  98.6933422 103.0453396  94.9473763
  99.4839191 104.0860939  95.7107830  67.4799776  68.6321974  31.0159326
  67.7216721  69.2870712  31.6708827  66.7849207  69.0484571  30.5061746
  37.6344013  58.2940388   2.6210338  38.2831478  57.8350496   3.1545967
  36.8728828  57.7141094   2.6183966 114.6248436 106.9788170  80.3414536
 113.8722229 106.7905140  80.9020996 114.2501545 107.0938969  79.4681883
  57.6892471  56.0566950   9.0124494  58.1013632  56.0816145   9.8760295
  57.3284674  55.1726818   8.9446568  61.9614458  37.6312184   9.0457994
  62.5531340  37.2240043   8.4130949  61.3360596  38.1186557   8.5095847
  39.7014904  64.0478563  14.5866680  40.2463055  64.2650461  15.3431296
  39.9440241  64.6939945  13.9234054  35.9370017  96.1405087  16.3795328
  36.5362334  95.9229565  17.0935512  35.1215720  96.3848782  16.8172431
  87.6494598  83.5739613  96.1410904  86.8610001  84.0807056  96.3354397
  87.6350594  83.4637737  95.1903629  12.8758955   7.0311892  92.5962067
  13.7693965   6.7069745  92.4831867  12.3291981   6.2466443  92.5532627
  34.3075466  48.2017422  31.2266588  33.6429572  47.7049780  31.7039204
  33.8089585  48.8392544  30.7155633  45.2925587  77.1166229  17.1442258
  45.9372330  76.4090824  17.1485114  45.8061314  77.9095221  17.2984362
  42.7340174  55.0558376   3.3988744  42.4696445  55.4900122   4.2099422
  43.5577488  55.4796410   3.1578439  43.8809967  82.3424911  13.9321172
  44.1861868  83.2223511  14.1533506  43.1860781  82.1636772  14.5656323
  60.2613115  50.6365252  27.2638845  60.4789066  51.4622211  27.6964545
  61.0968256  50.3173018  26.9229388 101.4716053  71.1994791  85.5719852
 101.5842724  70.2588987  85.4347229 100.5292034  71.3122368  85.6960392
  47.0680094  52.0081758  21.2028885  47.8078938  51.9470024  20.5986905
  46.9851351  51.1280489  21.5699577  51.8722153  57.7833271   0.4495265
  51.8284702  57.0086527  -0.1110078  52.5873804  57.5984097   1.0582785
  35.6361055  52.0558214  31.1851716  36.1392760  51.2756777  30.9518719
  35.5943632  52.5648642  30.3756261   1.4116710   6.5922254  74.9849892
   1.5731323   7.4268973  74.5451212   2.2826822   6.2163991  75.1127625
  32.8419137  53.4717131  19.7949934  33.4813404  53.5732365  19.0899682
  32.1318340  52.9634380  19.4029748  71.2210894  71.2136126  31.8813467
  70.9981537  72.1389961  31.7803693  71.7189217  70.9996939  31.0922742
 101.7204666 106.2436390  81.8770027 101.5631485 105.2994537  81.8796825
 102.3488617 106.3837528  82.5853252 108.8179588  31.5917778  89.0332222
 107.9243755  31.5502405  88.6926079 109.1947746  30.7376218  88.8219070
  32.9596305  69.0195513  12.6337111  32.0978832  69.3121576  12.3370552
  33.4591818  69.8274088  12.7522290  21.3832259   5.1534760  90.5796146
  20.9459639   4.9181032  89.7613049  20.8257604   4.7834197  91.2641048
  18.2766116  10.2701223  88.6340332  19.0677142  10.1135409  88.1184101
  17.5757277  10.3306782  87.9849339  58.6736727  65.5983639  12.2503781
  57.8624868  65.1973534  11.9382906  59.3404245  65.3043842  11.6296875
 100.4288483 111.4717388  94.7052097 100.9637737 112.2584534  94.5995426
 101.0191822 110.7499027  94.4891071  55.8761597  68.9873123   5.1792181
  56.7994547  69.1705084   5.0054514  55.4497719  69.8431778   5.1353103
  24.8964834   4.6443266  83.6750984  24.2395973   5.0070184  83.0807972
  25.6211901   5.2687168  83.6408901  45.7977772  63.5645723  14.7115672
  46.4867783  63.1759405  14.1726100  45.2370691  64.0256453  14.0876675
  59.9844933  82.8126335   7.4286628  60.6376505  82.1137810   7.3936194
  60.0533342  83.2476425   6.5788049  27.0398307  24.9690223  71.1797523
  27.1718884  24.4094253  70.4144764  26.3149786  25.5438232  70.9339333
  47.0803928  60.3706169  40.6923342  47.1901512  60.8029032  39.8453927
  46.1553955  60.4933167  40.9057808  86.6895771  95.0072193  68.2613659
  86.6467571  95.2103806  69.1957712  86.4974499  94.0708637  68.2107973
  58.2981539  56.0156822  15.8191669  58.2617617  56.9717979  15.8465838
  58.2828665  55.7489634  16.7383289  29.4222045  21.2637043  77.1472263
  29.1993570  21.2692952  78.0781078  28.5811663  21.3533497  76.6990614
  43.5880566  52.2117090   1.5590666  43.6087561  53.1509161   1.3754970
  44.1291189  52.1086979   2.3419264  33.2965326  88.7078667  13.6030638
  32.6129150  89.3562794  13.7717795  33.6241055  88.9266586  12.7306747
  50.5842590  53.8043165   8.6960179  51.1120415  53.2060337   9.2249131
  49.7534657  53.3452749   8.5723341  30.4956412  64.8907757  15.2980483
  30.6573057  64.7865820  16.2357271  29.9045944  65.6413698  15.2388549
  61.8527079  57.3415852   5.0407988  62.1293449  58.2551908   4.9698967
  62.0683146  56.9593430   4.1901290  34.7417688 100.6447506  19.8427999
  35.2755404 101.0728168  19.1734171  33.8787341 100.5537605  19.4389153
  66.2662220  86.8112850  20.0577521  67.0423222  86.2644672  20.1797390
  66.1616898  87.2683525  20.8922529  31.8553281  74.2810726  10.8336186
  32.5274706  73.6999798  10.4775488  32.3307729  75.0743628  11.0803401
  36.5450859  57.5634861  25.0663424  35.6120777  57.3683071  25.1537347
  36.8308544  57.7704620  25.9561324  58.5094452  61.6862726  13.2256675
  58.3592319  62.2190475  14.0065777  59.4621277  61.6497660  13.1402469
  73.6785364  39.1415787  17.9084301  74.0655661  38.2906651  18.1143117
  73.5697746  39.1314530  16.9574833  44.8979187  96.6707611  40.5995655
  44.7408295  96.7277145  41.5420675  44.3690777  95.9260845  40.3131771
  65.4590845  56.6922188   2.0092712  64.6478939  57.0899296   2.3255436
  65.8709288  56.3314152   2.7944070  74.6375847  58.5994911   2.7835268
  75.0764227  57.7749634   2.9928303  75.1074791  58.9336824   2.0194933
  35.5794168  79.7216463  38.0459166  35.9385943  79.2844868  37.2738314
  36.2969780  79.7168016  38.6794090  44.0114260  72.3448610   4.6616197
  43.4123182  71.6092920   4.5341671  43.4675360  73.0331755   5.0445563
  50.2894592  65.7810497  11.5692639  49.7709799  65.6895924  12.3686671
  51.1665821  66.0089254  11.8774295  26.0377288  67.2847033  17.2729707
  25.5744433  67.9109573  16.7167318  26.2703085  66.5672112  16.6836119
  60.7921457  76.4972353   9.2419070  61.3880110  76.9878864   9.8079818
  59.9297810  76.6191101   9.6390235  74.1233253 110.8999538  81.0715866
  73.7286949 111.6270256  80.5900478  73.3789349 110.4270554  81.4437103
  64.0134192  56.6476059  33.2250905  64.5700932  55.9870243  32.8128099
  64.0992117  57.4177027  32.6631045  43.3068895  72.2744513  26.1765838
  43.2264137  71.3256502  26.0789657  43.8215351  72.3902559  26.9753075
  68.1877851  86.8231201  27.3605084  67.7287626  87.6542664  27.4818158
  67.6247787  86.3225365  26.7700195  41.0296869  82.9311085  21.0244322
  41.3590097  82.0477009  21.1898947  40.1413059  82.7975655  20.6940126
  51.9643688  80.4922485  31.2912512  51.1440563  80.1194954  30.9681916
  52.3228836  80.9677887  30.5418777  40.3766680  59.2986345  14.0212548
  40.6879139  58.9544058  13.1840777  39.4225574  59.2864847  13.9453840
  42.5594568  80.7001019   3.6687979  43.4482670  80.4296112   3.8992071
  42.4229145  81.5132141   4.1550463  48.8222170  78.0595827  21.8274045
  49.4004250  78.1938076  21.0764790  48.1668520  77.4350548  21.5164495
  44.0962791  81.7212582  31.1058927  43.6189795  82.5441647  31.2118769
  44.1165972  81.5762711  30.1599526  68.8047552  80.0351143   7.1432239
  69.1651583  79.1492987   7.1023691  68.7696695  80.3217411   6.2306201
  65.8083582  89.4644737  22.6631904  65.1133776  89.2132092  22.0548368
  65.9642696  90.3908253  22.4793267  54.0582561  59.9797392   1.3334057
  54.9898100  59.8704481   1.5244389  53.9411116  59.5759249   0.4734968
  35.9532881  62.1579552  45.9754324  36.5129805  62.7332497  46.4969826
  36.4142847  62.0669746  45.1415014  39.4793534  13.3869720  84.4796467
  38.9788556  14.1185308  84.1183186  39.8439097  12.9444253  83.7131691
  57.9821444  78.9640474  21.7358923  57.1333027  79.3360615  21.9752789
  58.0379438  79.0850496  20.7880116 107.7418613 106.9094849  97.0540047
 107.9719639 105.9815216  97.1004391 108.2551765 107.2471046  96.3199997
  44.7056246   8.3248353  88.1791496  45.5170631   7.8521746  87.9936981
  44.0739679   7.9712015  87.5529003  30.2397013  79.0204382   1.3989639
  29.9931502  78.6455822   0.5534306  30.8580279  79.7177553   1.1806618
  48.4455204  51.4755583   1.2022534  48.1292725  51.3335609   2.0944738
  47.7155495  51.9033718   0.7546462  39.4225717  72.5858498   0.7908653
  40.2038670  72.4181557   1.3178287  38.7119770  72.6480675   1.4291567
  59.0971327  34.7239041   4.3638399  58.3513927  34.2127943   4.0494096
  59.5641518  34.9802732   3.5686031   3.9071828   0.9945881  74.6261978
   4.4341949   0.5712605  73.9484930   4.4832754   1.6648096  74.9938297
  41.2861443   3.2448834  92.8435802  40.8494329   3.2524621  93.6953163
  41.0221052   2.4149570  92.4464226  30.2770352  80.9928131  13.7028694
  30.7489276  80.9321499  12.8722858  30.5151081  81.8519306  14.0514016
   7.0235509  24.4044280  95.5398464   6.9870436  24.9975014  94.7894001
   6.3548887  24.7354388  96.1394691   3.0627033  17.0942199  90.4725266
   2.1318486  17.0233917  90.2610493   3.3698222  16.1883295  90.5081844
  56.2262821  43.8038015   1.0441989  55.6292486  43.8130713   0.2960699
  56.8400240  43.0948305   0.8520681  33.8526106  78.6163902   6.7066723
  33.9185977  78.8061237   7.6425558  33.3597922  79.3539190   6.3469303
  63.0268478  62.8380299   4.9047133  63.4969997  63.3539867   4.2497534
  62.2055197  63.3112097   5.0379348  57.1690369  12.9336405  87.8286266
  56.9537544  13.1128633  88.7439251  57.4201536  13.7850606  87.4705029
  28.9739752  33.0718970  87.0222473  28.9119148  33.4631515  86.1508656
  28.3428884  32.3523617  87.0072174  15.3576422  14.1160476  96.4692974
  15.1868665  15.0578368  96.4593029  14.4918191  13.7165010  96.5526295
  42.7734327  63.0780935   6.7841548  42.8946161  63.9669991   6.4503944
  43.2727242  62.5261211   6.1822677  47.3780251  75.2454615  17.2813475
  48.2524967  74.9509764  17.5359178  46.7845535  74.6166706  17.6920152
  57.8092861  68.8067484  37.4472046  58.0427599  69.7038651  37.6857471
  58.4799147  68.5443354  36.8166256  10.8691311  24.1516852  90.4959583
  10.0092709  23.8998079  90.1591682  10.8344722  23.9345431  91.4275551
  55.4117203  67.9754066  11.3439560  55.8442736  68.8108110  11.5206659
  55.5759001  67.4502850  12.1272326  41.6708183  82.1116066  15.3891754
  40.7695675  82.0902634  15.0674260  41.6684628  82.7912331  16.0632217
  71.2526417  66.4206553  16.2886238  70.8216906  66.7709446  15.5090022
  71.7106533  67.1712923  16.6667819  16.8059564  24.1940355  84.3492508
  16.0020375  24.4049859  84.8240662  17.0662069  23.3373117  84.6876621
  47.7468204  53.1216002  13.4445679  47.4726343  53.7287283  14.1319180
  46.9275618  52.8013182  13.0671179  44.8376560  69.6525049  29.4610047
  44.5377731  70.4512644  29.0270877  44.0347385  69.2290020  29.7646594
  84.4269371  91.3335133  96.4349461  84.6421242  91.8898582  97.1835423
  83.5418701  91.5993690  96.1855316  69.0523386  58.0240870  12.0168936
  68.6531591  58.8435173  12.3091614  69.9872017  58.1388855  12.1874392
  62.9218674  61.1209583  12.3629665  62.8540754  61.9048071  11.8177891
  62.1460152  60.6064796  12.1402586  43.7680769  83.2445526  18.1994879
  43.0094385  83.5452175  17.6991844  44.1392756  84.0430641  18.5747457
  13.9371693  19.1571069  96.2480736  13.8751566  18.2115209  96.1129665
  14.8580790  19.3622398  96.0865879  97.4614620  20.7928514  86.5611649
  97.8397655  19.9343419  86.7511082  97.2171307  21.1418819  87.4183178
  47.2364092  73.6735821  28.5937190  47.0810461  73.7858963  29.5315242
  47.9700327  73.0607414  28.5441852  62.4788713  96.3283348  19.1998291
  61.8878603  96.7124557  19.8474312  63.2360363  96.0385323  19.7087049
  19.3726301   0.4415969  81.2465096  19.8934233   1.1035471  80.7917309
  19.6921825  -0.3925220  80.9024715  57.2390223 108.3241558  21.8400216
  57.3943281 109.1115189  22.3617220  56.7654276 107.7363873  22.4286366
  51.3832951  61.2649488  31.1112785  51.7515802  61.9451571  30.5474401
  50.7080460  61.7146111  31.6192937  34.9448752  68.0545330   9.8255163
  34.1390848  67.6024580  10.0756359  35.5233598  67.9483891  10.5807126
  52.5882244  71.5841866   6.5701860  52.0148468  72.0511866   7.1779555
  52.1048784  70.7882738   6.3485360  54.3003178  49.6366930  25.6593204
  54.4495153  50.0738382  26.4976978  53.8679981  48.8148117  25.8913445
  37.8135896  43.0142975  20.0686955  37.8612041  42.9908943  21.0244250
  38.7104583  43.1970692  19.7886074  59.8430204  81.9777775   4.0803379
  59.2109108  82.6497841   3.8252446  60.4120016  82.4128532   4.7153169
  22.2606373   9.7786409  93.1626701  22.8732467   9.1534728  92.7752399
  21.5525007   9.2362463  93.5099220  74.7627497  93.4900665  46.1987209
  74.7577000  93.2537365  47.1262741  75.6886005  93.4868622  45.9557772
  41.9793129  47.8802633   3.8662013  41.0938072  47.5735331   3.6711946
  42.1128798  48.6193609   3.2727963  21.9865942  80.7418156  15.2013493
  22.1870375  80.6833649  16.1355007  21.4661264  79.9595356  15.0186539
  37.8911901  15.3256869  83.2758045  37.8259134  15.8269870  82.4629879
  37.0231891  14.9382985  83.3886433  72.0730209  93.6057663  19.5022261
  71.4868450  94.1955280  19.9763739  72.4403620  94.1451359  18.8019586
   6.4398438   5.1587868  96.2412071   7.3684579   4.9711856  96.1044025
   6.0120004   4.8436102  95.4450607   2.2428651  19.4508588  92.3172188
   2.5209442  18.6445725  91.8826962   1.8852219  19.1598058  93.1560326
  45.9827948  69.6645403   1.1261262  46.5194082  68.9268208   0.8362238
  45.5547619  69.3509007   1.9227754  58.3961582  69.8060083   4.4563782
  58.9676571  70.2916813   5.0511414  58.0073500  70.4776478   3.8960600
  29.9503756  42.2915792  16.2345564  29.1834116  41.7948437  15.9495091
  30.6820393  41.8945885  15.7620072  67.1866465  57.9890203  17.5456083
  66.9499493  57.8954935  16.6228616  66.8909883  58.8685226  17.7807605
  44.2680359  79.8354530  20.7895684  44.6083212  78.9518595  20.9299088
  45.0338793  80.4033470  20.8744907  23.3042216   9.7192150  81.8810558
  23.6454701   9.3982017  81.0463524  22.4658418   9.2693841  81.9859695
  48.8473368  72.2937822   2.2942217  47.9282856  72.5451279   2.3858821
  48.8194513  71.3685226   2.0506200  31.6320467  11.4478517  97.2006512
  31.8294358  10.8051944  96.5192890  30.6835532  11.3908184  97.3161411
  65.9902382  60.5411816   9.5741278  66.1981869  59.8504829  10.2033556
  66.8337107  60.7729912   9.1854769  74.3524599  70.2773190   0.4660895
  73.9613152  70.4153728   1.3287479  75.2514076  70.5932188   0.5573732
  27.9304123  48.2802773  13.7107825  27.1144485  47.7831030  13.7678218
  28.3724284  47.9273748  12.9385698  47.3527479  64.0349102  11.5675843
  47.0766354  64.8886251  11.2341714  46.7559099  63.4115982  11.1534584
  64.9915266  89.5740414  25.2111173  65.3385496  89.3923092  24.3377423
  64.5639849  90.4262543  25.1264119  52.6823425  68.4509325   9.9318391
  53.4292889  69.0449190  10.0059140  52.6389647  68.0134773  10.7821214
  42.1011257  50.7594585  12.7075505  42.2354603  50.3087854  11.8738365
  41.6600370  51.5752268  12.4704957  30.2255464  69.3820000  11.6900373
  29.8437953  69.0946054  10.8606386  30.1591802  70.3365993  11.6662276
  60.0151825  98.5060883  18.5016656  59.2479563  98.3963203  17.9399264
  60.5854225  99.1009998  18.0147028 119.1037846  45.7797909  83.8164902
 118.4469414  45.1024914  83.9778996 119.1363239  46.2809229  84.6313763
  68.3219814  87.7478409  23.2876587  67.5256538  87.2195339  23.2329226
  68.4393454  88.0964470  22.4039555  42.6852465  67.0956326  21.4040399
  42.0941353  67.8029776  21.1461949  42.4934053  66.3872099  20.7895756
 116.0509968  15.6644356  93.0967331 116.1363411  14.8799193  93.6384773
 115.5200958  16.2623036  93.6229706  31.0649014   1.5189180  81.6709518
  30.8347106   0.8929812  80.9843349  30.9192348   2.3766309  81.2717819
  67.1416569 108.5977840  82.3359108  66.3048410 108.1589222  82.1830368
  67.7871132 108.0412102  81.9002056  45.7952976  84.6188736   7.5629503
  45.1606846  84.9701977   6.9383889  45.7960033  83.6758518   7.3988467
  46.7862606  73.0458879  14.2004573  46.5489817  73.1264257  13.2766378
  47.7412891  72.9814434  14.1977072  79.1869926  79.0711737   2.1889813
  79.3149996  78.3188915   1.6111220  80.0031185  79.5667458   2.1213552
  51.3720369  73.8230371  34.8425341  50.8948231  73.1833696  35.3710437
  50.7801056  74.0241575  34.1176891   5.4909635  17.8473854  69.3747616
   6.4293921  17.8720260  69.1877413   5.4030031  17.1995437  70.0739002
  14.0720081  11.3105953  94.0591145  14.7608185  11.6092443  94.6529007
  13.3253968  11.8769133  94.2542744   6.2567705   7.3120451  85.4414463
   5.6853759   7.8682554  84.9119473   5.6674254   6.8886876  86.0656834
  42.6406384  93.1060600   0.8068610  43.4050894  93.1725883   0.2346568
  42.4601173  92.1673870   0.8572108  70.8695793  85.1075363  85.3873348
  71.3472557  85.1579952  84.5593834  71.0510302  84.2267513  85.7152462
  11.6786885  21.7755032  86.5164852  11.0533094  22.4158859  86.8556690
  12.1920264  21.5139437  87.2808838  65.6259012  60.4049921  17.7210367
  64.6738863  60.5014944  17.6968694  65.9010696  60.9318018  18.4713614
  11.2127817  15.5661726  93.9974499  11.1642992  16.2657094  93.3458900
  11.3278377  14.7672272  93.4829807  21.6133261  89.0934181   5.9920079
  21.5388322  89.9156094   5.5075610  22.4489379  88.7228966   5.7079238
  15.0118864  24.5263243  86.4463043  15.3548419  25.2303958  86.9966698
  14.0611696  24.5961165  86.5328979  46.3544846  73.0875301   3.1143335
  45.6276608  72.7278423   3.6228448  46.4882994  73.9641142   3.4747881
  57.4446678  41.3823223   0.9083460  56.9880104  41.1838150   1.7258379
  57.5537682  40.5320930   0.4823869  47.8015471  91.2591839  24.1965055
  47.7370834  90.8593273  25.0637960  47.0616007  90.8961201  23.7097859
   0.5418044  12.5732124  93.1778145  -0.0923358  11.8832040  92.9829121
   1.3834441  12.2097147  92.9026031   6.7869842  20.4979086  89.5110607
   5.8322459  20.4329777  89.5332050   7.0057470  21.0644722  90.2509117
  57.6957369  75.4318714   4.0007654  56.8058300  75.7143879   4.2116615
  58.2591772  76.0183477   4.5055577  38.5537052 101.0967636   5.3919005
  39.0655756 101.4044762   4.6438828  37.7542281 100.7402420   5.0046456
   9.5048803   6.6726977  93.6847115  10.0360823   6.2496382  93.0101204
   9.6714920   6.1612695  94.4764900  56.4909697  62.0682383   3.0197173
  56.4494610  62.8066778   3.6273471  57.2846937  62.2236443   2.5077742
  65.8213234  65.8815050  41.0749531  66.5155125  65.2284431  41.1635017
  65.9156132  66.4376497  41.8482876  16.6469598  38.2663631  96.5304661
  16.3226378  38.2088661  97.4292088  17.0180833  39.1463017  96.4655972
  55.0351524  75.6164789   8.2379395  55.1280022  76.4502287   8.6988872
  55.8992147  75.2096844   8.3023292  20.4992294  65.0577450  10.5039859
  20.1642513  65.9544182  10.5037045  20.8689332  64.9399042   9.6289635
  57.0423651  86.4600945  29.9680686  57.3240137  85.5483341  29.8932672
  56.2727785  86.5202522  29.4020700  71.7658854  53.1456566   9.9355000
  71.2288237  53.9369440   9.9763125  72.1192598  53.1416512   9.0459269
  84.5721149  80.2995110  29.8194838  84.1877079  79.4613171  29.5627689
  83.8515282  80.7779217  30.2295065  47.2804022  82.7764416  19.2412949
  46.7380810  82.4594212  18.5190630  46.8186474  82.4923515  20.0301576
  12.2405863  19.8573506  92.7870274  12.6286054  20.4052019  92.1047306
  12.9288352  19.2311847  93.0116653  40.3746462  77.5593090  16.3995695
  41.2878990  77.6312923  16.1220431  39.9829030  78.3974218  16.1539352
  42.3168230  58.1463432  19.2320466  42.8117228  57.5631475  18.6565566
  42.6120377  59.0251398  18.9937258  82.7192211  92.4372864  22.8405023
  83.3195305  93.1499290  22.6214314  83.1224442  91.6581917  22.4575329
  57.9550838  80.7899475   5.9105229  58.6841536  81.2014008   5.4464096
  57.4636555  80.3333282   5.2277148  68.1142664  55.6040764  23.5412741
  67.3551989  55.4310989  24.0981650  68.8581800  55.2627134  24.0375543
  30.3440690   3.4532118  95.5667973  30.3573012   3.6019394  96.5122795
  30.0828004   2.5372446  95.4720592  45.9767342  52.5513935  38.2453489
  46.3584137  51.7086601  38.4910107  46.5489292  52.8805256  37.5521708
  19.1144621  31.4841843  92.1301937  19.6797824  32.1316099  91.7089081
  18.6243176  31.9832349  92.7835941  47.0457792  56.9305038   8.8800406
  47.3627424  57.2902298   8.0515695  46.7971897  57.6981497   9.3949753
   4.4982532  14.0843236  79.0096855   4.7435486  13.4737396  79.7048473
   4.5920628  14.9500275  79.4071674  51.8296385  64.8464012  32.1983266
  51.1527061  64.2294455  32.4764609  52.6444960  64.3467140  32.2488761
  57.1175337  65.9063482  34.1407919  57.7873039  66.3413906  34.6684074
  57.5027418  65.0595331  33.9155102  61.6795349  77.0160151   6.4862120
  61.9748592  77.5503397   7.2234470  62.2792673  76.2700701   6.4756310
  54.9872732  61.5814495  11.3178897  54.7920275  61.3687229  12.2304988
  54.3350601  61.0949564  10.8137357  39.7616625  67.2623301   7.4967873
  38.9847016  67.7467918   7.7758175  40.4764795  67.8950500   7.5670129
  55.7120275  66.1175060   1.6988747  56.5217447  65.9968758   1.2028529
  55.2461672  65.2868795   1.6025911  51.8014431  60.6130600  42.9448986
  51.3628101  60.8579016  42.1301079  51.2852859  59.8819399  43.2844353
  37.4569750  70.9588718  11.5552890  37.8044295  70.0913954  11.7626476
  36.9270277  71.1930275  12.3172331  56.4897013  73.5614109  33.8663054
  55.5591011  73.7685966  33.7809467  56.9011354  73.9948082  33.1185627
  62.6976347  91.8031979  38.5688734  62.2435760  91.0379219  38.9215970
  63.0880976  91.4943027  37.7513456   1.3646908  34.6960068  75.7026339
   1.5825243  34.3764377  76.5782213   1.7270510  34.0372467  75.1102114
  53.3106804  69.5080042  18.5739660  53.6072254  68.6779833  18.9472759
  52.4820566  69.6879148  19.0180850  26.2986994  70.3708696  10.5891275
  26.7604589  70.0830841   9.8016071  26.4961505  71.3051939  10.6545866
  62.2768545  68.9497995  11.8718946  62.0627213  69.3044853  12.7347839
  62.4717999  68.0267859  12.0339811  41.3818693  44.8401642  10.3913891
  40.9991264  44.4724417  11.1879551  41.5663576  44.0791321   9.8409069
  47.5486088  62.9867935   3.0818993  47.9852819  63.4180307   2.3473366
  46.8651152  63.6015654   3.3485970   4.5637062   0.6886326  87.1993256
   4.3408653   1.5823157  87.4599075   4.1603833   0.5827580  86.3377285
  11.2762940   7.1954793  85.1818466  10.8447349   7.7712035  84.5505524
  11.3762331   6.3639599  84.7183609 115.8121490  14.4538009  88.1555462
 116.0126114  14.3100774  89.0804195 115.7332897  15.4041195  88.0724335
  97.6593208 112.2782040  91.2267971  98.5536003 112.2484779  91.5668201
  97.1514320 111.7493725  91.8420982  75.1613188  64.2871761  23.6773396
  75.8725023  64.5355320  24.2679048  75.5662298  63.6819983  23.0560207
  36.4698982  71.4188433  17.6788747  36.4912844  72.2783709  17.2581756
  37.3307920  71.0418367  17.4973285  28.5339189  84.6222019  16.2692595
  29.3455362  85.1039696  16.1098564  27.8457022  85.1922798  15.9263194
  50.6646872  77.4298763  32.0283055  50.2143717  76.5895700  32.1139455
  51.5856838  77.2256756  32.1904659  20.3874969  26.6875434  93.3484745
  20.7004356  27.5716329  93.5400105  19.7356534  26.8085384  92.6580429
 110.7565784   7.2927248  80.6548786 111.0842228   7.6653826  79.8363400
 111.3915157   7.5699723  81.3153458  52.6835442  85.2013588  12.0930803
  53.4002256  85.7619476  11.7958474  53.0966616  84.3550491  12.2643363
  16.8756521  14.3927729  74.5659113  16.0773325  14.8703849  74.7913122
  17.1600044  13.9988279  75.3906441  38.8206983  65.9879971  31.2262559
  38.6440349  66.7807293  31.7328072  37.9583502  65.5978966  31.0834050
   2.1550716  15.0575221  82.9582977   3.0928996  14.9774408  83.1323624
   1.9957025  14.4621515  82.2259331  51.0916662  69.9239683  20.3952694
  50.2218819  69.9342966  19.9957669  51.0430527  69.2341900  21.0571432
  27.5848436  13.5464847  84.6609688  26.8883348  14.1864204  84.8079109
  28.3649778  13.9499378  85.0415611  68.9009094  64.4233131   6.7377585
  68.3531618  64.6261835   7.4960792  68.8246536  63.4748030   6.6341060
  47.4781132  86.4365578  28.4067512  47.4388170  87.1495247  29.0442109
  47.3635578  86.8664455  27.5592256  12.7577257  23.6436653  80.8173847
  12.5679016  22.7596831  81.1316681  12.8804624  24.1598988  81.6140461
  33.3400488  76.1655951  20.2218747  33.8448071  75.4468393  20.6024528
  33.2007670  76.7719316  20.9493279  54.0722370  69.5625544  35.7844949
  54.5506859  70.1574850  36.3618851  53.7244225  70.1269817  35.0940728
  32.3374629  16.0264015  94.2843342  32.5525522  15.2889979  94.8554707
  32.5785565  16.8010545  94.7922897  53.5824251  82.5070190  12.7337468
  53.3057404  81.6367531  13.0206406  54.4237089  82.3604393  12.3013270
 113.9939880  25.5688357  95.8071613 114.4786263  25.0393367  96.4404011
 114.2842293  25.2468491  94.9537468  38.4698129  68.4427261  11.1958635
  39.4067264  68.3104897  11.3405669  38.0781507  67.5857019  11.3642156
  52.1313286  64.9765015   1.7666160  51.6839933  64.1314507   1.7218147
  52.6757574  64.9179792   2.5517315  78.7418985  77.7160120  22.1413183
  79.0955877  76.9409752  22.5777292  79.2767715  78.4396553  22.4676394
  61.5186644  77.4237537  28.6218143  60.9287643  78.0726862  29.0053964
  61.9506168  77.8872442  27.9043007  63.7682819  84.5034122   8.4303451
  62.8138876  84.5518303   8.4852332  63.9510441  84.4330502   7.4933934
  88.2163906  51.9642115  23.4831905  88.5172081  52.4896002  22.7417707
  88.9296436  51.3464594  23.6440516   5.9515613  34.2839146  90.6692982
   5.6979567  35.1969385  90.8045959   6.5652609  34.3120527  89.9352551
  88.9732552   4.4469056  49.4901514  89.6397877   4.2991421  50.1610661
  88.7886429   3.5754243  49.1399050  49.2214870  82.5472069  15.1913261
  48.4541225  82.9822540  14.8196816  49.8215389  82.4473000  14.4522786
  73.8156319  93.4542465  16.2897682  74.3648100  94.2005253  16.0495448
  74.4289970  92.7251053  16.3812256  53.1998777  67.3179483  19.9833965
  52.3663712  66.9143105  20.2254176  53.5970163  66.6986656  19.3710208
  66.3838148  67.5003386  24.0451241  65.8263588  67.0748997  23.3936095
  66.0907936  68.4115553  24.0527081  67.7759600 105.9298325  17.9864609
  67.7009058 106.8839931  17.9729629  67.2954416 105.6628513  18.7700760
  28.2956672  58.9460659  23.5168195  27.4487829  58.7575769  23.1124806
  28.2310629  58.5697365  24.3945646  64.3546391 102.7793312  18.8225949
  64.9802256 102.0632267  18.7127471  63.9069176 102.8378201  17.9785836
  55.4721880  79.4468069  19.7508693  55.5760336  80.3306293  20.1034379
  55.8829165  79.4837379  18.8870573  79.0656948  88.2867432  26.0895896
  79.3809175  87.3829746  26.0805297  79.6347570  88.7450886  25.4712749
  28.2743144  64.6528387  82.8045845  28.0318117  64.1486454  83.5812569
  27.7428651  64.2797852  82.1012878  97.6520538  99.7434521  88.0232716
  98.5217857  99.8265266  87.6322460  97.1758366 100.5140781  87.7140808
  59.8372316 105.8695316   9.6252137  60.0838232 104.9717808   9.8475975
  59.1423845 106.0878944  10.2462959  59.3709040  92.1951008  48.7826777
  59.2990541  92.5349045  49.6746445  59.2020178  92.9532146  48.2232332
  54.1448164  75.3350210   3.2777426  53.6694098  74.5208216   3.4429464
  53.4878540  76.0224676   3.3875126  80.5875111 106.0184383   2.3159635
  81.1853027 105.2744675   2.3893769  80.6704235 106.3034153   1.4059389
  63.1111670  94.1767883  48.2478333  62.3280621  94.1981602  48.7978506
  62.8560448  94.6396542  47.4497795  45.2757788  68.7280369   9.6303850
  45.8285236  68.6717176   8.8509411  45.3131390  69.6501637   9.8843837
  54.1819763  79.4176674   1.7977479  53.3038044  79.7552633   1.9740455
  54.7358036  79.8344898   2.4578676  15.5042672  44.9721193  94.9889088
  14.6741569  44.7507143  94.5668602  15.4415834  45.9113216  95.1627064
  67.6240921  69.3086767  41.1573362  66.8741369  69.8251629  41.4523554
  67.8565645  69.6867752  40.3092623  77.9946184 104.2433453  35.0371718
  78.9327049 104.2486286  34.8469234  77.8134489 105.1210976  35.3732681
  55.3705311  78.1650829   8.9071918  55.0554895  78.6284256   9.6832663
  55.3795624  78.8298559   8.2185519  75.8557272  85.0965405  10.5904651
  75.1914644  85.0887012   9.9013144  76.6217089  84.6857738  10.1894915
  48.0572510  77.9619026  35.9335947  48.7147141  77.3200703  36.2019634
  48.5336924  78.5715008  35.3700113   2.2673866  48.4469700  96.4991474
   2.9075295  48.8362265  97.0949078   1.7328422  49.1850805  96.2064362
  59.9439764  90.7045555  14.2396784  60.8657503  90.4847431  14.3747842
  59.7866726  90.5188751  13.3139300  10.9971237  38.6360168  95.8693886
  11.8973076  38.3782077  96.0679722  11.0865283  39.4193578  95.3266048
  73.0969238  72.6361656  14.6464443  72.6268482  73.3993006  14.3104577
  72.4348211  71.9461346  14.6878409  50.5219841  80.7683182  19.9230397
  51.3194275  81.2833500  20.0457406  49.8164463  81.4151859  19.9247503
  49.8932505  86.1604309   2.2217296  49.5944500  85.6858158   2.9974213
  50.0347042  85.4795074   1.5640348  64.7121525  93.2862759  18.5918021
  65.1288271  93.7545586  17.8683913  63.8004065  93.5770512  18.5717952
  62.6172113  44.6673203   3.2778838  61.9770622  44.3686056   3.9238033
  62.1615171  45.3517532   2.7878502  75.0020552  79.8880529  24.8416615
  74.9086809  79.4658804  23.9876819  74.2446423  80.4698658  24.9053121
  72.9780245  98.4508610  28.8384914  72.3240948  97.9045105  28.4024715
  73.2988167  99.0349293  28.1513286 111.9310379   2.0919430   0.8060261
 111.7203808   2.1732938  -0.1241552 112.7085876   1.5341023   0.8276173
  82.2339058  46.9629097  29.0637922  82.2019672  47.8805017  29.3344116
  81.3164330  46.6929722  29.0236259 108.0384350 106.4160919  76.6643953
 107.6022434 105.7540798  77.2007751 108.9260769 106.0791206  76.5429163
  82.5813293  91.0632133   3.0375662  82.7256107  90.8560848   3.9608836
  82.1746349  90.2756786   2.6761469  56.9268608  59.0613222   1.3177505
  56.4052248  58.3129120   1.6075933  57.2465420  59.4585609   2.1278334
  66.7591047  76.6604424  30.6406307  66.2600183  77.3023748  31.1456704
  66.4290619  76.7500734  29.7466111  47.7291441 111.8422604  16.1130702
  48.4750080 112.4113178  15.9230995  48.1227255 111.0019493  16.3480067
  92.7930832  19.3192506   0.2017683  91.9912529  19.3322611   0.7243916
  93.2462788  20.1285172   0.4382612  61.2071705  65.1762438  15.3471255
  60.4823446  65.7314873  15.0597882  60.7859325  64.3766880  15.6625617
  22.9244971  15.1171160  95.1798820  23.4325266  15.4170144  95.9336662
  23.5643363  14.6787906  94.6188927  55.1778221  79.9541378  23.0394697
  54.6076584  79.2362881  22.7640820  54.9421692  80.6815720  22.4636769
  51.0909367  82.8393745  49.3177223  50.4902124  82.4180603  49.9324226
  50.5384922  83.0918884  48.5779428  66.4574862  72.6367426   9.0727592
  66.4727688  73.3833981   8.4740043  65.5873346  72.6664448   9.4704789
  50.2942133  96.7951107  33.3647537  50.2750397  96.9433689  32.4193001
  50.0438118  97.6373672  33.7443948  60.7861948  92.8656578   3.2626081
  60.1838541  92.7232933   3.9927804  60.3781557  93.5618496   2.7477741
  57.4197340  87.2750092  10.5411601  57.5459337  88.0576897  10.0047624
  58.3067131  86.9863605  10.7560635  49.3483639  93.9314842  28.3453679
  50.1141310  93.5937595  28.8098860  49.2276192  94.8150253  28.6932373
  68.4534454  65.4175138  11.9280148  68.0996180  64.6617365  12.3968852
  67.8479004  66.1304283  12.1312344  83.3439064  90.9477139   6.3278472
  84.0644264  91.4778042   5.9871298  83.3784008  90.1394749   5.8161885
  39.8363090  93.9000130  19.9099469  39.4937420  94.4922543  20.5793738
  39.9744415  94.4579697  19.1445422  34.1590595  78.9388227   0.8907434
  34.2825270  78.1246328   1.3786758  33.6710572  78.6782742   0.1095925
  69.7916174  84.0599346  18.9770114  69.0701485  83.4398556  19.0829158
  69.6457720  84.4523430  18.1162107  69.4721794  90.4777813  16.5744841
  70.2900696  90.7646751  16.9806623  69.7476244  90.0073814  15.7876658
  58.6773682 110.0064182  26.7555189  59.4540691 110.2712440  26.2627363
  58.3051300 110.8281231  27.0756412  55.7465219  80.2115631  16.3624251
  56.2988853  79.7580099  16.9991505  56.3583422  80.5312347  15.6993151
  52.9853821  73.5257626   4.7823796  53.2700396  74.1438484   5.4555613
  53.0172110  72.6713896   5.2128035  60.7015133  91.9072533  20.4927659
  60.0810432  92.0406628  19.7762120  60.6482315  90.9709740  20.6845379
  65.2295256 106.4923286   7.7422792  64.7794008 105.7508373   8.1470299
  66.1260271 106.1845207   7.6089633  33.3476496 103.1206226  13.5216653
  33.5883689 103.9683723  13.1480217  34.1473889 102.5977993  13.4642506
  23.8036871  74.4517279   2.7984089  23.6463618  73.5388041   2.5574809
  24.5265937  74.4130182   3.4246197  74.0097570  89.9582958   3.8971961
  73.7610197  89.2594910   3.2921880  74.5673084  90.5376053   3.3777946
  24.9712801   4.2007926  94.9015331  25.2587414   4.7908449  94.2048073
  24.8459101   4.7699425  95.6608677  72.7488136 111.9788361  14.7264361
  72.1999502 111.7381573  15.4727960  73.5798931 111.5316105  14.8862147
  16.0083520  17.1741426  95.5037498  15.1695657  16.7141974  95.4702759
  15.9800541  17.7781928  94.7617531  62.1639299 103.1225586   9.3798101
  62.0965576 102.7901363   8.4847176  61.2730646 103.0635071   9.7249252
  68.8377190  86.8152332  38.9637709  69.6938944  86.4732933  39.2211986
  68.4123802  87.0430756  39.7904587  43.1180906  78.6973906  16.5049815
  43.0145645  79.5161486  16.9899070  43.9651680  78.3552599  16.7907023
   8.4732682  49.0686083  90.5551147   9.2743397  49.5924091  90.5428791
   8.6661625  48.3499861  91.1572742  60.5316448 101.5534973  41.0224438
  60.2843618 102.0994568  41.7687750  60.3914928 102.1136761  40.2590370
  56.8659782  83.6433792  17.0148420  57.2382164  83.8464546  16.1566842
  57.5475788  83.8962841  17.6374936  50.8992004  87.4051285  11.5328586
  51.2306309  87.8367996  10.7454264  51.4817524  86.6560936  11.6585791
  59.0356922  87.1602154  24.6545672  59.4678068  86.7225170  25.3880048
  58.1364155  86.8330193  24.6765471  39.4936061  92.1279049  26.0039997
  39.4461155  92.8160095  25.3402972  40.2854538  92.3300552  26.5023398
  13.7697399  36.7614126  90.3881168  13.7144244  37.3342180  91.1530113
  12.8996456  36.3683414  90.3198147  64.5128393  73.6251974  15.9186649
  63.8561583  73.0695057  15.4988992  64.0119934  74.1732311  16.5228593
  73.9299202  96.5079689  33.7497091  73.2379055  96.9948483  33.3021712
  73.4694958  95.8075142  34.2118907  60.3666353  60.2322435  17.0321906
  59.6049833  59.6585894  17.1160722  60.8684444  59.8596287  16.3072252
  62.4600029  96.7164898   5.2778095  61.8883467  96.8759346   6.0288221
  61.8635273  96.4705467   4.5707318  40.5442524  73.4876347  20.6189322
  40.9864426  72.6391649  20.6472135  40.5548429  73.7325191  19.6936464
  32.4307656  71.6531897  25.0622630  33.1591320  72.2703171  25.1320362
  32.3091888  71.3244772  25.9529948  86.2549973  74.7924185   2.5934929
  85.6319904  74.0693998   2.6665321  86.8563652  74.5212555   1.8999112
  16.5294182  37.4944687  93.6149406  16.0691988  36.6975522  93.3515930
  16.3640404  37.5670290  94.5549488  38.4483981  41.4692068  88.2297993
  38.1818771  42.2261810  87.7080822  37.8710198  41.4890718  88.9930058
  50.7242441  90.9320927   8.3447230  50.9365940  91.8649578   8.3144569
  51.2162828  90.5507374   7.6176053  63.2132769  27.3947906  68.0363989
  63.0839872  28.0840302  67.3848867  63.9437342  26.8779230  67.6965332
  69.8312044  85.7319069  42.5493431  70.2954292  86.2451839  43.2106066
  70.4672241  85.6203079  41.8427658  95.3438950  97.1749878   1.8177389
  95.1835823  96.4324188   2.4000767  96.1924934  97.5191116   2.0964782
   9.7650337  13.3096957  95.8962917  10.0311017  12.6368070  95.2696609
   9.0013987  13.7233043  95.4937744  69.1115618  99.1172123  17.2109973
  69.4351721  98.2919407  17.5721443  68.2390118  98.9072132  16.8781590
  74.9186754 100.7694435  30.1152921  74.9098921 100.0924110  30.7918882
  74.4297791 100.3864861  29.3868995  18.4156990  25.8696532  95.2253532
  19.1387510  25.8372641  94.5989513  18.8381588  26.0184264  96.0713005
  68.3050108  78.7656641  38.8777852  67.4360561  78.7557554  38.4764671
  68.1338406  78.7717104  39.8195362  76.7121458  85.2871609  15.5727613
  76.0586977  85.7013416  16.1363959  76.4408064  85.5154514  14.6836674
  77.4263811  94.2816448   1.0498589  76.5140533  94.5003891   0.8600235
  77.8739405  94.3699265   0.2083543   0.0402621  36.3395476  81.9205379
   0.9333590  36.0127735  81.8118000  -0.3392145  35.7788539  82.5971889
  76.3002682 108.1858444  18.0666268  77.0804930 108.7374973  18.1227160
  76.3872099 107.7325535  17.2280562  51.2203741  74.0276051   2.0306227
  51.5548563  73.2779694   1.5382779  50.3172445  73.7914276   2.2423121
  71.9599056  78.3509970   4.8251337  71.2690258  78.2924891   5.4850549
  71.5726185  78.8669777   4.1180211  77.9054642  75.9313822  17.0219183
  77.7208519  75.1870632  16.4490843  78.1883383  75.5350161  17.8459978
  50.8483696  76.8498135  12.8544128  50.6344604  75.9238577  12.9687881
  51.7159748  76.8470383  12.4500787  60.4695988  99.4673061  16.0512972
  61.3839674  99.7196865  15.9229660  60.0071096  99.8573208  15.3095317
  52.7883816 103.2654858  29.8308754  52.6657534 102.7608490  30.6349492
  53.0538988 104.1345406  30.1316643  30.3617120  26.1466694  93.6498451
  29.5199466  26.2922430  93.2180214  30.9555960  26.7714620  93.2337093
  61.8006563  97.7984810  25.5296469  62.3106575  98.4051418  24.9928975
  61.6352463  98.2778931  26.3414574  69.4224453  73.2769871  11.8734086
  69.1431189  72.7500725  11.1246967  70.1795578  73.7668467  11.5524077
  34.7526693  81.6007423  11.0312831  35.3631115  81.6087627  11.7685270
  35.2035117  82.0880413  10.3417122  38.4322596  97.0858002   9.0565324
  38.6154604  97.7593327   8.4015387  37.6898646  96.5991211   8.6984491
 101.4466763 107.0635223  96.9390392 100.9534740 107.3793697  96.1819267
 102.2426891 107.5950909  96.9450665  55.8721924  25.9230852  96.2566471
  55.5812597  26.2647223  97.1021461  56.7854786  26.2012005  96.1873817
  46.7488432   9.3484396  90.0098133  46.1774731   9.6016413  90.7348347
  46.2613392   9.5942187  89.2235756  25.5264282  28.6341333  82.6923752
  26.1619353  28.2823110  82.0690155  25.2659154  29.4762516  82.3192883
  65.9530020  97.0470524  18.8535988  65.6632090  97.9553127  18.7679601
  66.4540529  97.0313931  19.6690333  88.3819199  78.1925344  24.4641566
  88.9159107  78.8517809  24.0209007  87.4919224  78.5432959  24.4308805
  70.7099485 104.6779251  10.2033794  69.9318266 105.2000141  10.0079751
  71.4443731 105.2538204   9.9907809  84.3866158  81.6760635  38.1992388
  83.5188961  81.3184738  38.0110312  84.3402195  82.5853157  37.9037046
  83.9459705  80.8608150  22.3176622  84.1568089  81.3457298  21.5197659
  83.5492706  81.5122223  22.8960514 104.4654655  13.6205924  33.3420897
 103.7375832  13.5610211  33.9608526 105.2183056  13.2785559  33.8242483
  78.2262945 101.2013149  32.4870515  77.9701376 101.1141586  33.4052134
  78.9243460 100.5567360  32.3709226  89.0481663 102.4183464  87.4411297
  88.2515335 102.3405170  86.9161987  89.4936371 103.1883240  87.0876789
  52.7241373  49.5398951  15.8534157  53.2767439  50.2934599  15.6460416
  52.3679876  49.7353458  16.7201257  31.2409401   3.9505902  92.8831959
  30.9789443   4.1763216  93.7757397  30.4880285   3.4811547  92.5240517
  26.7900229   4.5572871  88.4019661  25.8664513   4.6300349  88.6427021
  26.8361068   3.7658280  87.8655910  43.0794287  46.7991495   0.1548099
  42.6938820  47.3688364   0.8204238  43.9393997  46.5683031   0.5060764
  29.1741467  45.9966660  25.7546258  29.3481755  46.8032312  26.2398028
  29.9830770  45.4909277  25.8326864  60.4611111  32.1553349  13.3733976
  60.6357288  33.0960321  13.4021866  59.5668602  32.0675206  13.7033081
  71.3289118 107.7874756  92.0880032  71.8505859 108.4651756  92.5179005
  71.8545389 106.9918442  92.1711349  78.3166409 101.2024212  83.5497093
  77.8397512 101.7142487  84.2030430  77.7154589 100.4960632  83.3133411
  39.1696715  61.1485052   4.4430089  38.6432743  61.1253786   3.6438832
  39.3700576  62.0756960   4.5710659  23.9842224 105.3755188  31.6154957
  24.6145868 105.4625702  30.9004474  24.1686678 104.5159340  31.9940782
  73.7531328  37.1298480  11.3591039  74.4264317  36.5049291  11.6281331
  73.9190865  37.2744823  10.4275608  90.2614880 109.0729141  86.0210323
  89.5356941 108.8105679  86.5872765  90.9816837 108.4941101  86.2711048
 106.4081478 101.3312912  78.5171175 106.7776108 100.9116268  77.7401876
 106.6903877 100.7778835  79.2453432  34.6696186  22.1750903  85.3019810
  34.9791527  21.3727379  84.8816872  34.8709130  22.0525122  86.2297153
  88.2754326  89.1288757  94.0938854  87.7237225  89.4524479  93.3817387
  87.6996803  89.1215515  94.8585320  61.3601017 108.6793518  70.6265306
  60.6911230 109.0565109  71.1978912  61.1035252 108.9512825  69.7453642
  37.0964146   9.9214673  65.0820875  37.0206380  10.8473349  64.8513079
  36.9684434   9.4571829  64.2548656 112.7009201   1.4161578  87.5331879
 111.8407726   1.4119139  87.1132374 112.8556728   2.3348698  87.7528477
  61.6074848  38.6515450  13.7462234  61.9205761  38.8648558  14.6252584
  60.9863186  39.3492246  13.5373569  82.6408482 108.1681252  94.0457821
  83.1670189 108.3974838  93.2797623  83.0309868 108.6681080  94.7627449
  67.1905899  32.2074747  11.0738611  68.1089878  31.9529486  10.9844637
  66.7246056  31.6436887  10.4564178  32.8161883  12.8820825  89.7593021
  32.5691319  12.3951364  88.9731216  31.9827843  13.1430352  90.1511860
  82.7607632  87.8944683  67.6921797  82.1870613  87.2354507  68.0830765
  82.4453831  87.9834557  66.7928219  36.5550804   1.1656390  93.5785866
  37.1374750   1.6320857  92.9790211  35.6741834   1.4159760  93.3000469
  42.5516415   1.5785268  85.5502510  43.2456017   1.0421765  85.1668644
  42.2629261   1.0841028  86.3173389 105.1868820  89.8076057  89.7056007
 104.5705318  89.9503994  90.4238987 104.7078228  89.2591476  89.0843773
  66.8791437  56.4532328  12.2850609  67.0353746  55.9954357  11.4590788
  67.6625156  56.9878483  12.4144804  15.4790092  28.4788656  90.7477379
  15.1036668  27.6509786  91.0476589  15.8462894  28.2774687  89.8870564
  77.4211645 104.4173717  85.9660339  77.4676991 103.8947010  86.7665863
  76.8989611 103.8872814  85.3639221  44.2305946   4.9229249  79.6561861
  44.9046278   5.5589402  79.8957586  43.6512661   5.4001695  79.0621758
 116.8811226  81.6194057  95.7910156 116.6290665  82.0865345  96.5875626
 116.0712814  81.2092400  95.4874706  78.9884853  27.3855495  10.9862185
  79.5342159  26.6026115  11.0598147  79.4561100  27.9461265  10.3670979
  64.0871525  83.7441635  87.6704311  64.9619341  84.0675259  87.4549580
  64.2395830  82.8850269  88.0639648  26.0863066  16.3462281  86.9781494
  25.2328348  16.7748117  86.9138527  26.5088630  16.5267861  86.1384678
  88.2089520  88.3042145  85.7299995  87.8349400  89.1798878  85.6323624
  88.5789585  88.1045532  84.8700714 105.4264069 106.7653370  87.6775169
 105.5004597 107.3071575  86.8918991 104.5644951 106.3553143  87.6053047
  53.0132771  55.6568384   8.7301058  52.7220917  54.9885511   9.3504596
  53.2266665  55.1687050   7.9348546  82.9625034 101.4224434  83.9901924
  83.4141159 101.8400288  83.2567787  82.0818710 101.2451839  83.6596012
  54.2235327  60.9107971  14.1165006  53.4168339  60.4653358  13.8575971
  54.7519779  60.2281570  14.5299983  54.7753811  65.0186205  18.7328708
  55.1745701  64.1487503  18.7472582  54.6031475  65.2183580  19.6530187
  49.8005295  44.8803043  13.8285685  49.1176987  45.0486469  14.4779015
  49.4476080  44.1739607  13.2874966  24.6780801  28.7256885  94.6383381
  24.9793315  27.8896165  94.2827225  24.3100166  29.1876578  93.8851166
  36.7992902  43.2008791  17.2916842  37.6690745  43.2363319  16.8936253
  36.9618130  42.9467869  18.2001197  95.9092426 110.3565407  92.5126648
  95.1630783 109.8967838  92.1278381  96.6757679 109.8898983  92.1796322
  80.7680225  45.6195593  22.0636773  80.5446053  45.7180691  21.1381435
  80.5443001  46.4638615  22.4552560  97.2374344  91.5760136  80.0862885
  96.3492775  91.2703323  79.9019909  97.1216488  92.4723911  80.4014587
  76.6348696 107.5438213  96.2187481  76.4595938 106.7753029  95.6757164
  76.7618895 108.2560349  95.5919743  61.0958481  36.6407704   5.1748335
  62.0108128  36.3938093   5.3093040  60.6643009  35.8275580   4.9127522
  67.1712160  73.0660248  16.5200222  67.1307755  73.5635042  17.3367906
  66.2897253  73.1354094  16.1534226  46.4689636  59.5700455  13.4620488
  46.4471436  59.4259834  14.4080949  46.8732834  60.4316664  13.3602417
  34.1193914   8.5180879  89.0670204  34.5995903   8.8909435  89.8063564
  34.0505624   7.5856072  89.2718983   1.4409098   2.0402381  88.5143661
   1.1046909   1.8612008  89.3925095   1.4495264   1.1860727  88.0824375
  70.7546711  79.7756147   2.8801510  71.5135479  80.2954197   2.6153016
  70.2947187  79.5890427   2.0616971  70.8945990  56.3016558   6.7358577
  71.7142296  56.4727163   7.1997231  71.1548948  55.7884550   5.9709382
  99.8110771 104.0306664  73.2785034 100.7669258 104.0739346  73.2517529
  99.5393181 104.1751575  72.3721361  83.3044529  67.6971769   3.5358799
  83.5498810  67.5200891   4.4439754  82.4181271  67.3450279   3.4542891
  17.9914534   9.0025330  97.3720169  18.1308043   8.1031108  97.0756149
  18.4681332   9.5397985  96.7392826   7.5179851   4.7748563  88.9100742
   8.3862936   4.5056397  89.2097282   7.5149184   4.5746800  87.9740429
  35.8939791   1.2176432  96.2451935  36.2972951   0.4292709  96.6085625
  36.1044669   1.1859929  95.3119659   5.2666557  13.9237189  95.8170700
   4.3619829  14.1590452  96.0230350   5.7083565  13.9044964  96.6660500
  48.7686110  11.7949569  96.9437408  48.4101009  11.2866640  96.2161827
  48.4526777  12.6857197  96.7922211  40.1828289   9.0791887  83.2358837
  40.0493813   8.6020046  84.0548611  39.4819713   8.7702954  82.6617718
  36.8336391  29.4309735   1.4734030  37.5061417  29.1285205   2.0837273
  36.4074850  30.1578665   1.9275537   7.4028552   3.8862261  86.3309669
   6.4753884   3.7897366  86.5471268   7.6018566   3.1257704  85.7847595
  61.7641068  64.4378185  23.3795404  62.1622324  64.1216946  22.5684977
  61.0754061  63.8015556  23.5721445  61.4399958  69.6384001   9.4754535
  62.1933365  69.4598913   8.9125651  61.7152739  69.3453264  10.3441083
 108.4008694 111.3825035  73.1255293 107.9634285 111.9464207  73.7633991
 107.7503204 111.2516308  72.4356794   0.4605107  99.7576427  87.2397423
   0.6224063  99.2456055  86.4473820   1.2963256 100.1868916  87.4224663
  74.5444155  59.6154404   6.8897319  73.8669157  60.2401209   6.6308761
  75.2962542  59.8359966   6.3398892  36.7260575   3.2399425  81.8085480
  36.3837409   2.3482093  81.7463875  36.1267447   3.6853537  82.4074268
 110.5073071  92.6876450  90.8639336 110.6191540  91.8880844  90.3497124
 110.6642342  92.4149227  91.7679405   8.7379670   3.8952702  95.1322365
   8.8604951   3.1548914  95.7264233   9.5710868   4.3657240  95.1607990
 106.5275478 105.7576561  85.2167416 107.1681023 105.4265785  84.5872116
 106.7312717 105.2968025  86.0305786  56.7967081  63.4312391  12.1866953
  57.4932194  62.9329824  12.6143014  56.1982107  62.7649164  11.8489969
  14.0147364   8.7002778  88.5918617  13.9344370   8.9437348  87.6696301
  14.5075059   9.4192982  88.9873600  44.1934776  28.5292435  31.2367511
  44.4044495  27.6177883  31.4391589  44.9647284  29.0216780  31.5176630
  23.7449622  13.2978821  92.9408646  22.8186345  13.0824924  92.8324413
  23.9262915  13.9317608  92.2469234  50.5128956  56.8641806   7.8901529
  51.3731003  56.7866802   8.3028007  50.5580521  56.2826204   7.1312177
  55.7965469  51.9183540  19.0608668  55.9307241  51.3250256  19.7999156
  55.0245285  52.4303532  19.3018627  76.9871187 109.7638035  94.7591019
  77.9007578 109.8988819  95.0106049  76.7072201 110.6099224  94.4098759
  64.9100018  53.1083107  22.5923181  65.5034781  53.3268213  21.8737984
  65.4611015  52.6511478  23.2275534  35.7194805  77.3752642   4.9907815
  35.2036095  77.6335907   5.7545733  36.5320206  77.0265150   5.3573674
 106.5754318  97.0545387  76.9158268 106.1845970  96.1871815  76.8101215
 107.4534416  96.9684887  76.5444326  77.6925278 100.3105927  78.5271454
  77.0117950 100.0028133  77.9287243  77.9896736  99.5205498  78.9785624
  54.4773436  54.2258358   6.8276423  54.6597624  53.4284544   6.3305151
  55.2339315  54.7887564   6.6635329  40.0206280   6.7083144  85.0841045
  40.2864599   7.2834277  85.8016109  39.1586661   6.3834482  85.3443241
  11.6885030  21.3755703  77.0247364  11.9444907  22.0552969  77.6481724
  11.4624619  21.8546486  76.2274790  91.7925453 110.2610588  71.8840218
  91.3316345 110.9940052  71.4758778  91.7552471 110.4472351  72.8221989
   8.0492675  14.1364968  85.9998512   8.1568199  14.4403863  85.0985622
   8.8830519  14.3416262  86.4228821  70.4707336 105.0608635  68.5845947
  70.0312424 105.8407211  68.9235735  70.9165764 105.3622246  67.7929926
  46.8131351   6.6188234  87.5705910  47.6966095   6.9824278  87.6296997
  46.9265223   5.6844705  87.7448368  39.5084715  14.0528202  91.6949272
  40.4534721  13.9425778  91.8000793  39.1294050  13.2769358  92.1078968
  86.3401890  93.3952808  86.8969154  85.9974670  93.4512997  86.0049343
  85.6769943  93.8265133  87.4358368  44.0203333   4.2022362  85.3597450
  44.7007751   4.1680098  84.6873951  43.5614443   3.3661082  85.2788830
  12.3504591  17.3950064  85.1766014  13.2332897  17.0298159  85.1176262
  12.1090066  17.2904623  86.0969257 103.2030201 109.0108871  82.6403522
 102.9968643 109.8301888  83.0903339 102.3662281 108.7192726  82.2784519
  60.9214687  64.4770193   5.8580798  61.3088751  65.2687311   6.2313664
  60.4642200  64.0654325   6.5913951  14.8885596  24.0577149  68.0208015
  14.7129512  23.1910133  67.6544333  15.7103622  24.3286967  67.6116037
  94.7071266 108.1594276  87.3006535  95.6101036 108.0804729  87.6082802
  94.4955444 109.0860081  87.4142742  71.6443872  87.9112911  23.8788223
  71.2287617  88.6534595  24.3177581  72.5831604  88.0771446  23.9649820
  60.3059959  71.7116117  24.7556591  61.0396338  72.0574141  25.2640176
  59.5273113  72.0071030  25.2274323  71.7820740  45.5157423   3.1856275
  71.9139051  45.5108023   2.2375619  72.6670074  45.5164433   3.5504946
   2.9806826  22.0609450  88.7454319   3.5382637  22.4073696  88.0487728
   2.2274481  22.6512671  88.7652016  81.5100193  76.5205240   7.3703611
  81.8646240  76.1200190   6.5765864  81.9792652  76.0909605   8.0855584
  49.6030521   2.2020806  89.3282986  49.6141911   1.8875138  90.2322578
  50.0171280   1.5006751  88.8255024  83.7350082  29.9982119  18.3166552
  84.2603207  30.2927995  17.5726831  84.0991306  30.4670310  19.0675569
  50.1439428  33.2637215   4.7792855  50.8540583  33.5318542   5.3624433
  50.3580666  33.6690998   3.9390171  51.1901808  32.5146699  17.4059427
  50.5614471  32.7269220  16.7161071  50.8993816  31.6671038  17.7425408
  86.7520237  89.5235920  96.6016579  86.4874458  88.6944485  97.0001030
  85.9301853  89.9919128  96.4550972  64.3083239  28.2187390   0.7690117
  63.3714914  28.3725977   0.8911195  64.3569279  27.3633075   0.3422705
  73.1214857  54.9704552   5.5989915  73.4956932  55.0463295   4.7212419
  73.4785891  55.7188606   6.0771173  29.9158311  18.8356090  88.0894566
  30.8602166  18.8504887  87.9340744  29.5958257  18.1120265  87.5506973
  69.6309328  53.9359903   0.4625581  69.1251421  54.0915680   1.2601824
  69.0272617  54.1487360  -0.2491674  44.8553181  59.7733402   2.7597681
  45.7927847  59.9526167   2.6873088  44.4335794  60.5618525   2.4182734
   9.5607781  19.9975204  78.0462170   9.4750059  20.0244784  78.9991856
  10.3383934  20.5239677  77.8607368  82.9679585  79.4519424  96.9188690
  82.8461742  78.8251019  97.6319313  82.5535297  79.0373898  96.1621475
  80.7154655  98.1106377  85.8756638  80.4330826  99.0237904  85.8242893
  81.6684914  98.1585217  85.9510612  58.8252783  68.5847044  11.5007174
  59.7007179  68.8035965  11.8199801  58.8396358  67.6334190  11.3954818
 111.5664673  99.2958641  87.2056580 111.4522171  98.5890007  86.5704250
 111.5177917  98.8623810  88.0576897  29.6693087   2.7945367  77.9934549
  29.8187685   3.6159402  77.5252819  30.0423646   2.9428253  78.8624048
  35.3273273  14.3720376  72.6395178  35.5668521  14.5457399  73.5498381
  35.2159619  15.2398944  72.2513771 100.3905487 111.2139511  91.2546253
 101.0063457 111.5050220  91.9271564 100.7161140 110.3543091  90.9876728
  13.7212026  85.5160999  80.3263187  14.2213678  85.7297707  79.5386648
  13.1576216  86.2770939  80.4659557  56.9832134 112.0515251  95.3021717
  57.1421576 112.1485043  94.3632507  57.8570271 112.0352268  95.6925774
  86.0184097 108.2918072  74.8598909  86.0608864 107.3355579  74.8579454
  86.9257927 108.5721016  74.7401619  66.5893888  48.7765169  28.3222127
  67.0703268  47.9489899  28.3108139  67.0650053  49.3213415  28.9492607
 111.6747665   4.1296035  77.3219585 112.1550846   4.8727024  77.6871014
 110.7565308   4.3977386  77.3562765  33.6765194   6.8980354  73.7223434
  33.9275908   7.8215569  73.7397242  32.7364254   6.9019771  73.9024639
  53.5218191  52.0633841   1.3663025  53.1803942  52.9317760   1.5797502
  52.7515888  51.4950991   1.3722061  36.6245842  43.0915928  92.2218323
  36.9539857  43.8137531  92.7568150  35.6864333  43.0629015  92.4096680
  44.7414351  18.5720253  80.1024055  43.9074945  18.3341181  80.5075932
  44.8124361  17.9935670  79.3430805  42.8523397  65.3803825  19.3488657
  43.6670923  65.0597906  18.9620411  42.2163534  64.6858120  19.1776347
  41.5844965  46.1500216  23.9125490  41.6761827  47.0955706  24.0298700
  41.3842678  46.0423422  22.9827380 118.2221794  24.6647620  96.3824081
 118.8275909  24.7825789  97.1144104 117.5905704  24.0173793  96.6957855
  92.9861832  77.0523119   6.5583807  92.0861340  76.8250227   6.7917848
  93.5141373  76.3392973   6.9176948  37.7868271  75.7266426   6.0403657
  37.7511549  76.3306379   6.7820835  37.6409483  74.8633528   6.4272523
  91.9824982  50.5199528   5.4093045  92.9132271  50.4470682   5.6206298
  91.5397739  50.0387096   6.1083269  83.3954334  54.8450184  35.6249523
  83.0597019  55.1379633  36.4721227  83.8880157  55.5944586  35.2903891
  68.1909132  51.8426752   2.6716545  68.8715744  51.3521004   2.2109288
  67.4767113  51.9138527   2.0383421  64.9817181  66.1056566  17.4458849
  64.3776846  66.4324951  16.7791402  65.8304882  66.4747143  17.2017097
  15.7916844   6.3815266  82.2711849  15.5834889   5.4501599  82.3449612
  14.9548006   6.7985278  82.0663261  13.2092023  16.3628340  95.6433773
  12.6462626  15.8734512  95.0435162  12.8346241  16.2008679  96.5092182
  57.5497818  60.0946903  11.2861180  57.8038979  60.7101870  11.9737351
  56.5938091  60.1389599  11.2663662  36.5138292   5.6361657  83.9792156
  37.2971940   5.1142204  84.1528320  35.7944965   5.0053144  84.0078449
  59.3216848  64.9590015   7.9067230  58.5267973  64.6048021   8.3053809
  59.0369797  65.7690907   7.4837190  68.3145380  60.7366610  12.4626946
  68.9318562  61.1562538  13.0619347  68.3846426  61.2429523  11.6533804
  96.0811867 112.5146960  94.0671825  95.5516543 112.3342281  94.8438835
  95.9933402 111.7278165  93.5292912  74.3396378  86.3181019  21.6821051
  74.4009829  86.5252590  22.6146054  74.5421648  85.3840065  21.6304326
 107.2723579  99.4839382  88.8603878 108.0352974  99.4867420  89.4384384
 107.2287369  98.5882187  88.5257053  71.2876797  60.5493069   5.4631841
  71.8720770  61.2898779   5.3011042  70.7428122  60.8305645   6.1981958
  55.6511307  75.0768423  27.1776938  55.1166821  74.6566677  26.5038633
  56.4957476  75.2283430  26.7535472 116.4799404 110.9106922  94.3724060
 116.6168880 111.8286228  94.1381550 117.1649456 110.4380512  93.8995361
  52.0822620  57.2465658  30.0164986  52.3025751  57.6453066  30.8583426
  51.4666271  57.8596926  29.6148729  68.3501387  37.0185947  10.6466174
  68.5844803  37.2506905   9.7480363  69.1719007  37.0843506  11.1330462
   1.4057031 108.1776905  90.5155277   1.5137522 108.4046650  91.4391327
   2.1989024 108.5076714  90.0934124  88.9950085  36.3845038  22.2015953
  89.8532772  35.9620309  22.1679235  88.4620380  35.8013368  22.7420449
  14.3908095  22.1689844  96.4627266  14.3951368  22.4959421  97.3623371
  14.7730613  21.2935781  96.5242004  52.8274012  41.1572218   6.4445055
  52.9146814  40.6552696   5.6341600  52.5910473  40.5062056   7.1052229
  24.4753075  13.4467506  89.8924065  23.6925650  13.9487982  89.6654892
  25.1498246  13.7723315  89.2963696  11.9785607  29.9881482  77.1909666
  12.0002937  30.7097888  77.8194523  12.8885305  29.8858476  76.9121790
  24.0688562   4.1963768  89.3043900  23.5318708   4.3745431  88.5322952
  23.5655761   4.5567593  90.0345039  98.0607414  84.3828583  94.1379261
  97.3622417  84.4246578  94.7910595  98.7436771  84.9595451  94.4803619
  45.5075836  10.4544306  73.8884974  45.2770185  11.3763094  74.0034437
  45.3046274  10.0498211  74.7319031  38.9190674   0.7634826  82.2595406
  38.0070853   1.0541459  82.2656631  39.4015980   1.4800391  82.6717854
   0.6695466 103.6141777  88.9063358   1.1804569 103.8346863  88.1275082
   0.4221518 104.4608212  89.2781258  90.5527687  25.1520562  18.3678532
  90.4388046  25.3166771  19.3038785  89.6862602  24.8804235  18.0651915
  79.4904423  53.5021114   5.8422786  78.5423374  53.6055899   5.7608628
  79.7595930  53.1020403   5.0153965  41.4160395  -0.1231527  74.9080849
  41.3578129   0.3585619  75.7331896  40.5173492  -0.1444673  74.5792532
  29.4605947   5.2256811  87.5992775  29.8898625   5.6471115  88.3438301
  28.5604572   5.0822377  87.8915215  20.5807328  25.7855964  81.4803314
  20.5092239  24.9322295  81.9079876  21.2097049  25.6467152  80.7722855
  73.3975983  51.8914938  17.1263456  73.8644409  52.1250534  16.3240123
  72.4786901  51.8418217  16.8629551  24.6689510  12.9854083  72.7968979
  25.5377984  12.9293537  73.1946373  24.5910072  13.8981760  72.5193882
 111.3812065  83.9108658  70.1140213 111.1869907  84.8405361  70.2332830
 110.5555725  83.5301876  69.8146152 111.1579895  99.5630741  95.9480572
 111.9129467  99.5981216  96.5354538 110.5679035  98.9280891  96.3540554
  84.1462898  73.8731623   8.5761017  85.0321484  74.2136049   8.7009275
  84.0183353  73.8804913   7.6275206  92.5400639  49.8386049   2.4049383
  92.0893764  49.7768641   3.2471406  92.2379398  50.6666708   2.0317586
  64.0853262  68.9334822   3.5409471  63.6323166  69.7217846   3.8402644
  63.7847757  68.8119030   2.6403251 118.3402252 109.6715927  90.1516533
 118.8885498 110.4474926  90.0352764 118.9277172 108.9353752  89.9811459
  32.7879357  19.0890789  88.3000755  33.1457472  19.3365514  89.1526890
  32.5681162  18.1620574  88.3924961  90.9674835  60.7480669  14.2623591
  90.8702850  60.6249189  15.2066159  90.7842445  61.6769981  14.1218531
  33.9970303  13.4668875  84.8505402  34.3139100  12.9164457  85.5666637
  34.5521450  13.2345295  84.1061592  55.6364727  28.6592126   4.0178120
  55.9981775  29.5439172   4.0697643  55.3333330  28.5771060   3.1136003
  27.7005243   6.9454348  96.0142612  27.4908471   6.9962382  96.9468307
  27.6454902   7.8502256  95.7067585  58.6991405  78.4714079  10.7974756
  59.2449141  79.2567110  10.8382738  58.4019184  78.4332657   9.8883909
  55.5845308  58.5632372  18.7625217  54.8235607  59.1315889  18.8813972
  55.5128956  57.9170132  19.4650137  69.8392916  45.2009058   5.0561392
  69.1182375  44.6450710   4.7605795  70.4123116  45.2757788   4.2930669
  44.6311522  77.2377634   1.2456785  45.2358580  76.9480705   0.5625690
  44.2959070  78.0764866   0.9288411  84.0645599  89.4614124  88.2590008
  84.0527058  90.4089546  88.3941078  84.6265602  89.3355179  87.4944496
  56.1306477 107.1846867  78.1034946  56.1782265 108.1378365  78.1774330
  55.2731657 107.0172977  77.7124119  47.6311636   4.0632489  88.1311035
  47.9152441   3.4591922  87.4450684  48.1262350   3.7960643  88.9055443
  79.1059637  75.8453178   1.5192010  79.2689800  75.9056473   0.5779153
  78.7813997  74.9542952   1.6494446  55.0057220 109.2947769   1.3201280
  55.0173855 108.4713650   1.8080731  55.7963276 109.7531414   1.6048671
  33.4965372   4.8855346  78.8911581  34.1538048   5.5635518  78.7345600
  32.7759123   5.1100063  78.3024836  48.2080412 103.7040043  13.1404865
  48.8051796 104.3429756  12.7514184  48.5985851 103.4972382  13.9895761
  83.9955711  67.9618216   6.2999141  84.1630173  68.7648535   5.8066279
  83.8360691  68.2597160   7.1954846 115.2467823 102.1670437  82.1867466
 115.5216026 102.0170403  83.0912876 115.2313709 101.2945747  81.7932987
  33.9211440  24.4234061  95.8921719  34.2252326  23.6399555  96.3503933
  34.4163322  24.4291449  95.0730324  39.5585871  11.5015769  86.5804672
  39.3818998  11.9553792  87.4045277  39.1564536  12.0552289  85.9111500
 116.9116497   2.2889066  93.3830452 117.7467155   1.9045891  93.6498737
 116.4263916   2.3987795  94.2007732  65.8518124  79.6634436   5.5592531
  65.5650759  80.4275608   6.0593867  66.7114258  79.9095821   5.2176249
  69.8422384  72.7390814   4.6312648  70.4208708  73.3027649   5.1447564
  69.9961329  71.8597364   4.9766737 112.3162270   3.4519714  94.8144436
 111.5059185   2.9665723  94.6594715 112.4082088   4.0159249  94.0465069
  11.5540648   8.0018622  71.3871050  12.3195517   7.7063298  71.8799734
  11.4331436   8.9125741  71.6558313  43.6502218  59.2724085  11.9323826
  43.9732647  59.9262428  12.5523663  42.7527094  59.5454741  11.7422760
  53.9452648  56.8217993   1.7386024  54.0665245  56.8187571   2.6880857
  54.7656727  56.4717913   1.3912448 101.1521435  86.4893341  75.7941532
 101.8597126  86.5721416  76.4334583 100.3730392  86.3111782  76.3209200
 100.0037193 100.6135273  70.1415157 100.7420349 101.1379147  70.4515934
  99.5417118 101.1878872  69.5308733  56.1588764  23.8683033  67.1571445
  56.2690496  23.0345988  67.6143408  55.3948021  23.7347436  66.5962696
  27.3275328   4.8156774  91.0063076  27.0979881   4.8111850  90.0770569
  27.3647070   5.7433301  91.2393570 106.8488789  96.3794327  95.8727169
 107.0053196  97.0015907  95.1623058 107.5745106  95.7582188  95.8111763
 116.0682106  13.1749070  93.9109802 116.7815399  12.9862750  94.5207405
 115.6032658  12.3430037  93.8215542  15.4273963  18.3276629  89.4190311
  14.5997941  17.9524803  89.7199440  15.5603731  19.0934598  89.9776936
  75.7824421  47.7829790   3.5914966  75.4322290  47.8581047   4.4791552
  76.3423395  48.5525513   3.4889883  22.9041314  21.1047530  91.3581848
  23.8055277  21.0538840  91.6761875  22.7214313  22.0428610  91.3051891
  95.1207066  71.7025471   2.8667545  94.6285057  72.2536707   2.2582778
  95.5443954  71.0497141   2.3095106  12.5013411   8.6923748  95.5265236
  12.0394075   8.6954039  94.6881676  12.7991652   9.5950639  95.6391525
  68.5370636  86.0009575  29.9336386  69.4863033  86.0464478  30.0480914
  68.3903074  86.2897587  29.0329218  21.4518952  42.5916147  76.8841791
  20.8226657  43.1710100  76.4545250  22.0059633  42.2701931  76.1728907
  32.1028566  68.8770533   8.3931351  31.2207818  68.5548258   8.2078063
  32.5684857  68.1153345   8.7383932  66.5493488  70.5662441  13.6359644
  65.9704494  69.8598099  13.9224255  67.2974825  70.5190754  14.2311943
  88.7133980  71.2646008   8.9982921  88.4637260  71.0790014   9.9035275
  87.9783535  70.9428692   8.4763402  54.4879293  91.2192059  26.8124127
  55.1249027  90.9904766  27.4893045  53.7133408  91.5023327  27.2982979
  37.8973341   5.5791730  73.6860752  38.6275315   6.1185658  73.3825970
  37.7166200   4.9877238  72.9554892  77.3475075  70.2354622   9.0965134
  77.5288391  69.7093058   8.3177257  77.0902061  71.0910320   8.7529558
  63.6179972  66.1760044   9.1627854  63.8543797  65.9444523   8.2645983
  64.0278769  65.4984903   9.7005653 104.0591812  81.5290737  10.8690155
 104.9442482  81.5264702  10.5044782 103.9494514  80.6525803  11.2377405
 100.5888462  60.0891304  11.6140401 101.2958050  60.7091999  11.4352775
 100.2213001  60.3791332  12.4489307  66.1502266  67.0912790  12.6679957
  65.3984737  66.6259718  13.0348575  65.8495760  67.3942089  11.8112159
  86.0936928  72.4754333   0.5093148  85.3328609  72.5912666   1.0784793
  85.9534359  73.0946684  -0.2070013  20.3178596  16.9594932  80.7549572
  20.2579093  17.4459612  81.5771389  19.4649112  16.5344059  80.6654358
  12.9724169  44.5028210  94.0627766  12.0740128  44.7196865  94.3119144
  12.8943992  43.6830425  93.5748100 101.3516235  73.5015011   1.9486868
 101.5961075  72.5956488   1.7592433 101.4757156  73.5904646   2.8936309
  73.2624531  82.7620316   7.8458256  73.8826513  82.6070976   7.1333778
  72.7808619  81.9388390   7.9273951  28.0884838  13.2653666  79.2546320
  28.6074233  13.2675326  78.4503126  28.4355259  12.5313532  79.7616005
  32.5879812  16.2776411  88.7982273  31.7262077  16.0997188  89.1749477
  32.9800963  15.4127359  88.6781597  71.1412477  68.6623764   8.1683975
  71.2953997  68.7374210   9.1101182  70.7587957  67.7920103   8.0569118
  98.7142372  64.1370678  14.6128333  98.2308197  64.3686008  15.4058862
  99.6183109  64.3887472  14.8013580  68.9797735  51.7390108   5.7136399
  68.2743645  51.1449480   5.4572934  68.9526081  52.4387741   5.0610870
  97.1840763  86.4591122  89.4900036  97.2783375  87.4076939  89.5769119
  98.0727768  86.1442566  89.3247604  77.0282459  50.1491117  19.4180024
  77.6412868  50.0022602  20.1383138  77.5821352  50.4051733  18.6805248
  52.7952719  67.9643631   7.2400457  52.7754211  67.9234648   8.1961656
  53.6109972  67.5256777   6.9984347  82.1477032 109.8869228  87.1072865
  83.0025578 109.8474598  87.5361156  81.6421604 109.1842175  87.5157642
 107.7482605 103.8087463  78.0309677 107.7391720 102.8749180  78.2410288
 108.3274841 104.1962242  78.6871576  54.1783428  74.3199587  32.4453521
  53.9467001  74.2027187  31.5240335  53.9191103  75.2195215  32.6448989
 112.9897308 103.7212658  81.9393349 112.3730087 103.2716370  82.5170135
 113.8043880 103.2264137  82.0270348  91.8271065 100.5278969  89.5602894
  92.3498440 101.2171173  89.1504860  91.0388565 100.9757233  89.8674297
  63.6380816  34.6506548   4.3031061  63.3386040  35.1125669   3.5200477
  64.1167593  33.8933444   3.9660883  43.4657669  85.2030563   6.0931849
  43.2987213  84.2620945   6.0391825  42.8539896  85.5171013   6.7590249
  40.2619839  24.0433121  90.9698677  41.0473537  24.5903492  90.9829998
  40.5201960  23.2425523  91.4263153  78.2075453  39.4762468  28.4213471
  79.0126657  39.3326211  28.9187217  77.5791788  38.8614368  28.8000298
  60.6844473  65.8838606  20.6023026  60.4799891  65.8267546  19.6689403
  61.4070749  65.2686977  20.7272720 100.2132225  83.4295177   8.1977355
 100.1445389  82.7980518   8.9138091 100.0193024  82.9208565   7.4104065
  11.8346715  11.0624623  88.5510349  11.1183536  11.6305280  88.8346195
  11.6433704  10.2160096  88.9549541  98.7627983  80.9593868  21.3304400
  98.2669353  81.7422009  21.5703368  99.6538734  81.1390686  21.6303277
  49.9043465  79.7863436  11.6783977  50.3898859  79.0736389  12.0937753
  50.2373409  80.5795288  12.0981634  77.8118706  80.1340008  13.8817501
  78.4692049  80.6076241  14.3914795  76.9754314  80.3992558  14.2641711
  82.0841122  83.2760429   6.6404122  82.3842239  83.0885315   5.7510257
  82.0393562  84.2313004   6.6816849 114.8919678  73.4350491  60.6492758
 114.4836617  72.7203178  61.1378193 114.7331810  73.2185173  59.7305107
 107.2524929  89.1180229  80.4459572 106.5638638  89.2764282  79.8002577
 107.9881191  89.6529293  80.1477051  38.1730938   2.9265726  91.7896461
  38.8145065   2.3368141  92.1858883  38.0299497   2.5704718  90.9127617
 114.9028397  76.7734194  97.3879051 114.8261070  76.6042995  96.4488983
 115.6477737  76.2410784  97.6670647  42.7525854  42.7558470   9.2949718
  43.5013819  42.9911900   8.7471116  43.1391001  42.3199224  10.0544512
  36.0901332   4.9348465  64.2531204  35.2585220   4.8149702  64.7116899
  36.5747881   5.5576015  64.7948933  46.0146618   3.7658158  93.6988354
  45.1710939   4.1156176  93.9856434  46.3184071   4.3862134  93.0362129
  77.7726030  49.6494579   3.8334376  78.5545731  49.1332006   4.0289667
  77.6894999  50.2486277   4.5752725  15.5744505   7.3729783  84.8549461
  16.3465393   7.0076776  85.2869892  15.6131089   7.0274842  83.9631081
  50.9725285  13.5910141  74.3864059  51.3831902  13.0043793  75.0215816
  50.0923824  13.2347238  74.2654467  60.7153654  72.3865271  10.1619327
  60.9482670  72.8680229   9.3681127  60.7738590  71.4651871   9.9090594
  86.3178635  57.4415064   2.5204200  87.2750187  57.4493742   2.5158852
  86.0857677  56.5138388   2.4779940  99.2315674 101.9457722  85.7126141
  98.2756138 101.9175529  85.7526398  99.4680309 102.7396965  86.1921978
  44.2792511  13.9091575  89.2259407  43.5606670  13.2877648  89.1087437
  43.9422655  14.7338343  88.8758278  75.7433033  63.2396746   0.7769044
  75.6679535  62.8097868  -0.0750053  76.0385275  62.5479174   1.3689774
  36.2874961  10.7572830  55.3018379  35.3687835  10.7919359  55.0353861
  36.6007614  11.6559052  55.1990080 116.9520760  95.3040218  36.2113023
 116.4847279  96.1102962  36.4297891 116.4222813  94.8985863  35.5248904
   3.2448375 109.9889851  31.2139654   4.1049162 110.2886009  30.9194684
   2.7332655 110.7916832  31.3150382  51.4234591  25.1083612  19.9486005
  51.4267254  24.2576361  19.5098686  51.3394308  24.8979163  20.8785915
 106.6727066  91.9832897  58.3670187 107.2812176  92.2687054  57.6854849
 105.8428097  91.8534565  57.9080534  25.3465629  80.2086830  34.6617675
  24.7410583  80.2071285  33.9204216  25.2746940  79.3287325  35.0315642
 115.9055233 111.6370773  35.9576201 115.0481319 111.2516975  35.7770944
 115.7123756 112.5342369  36.2297130   6.7913651 103.1042480  66.0081482
   5.9665269 102.8279495  66.4075661   7.0758933 103.8494492  66.5372515
  11.9443810 109.7938156  45.7853222  11.1196721 110.0696945  45.3853512
  12.5042856 110.5687618  45.7385683  45.8043146   4.2513970  26.3833523
  45.7436895   4.0283930  25.4544663  46.5172815   3.7054062  26.7147136
 107.1347618  93.2624912  61.9933796 107.5869370  93.8489914  61.3869143
 107.5698757  93.4052944  62.8339243 100.8115005  82.0444870  29.3082500
 100.0371361  82.3634052  28.8446927 100.9344864  81.1524391  28.9836526
  14.9475288 103.3521175  38.5268283  15.3526819 104.1155720  38.9381838
  14.1173780 103.6791325  38.1802106  27.3322892   1.9681799  38.8080311
  26.4453673   2.3277062  38.7895250  27.2241735   1.0815034  39.1520476
  19.7564065  45.2091885   7.1938944  20.0993776  44.9044847   8.0339879
  19.9470127  46.1471605   7.1833861   4.1229671  85.2024269  22.6460218
   4.0792304  84.3058586  22.9784060   3.6549672  85.7229996  23.2988763
  16.4540315  75.7480764  24.4453192  15.6225276  75.2826929  24.5361614
  17.1168590  75.1061010  24.6997929  30.1280117  85.3855705  45.5053329
  30.6229234  85.2737236  44.6936798  29.3078852  85.7960033  45.2311563
   7.5777274  67.1377611   0.9077216   8.0115116  67.9829025   1.0252053
   8.2920545  66.5232563   0.7393359   2.1009572  87.1675968  33.3881807
   2.6156601  86.4625359  32.9954863   2.0161721  87.8187561  32.6917434
  22.7398014  71.8897581   6.5210307  22.8361845  72.6437712   7.1027571
  23.4699869  71.3150787   6.7508256   2.6007178  85.3147507  42.7855635
   2.7618203  85.3436279  41.8424606   2.4627699  86.2290478  43.0330896
  10.0825036  95.0387669  45.2150822  10.6219935  94.2986202  45.4932499
  10.5970025  95.4662037  44.5303774   9.8055762  98.3830166  37.9764342
   8.9641190  98.7933826  38.1758785  10.0616884  98.7588501  37.1341801
  18.7911236  79.5193434  25.0938725  18.4655666  80.3450775  25.4522181
  19.1894031  79.0741444  25.8418059  14.2265916  80.0009346  57.8059006
  13.9747381  80.8366966  58.1987238  15.1827836  79.9943638  57.8493214
   7.7530175  77.9299784  26.8211412   8.5168695  78.4291553  26.5320349
   7.4462247  78.3919954  27.6012993  25.1797652  92.0900536  44.9244595
  25.7580495  91.3322163  45.0110769  25.3931642  92.6414490  45.6772232
  17.9820085  64.5609379  47.6684666  17.9779077  63.6041832  47.6395798
  17.9120469  64.7727537  48.5993147  25.9210181  92.5507545  28.2271147
  25.2900672  91.9552803  27.8227115  25.9126711  92.3146534  29.1547036
 112.1532631  46.8371677  28.7879205 112.8267574  46.9380903  29.4605684
 112.0640087  45.8904409  28.6784935 118.9255714  98.8583374  33.7318325
 118.5658741  99.0312099  34.6018720 118.9461040  97.9035950  33.6665177
  15.6686997  91.5955639  13.6831653  14.9142373  91.8438816  13.1489754
  15.8180046  92.3505020  14.2523909   3.0075073  74.6975374  40.9749889
   3.3664620  75.0261879  40.1507521   2.4052601  75.3830290  41.2641859
  23.2940364  97.2858143  47.7224016  24.0331960  96.7301559  47.9696369
  22.5258636  96.8290997  48.0652666   0.7803126  91.4174080  62.6802874
   1.2793934  92.1572685  62.3342323   0.1145071  91.2452412  62.0144844
   5.0849354  90.6431675  24.7789311   4.3958783  91.2060452  24.4259357
   4.6141785  89.9456501  25.2350950   5.7231945  79.2311907  25.3624225
   6.0126561  79.9833155  24.8459435   6.5273941  78.8783646  25.7432222
 114.6055031  92.6042461  40.4054737 114.1453648  92.8429890  41.2101507
 115.5320358  92.6216316  40.6452274  19.3746519  97.1791649  39.5226836
  18.9145720  97.9982853  39.7059774  20.1737404  97.2307491  40.0471163
   0.7752419  88.8572598  24.5563674  -0.0984327  88.5661983  24.2952013
   0.7005201  89.0265465  25.4955125  10.3992820  81.8087292  13.5432637
   9.6281552  82.3326206  13.7603474  11.0414696  82.4459362  13.2305455
  27.5862265  12.8089130  22.6809716  27.8861904  12.1100175  23.2621741
  27.1511674  13.4331656  23.2617164  -0.0404505  90.5301094  40.5299711
   0.8009879  90.0848866  40.6299305  -0.3417401  90.2795506  39.6566558
 114.2871189  77.3622751  28.8830280 115.1529503  77.5327682  28.5122299
 113.6766148  77.6008654  28.1854630  33.8307571   6.1407757  25.3912616
  34.3998194   6.0760897  24.6243072  34.4168377   6.3967496  26.1034536
 113.5554695  96.7874336  24.0929055 113.2346249  96.0220623  24.5698762
 112.8169155  97.0560074  23.5464239 118.2706547 100.2268505  42.4147892
 117.3547935 100.1380539  42.1510553 118.2760048  99.9951553  43.3435059
 100.8542824  16.2575150  84.9968529 100.5989265  17.1566725  85.2031040
 100.3759480  15.7215881  85.6294823  24.8290920  79.0564537  22.0904636
  24.5159268  79.4228172  22.9174685  25.0050235  79.8205185  21.5413857
 117.8096008  69.9866438  26.5785623 117.7819824  70.7841063  27.1072626
 117.8939438  70.2992678  25.6777954   0.6535065  72.9786682  44.9797106
   1.0891328  72.7499104  44.1586590   0.9906349  73.8481426  45.1955557
   2.6179835 108.0865383  36.5689254   2.4915868 107.3445129  37.1602464
   1.8671787 108.0510902  35.9762478   1.9840996  70.1751852  19.5945215
   2.6818424  70.6290150  19.1218436   2.1248299  69.2490005  19.3980300
  21.2917018  73.6676073  55.8180237  22.1579790  73.2864714  55.9613228
  20.9484506  73.2021809  55.0552750 100.2368832 101.3747406  25.1086926
  99.6575356 100.6135368  25.0747442  99.6951199 102.1019268  24.8022294
   4.2898777  68.5548735  40.2021170   3.7159064  68.5513067  40.9681320
   4.5702755  67.6444435  40.1086950 114.8156643 108.8938522  11.1805928
 114.5749760 109.7371960  11.5640938 114.5277596 108.9540482  10.2697039
  64.6233845  43.5119009  93.3638477  65.1171923  42.7694178  93.0158424
  64.0409756  43.1265116  94.0184498   7.7607578 109.3657017  38.0281591
   7.9499054 108.6835575  37.3838568   7.9175401 110.1863956  37.5611210
  20.8858585  71.6098213  28.6771274  19.9804413  71.7529440  28.4015036
  21.3285637  72.4361658  28.4837389   4.5420128  89.7206688  57.2655582
   4.3778938  90.6630707  57.2311878   3.9903170  89.4074631  57.9823303
  21.4951181  74.1922760  37.9516435  20.8341360  74.1902733  38.6439800
  21.8724823  75.0713825  37.9833174   5.1263571 101.7828560  31.1040521
   5.2706909 102.7105522  31.2905455   5.9803826 101.4608288  30.8156562
 115.2527618 104.4937420  49.9869776 115.5377483 104.0196896  50.7681942
 115.2155781 105.4095840  50.2628183  12.3811650  70.8009815  37.7854609
  12.4061370  71.7576218  37.7641892  11.9611847  70.5908394  38.6195397
 118.1505871  88.6225128  44.6641302 118.1205750  88.9343739  45.5686045
 117.7119064  89.3077087  44.1598463  20.6111097 104.0866184  33.7819624
  21.4789343 104.3422699  34.0946174  20.2895975 103.4731960  34.4426918
  93.6626339 103.6689854  64.2471933  92.9960918 103.3693886  63.6289740
  93.3740425 104.5445061  64.5048904 117.8365707  75.4156494  42.0649052
 117.5458145  75.1800013  42.9459047 117.0333385  75.6590843  41.6047001
  22.0064926  69.1038895  29.3098617  21.5504837  69.8879671  29.0040660
  21.8094444  68.4394121  28.6496568  29.2943764   5.3510958  34.8728943
  28.6066937   5.2334118  35.5282402  29.9758244   4.7284985  35.1263332
 115.0310040  64.6373129  59.6727753 114.3055820  64.1276932  60.0337362
 115.5692005  63.9941978  59.2112827   7.6158065  84.9986553  38.4001279
   7.8064477  85.9278965  38.2720590   8.3836341  84.5462704  38.0508161
  29.3986845  88.6031628  40.6953669  29.5474339  87.8354454  40.1433611
  28.7564564  88.3119392  41.3426447   5.7710290  69.0716505  38.0636048
   5.1181328  68.7997055  38.7085891   6.1841220  68.2553434  37.7821326
   9.8285306  66.1773920  57.1902943   9.0305567  66.5974188  57.5113058
   9.5544523  65.7171345  56.3970280   1.8383139  80.4587555  28.0303359
   2.6668698  79.9832582  27.9700971   1.6135913  80.4315090  28.9603829
  26.5089440  89.6873283  25.6291914  26.7860484  89.5405293  26.5335655
  27.3077559  89.9540329  25.1742196  17.1799588  93.3332443  41.8353271
  17.0884609  93.6536789  42.7326441  17.8817368  93.8659191  41.4611673
  29.5079112   0.1882338  29.6214747  29.6716452   0.2922244  30.5588174
  30.1843596  -0.4213187  29.3263531 102.0345497  70.3917265  45.8909178
 102.0304489  69.6196127  46.4566565 101.9774818  70.0384521  45.0031233
  13.7736952 109.2616749  84.8854446  12.9277110 109.3139362  85.3302097
  14.1127145 108.3968449  85.1164436  25.2835369  84.5026398  43.1631517
  24.7910190  85.3101540  43.0162907  26.0576987  84.5897579  42.6069880
  24.8367786 110.7021236  50.7182884  24.9309015 111.5274048  51.1939764
  24.5629621 110.0716114  51.3844013 116.9314766  96.2484455  40.4374647
 116.5724659  97.0995998  40.1867390 116.3338184  95.9256649  41.1118937
  15.6491852   9.3747771  26.1232328  15.3410339   9.2043334  27.0133018
  16.0823298   8.5627502  25.8601165  26.0317898  93.1946468  40.4661465
  25.7530880  93.7620544  39.7473979  26.9799304  93.1196594  40.3582764
   8.7916332  67.1379328  20.8516073   8.7337637  67.5123262  19.9725676
   9.5973682  67.5047255  21.2155938  17.2649491  94.5226860  33.7501431
  17.8055513  93.9258099  33.2327199  17.4772656  94.3110466  34.6591878
  12.6558483 108.5715389  32.4813819  12.4884105 109.4664669  32.1859288
  12.7675819 108.0697060  31.6739726  13.8445687  88.9120293   3.6775047
  13.9882612  87.9837894   3.4932530  14.3741226  89.0865517   4.4555447
  24.2968583  83.1337547  22.6401806  24.2977262  82.4089336  23.2653689
  25.2020812  83.4447956  22.6328301   2.4627528  96.6694260  26.6139293
   1.8252578  96.0086823  26.8845844   3.3037525  96.2127018  26.6327596
  19.0477157  90.0978374  26.3506579  18.4146285  90.3185081  25.6674767
  19.8686016  89.9551773  25.8794618 118.2457733  80.0462627  36.6174507
 118.6928368  79.4264984  36.0410309 117.3222637  79.8004532  36.5632129
 108.2113075 107.3274231  30.0807023 107.5996685 106.5953541  30.1594973
 109.0646744 106.9507027  30.2953601  40.0398588   3.4797025  42.3714590
  39.3237233   3.0541542  42.8429365  40.8142185   3.3095172  42.9077816
 114.2123985 102.4729061   5.2793342 114.3156719 103.2325935   4.7062394
 115.1074123 102.2212601   5.5070800  32.4524593  83.5683346  28.1777287
  31.8966770  82.8453064  28.4685230  32.4650550  83.4920216  27.2236586
   4.1626638  78.5966730  27.6182580   4.9587461  78.6134434  28.1494856
   4.4359699  78.9370108  26.7663765  13.6530113  67.2696590  27.6855898
  13.4327888  68.1529427  27.9814672  13.2900345  67.2157431  26.8015242
  13.5641122  81.0120106  41.0457611  14.4381583  81.1521053  40.6815577
  13.5330009  80.0752926  41.2402582  15.3926778  84.2258072  54.3184614
  14.7286665  84.8742390  54.0842438  15.7026196  83.8863659  53.4788513
   2.9483160  46.3304853  45.9155703   3.3842665  46.6207409  45.1143646
   2.0164974  46.3359404  45.6966734  11.8745852 111.5535259  31.9935012
  11.1593568 111.8394184  31.4252162  12.3086083 112.3644352  32.2586226
  25.0317407  91.3696671  42.3024273  25.3157806  92.1263981  41.7896795
  25.1608658  91.6351891  43.2129526  16.9676435  81.1170292  36.7433929
  16.5646422  81.6800690  36.0824847  16.7895222  80.2266884  36.4403963
  58.2683516  81.1908245  28.0985188  57.8343773  80.3706741  28.3335829
  57.9318285  81.3985920  27.2268462   7.3394412  97.4634361  14.0966988
   6.8370891  96.6904545  13.8390720   7.7225542  97.2292995  14.9420595
 112.9318619 109.3424511  45.3733969 113.5054779 109.9270916  44.8780251
 113.1893253 108.4630966  45.0964928   7.9611540  82.2471428  40.2351904
   8.2389528  83.0913639  40.5906630   8.7334806  81.6874695  40.3158522
  15.5668843  74.0826178  13.1220841  15.3154683  74.3148422  14.0160048
  16.4630175  74.4071245  13.0333543  18.5333502  28.6807132  14.4897842
  18.1369364  28.1226206  13.8207388  17.9010570  29.3879771  14.6171200
  35.7101607  84.5420456  46.9257069  35.1239824  84.8873997  47.5990200
  36.5879798  84.6612835  47.2882652  32.5003314  95.0439072   7.6523751
  32.8978205  95.6819630   7.0598227  31.9834065  95.5717945   8.2609451
  13.1054771  95.4109383   9.7941840  12.8732455  95.4614735  10.7214093
  13.6475420  96.1847496   9.6405178  10.2093184 104.1570568  39.1047263
  10.0723243 104.8843575  39.7117639  11.1390889 104.2029476  38.8818979
 118.3189678  85.1939678  13.7281609 117.6230335  84.6602726  14.1116548
 119.1147804  84.6776772  13.8559997 103.5690689  95.4272366  24.7766685
 103.5208511  94.4738579  24.7061729 104.0694046  95.5831718  25.5776572
  10.2967072  88.1588554  74.8887348   9.7678143  88.5699654  75.5724716
  10.4025698  87.2531700  75.1798677 114.2237186  85.2646351  29.0563035
 114.5351410  85.9125900  28.4243250 114.0284252  85.7726574  29.8437071
   8.1938314  75.9571171  48.8649702   8.6400908  75.1838923  48.5196924
   7.6637280  75.6242895  49.5891571  11.3807809  70.6270170  40.6128693
  12.3333478  70.6219625  40.7067966  11.0682201  71.1243725  41.3686323
  64.3859243  16.3293123  30.8774543  64.9582386  16.3422525  30.1103020
  64.9807310  16.2111378  31.6180444  10.3205740 112.3230171  38.3569121
   9.6212822 112.0853615  37.7480292  11.0728860 111.8043613  38.0718708
  68.6420536   6.9122553  74.3713760  67.9940557   7.3397177  74.9313831
  68.1983232   6.8055487  73.5299826  13.0808055  97.5527477  11.9619906
  13.5543275  97.0715237  12.6405442  12.3642683  96.9699001  11.7108035
  10.4812336 101.1207962  42.3036385  11.0574996 101.3389587  41.5711355
  10.8097172 101.6478539  43.0320168  37.1401358   0.8272091  47.9484844
  37.7176380   0.5405750  48.6559916  36.9160485   0.0223812  47.4812937
  30.3910136  85.0296879  56.2121534  29.6202517  85.5742741  56.0522318
  31.0776281  85.6513691  56.4535999  40.6637001  91.4707851  17.5362778
  40.3276300  91.5771770  18.4262049  40.1187944  92.0500946  17.0036280
   6.0021240  92.3092747  34.5886302   6.6738588  91.8522072  34.0825725
   5.5131376  91.6107082  35.0235248  21.7340469  89.7123051  28.4574652
  21.5636849  90.0807285  27.5905919  22.5343108  89.1989803  28.3464980
   5.6533086  86.3204765  29.3449044   6.1661476  87.1229172  29.2483902
   5.1492113  86.4534950  30.1476645  66.8524885   3.4741473  35.2647996
  66.3406229   3.6078414  34.4670844  67.5030184   4.1762060  35.2524352
  54.5525074  27.9366446  47.5139046  54.2475510  27.9320931  48.4212160
  53.7591124  27.8087115  46.9939137  49.4628811   6.2568635  34.6333051
  49.4702053   6.5561634  33.7241316  48.6217165   5.8108079  34.7318506
  90.9710407  29.0598392  86.9270897  91.5206528  29.3470693  87.6562405
  90.1415825  29.5196486  87.0567608  14.7499812  93.7038708  27.8015280
  14.3406153  94.2419815  28.4790945  15.6389248  93.5508060  28.1218076
   9.7946280  85.6035042  15.3000236  10.3096724  85.5527115  16.1052442
   9.4899219  84.7079659  15.1537120  94.6112347 109.7882557  26.2431955
  95.4316902 110.2341557  26.0328317  94.7307301 108.8980865  25.9122109
  17.9190671 110.3144360  33.3571935  18.0201757 109.3913078  33.1251693
  18.6913836 110.5144405  33.8861179   5.6688100  55.2024984  92.7562618
   6.2400770  54.6394444  92.2339058   6.2322277  55.9255362  93.0319595
 115.4895496 102.4438572  51.9360828 116.0953140 102.9416084  52.4852037
 115.3001022 101.6544151  52.4431515   6.1303705  92.6570797  26.9810891
   6.9289970  92.6884079  27.5078225   5.8744180  91.7347717  26.9887614
  57.7983379   7.8252453  33.1931615  58.3277845   7.0554316  33.4012580
  58.1011248   8.4965867  33.8045979  64.4397926  18.6451602  36.6135359
  64.6678019  17.8829598  36.0812831  65.0722218  18.6334527  37.3319602
   1.3766949 100.4988480  24.4001603   0.7955866 101.1717033  24.7548437
   1.6358683  99.9804020  25.1619220   3.0206665 100.4716587  35.3158212
   3.3666241  99.7994900  34.7286868   3.7684742 100.7248974  35.8570123
   4.5439088  96.9571877  14.9713290   4.3704730  97.1529102  14.0505445
   3.7216187  96.5915298  15.2974725  17.5756466  90.6198788  11.4450264
  16.9223642  90.7121086  10.7515216  17.0628810  90.4606628  12.2374618
  22.7229190 106.9303894  33.7284613  23.5466242 107.0460320  34.2021370
  22.9828048 106.5707111  32.8803372  19.8928225 111.8771648  35.2621961
  20.5514956 112.5699329  35.3117037  19.4664478 111.8903828  36.1190867
   0.8557816  78.3752489  38.6068034   0.6720750  79.2890072  38.3888006
   1.8112698  78.3192396  38.6185098  77.6810551  45.7026768  90.2642822
  78.3448267  45.1988792  89.7933006  78.1271982  46.0065556  91.0547543
  62.6214314  11.1354053  26.5562010  62.5073195  10.3371823  27.0720029
  62.7172709  11.8299842  27.2078204  12.2511303  66.9785500  37.5845647
  12.8671896  66.2529087  37.4838328  11.4466739  66.5675831  37.9010892
  18.0686462 109.7002602  30.3572845  17.1925902 109.4070530  30.1067138
  18.3715189 109.0423870  30.9831476  23.9569688 105.7668018  19.3047178
  24.1292286 106.6287231  19.6837199  23.5567832 105.2676964  20.0167465
  35.0803518  11.6946280  37.5487351  35.1834965  11.5674722  36.6056418
  35.0610781  10.8081222  37.9092455   8.1289876  81.8727207  27.8502631
   7.7484316  82.6356983  28.2853246   9.0534598  82.0955849  27.7411127
  35.0641584  97.2501183  13.1287539  35.5696297  96.4430904  13.0315435
  34.5716763  97.1279716  13.9404023  11.3273871  89.4067860  43.5381079
  11.9585812  89.8989773  43.0131531  10.5292618  89.4009590  43.0097151
   6.3818991 108.0994987  20.1039863   6.2925822 107.7646160  20.9962368
   7.0840710 107.5742531  19.7201931  54.1380024  11.7245114  31.7876577
  54.9380255  12.1058369  32.1493101  53.7772036  11.2013710  32.5034642
 117.6073933 106.9599152  30.3433204 117.5826359 107.8677654  30.0409555
 118.5099506 106.8287754  30.6338882 118.0831337  57.3598528  40.9178305
 118.4417915  56.9787884  41.7193222 117.9032040  58.2718992  41.1459303
  55.0674152   6.4058584  39.3906617  55.6702375   5.7532990  39.7470379
  54.5247316   6.6629469  40.1360703   3.5699046  73.5395002  36.1648488
   4.4072968  73.0840063  36.2516427   2.9670650  72.8720951  35.8371425
  57.6785517   3.6437157  47.6671982  58.3235693   2.9365000  47.6618147
  58.1982946   4.4425982  47.5783968  45.1402330   8.9025289  41.3991880
  44.9301672   8.5147196  40.5496550  46.0877800   9.0357572  41.3739347
  11.4327478  94.2676735  32.6704073  11.7532384  94.9932766  33.2061410
  11.6662014  94.5101833  31.7743492   9.8361814 102.7981186  17.1857750
  10.1706052 102.1474838  16.5684688  10.5628026 102.9508114  17.7898788
   4.4771320 108.1936359  42.5216293   4.9886858 108.6558533  43.1856298
   5.1293653 107.7288723  41.9973946 109.6800709  81.3133907  16.8536818
 109.7943592  81.7707253  17.6867533 110.5400181  81.3584995  16.4357376
  15.9766555 104.8654556  44.3367195  15.1677084 104.4135952  44.0965939
  16.0374272 105.5930042  43.7176752  23.2380867  85.6888676   8.4410459
  23.1445408  86.1482430   7.6065111  22.6480436  86.1511230   9.0363592
  10.9530783 108.2121944  37.9626799  10.0631845 108.0202389  37.6669192
  11.0187066 109.1662407  37.9211831 107.5868320  32.8209424  95.4043674
 108.2765293  32.1837282  95.2186203 107.7708626  33.1203723  96.2947083
 112.3839092  84.2713833  18.8784075 113.1050968  83.9739037  18.3237672
 112.7741718  84.3687153  19.7470009  51.4350462 105.7833004   3.0779108
  51.0169411 104.9226952   3.0500698  51.6532135 105.9732246   2.1654606
  29.3159318 102.0988369  11.2925863  29.8932648 102.8496265  11.4312601
  29.6478438 101.4280319  11.8893147  85.5638123   7.1411002  27.3819375
  85.2526569   7.8265125  27.9732299  84.8301888   6.5297133  27.3168612
   7.0570463  94.7611904  31.7450118   7.2804266  94.8477745  32.6717472
   6.8636125  95.6545162  31.4607954 115.1860905 104.8134899  23.0429435
 115.8756828 104.1644192  23.1822252 114.5786762 104.3910503  22.4356318
 107.7160645 104.0814114  45.4219437 108.5290718 104.3963242  45.0268555
 107.1451473 103.8928890  44.6771336  35.6277657  15.3782177  34.7653556
  34.8838401  15.9315455  35.0033331  36.2357807  15.4656088  35.4994631
  33.1242371   4.5240203  38.6088252  32.9078007   5.0959438  37.8724217
  34.0793848   4.5548406  38.6633611 112.6831722  87.2708797  42.6812267
 112.8741169  86.3371563  42.5922585 113.5246944  87.7025509  42.5338078
  33.2779169 100.6645012  31.1262059  33.9703608 101.0032654  31.6936469
  33.0725145 101.3917160  30.5386758   2.0372066  94.3741322  33.3775425
   2.2415213  93.4395123  33.3465600   1.3019857  94.4385052  33.9870811
   5.5417800  89.8303699  53.8530922   5.2976507  88.9790821  53.4898520
   6.3896465  89.6784115  54.2705393 105.8353710  96.1957455  40.0342655
 106.0474586  97.1271706  40.0950336 106.3019657  95.8942127  39.2547846
  13.6380076  91.4625072  48.6693335  13.3373427  91.1098099  47.8318167
  12.9184616  91.2864304  49.2755365  47.1204329   1.1243653  33.9804387
  47.7694130   1.5919900  34.5061636  46.8710184   1.7474857  33.2979822
   9.8463601  72.5870848  50.2169704   9.6559072  73.3861780  49.7256374
   9.0026355  72.1399307  50.2833796  64.0091705  12.2926199  23.9963746
  63.6381578  11.4523232  24.2656040  63.7308598  12.3968053  23.0864739
 101.3695717  86.7437553  36.6265178 100.8242607  85.9740734  36.7892075
 101.4176559  86.8059063  35.6725502   2.8461418 111.3619232   7.3600996
   3.1421214 111.5228748   8.2560462   3.4331080 110.6803513   7.0327502
 117.3058510  92.5232792  40.5996895 118.0826759  91.9721413  40.6946516
 117.5472450  93.1642914  39.9310541  12.0441628 103.9271832  54.5669746
  11.1656821 103.7267876  54.8899984  12.0358384 104.8732281  54.4215155
  71.5166378   7.8458774  37.4851823  71.3729334   8.0973285  38.3975172
  72.0744944   7.0696849  37.5356889  42.9210186   6.3809133  19.3163955
  43.0966616   5.5914009  18.8044882  43.2425213   7.0975459  18.7693095
   4.7366986  72.5720215  14.3759882   5.1502234  72.8112364  13.5465276
   3.8009232  72.7040768  14.2239416   7.8872949 106.4403439  18.2990897
   7.4311799 105.6762791  18.6517918   8.5652232 106.0736752  17.7314615
  59.8548508  10.6007469  29.7859669  60.2399349  10.0375700  30.4573631
  58.9511013  10.2954614  29.7067761   7.0293629 109.0458488  29.2073369
   6.3346303 108.7156677  28.6376357   7.8406990 108.7976170  28.7642264
  36.2096763  94.9730396  35.3027630  35.2798581  94.7970581  35.4466414
  36.2343645  95.4838276  34.4936156  34.5370793  93.7638950  25.3091884
  35.4241824  94.1149139  25.2313066  34.4427252  93.1819057  24.5551181
  13.9907217 102.2166538  20.8292389  14.3784237 101.8440151  21.6211104
  14.7280824 102.3212051  20.2279091  45.5385256 106.5490055  34.2034841
  45.6128216 107.4944592  34.3331909  45.1001692 106.2325954  34.9933982
  53.9542532   7.8310150  59.5305634  53.2930517   7.2709972  59.1238356
  54.7257090   7.2702801  59.6121740 117.3124599  73.0651283  48.5586166
 116.5049744  73.5759020  48.5011435 117.7538109  73.4017563  49.3384361
  23.2702446  80.0382233  43.4476089  23.8290596  80.7833004  43.6685467
  22.3949504  80.3031826  43.7302494   0.2898719 100.0803185  45.2764893
   0.5016848  99.1550255  45.3998041   1.1393020 100.5214977  45.2686930
  32.4796820  78.5104322  36.4136457  33.3067775  78.8220739  36.0461855
  32.6115108  78.5421705  37.3611927  13.1527925  71.3229418  32.9709196
  13.5958946  70.6144190  33.4377050  12.9205835  71.9515753  33.6543894
   4.4127688  98.7209702  47.2637606   4.8081008  98.7693787  48.1341600
   5.0547034  98.2468987  46.7351627 118.7260105  87.8744125  13.5056233
 119.6444147  88.0638885  13.3136249 118.6839733  86.9194698  13.5562146
   3.0151173 100.2606201  44.8228598   3.0305827  99.9231911  43.9272404
   3.4076393  99.5634270  45.3482914  24.3694377  97.2223377  10.0842476
  24.5596123  96.5997028  10.7859600  23.6242580  97.7282047  10.4083407
   7.3466980 111.1561871  20.6269646   7.4734551 110.3781319  20.0840116
   6.5154111 111.5243530  20.3275537  21.6797590 107.1778870   9.9747217
  20.7639408 107.3973274  10.1460505  21.7927766 107.3364925   9.0375447
  91.8696976  68.3183861  93.6981678  92.1106148  68.7234020  92.8650093
  91.1047554  68.8128233  93.9925003  16.5225446  79.7652149  27.3787999
  17.0965981  80.1961517  28.0120397  16.4463687  78.8659477  27.6977825
   1.6837886 111.1222935  23.1617069   2.0044114 110.4507446  22.5596690
   1.9991849 111.9465446  22.7910638  23.8517857  85.5626011  18.9404750
  23.1705761  85.0747967  18.4776270  23.6948133  86.4766312  18.7035191
   1.0759278 105.7269859  32.0464492   1.1181948 106.6299152  32.3613572
   1.2692291 105.7902431  31.1111069 115.6644917 106.9659233  51.0955143
 115.1019096 106.9152927  51.8682861 115.5640030 107.8656483  50.7846451
  18.6982989  91.5393066  30.5882978  18.7347233  91.7776871  29.6619701
  18.9870822  92.3266411  31.0497546  79.6457148   2.4478088  30.1776600
  79.2778492   1.8111277  30.7904744  78.9844131   2.5284347  29.4903398
  16.3385677 105.3669357  29.7108936  15.7026684 105.9634876  30.1058507
  16.0834289 104.5006180  30.0281358  17.0090628 112.0035172  50.5114126
  16.8781769 111.9843197  49.5633984  17.2320294 112.9142475  50.7040167
  99.2101669   3.4023258  14.0500557  99.1971397   4.2841431  13.6779535
 100.1162148   3.2742530  14.3309486  61.4119768   9.4451785  54.2625666
  61.9450712   9.5686245  55.0479317  61.9230795   9.8477185  53.5604477
  34.7858858  98.0886269  30.4161310  33.8873792  98.3122444  30.6588578
  35.2327776  98.9323997  30.3485417  16.0008037  50.4149389  27.4101520
  15.2902186  50.8176374  26.9110155  15.9483767  50.8238602  28.2740188
   5.1580662  51.9078445  13.7838733   6.0040069  51.8754435  13.3371449
   4.5537958  52.2548914  13.1276357   1.2168519  60.2401114   5.2848399
   1.5658990  59.3702888   5.0903833   0.5428956  60.0852728   5.9466851
 109.8433495  56.7977905  56.6310930 108.9146996  56.5757704  56.6986370
 110.0673866  56.6156530  55.7184839 107.2039604  53.1565332  32.1020484
 107.6337814  53.4792519  32.8940964 106.7418385  53.9186001  31.7528701
   0.8337520  93.4087086  27.2799850   0.1293882  93.1674480  26.6784024
   1.1582437  92.5732899  27.6161766  10.0639737  53.7057161  14.5990324
  10.8144045  53.8004780  15.1856375   9.7315383  52.8256464  14.7756529
   5.2825320  43.1498098   5.6473577   5.5574781  42.9839993   4.7456127
   4.9466714  42.3075724   5.9540600 118.0017376  62.1314192  39.9924254
 118.5550499  62.5632620  40.6432581 118.6110878  61.8454027  39.3118978
  18.6664987  91.3450813   8.0127853  17.7915764  91.0903645   7.7197647
  19.2166817  91.2496948   7.2353339  14.7475147  81.1651039  25.6107879
  15.2406287  80.5468464  26.1500669  15.3843892  81.4877319  24.9731874
  22.7119637  53.9361429   3.9510745  22.0052505  54.4190502   4.3795466
  22.7769494  54.3288708   3.0805725 111.0516262  50.7689762   7.4392271
 111.2877941  49.9353981   7.0322758 111.7924976  50.9757662   8.0089563
 101.0349655  20.2000141  95.2404118 101.6021824  19.6204686  94.7318554
 100.6935501  19.6456921  95.9421253 104.3725109  84.0957355  33.4911585
 104.7064495  83.2629967  33.8246989 105.1203156  84.4916821  33.0436540
   4.6308529  52.7990437  25.3768325   4.2774162  53.1531239  24.5607829
   4.6730122  51.8541813  25.2295399 118.3988857  59.4194889  16.3883913
 117.5472164  59.5171022  16.8142545 118.5834980  60.2839279  16.0211134
  12.1276164  70.3366375  27.7357888  12.3936069  70.1843882  28.6425972
  12.7099407  71.0315514  27.4288321  79.9855089  37.5863814  88.5215473
  80.2900124  37.5364494  89.4276428  80.0423145  36.6866469  88.1998539
  15.3722608  65.8646584  19.1783202  15.4216778  65.8563805  20.1342082
  14.4432247  65.7385159  18.9854169 117.4133587  56.7401552  24.7732520
 116.7572975  56.4947653  24.1208744 116.9037247  57.0728779  25.5120349
  94.2791176  80.2003956  25.1952887  94.8144531  79.4634628  24.9010468
  94.0409279  79.9790049  26.0955596  18.9571011  73.8761234  47.1379805
  18.0640304  73.7074900  47.4383450  18.9736402  74.8147058  46.9508410
  18.4279919  60.4930162  20.6054211  18.9928484  60.2058268  19.8880041
  19.0218246  60.9243536  21.2198687 100.8011627  59.4524765  15.2397108
 101.1131191  60.1382732  14.6492851 100.2660561  59.9161434  15.8838391
  12.8352773  67.7102232  24.9458170  13.1230783  68.6231184  24.9408054
  12.2282183  67.6464224  24.2084980 106.7101097  66.6526127   0.3115067
 106.7538261  66.6108704   1.2667960 105.7746029  66.7088127   0.1167878
  16.9950104  75.4507494  19.7003531  17.4485815  75.4277372  20.5429530
  16.0668957  75.5002832  19.9292231  13.4319711  69.6067858  30.2179456
  12.9052341  70.0573349  30.8780861  13.5900247  68.7387800  30.5891824
  15.5312419  62.8235865  18.0210471  14.8647106  63.2448006  17.4783266
  15.8546686  62.0998430  17.4845588 107.6683807  61.6986084  31.8560433
 107.8342533  62.3127270  31.1407948 107.3453426  60.9083652  31.4231515
 115.2805138  72.7118206  51.9200373 115.1644707  73.6478710  52.0830536
 116.0118294  72.4593973  52.4836731  14.3809175  48.8070965  21.9181657
  14.9389696  49.3172169  22.5051808  13.4961712  48.9294434  22.2623873
  18.4042501  25.5980968  23.7865496  19.1867745  26.0138655  24.1485262
  18.7065470  24.7421956  23.4827709 108.1627369  72.2894001  11.1398566
 108.9344978  72.3950768  11.6961479 108.4399319  72.6112223  10.2820504
 103.9346027  57.9835176  13.0811453 104.1306496  57.5560999  12.2474122
 103.6615658  57.2699261  13.6577475   6.6388619  87.9518509  40.9203339
   6.2397027  88.1585503  40.0752449   6.2271768  87.1291828  41.1848497
   7.8314084  83.6295223  15.7630944   7.0753074  84.1587257  15.5091417
   8.0600619  83.9429188  16.6381562  11.9459009  71.3180113  49.1284800
  11.4559889  71.9898415  49.6026707  12.1748149  70.6720352  49.7967196
   3.2412159  77.5403118  20.4598022   3.1503531  76.6504097  20.1191449
   3.1531847  77.4439335  21.4080596 103.8012886  65.1514006   7.0675159
 104.6502876  65.0747061   7.5028777 103.9807510  65.6680489   6.2819600
  34.9795437  65.5157471  14.3485415  34.8036885  64.6869564  13.9031076
  35.8570361  65.4088402  14.7157109 117.2966385  66.9430399  21.1740160
 118.0574799  66.9423914  21.7548323 116.5439224  66.9463348  21.7653203
 109.5027161  72.6099014  26.2751508 109.9936867  72.0951605  26.9156408
 110.0249481  73.4029198  26.1542201 105.4595757  48.9486122   6.8755275
 106.1594677  48.3462620   7.1276259 105.8240414  49.8192930   7.0346284
   7.8005242  71.7346382  29.3791318   7.7472997  71.6382694  30.3299809
   7.6072490  70.8611584  29.0386748 111.9618511  59.3261909  21.8855286
 111.0835934  59.1550255  21.5455246 112.5349808  59.2374992  21.1240244
   8.0290926  79.6239805  34.9569964   7.4959636  78.8349104  35.0538111
   8.4573430  79.5209122  34.1071677 118.6946106  75.8957291  22.5287986
 118.1873512  76.6309214  22.1846771 119.4964409  75.8924389  22.0060325
   1.8444760  79.1769791   6.3324958   2.5573963  78.6869431   6.7421824
   1.0479958  78.7894106   6.6953224   5.3817469  86.9307041  35.1669121
   4.8119038  86.1621380  35.1382685   5.5606967  87.1305656  34.2480731
 104.2195415  70.7236433  10.9285212 104.4106483  71.4365149  11.5380478
 103.2650757  70.6517220  10.9357607  20.6590867  46.4493656  21.3695669
  20.8680058  45.5464983  21.6091919  20.9499907  46.9694185  22.1186686
  19.0210128  38.5822177  13.7477267  19.7301030  38.0175710  14.0552902
  19.4281352  39.4420838  13.6422920 112.7150536  73.1181669  25.2652907
 112.2307205  73.8193941  25.7011056 113.6151791  73.2209253  25.5742288
  88.0421638  57.8359032  10.2824020  88.3883572  58.7282324  10.2709651
  88.6227798  57.3462534   9.6998626  13.5264623  71.6575766   6.7974770
  13.0567813  71.7047977   5.9647703  13.1871402  72.3941517   7.3059577
  96.7336559  30.3383803  92.9109478  96.2436867  31.0399008  93.3399391
  97.3785686  30.0634623  93.5626698  27.8383946  52.4860716  23.5379243
  27.6277590  53.1800413  24.1626453  27.4127388  51.7060995  23.8938546
   6.2391156  37.6521277  36.3125396   5.4319066  38.1614518  36.3848829
   6.4999509  37.7455282  35.3963137  16.4388871  81.6969109  42.0649958
  16.7022502  81.9257641  41.1736488  16.0969532  82.5127697  42.4306393
  10.2623200  80.0802326  17.7272415  10.4410148  79.9474812  16.7962861
  10.3101003  81.0286522  17.8474391  15.6821036  82.2391415  34.6519423
  15.3366709  82.8499699  34.0009427  15.6083667  81.3797665  34.2368937
 111.7767811  84.2811012  14.7034991 111.8250751  85.2096558  14.9308622
 111.1057663  84.2358875  14.0223718 111.5484524  78.6718798  31.2267041
 111.2106419  79.1244555  30.4538608 111.6486645  79.3612099  31.8832207
   0.7373746  47.3957682  32.4973774   1.6277808  47.4175930  32.8479958
   0.6670335  48.1931353  31.9725060 115.2490425  89.5261192  13.2972765
 114.6934032  90.2877235  13.4629858 115.8991337  89.8365116  12.6669884
   1.0434107  63.5453463  10.7190990   1.1831810  64.0214920  11.5376234
   1.5002058  62.7136230  10.8448315 116.5977669  60.5267382  19.5758188
 117.2577477  61.1355877  19.2442143 116.6807938  60.5787754  20.5279899
 118.7381363  61.2460995  51.3007927 118.2597542  60.5505991  51.7520761
 118.9269733  60.8840942  50.4350424  80.1067924  32.6367521  87.1423340
  79.7986126  33.2866216  87.7739334  80.0411797  33.0766344  86.2947273
  27.9439330  62.3943520  26.1415601  27.7134705  61.7685223  25.4549313
  28.0042100  63.2354403  25.6886077 116.9178391  86.0172939  11.5073705
 117.2987938  85.7828522  12.3536193 116.1250019  85.4845142  11.4457691
   3.9556149  75.4848289  25.6090641   4.7955847  75.7729721  25.9663510
   4.1755146  74.7369957  25.0535297 112.9290485  40.8427095  13.6155653
 112.8829765  41.7943430  13.5233462 112.7467251  40.6827021  14.5415175
  91.7798042  76.1797523  11.3682663  91.9422817  77.0877218  11.6240394
  92.5196838  75.6926775  11.7309737  25.5590725  93.6664104  10.0666857
  25.1605940  93.7961960   9.2061019  25.1404214  94.3210220  10.6256545
   9.1956490  52.4101877  32.4731016  10.0661337  52.5821066  32.1140313
   9.2409712  52.7294922  33.3743358  23.4988260  54.3434477  24.8070478
  23.1976771  55.1883030  24.4727445  22.9751945  54.1971684  25.5948567
 117.4383736  79.3409634  30.0621772 117.0628071  78.8227177  30.7739353
 117.4831867  78.7350368  29.3225312 114.2968559  88.4351254  20.2376032
 113.4150696  88.1227112  20.0348997 114.7483826  88.4421158  19.3936265
 116.4519596  72.7330828  15.2576220 117.0285416  72.2768974  14.6446967
 116.5372944  72.2439623  16.0759807   6.1299765  44.0796185  41.1917734
   5.9442109  43.4601498  41.8974543   5.6346440  44.8646069  41.4255905
  15.5367875  56.3202286  61.2103081  15.1562953  56.6005135  62.0427132
  16.3887596  55.9540844  61.4476109   1.0051801  65.1500177  22.5470853
   0.1079359  65.0208330  22.8544879   1.5404165  64.6266031  23.1435680
  16.1668277  61.1233854   4.9441567  16.9365537  61.6703176   4.7872576
  15.7927799  60.9811831   4.0746176  84.2695713  23.3036375  86.7916012
  84.3291569  23.7244296  87.6492786  83.5941124  23.7988997  86.3282394
  94.3704033  40.3115177  30.5835319  94.4994164  40.2859545  29.6354127
  93.4203434  40.2835703  30.6968117  22.9993224  40.9023237  29.8216462
  23.8845229  40.6059456  29.6099496  23.1029463  41.8280649  30.0418687
  10.8095229  50.6420231  45.1792812  10.1887822  51.1359787  45.7149363
  11.6498578  50.7512045  45.6244230   3.8837805  73.9033318  33.1573796
   4.1077322  73.8523960  32.2281408   4.1164252  73.0432987  33.5073090
  46.0293818  73.6709976  31.0061526  46.1990213  73.9000845  31.9199228
  45.5895138  72.8219700  31.0497761  21.0838008  89.7331047  19.4438708
  21.5062857  89.4856453  18.6213732  20.1836634  89.9448013  19.1965497
   1.2178157  68.5296679  11.5203643   0.3803820  68.1068707  11.3301563
   1.2495819  69.2774439  10.9236586   8.1019515  72.9767704  34.5840096
   8.3217847  72.7497578  35.4875398   7.7458602  73.8635206  34.6397066
  17.4732840  53.9161444  13.8760924  17.8797579  54.7821569  13.8440573
  16.5354180  54.0885305  13.7929022  10.9789670  65.6261015  33.2633114
  10.9063828  65.0813246  32.4796152  10.7926452  65.0292015  33.9880347
  10.9537637  55.5188227  36.4656830  10.8957934  56.3739109  36.8919396
  10.4179096  54.9426603  37.0107770 112.2402477  83.4385300  30.9733558
 112.6197147  82.7955437  31.5723562 112.9075336  84.1209030  30.9003711
  37.2626185  52.7739143   4.3908569  37.7171850  52.1827984   4.9910089
  37.2023678  52.2832346   3.5711995  16.2181842  45.2156591  29.2446375
  16.9244957  44.7238255  28.8257647  16.2209487  46.0637426  28.8008165
 111.8104267  86.5031052  17.1882153 111.7695999  87.0480156  17.9741168
 112.2762489  85.7148361  17.4672496 110.4300690  63.4753466   2.1200098
 110.4296303  63.8765860   2.9890555 111.1623096  63.8909626   1.6646819
 117.2961521  45.2833462  30.4339409 117.4249458  44.3719053  30.6964731
 117.2221375  45.7622004  31.2594390 108.1863785  63.3389473  16.7884767
 108.7137699  62.5816441  17.0426083 108.6434364  64.0881872  17.1705472
  16.9291174  44.5037889   7.5184238  17.5471079  43.9858913   8.0342746
  17.4519098  44.8498631   6.7951304  31.4983726  92.1489048  30.5194259
  31.2091541  92.9459095  30.9636784  32.2902322  92.4104977  30.0495768
 109.5920753  68.7659359  19.3346322 110.2716827  68.1936741  18.9784265
 109.1668701  69.1414881  18.5636628  13.2753408  80.5353260  52.5296879
  12.9836082  81.1203003  53.2289219  13.3989131  79.6896982  52.9608250
  35.3785992  56.2258530  18.9166331  34.6851254  56.7885256  19.2612028
  35.8703780  56.7899704  18.3198428   0.2503219  87.3910141  10.4363143
   1.1559780  87.1849537  10.6677365  -0.2711050  86.7412758  10.9076762
  25.2879667  87.8001213   0.4623516  25.1046348  87.7637482  -0.4764230
  25.5759001  86.9147396   0.6846429  31.0287046  72.1928406  21.3546371
  30.3842354  71.7219305  21.8829656  31.8751860  71.8950033  21.6877961
 108.9632320  64.2989540  29.9284577 109.8235989  64.4699574  30.3115630
 108.3449841  64.6993732  30.5397391  20.7300162  99.1800690  18.1399584
  21.5431142  99.1010571  18.6388183  21.0127974  99.4196606  17.2574282
  27.2551513  93.4474945  36.0145974  26.3465691  93.1505966  36.0652089
  27.7740002  92.6589298  36.1732936  21.9145322  83.8626957  21.4241672
  22.8262353  83.7096405  21.6723609  21.6797709  84.6787167  21.8660259
  22.2450733  37.3224330  97.2380161  21.5059662  37.7687216  97.6512718
  22.8249884  38.0299592  96.9563389  15.1499188  74.5948553  37.5542712
  14.2637420  74.2330265  37.5527573  15.1202404  75.2984524  38.2025790
  20.5407643  64.4335175  27.9240513  20.5258894  65.0266790  28.6751604
  21.4314985  64.0832233  27.9130936   4.8530170 107.7314472   5.6165487
   3.9408213 108.0045033   5.7143581   4.8839539 107.3012924   4.7620028
   6.7922246  97.9561043  11.2859178   5.8799547  98.2454014  11.3032925
   7.0649612  97.9685783  12.2033548  44.4834137  90.3988743  12.3564386
  45.0731659  90.0707722  11.6776335  44.9535990  90.2467632  13.1762064
   5.0841314 101.8435383  36.6496730   5.4728055 101.9906616  37.5119472
   4.7113925 102.6911831  36.4071798  18.3553445  95.3805161  14.3355179
  18.5450637  95.5231476  15.2628231  18.6917174  94.5028496  14.1544640
  17.0481241  74.8308372   9.9540925  16.2473464  74.3282747   9.8043668
  16.7644155  75.7448244   9.9348217  27.2633958  99.1738033  33.5227108
  28.1662321  99.1253757  33.8369989  27.2983670  99.7851181  32.7869749
   1.4752230  87.7899647  43.2978058   0.9679060  87.7500153  42.4870872
   0.8490339  88.0875492  43.9577723   5.1595688  79.3303347  20.1758814
   4.9087551  80.2203846  20.4231215   4.4237283  78.7870312  20.4580021
  95.3504753   8.4227556  93.9084339  95.9127426   9.0301216  94.3892574
  95.3254223   7.6366156  94.4539452  22.2437286 100.1315117  23.5213876
  21.4351296  99.7733402  23.8876033  22.8098321  99.3692875  23.3998442
  25.4792929  52.4746418  11.5006709  25.8598518  52.6936960  10.6501293
  26.1093044  51.8728542  11.8971169  23.0522823  57.8530407  24.8658919
  22.7199650  57.3266602  25.5930209  22.5466895  57.5603485  24.1076422
  20.2606463 102.5617790  25.8033609  20.1615429 102.4244308  26.7454576
  21.2058449 102.5323963  25.6551552   1.5990585  77.0227766  27.9524469
   1.0231353  77.1224356  27.1944165   2.2875994  77.6738501  27.8173590
   4.0326288 107.7465439  14.3564761   4.7311521 107.8772259  13.7152123
   4.4504672 107.2661877  15.0712454 112.2202301  98.7289238  17.5505435
 112.2691441  98.1095695  18.2787156 112.4440289  99.5743179  17.9397297
  19.8545790  78.9816475  19.7077370  19.8501873  79.9346256  19.6180630
  19.9439454  78.8300228  20.6486177   6.3552552  48.6181641  29.9083924
   6.0598409  48.1003046  30.6572461   7.0517284  49.1725016  30.2603388
 117.6150417  73.2181931  59.7709560 117.7995872  73.3487177  58.8408279
 116.6783619  73.3957672  59.8565197  96.1711311  80.3150940  41.3729382
  96.1047649  80.6492329  42.2674656  96.2150383  81.0999298  40.8267355
  35.4395628  72.0507145  33.1565595  36.3642740  71.8038797  33.1711721
  34.9688244  71.2199450  33.2233810  44.3843317  59.1928577  31.7175889
  43.6368990  59.7613621  31.5321779  45.0203657  59.7655773  32.1461678
   4.4650972  93.8135815  17.6124251   4.1756302  92.9501820  17.9073322
   4.9310240  94.1796780  18.3641696 108.3272362  98.5319233   7.0056176
 108.2524586  97.9431343   6.2546432 107.9683495  99.3631363   6.6949356
   5.4912388 105.0903988  19.4152367   4.8257744 104.4429398  19.1824710
   5.0340432 105.9302044  19.3712652   3.6828923  80.6491280  30.7798910
   3.9911813  81.3362217  30.1890564   2.9214028  81.0318375  31.2156582
  30.9017801  76.0403204  28.8890266  30.8261490  75.0909948  28.9854050
  30.6842160  76.3870001  29.7543073  22.6667237  87.4042702  44.4465208
  22.2822857  86.5623856  44.2022514  23.5495329  87.3805809  44.0773106
  12.4010479  59.1043615  35.0133896  12.6235652  59.9877644  34.7195911
  13.1013799  58.5525990  34.6650767  13.6261749  77.7005196  30.4073071
  13.3803713  78.4588861  30.9371138  12.8892076  77.5773048  29.8090363
  88.9131165  34.8966050  96.5056133  89.0666008  35.8324981  96.6351414
  88.4399414  34.8441696  95.6752014  27.2060871  89.3532276  28.2358575
  28.0621457  89.7211075  28.4550929  26.5775442  89.9903011  28.5754275
  19.2851639  84.5334530  19.4337618  19.2869198  84.2080593  20.3339529
  20.1189804  84.2358494  19.0698779 109.6804047  86.6183281   6.3672060
 110.4909325  86.1739445   6.6157943 109.7760010  87.5042248   6.7168981
  23.8630390  69.4885111  26.0997057  23.2856345  69.0457630  26.7216444
  24.4682956  68.8068581  25.8077407  19.9831498  61.0640669  41.6630411
  20.3268003  60.3057814  41.1906672  20.0029111  60.8019924  42.5834560
  16.3927126  60.3168726   8.1400424  17.1677959  60.0618505   7.6396030
  15.9375155  60.9411812   7.5750047  28.1896567  88.1535816  10.6812000
  28.3692288  87.2296333  10.8552778  28.2834125  88.2412243   9.7326434
   5.1290572  88.5753632  18.5342145   5.3657639  88.2790279  19.4130707
   4.3076766  89.0517330  18.6552000  19.0872490  67.4515963   9.8309267
  19.2871130  68.2352972  10.3428817  18.5086977  67.7617073   9.1342604
  98.6409092  26.0839725  95.3265381  98.9580250  25.9737635  94.4301414
  97.9559708  25.4220843  95.4213619  37.0818400 107.3532391   3.9544213
  37.8732777 106.8189907   4.0210930  37.4018383 108.2553196   3.9456284
  81.8710995  20.4825449  85.7320309  81.6420841  20.9345698  86.5441036
  82.8262329  20.5310607  85.6920624  18.8301420  80.6346512   9.4413549
  18.1478095  80.7491875   8.7798887  19.3544269  81.4335442   9.3854553
   1.1612514  83.0182362  19.2445600   1.7819813  82.3944855  18.8679218
   0.4196997  83.0132866  18.6393261 118.4601688  41.4901400  89.0531540
 119.2677593  41.4233446  88.5436726 118.7381554  41.3637638  89.9603367
   7.1351057  54.0148163   5.6624329   7.5615364  54.1923141   6.5008140
   7.8477788  53.7433386   5.0839609 112.5609112 107.5562859  25.0441170
 113.0098057 106.9045544  25.5826044 111.8265438 107.0810699  24.6553922
  18.1317735  82.3286343   1.2825681  18.8756692  82.2611618   1.8811478
  18.5288417  82.4249077   0.4169470 112.7408218   1.8908705  90.5347538
 112.6436234   2.1053833  89.6069813 113.6485386   1.5990961  90.6193066
  46.1531496  89.5113182  10.2197909  45.9843874  88.6680794   9.7994226
  47.0958853  89.5118809  10.3855753  32.4874115  91.8796635  20.7521224
  32.7529144  91.2593365  21.4310384  32.9798651  91.6111279  19.9764872
 119.3192196  58.9415312  37.3133993 118.6103535  59.2480946  36.7479277
 119.0847206  58.0373955  37.5226378  31.8197989  73.1591320  35.3050661
  31.4852428  73.1179142  36.2009478  31.1184621  73.5784626  34.8065495
  40.3238535  73.8252401  35.2346539  39.6154714  73.7179470  35.8694077
  40.1661777  74.6841574  34.8426938  18.9049017  67.3626280  39.3094206
  18.9315498  66.4326572  39.0843177  19.5858848  67.4678469  39.9738169
  30.6389165  83.6782837  58.8524342  30.5161500  84.0666676  57.9862309
  29.8273301  83.8749123  59.3202972  14.3770552  75.6654119  21.3829947
  13.7691438  74.9274969  21.3365364  14.2179763  76.0529661  22.2436476
  34.6244526  84.3886852  34.5900917  33.9674234  83.8162136  34.9860954
  34.3455887  84.4788837  33.6788678 118.5130405  77.2023821  15.7280886
 119.2458916  77.7316952  15.4134715 118.6487961  77.1434021  16.6737771
  16.9797504  90.6344223  17.0573854  17.4870634  89.8477745  17.2574925
  16.9596219  91.1223030  17.8806698  29.2236423  86.4172268  35.0902748
  28.4013987  86.5708160  35.5556297  29.8661733  86.2648392  35.7832122
  32.5338531  95.3041840  42.9107475  32.8122020  94.3887615  42.8830099
  32.8239059  95.6681633  42.0743132  20.7148933  61.9495153  22.0470977
  21.2163806  62.3190689  22.7738523  20.8891034  61.0092592  22.0895481
  31.3225532  83.0649471   9.5209497  31.6188478  83.2249641  10.4169607
  31.8367386  83.6704540   8.9869094 115.5817127  55.5354834   6.5835029
 116.1141682  56.1226368   6.0468656 114.6807575  55.8173943   6.4252454
   7.2609371  66.8782997  14.1383398   6.5998435  66.2738705  13.8009214
   7.9525125  66.8706036  13.4766030  13.7150073  98.0012131  42.5398493
  12.8595960  97.9258633  42.1169710  14.3186712  98.2029819  41.8249273
  17.1787083  47.9435062   6.2769496  17.9105473  47.9108381   6.8930465
  17.5335240  47.5831509   5.4642493   5.4413581  67.6557732  27.1441150
   5.5592668  66.7167568  27.2875428   4.7304878  67.7131462  26.5056753
   5.9457630  94.7596645  15.4899275   5.4619336  95.5745220  15.3552222
   5.2942157  94.1481972  15.8331859  23.9906979  80.2382088   3.7746525
  24.1166663  79.2937136   3.8657272  24.3439460  80.4446125   2.9092935
  42.3916197  78.2063103   7.4756843  42.2437620  78.6647654   8.3028400
  41.9730091  77.3539639   7.5961065  35.9988594  82.8687096  41.7468262
  36.1478424  83.2453537  42.6141024  35.0498533  82.7550316  41.6948700
  19.4624257  67.5137711  31.3814068  19.4923353  68.4198761  31.6885090
  18.5291219  67.3240137  31.2856555   6.7964184  79.7409534  48.1882334
   6.4314914  79.1145563  48.8132858   6.1019218  80.3879070  48.0643225
  50.4816341  85.6629562  14.1871941  50.8300734  85.9650230  13.3483970
  51.2570143  85.4405403  14.7025084  23.1685710  65.4517365  15.2415311
  22.2897983  65.0808430  15.1613486  23.7042952  64.7295904  15.5697620
   4.7463119  56.9186592  43.4674501   4.1234955  56.3339758  43.0356216
   4.3929583  57.0358706  44.3492889 111.8515396 101.2696838  22.6590347
 111.6665459 102.2056389  22.5815296 111.5116119 100.8904362  21.8485713
 114.8309040  11.7028701  90.4093647 115.5098343  12.3771620  90.3846264
 115.2771950  10.9258521  90.7459641  18.3506358  61.5371847  34.0965033
  19.1426337  61.6792107  33.5780430  18.4340787  60.6403589  34.4204903
  46.5866804  72.4426746  49.1594172  47.4722672  72.7004099  48.9034033
  46.2163496  73.2272720  49.5637655  43.8857031 105.3954792  29.3887138
  43.9021254 106.0807323  28.7205863  44.7846317 105.0679207  29.4179940
  92.5882149  31.0881925  93.0980587  91.8029213  30.9821582  92.5611115
  92.3335266  30.7632923  93.9616585  76.7938662  43.2120371  96.2242317
  77.3714685  43.0342627  95.4819298  77.1783686  43.9790487  96.6485786
  40.0145817  99.1852951  17.5999987  40.4381132  99.3812466  18.4357357
  39.4649267  99.9491882  17.4251223  48.6684370 102.7351189  38.9488053
  48.5414743 103.4021187  39.6235085  48.9092112 101.9461060  39.4343209
  45.9611702  70.5654287  15.7314134  45.8168602  71.4704752  15.4551959
  46.3128042  70.6389618  16.6186452   5.9075207  98.3069324  34.3315816
   5.0263238  98.2068348  33.9714360   5.9514946  97.6639175  35.0392795
  32.0692849  79.2966557  40.1286364  31.6512394  78.4731007  39.8771811
  32.0402622  79.2976379  41.0853958   5.2914071 100.8874607  15.4338992
   5.5462641 100.8073425  16.3530624   4.4113123 101.2628555  15.4612219
  23.8607216  78.4549093  15.6230450  24.4640326  79.1962433  15.6747270
  24.1989636  77.8259563  16.2604141  12.6874948  73.6855078  27.7574325
  12.0182633  73.7625980  28.4374452  12.6144183  74.4977570  27.2562909
  15.3875625  90.3695965   9.8678023  14.8578215  90.8421230   9.2256743
  14.7499406  89.8983288  10.4040623  21.6113353  85.8337021  23.2161331
  21.5756106  86.7488861  22.9379368  22.2723699  85.8193970  23.9082766
   8.2625288  84.9407387  21.4526296   8.4834385  84.7694588  22.3681068
   7.3570395  85.2500057  21.4785624 117.1087170  71.2123156  17.3870468
 116.5358353  70.6671810  17.9263616 117.9719162  71.1259794  17.7916121
  66.2133360  53.4881115  95.3120613  66.5215254  52.5877905  95.4153442
  66.8407488  53.8884640  94.7101402 104.5026398  65.7014370  18.0991030
 104.3504524  66.6147661  17.8564036 104.6419239  65.7252026  19.0458167
 114.9933338  55.4961014  40.3667593 114.1590786  55.1157045  40.0918818
 114.9380207  56.4134645  40.0991535  45.6604242  88.3635902  34.2711306
  46.4731455  88.3042526  33.7689447  45.7978630  89.1034698  34.8626709
   5.5858827 108.7454510   8.1288046   5.4963440 108.2403088   7.3206913
   4.8684797 108.4390736   8.6835068   1.2030061  78.8361073  22.7758574
   1.0270096  79.2079830  21.9115853   2.1565889  78.8575697  22.8561735
  55.5857325   2.6712251   1.4570372  56.2868500   3.2355952   1.7828529
  54.7873211   3.1838271   1.5835552  20.8616924  80.0137806  51.4605379
  21.3481688  79.7261715  52.2330999  21.3473082  80.7742977  51.1411238
  47.8740311  87.1899128   5.5400306  48.1397247  86.2865829   5.3678799
  47.8281450  87.2483444   6.4943427  25.3067374  89.6798515  15.0151420
  25.4929495  89.2191219  14.1970444  26.0078907  89.4087029  15.6076753
   2.8012565  85.4398346  19.4170475   3.0142462  85.4513741  20.3501797
   2.2327158  84.6771812  19.3105590 115.7633591  72.0984173  37.4117804
 116.5048122  72.2440434  36.8241811 116.0754299  72.3907375  38.2681656
  31.4553833  70.1017809  29.7535729  31.5000224  70.8722973  30.3197360
  30.6037450  69.7105551  29.9482203 109.5423031  64.0408897  38.5309362
 109.2117023  64.7912121  38.0370235 110.3213120  63.7618542  38.0497837
   0.8210898  76.8581057  30.7434797   0.9947887  76.9245434  29.8045182
   0.4078458  76.0013723  30.8505774  33.1260014 105.0228691   3.9249071
  34.0354919 105.1338959   3.6478990  33.1737709 104.4221687   4.6686214
  20.7211709  77.8819275  35.5556607  21.3613963  78.5069180  35.8958530
  21.2048244  77.3743963  34.9039578  30.6471109  59.5902586  39.7556925
  30.1359701  60.3995180  39.7474861  30.0278592  58.9130688  39.4833422
  98.3910942  52.0588875  35.4941845  98.2579517  51.3453674  36.1181998
  99.3357277  52.0690203  35.3399205  36.5924168  92.9027748  20.7666230
  37.4602246  93.2784653  20.9149456  36.7159963  91.9608402  20.8837318
  49.4033670  79.4698334  34.0397167  49.7993279  78.6785841  33.6745119
  49.5118904  80.1299000  33.3550477  25.0155807  85.4481697  28.3755207
  25.7111406  85.9039116  27.9014587  24.6714973  84.8149586  27.7455401
  49.3034983  74.1990232  43.7559223  49.7690058  73.6398458  43.1339455
  49.9626398  74.4295216  44.4106245  31.4046788  79.6100855  24.0227532
  31.6637588  78.6976624  24.1515684  32.0136762  80.1108932  24.5654702
  22.5891137  68.5411549  53.1287718  21.9060993  68.9476585  52.5954103
  22.8051782  69.2026138  53.7860584  26.9255853  97.5449562  51.1777544
  26.5432453  98.3545208  50.8391428  26.1734104  96.9785595  51.3499689
  12.2285235  88.7238312  29.7791719  12.4697042  89.6465969  29.6981454
  13.0587077  88.2523537  29.7103500  26.0351586  67.2717237  20.7749939
  25.9023070  66.4277124  21.2065339  26.8162537  67.1450377  20.2364135
  20.7669044  87.0383930  12.4709415  21.2483954  87.8584766  12.3620701
  19.8497343  87.2802544  12.3423684   9.8414993  86.0517216  12.7368593
  10.4329228  85.3060722  12.6345813   9.7283399  86.1396122  13.6832750
  45.9647608  37.0415902  15.2465832  45.0218582  36.8767953  15.2450895
  46.0443115  37.9791999  15.0711060  24.5086575  95.0064182  30.9002113
  25.2539134  94.5435524  31.2830687  23.7413430  94.5968246  31.2998247
  10.5205905  68.3823586  33.4939742  11.0868084  67.6296616  33.3234620
  10.7923698  68.6959934  34.3565297 114.4591618  70.0870895  24.0738845
 114.2782307  69.7866488  24.9645185 114.7547626  70.9911203  24.1814828
  93.7551022   8.6976892  96.5194702  94.0833092   9.5467800  96.8153763
  93.7012100   8.1706798  97.3167133  26.9526649  88.2601738  41.9151449
  26.6300774  87.7529335  41.1702442  26.1717319  88.4400749  42.4386120
  27.2785807  63.9326477  37.1742940  27.8344774  64.1350698  37.9267812
  27.8844380  63.8854742  36.4347386  38.2024360  69.3699741   8.3039886
  38.2580137  69.4268703   9.2578781  37.3086095  69.0729570   8.1334376
  26.4020848  65.1518202  22.5050521  27.1915388  64.7129059  22.1882725
  26.3527036  64.9166203  23.4315920  15.9016514  59.4980955  23.2856941
  15.5575669  59.3413591  24.1650534  15.2130485  59.9951696  22.8441358
  26.6883731  96.0242558  14.0846229  26.4105177  96.7646790  13.5453653
  26.2023830  96.1280632  14.9027109  28.7150311  61.0340500   9.3977034
  29.1215086  61.6352177   8.7735200  28.0796719  61.5723515   9.8696989
  42.4141979  71.4639616  47.2837687  42.9652882  72.1982670  47.5545597
  42.7018261  71.2644243  46.3928747  19.3905795  81.2794781  28.5044289
  19.8474824  81.8610764  27.8968000  18.8479412  81.8642426  29.0334153
  12.5802541  93.0099106   0.7783820  12.3068237  92.2132301   0.3236612
  12.3668754  92.8465462   1.6970843 105.6609631  10.7239294  97.0614815
 105.1795578  10.2541196  96.3804817 106.4212608  10.1711380  97.2420502
  22.9773045  90.1280499  48.4657478  23.0982709  89.2336750  48.1468391
  23.8466430  90.3956699  48.7638378  60.0094986 105.0176430  29.4853997
  60.7831860 104.6171856  29.8819661  59.6380138 105.5607986  30.1805353
  30.3392243 109.0497208  44.6487617  29.5072007 109.4206619  44.9426508
  30.1025248 108.2061195  44.2633295  71.4670420   6.4148504  11.7893231
  70.7655478   6.0794753  12.3475885  71.7003202   5.6756550  11.2277150
  78.6926079   9.1918719  18.9881361  78.2819986   8.8141596  18.2103431
  79.5483923   8.7659734  19.0379369   3.5838723  85.9937096  37.2175455
   2.7136508  85.6090927  37.1125817   4.1827431  85.3260612  36.8831396
   8.2358009  87.9138565  15.8093929   8.8201916  88.3970737  16.3935304
   8.6962384  87.0929050  15.6353998  24.9893880  95.6400013  24.6255803
  25.5687499  96.0633087  25.2591228  24.2239404  95.3793812  25.1378298
  13.0880511  97.2986221  36.6049242  12.7431083  96.5777969  37.1318626
  12.6518857  97.2062016  35.7578993  28.4648895  94.0770149  13.0943441
  28.5931110  93.3176804  13.6628437  27.6093197  94.4238186  13.3472550
  99.7165680  75.0000191  95.7559872  98.7801647  75.1604033  95.6391048
  99.9932671  75.6538820  96.3979626  24.5735240  93.5613060   7.6940626
  24.3806577  92.6237583   7.6866508  25.3414893  93.6523151   7.1299911
  29.3662739  94.7674751  23.7995052  29.0576577  93.9342117  23.4436131
  30.0708938  94.5250320  24.4003081  61.0532331   2.7741623  21.5157175
  60.2415085   3.0967155  21.9072413  60.8822250   2.7762190  20.5739188
  45.3204441  96.0207844   8.2054287  45.5754948  95.5613804   7.4053514
  46.0870266  95.9539413   8.7747377  14.5332336  36.7582583  87.8383446
  14.3112445  36.8845177  88.7608433  13.6976027  36.8362975  87.3780537
  28.1144762 110.8045006  22.2375894  28.2109046 111.2396145  21.3904738
  28.4199405 111.4502716  22.8746963   3.3064973 111.4174747  10.1138198
   3.3048913 110.5871582  10.5900621   3.2986802 112.0863247  10.7985187
  12.7624547  89.3492031  11.0689759  12.4058104  89.0490341  11.9050002
  12.2226596  90.1044559  10.8356416  57.6613712   6.1442101  19.8598874
  57.5999594   6.6811371  20.6499314  57.2465324   6.6728282  19.1781962
  49.8752975 109.9171925  16.0946178  49.5544100 109.0644360  15.8012569
  50.4085493 109.7204304  16.8647861  41.1198139  91.2873363  43.6533689
  41.0711241  91.6245270  44.5478868  41.8768263  90.7015610  43.6590910
  69.2118502  17.2091424  16.1782742  69.3339968  17.5877452  17.0488906
  69.9441147  16.6011226  16.0766149  61.2892103   6.0794240  24.0693736
  60.9684038   6.9345146  24.3559647  60.5186415   5.5123389  24.0988374
  15.8986259  94.8431873   2.5503114  15.1584518  95.4474354   2.6073912
  15.7287073  94.3302727   1.7602021 112.2887135  83.5443211   3.0026779
 113.0052948  82.9109287   2.9633200 112.6455879  84.3351460   2.5983763
  29.7572374  91.2090778   9.2166418  30.3084540  91.5587330   8.5165435
  29.4201708  91.9842148   9.6658480 110.1470089  86.7743874  29.6811700
 109.2057514  86.9463539  29.7077060 110.4872227  87.1803284  30.4784799
  50.7983923  97.8332806  13.6258018  50.1736021  97.1093559  13.5833919
  51.2936258  97.6754665  14.4295895  36.0680556 102.7277088  18.5176826
  36.5034866 103.3457947  17.9306531  35.4626465 103.2667637  19.0267313
  31.4055777  65.4705334  47.6489258  32.1445918  65.3304243  48.2409239
  31.7887807  65.9025145  46.8855286  19.8252308  83.0581760   3.1849560
  20.6442666  82.6766682   3.5009673  20.0992203  83.7314320   2.5621477
  28.6452985  79.3871880  28.6880803  28.2930517  79.2330456  29.5646620
  28.4964585  78.5644484  28.2220578  43.7804317  82.5996685  46.3004303
  43.7691832  83.4893513  46.6533852  44.6433687  82.2592640  46.5364313
  18.1063855  80.1475906  53.7049150  17.7915883  81.0490990  53.6384583
  18.0235183  79.7989225  52.8173399   6.3296020  85.2227306  40.9366035
   5.4322410  85.0282097  40.6661654   6.7749637  85.4724312  40.1269531
  12.9190612 107.3985481   6.6588843  13.1710005 106.8777466   7.4214625
  12.5246477 108.1886768   7.0281667 116.9646358  85.7839012  27.0499825
 117.3929787  86.1058712  27.8431368 116.8661118  86.5603638  26.4989567
 114.1977978 104.1704273  32.1203589 114.7334576 104.9568844  32.0165324
 114.4096661 103.6337852  31.3565826  53.1885576   1.6467215  18.8885033
  52.6095152   0.8966135  18.7532961  52.6733780   2.4014242  18.6034596
  13.7718296  98.7086487  48.6061192  13.2216704  98.5615349  49.3754816
  14.5740628  99.0963173  48.9559221 108.2264519  24.1711473  90.0449944
 107.8726387  24.1684890  89.1555882 109.0090656  23.6224627  89.9930763
   8.9492464  97.7544308   4.0614054   8.2659298  97.4054146   3.4891313
   8.6521989  97.5420666   4.9462199  17.6329291  95.0386810  20.7902789
  17.8366613  95.9736156  20.7653117  16.7441738  94.9777794  20.4400802
  24.1097808 104.2199612   6.7303938  24.9951220 104.5835781   6.7438996
  24.0729523 103.7091732   5.9217054  50.8273792  92.1017933  15.5595124
  51.6603374  91.9870377  16.0169470  51.0410976  91.9693279  14.6359265
  49.5040703 110.6806087  32.2014904  48.6625433 111.0610294  32.4531841
  50.1412678 111.3739872  32.3730803   8.8865995 106.2577534   8.8942981
   9.2578560 105.6088543   8.2965261   9.5489711 106.3605404   9.5776206
  23.9547658  93.9591026  22.8858829  24.2279625  94.1713142  21.9933796
  24.3354106  94.6529961  23.4242630  26.3307905  76.4469528  24.9619746
  26.6962790  76.7291307  24.1235065  26.8255234  75.6586742  25.1857710
   2.7665704  77.6297569   0.3477493   3.3666506  77.6237488   1.0934702
   3.3174750  77.8575039  -0.4011618  25.4988766  99.8614502  10.4158187
  25.8510613 100.3725719   9.6871543  24.9735689  99.1790771   9.9979043
   5.4206163  89.8237991  27.7904248   6.2653685  89.4053650  27.9563737
   5.1355243  89.4631672  26.9508410  73.2948732  27.4903059  97.2950459
  72.8043175  27.4296999  96.4753342  74.0891123  27.9719138  97.0638084
  81.1429024   3.2089823  25.2361178  81.5982246   2.3793362  25.3796625
  80.4171562   3.1949753  25.8600736  17.4863768  99.5569611  39.3643641
  16.9680846  99.3420887  38.5888410  16.8639803  99.9733639  39.9605727
  23.3953071  65.9385777  25.5882359  23.5769749  65.0108624  25.4379964
  24.1294956  66.3958693  25.1782537  15.4232323  88.4808350  23.8819098
  15.2042687  89.3465328  23.5371566  14.8564184  87.8800106  23.3982110
  27.2604656  82.3270321  34.8449993  28.0684566  81.8148899  34.8779798
  26.5645504  81.6727638  34.7828317  59.0801668  99.6724510   9.4270575
  60.0345659  99.7329807   9.3859977  58.8652134  98.9098549   8.8899666
  34.7073746  94.9435329   9.7679913  33.8626504  94.9461365   9.3178034
  34.5517421  95.4388714  10.5721378   4.2446312  99.6625614  12.7886152
   4.3976751  99.6224689  13.7326503   4.7591883 100.4141045  12.4942625
  22.3100519  92.9617786  12.8053379  22.6531577  92.5914288  13.6185765
  21.9698334  92.2078323  12.3236239  49.5380831  78.4980774  18.5855079
  49.5513058  78.7633562  17.6658976  49.6056557  79.3192577  19.0726697
  85.9566212  31.6371965  87.5845623  85.7757473  30.7101583  87.4292660
  86.0056496  31.7153406  88.5373020  37.8911448 104.6774101  27.2958350
  38.5142541 104.1011620  27.7384472  38.3861470 105.4784298  27.1238637
  21.3957906  96.0256195  30.7806945  21.5001535  96.2001896  31.7160344
  21.3282132  96.8928623  30.3812575  11.8477523 108.0631351  17.4625969
  11.9323981 107.4997330  18.2317877  11.4742172 107.4945736  16.7892098
  35.4180861 102.7406120   4.1477847  35.8735251 101.9298077   4.3745002
  34.9408484 102.9776382   4.9429539  26.8674707 110.2238655  25.4597211
  27.8219843 110.2468204  25.3918290  26.6261077 109.3515587  25.1481891
   8.3789778  75.5119848  10.9939122   7.6205689  75.1509142  11.4529073
   8.8792032  75.9618235  11.6748297  17.4229968 107.2241497  21.9061494
  17.1593654 108.1059742  21.6432476  18.3642304 107.1944141  21.7346025
  24.9467397  99.1015911  27.2812843  24.1199017  99.4980240  27.5559044
  25.3852582  99.7870636  26.7772412 115.1643848  83.9668941  40.0668859
 115.6666470  84.7161865  39.7467017 115.6713772  83.2032490  39.7911549
  37.1433306 107.7351093  19.2479658  38.0242467 107.3983097  19.0842915
  36.6994143 107.6654530  18.4027922  26.1623454  92.1981907   1.9148807
  25.7309961  92.9127502   2.3834723  25.4429650  91.6685581   1.5710551
  18.6444974 108.9708519  47.1984720  18.2193255 109.4898319  46.5157461
  17.9586923 108.3823395  47.5139952  39.6707392 104.9552345  21.6861677
  40.4107618 105.2538967  21.1575866  39.6684623 104.0040302  21.5792513
  48.4856796 107.5568008  15.3264034  47.8870630 108.2352066  15.0138998
  48.0676460 106.7336082  15.0737572  19.3756700  86.1223698  44.2480469
  19.2300034  86.7711735  44.9365759  18.5088766  85.9766388  43.8690186
 107.9653835  34.0309429  90.5989742 108.3446693  33.3278656  90.0716686
 107.0327473  33.8201952  90.6439114  62.8952408  10.8533263  14.6944606
  63.1391716  10.0147772  15.0863338  62.7036858  11.4201641  15.4416108
  40.5917788  84.8344040  10.6575537  40.3675985  85.7417393  10.4508710
  41.5472794  84.8064899  10.6078279  11.0713649  55.9760714   7.6055872
  11.9859362  55.8318901   7.3626834  11.0790181  56.0027790   8.5623837
  28.8501334  87.6795387   5.5302459  28.7465835  87.9575825   6.4403003
  28.3389950  88.3130360   5.0266147  29.2088413 106.6964340  11.0410476
  28.3105803 106.4479065  10.8228838  29.1507959 107.0493031  11.9289374
  60.1714993  24.4411540  29.4385219  59.2751312  24.6144629  29.1509056
  60.6146097  24.1121936  28.6564302  24.0377593  84.4270706  12.4712038
  23.9223051  83.4769058  12.4611378  24.7248006  84.5779896  13.1203771
  39.3246412  92.9380798  29.6338391  39.8181772  93.4589577  29.0003252
  38.7990522  93.5787010  30.1129961  62.5055027   4.7646686   7.6429749
  62.9632092   5.0178212   8.4446269  63.1941271   4.7129571   6.9801402
  15.7308555  91.3144588  38.9789271  15.1225758  91.9146824  39.4101596
  16.4354467  91.1897564  39.6147203   4.9205440 108.4744072  27.6563144
   4.6185833 107.8476810  26.9988394   4.1215441 108.7613106  28.0984855
  56.9107676  86.9239044   7.6837450  56.4456749  87.6392174   7.2498667
  56.9121552  87.1660233   8.6098170  32.2361493  66.8985653  10.0804925
  31.5275621  66.3086319   9.8233634  32.1289825  67.0038700  11.0258269
  30.8958268  86.0856438  26.1904335  31.0597920  87.0132542  26.3603592
  30.5310965  85.7527542  27.0104241   5.3208584 108.6782169  35.6938219
   4.5375130 108.2802582  36.0736084   5.8393484 107.9363728  35.3822708
  24.0300703  91.9997883  32.1307516  23.3205676  92.2875881  32.7052164
  24.7976875  92.4819660  32.4381661  52.8296995   4.4766510  33.4731817
  52.2079849   4.3024540  34.1798329  52.3341179   4.9973035  32.8410816
  34.0504193  90.3869343  31.3890886  34.7459841  89.7548008  31.2078881
  34.2230463  91.1117935  30.7882524  49.1307640  10.1315951  32.7779722
  48.6388826  10.7375145  33.3321834  49.9088907  10.6239712  32.5165987
  69.0788460  25.7225633  26.8418455  69.1565657  26.5045357  27.3883891
  68.1391716  25.6342554  26.6823387  14.5664084  83.8752079  21.6673350
  15.4078650  84.2981434  21.8385315  14.2430961  84.2983532  20.8719397
   7.5288421  78.2269049  16.6962469   6.6509891  78.1556749  17.0711231
   7.6260096  79.1562891  16.4888108  38.3874035  89.8444080  43.5120153
  39.3387938  89.7669411  43.5833168  38.1470656  89.2211723  42.8264093
  30.9633636  78.7354517  30.2782655  30.2963114  78.8006544  29.5948768
  30.4669023  78.7151909  31.0964012  10.8078933  96.3208008   2.7926564
  10.5013478  95.7713223   3.5139966  10.3677464  97.1601009   2.9271185
  16.6812456  83.1561852  11.4386570  16.2832379  82.4228382  10.9695971
  17.1474600  82.7488422  12.1686900  32.8946042  57.9433727  23.9059234
  33.2268167  58.7110424  24.3712711  33.3479643  57.2035408  24.3100810
  84.5064831   2.0589279  11.4027071  83.9904404   1.6288984  12.0846176
  84.6592426   1.3749272  10.7507551  15.7116318  88.9413357  14.8022270
  16.1506093  89.2770100  15.5837965  15.4074883  89.7244072  14.3433976
  22.8295088  89.4094944  16.3721740  23.6743617  89.7161388  16.0429013
  22.1976757  89.6931744  15.7114601 113.7935543  79.8676062  19.9011886
 114.7166920  80.1145267  19.9566031 113.6623001  79.6361780  18.9817059
  44.3073273  92.8127003  20.6692767  43.4441233  92.4210453  20.5361938
  44.2035389  93.7220478  20.3889918  38.6369634  13.2201791  48.8144207
  37.9347062  12.5773990  48.9139175  39.0511966  12.9953325  47.9813004
  16.3881099 103.6832142  10.7834959  16.3287115 104.5997238  11.0531485
  16.2454653 103.1867218  11.5893424  61.8767834  17.1342635  36.5322232
  62.5875187  17.6074457  36.0995722  61.3161516  17.8213346  36.8925810
  22.2849655  92.8937912  47.4030399  21.8690300  92.0523548  47.2153807
  23.2055616  92.7616978  47.1765757  35.0333524  95.8948517  28.6515737
  35.0335312  96.5061951  29.3881154  35.8321619  95.3802967  28.7671995
  38.9030123  97.1378136  29.5069504  38.6807394  96.5310192  30.2130842
  39.8417640  97.0113945  29.3691325  77.9150248  20.3822398  19.5626962
  77.4139404  20.8616233  18.9028955  77.3311853  19.6765482  19.8408389
  29.4662309 111.2460327   8.7752861  29.8077583 110.3789902   8.5565966
  29.7404623 111.8023491   8.0462211   4.0690544 102.3142529  18.7594032
   3.3148521 101.7452431  18.9131200   4.8016876 101.7116070  18.6317396
  35.5065084  87.0209694  10.6376195  35.5397534  86.1534500  11.0407829
  35.1795006  87.5947189  11.3305175  42.8379917  93.6570168  16.1142445
  42.6914215  94.3313026  16.7776287  43.0124521  92.8609657  16.6163385
  19.8829031 102.2687721  28.7292647  18.9662635 101.9949627  28.6971354
  19.9745989 102.6993656  29.5792127   8.6592329 102.6295567  48.6615372
   8.4759718 103.4678268  48.2373428   9.5808357 102.4591160  48.4670353
  22.0418262  97.6086998  32.9563975  22.6106715  97.3017788  33.6624026
  22.4068427  98.4575844  32.7065992  44.7696352  66.6137266  32.8496408
  45.6006670  66.8031073  32.4140358  44.1225052  66.6206169  32.1443701
  28.3417511 100.1958466  26.9471431  27.5675964  99.6870995  26.7061162
  28.9395666  99.5546818  27.3315358  46.5879679  83.3455181  14.4743705
  46.6703606  84.1703129  14.9530649  46.1642265  83.5877609  13.6509705
  17.0728433  87.5196171   2.0027161  16.3117898  87.0058918   2.2731265
  17.4008453  87.9071140   2.8141916  25.6293583  84.2296791   8.7045771
  24.7779131  84.5334530   8.3899432  25.4587030  83.3528423   9.0484822
  25.5012631 111.9649124  44.7556496  24.7105217 111.4341736  44.6593094
  25.1893353 112.8689575  44.7152328  54.7852898   4.6246514  15.4733872
  54.8789930   4.6194670  16.4259756  54.1869688   3.9009523  15.2876318
  22.8699946 107.7730751  37.7314472  23.0960369 106.9917679  38.2361078
  21.9939446 107.5928116  37.3904610   8.2827389  94.4448376  38.6397982
   7.3887354  94.7831249  38.5893035   8.2297784  93.5697937  38.2554317
  39.3662071  70.2686930  18.1258345  39.8642492  69.4585705  18.0168068
  39.8886657  70.7909632  18.7345243  21.7739391  89.5253181  25.7832026
  22.4823213  88.8988113  25.6351519  22.0662832  90.3251076  25.3460503
   1.9513428  74.9774265  21.2686682   2.3014793  74.1619587  21.6273427
   2.0964392  74.9059105  20.3252363  23.5253739  71.9359493   2.5123405
  23.0867529  71.1589575   2.1657373  23.7589550  71.6988087   3.4098014
 106.6573429  28.8880062  95.2159977 106.9767666  29.7132540  94.8510742
 106.9335747  28.2239676  94.5843506  99.6541882  97.0660210  33.0246782
  99.5462704  97.1459389  32.0769453  99.4898510  96.1408806  33.2072830
   0.7801574 111.5095997  20.2910471   1.2635118 111.9724369  19.6066570
   1.3711962 110.8105373  20.5707002  42.4014854  83.8595390  32.1508336
  41.6931105  83.2717609  32.4134159  42.3815012  84.5633507  32.7992797
  28.7049222  97.6137924  53.4865904  29.4159269  96.9934940  53.3255291
  28.2626390  97.6958179  52.6416683  40.0787592  76.3199520  23.0565977
  40.9996557  76.3451576  22.7967000  39.7212720  75.5594397  22.5982833
  55.0185251  79.5330095  39.4893265  54.8899555  79.1938734  38.6035013
  55.6458426  80.2481747  39.3832898  27.0999193  96.5301704  26.0471416
  27.0845389  96.9250393  26.9189596  27.2742701  95.6027126  26.2073231
  50.2003574   0.9046607  29.6829033  49.5282173   0.5028000  30.2333236
  50.0226116   1.8437703  29.7349715  43.9268208  92.7445030  50.1817274
  43.9318180  93.5832977  49.7206116  43.9674234  92.9804230  51.1085081
  32.7352762  91.7776966  45.4502344  32.9594493  90.8472729  45.4332972
  32.5217986  91.9559860  46.3661337   1.9080283  89.1137218  31.2802505
   2.1331961  89.0448284  30.3524661   2.4057323  89.8695850  31.5920138
  23.6092329  76.4584923  26.0531330  23.2804394  76.7958260  25.2198648
  24.5449090  76.3224697  25.9039998  17.0314646  70.0637770  41.6240597
  17.8327072  69.7066784  42.0071030  17.1696758  71.0109377  41.6194391
  25.1117945  75.5128622  32.9781699  24.1872787  75.2685452  33.0207467
  25.5341148  74.7761631  32.5364065  95.4458237  40.0800896  96.2423801
  95.7266712  40.1861143  97.1512890  95.3211117  40.9742641  95.9243774
 112.3213387  87.1563911  55.4723120 112.7478027  87.8840923  55.0197506
 111.4591503  87.4958706  55.7123137  68.0681324  16.9513285   9.1827470
  67.9922676  17.8912640   9.3470639  67.1640015  16.6501570   9.0928602
  73.4494066   8.3602637  24.8006177  73.0248451   7.5895596  25.1774406
  74.3142700   8.0500847  24.5322418  69.9680519  16.8531549  29.3328953
  69.5594645  16.4425659  28.5708547  70.5315542  17.5337911  28.9648843
  56.7227364  13.5046554   5.5354941  57.3439789  13.5138762   4.8073414
  57.2561026  13.6926150   6.3077796  25.8993196 100.7586575  38.2256532
  25.3256488 100.1081657  37.8206968  26.3813043 100.2704716  38.8931847
 112.0034981  49.0748310  96.9541073 112.7481842  48.9278173  96.3709641
 111.4012814  48.3567762  96.7592430  36.6470098 104.4554996  21.9234180
  36.2062550 104.3411922  21.0814571  37.3252535 105.1088142  21.7519689
  37.5716925 104.7713089  17.5792956  38.0600977 105.5786133  17.7404082
  37.1774530 104.8980618  16.7163122  81.0590458  30.6011629   9.5570761
  81.2201786  30.5488610  10.4991674  80.5064964  29.8432302   9.3661487
  15.5401683 102.2851181  12.9756260  15.0568748 102.5589752  13.7551546
  14.8849881 101.8542671  12.4266887   2.0113260  72.9060316  93.2887840
   1.5665093  73.7254572  93.5053730   1.6416845  72.6488543  92.4441147
  37.0016241  89.0315533  35.0840640  37.0241976  88.1236076  34.7818065
  36.1055827  89.3197250  34.9099970  42.2079229 105.3193951  18.6159289
  42.2077656 104.4443893  19.0039861  42.3623753 105.1678562  17.6835060
  43.8208580 105.2951813  42.4900150  43.2445288 105.5659294  43.2046986
  44.5194244 105.9495544  42.4846554  46.2550974 102.6682377  34.9054074
  46.4565182 101.7758179  34.6238685  45.8494282 102.5621128  35.7658768
  93.6407852   7.0861185  32.2804213  93.3170700   7.6933748  31.6150784
  94.5519543   6.9254655  32.0350528  36.0484982 102.5233173  12.4457896
  36.4514875 103.0782032  13.1135690  36.7401910 102.3869991  11.7983270
  58.7040472  -0.0305034  38.7189770  58.4354210   0.8745432  38.5609794
  59.4854593   0.0437483  39.2668033 109.2876339  41.1011219  96.2118816
 109.3811989  40.8851147  97.1396828 109.4231987  42.0478106  96.1715126
   5.6712258  62.3677397  96.0599709   5.4386288  62.2208643  95.1431561
   5.0055087  61.8906212  96.5553665  14.4938028  94.4983673  24.2235637
  13.9433086  95.2535629  24.4306111  14.0508616  93.7581635  24.6384525
  40.7314491   2.4361961  24.1589928  41.3866091   1.9786489  23.6320758
  40.8829212   3.3636615  23.9770746  62.6609898  11.5507603  41.8263149
  62.6543760  10.6650543  41.4633942  62.4439907  12.1152472  41.0843611
  54.0088654  12.2015870  44.7504568  53.3258581  12.5271165  44.1641426
  53.8678217  12.6765168  45.5694675  54.8970413 102.6247120  28.2971621
  54.0936518 103.0202484  28.6353183  55.5649710 103.2999325  28.4162736
  75.5553246   3.2906723  10.8744478  75.5705547   2.7584526  10.0789976
  75.2891827   4.1602570  10.5757451  44.0304279  86.5268707  11.5790772
  43.4578896  85.9918404  11.0293770  43.4452629  87.1694851  11.9801533
  33.1154346  96.1738968  23.8854384  32.8481030  95.2766418  23.6862087
  33.4919357  96.1221695  24.7639608  99.7692871  62.0234680  96.1959076
 100.3817749  62.0287323  95.4603291  99.2087746  61.2643242  96.0354328
  58.7053919  19.9548423  28.2360077  59.6117115  20.2136564  28.4028196
  58.5902166  20.0795054  27.2939730  16.0147631 106.1922836  11.9169414
  15.7003498 106.7686081  12.6135266  15.5232322 106.4634323  11.1416292
  33.5605931 110.5223274  20.5206966  34.1705871 111.0986423  20.9811378
  33.8704133 110.5201817  19.6150255  39.9626803 108.2646942  45.7097864
  40.0214052 107.5761032  45.0474977  39.2400479 108.8191223  45.4154301
  12.7697575 101.5022564  29.1902518  13.2137573 100.8889771  28.6046004
  12.8146970 101.0864162  30.0512362  42.3376179 107.9495907  19.4287872
  42.5944948 107.0278358  19.4536078  42.5151873 108.2715988  20.3125381
  46.8617773 109.4305515   6.4370847  45.9250593 109.2343616   6.4196807
  47.2488499 108.7072468   6.9302750  64.4669724   6.9467294  31.1076760
  65.1082516   6.4513248  31.6171551  64.1053915   7.5795680  31.7281628
  15.4012716 101.0906887  22.9852271  16.3454437 101.0316944  22.8393173
  15.3090012 101.7104816  23.7088108  11.7435372 104.7317982  13.3518982
  11.5061092 105.6537342  13.2524824  10.9093559 104.2640305  13.3123076
  51.6775370   2.8625882  36.1397338  52.2297764   2.1008784  35.9634948
  51.9629240   3.1715295  36.9995832  60.6492996 108.2336521  16.6916668
  61.5032911 108.0674267  17.0907903  60.5489111 107.5376987  16.0422075
  42.2881508  99.3929482  31.0123158  41.7445040  98.6403179  31.2451863
  43.1833601  99.1073608  31.1947012  16.3182342  86.1306763  22.3729682
  16.5262449  86.4959908  23.2329178  15.4069018  86.3806534  22.2206140
  39.7369504   8.2362753  23.4811974  39.1031122   8.5891312  22.8567195
  40.4491043   8.8758337  23.4868693  93.5412121  47.5792551  73.8577604
  94.1635323  47.4136400  73.1495857  94.0889835  47.7189016  74.6302080
  64.8918009  12.2865307  43.1467772  65.1621389  11.3724494  43.0595827
  64.2170668  12.4016166  42.4776554  70.4380751   1.8351622  18.2191205
  70.4447651   2.3738521  19.0103221  70.8699751   2.3757042  17.5576770
  19.1183460  95.9440613   9.3853199  18.5302162  95.2241039   9.1572815
  19.9580479  95.6998253   8.9961112  45.5709887 107.2194672  42.0477962
  46.3505983 107.3551941  42.5863314  45.7016325 107.7887821  41.2894773
   2.0788449  64.8699999  90.1576138   1.4920914  64.2929363  90.6464291
   2.3131374  65.5573273  90.7812405  59.1228628  37.8466821  14.7571158
  59.9941683  37.8218198  14.3615866  58.5212660  37.7764893  14.0159106
  37.7043867  78.6589956  20.4177856  37.2110510  78.9865017  21.1698413
  37.5421238  79.3012285  19.7268164  30.4643726 111.8421173  30.4698467
  30.6618524 112.1749115  31.3453341  30.0280643 112.5712967  30.0292134
  39.3789840  79.2623901  34.1678691  40.3245306  79.3826342  34.2556906
  39.2767382  78.7415695  33.3712959  63.7344265  78.7472773  21.8499088
  64.4102430  78.2858419  21.3533401  63.3932972  78.0908442  22.4573231
  63.4849787   8.8960147  20.4552031  63.0091047   8.5378283  21.2045217
  63.9672899   8.1499201  20.0989008  64.4351244 106.1295128   4.0956998
  64.5407867 105.3074265   4.5744923  64.1150188 106.7491055   4.7513455
  34.6660829  72.3900414  26.5443921  34.4473219  72.0329618  27.4051285
  35.5399179  72.7646065  26.6555166  62.9213142   2.2545439  25.3443050
  63.5756588   1.5643653  25.2360582  62.3791933   2.1961339  24.5575881
  11.4533830  98.5589600  32.6079130  11.2404621  99.1015148  31.8486142
  10.6649148  98.5855961  33.1499839  73.7353325  14.9814987  21.5694261
  73.3014727  15.2829206  20.7712150  74.6383905  15.2862620  21.4808798
  18.9750254 100.2013397  41.5149927  19.6643364 100.8461761  41.6739464
  18.8962090 100.1650333  40.5617380  82.9894924   0.4759725   1.1846346
  83.6377621  -0.1726461   0.9102793  83.4892941   1.2859695   1.2862881
  50.6414700 108.4086704  33.4713507  50.6232595 107.5813103  32.9903316
  50.6836987 109.0804863  32.7908278  23.1314611 111.8226624   9.7949255
  22.5906301 112.5603867   9.5129865  23.4691715 111.4484787   8.9811850
  36.7740941  97.0210266  32.5959110  37.0312524  97.8024578  33.0852652
  36.0611796  97.3167801  32.0297718  30.0167513 108.2006741  13.5448146
  30.0836825 107.7554226  14.3895042  29.7560906 109.0948963  13.7654150
  16.4646673 111.2393379  10.0956023  16.1912203 111.4299965  10.9928811
  15.6450474 111.1493587   9.6094364  61.5899706  24.5295763  42.2490072
  62.2958422  24.7528362  41.6422701  60.8109713  24.4644189  41.6966105
  76.8673658  23.6559224  37.8849721  76.7777205  22.7042627  37.8345919
  76.4439201  23.8930392  38.7100148  30.0544667  97.9574108  27.0499039
  30.8446407  97.8960705  27.5866461  30.3544545  97.7722931  26.1599779
  60.5262089   5.2385414   2.6434147  60.6257915   6.1456352   2.3544590
  61.2580967   5.0966984   3.2437894  23.3914733 101.6276073  26.0356259
  23.3794594 101.1444855  25.2093792  24.1315174 102.2287560  25.9508371
  68.6754513  20.4944015  27.7775216  69.4668961  20.0493550  28.0804706
  68.9509439  21.3991880  27.6302195   0.6825523 101.4188290  50.2148771
   1.6185549 101.5670967  50.0801659   0.3003661 101.4906025  49.3402243
  12.8881478 105.5884457  15.8268178  13.0153215 106.2571526  15.1538491
  13.2982707 104.8030663  15.4645848  81.5535831  15.4449522   8.0980945
  82.1227551  15.9895170   7.5542963  80.7731724  15.9808612   8.2395250
  80.7962608   8.3769834  10.3155553  80.6278229   8.5742319   9.3941683
  81.7171001   8.6041600  10.4446781  17.6508737  59.1883421  87.1649551
  18.2007504  59.3824053  86.4058685  18.0922997  59.6191978  87.8968906
  28.8927293 105.5070877  30.4999828  28.0443192 105.2507877  30.1383972
  29.1112471 106.3203239  30.0448704  38.7027788 105.1047611   5.0289547
  39.1844392 104.2976952   5.2102530  38.1117320 104.8750305   4.3119362
  73.1530666  76.3249731  32.6309490  72.5045633  76.5545368  33.2965136
  72.6351309  76.1201715  31.8524718  60.6606197   4.6221232  12.6991391
  60.8834839   4.0136254  13.4036195  60.8291245   5.4887646  13.0689633
  53.8067436  11.6997981  34.4820309  54.6075773  12.1707976  34.2516875
  54.0911913  11.0373378  35.1116872  43.0245447  99.0499783  13.2586932
  42.8921318  98.3941269  12.5741839  42.5088501  98.7307644  13.9992285
  59.9311924   9.6671164   6.8301475  60.0617266   9.9449438   5.9235024
  60.0294590   8.7152934   6.8054909  89.7349834  10.5049622  32.5754404
  89.9746418   9.6127427  32.3249674  90.3506279  11.0612607  32.0982218
  61.8722630   1.3415101  35.2674413  61.5307808   2.2343199  35.3175664
  62.8234720   1.4484216  35.2695918  53.2512093 102.8358650  32.5266838
  52.8330755 101.9751167  32.5488877  54.1487122 102.6737213  32.8172493
  34.3725061 104.4555664  19.7750318  34.1836452 105.3929996  19.8173058
  33.7203836 104.0537357  20.3490543  65.3443813   1.6777429   9.5685875
  65.5179834   0.8896299  10.0833416  65.5493546   1.4257084   8.6682016
  40.6386995  99.1294479  23.5357261  40.0087500  99.6105385  24.0723324
  41.3877726  98.9880466  24.1146278  49.5884800  98.0260754  18.6547720
  50.3850698  97.5053596  18.5521924  49.8771667  98.8189697  19.1066694
  45.5912876 112.1517086  17.6267588  46.4397573 112.3166943  17.2155309
  45.7076693 111.3233280  18.0920398  58.7875938  10.3029203  12.8283024
  58.4086466   9.6782744  13.4467244  58.9557028  11.0863674  13.3519268
  54.9976397   2.8438726  20.6974053  54.8092413   1.9424477  20.9585023
  54.2405272   3.1045255  20.1729298  78.8978958   5.7583869  21.0629439
  79.7972679   5.6429958  21.3696170  78.4744310   6.2722301  21.7506003
  62.4142027  12.8164542  17.9974449  63.2679558  12.4926090  17.7102876
  62.4695969  12.8231037  18.9530170  76.5486431  37.3762512   3.9091417
  75.7291794  37.7070236   3.5413074  77.2268391  37.9244781   3.5145146
  56.0856867   7.9555815  18.3682740  55.7859707   8.7369442  18.8328969
  55.7729053   8.0753887  17.4715900 106.6390514  59.2836523  96.0652065
 106.6460609  59.1457939  97.0123959 105.7194901  59.1902733  95.8163738
  17.6065004 109.1067410  25.3719687  17.6415098 109.1296196  24.4156837
  18.3948922 109.5719433  25.6517053  42.5440598   0.4133268  31.8511677
  42.0616961   0.8789951  31.1680055  43.0507565   1.0945051  32.2933030
  46.2952995  92.1545506  10.4781258  45.9174776  91.2833881  10.3575182
  46.5142393  92.4453259   9.5928299  38.6410499  86.4637566   6.7445785
  37.7651834  86.5629292   6.3714045  38.9763141  85.6552124   6.3571727
   1.7507571 102.7492714  46.0744572   2.3278917 102.0360374  45.8016014
   1.4341173 103.1281948  45.2544594  52.8460264 111.0535049  30.6330061
  52.3177481 111.8300247  30.8178711  53.2464743 111.2332058  29.7823715
  72.1503258   4.6801856   1.3639887  71.6391373   4.7585964   0.5585242
  72.5431681   3.8087201   1.3144664  88.2108402   5.7575011  12.3216045
  87.8324318   5.0522387  12.8466249  88.9538765   6.0687441  12.8385699
  78.1078386  96.4303112  17.8575945  77.4601316  96.3808441  17.1545577
  78.7136412  97.1163654  17.5773001  76.7359161  13.5351360  21.3263726
  75.8264542  13.5191762  21.6244602  76.7634201  12.9038429  20.6073833
  92.0788193   8.6108863  34.0244484  92.8884125   8.2058662  34.3354869
  92.3233700   9.0335327  33.2011676  73.5728598  21.0130548  11.2539828
  73.2086182  21.2466073  12.1078074  73.2925892  20.1086855  11.1132896
 109.3374538  55.9003401  12.9738379 109.1236782  55.7303953  12.0564234
 109.7037411  55.0749350  13.2912838  11.8691885  75.1624823  24.8776889
  12.6500773  74.6516991  24.6642709  12.2072196  76.0193205  25.1380634
   4.5390013  60.2361584  34.2906022   3.8634232  59.9898434  34.9223900
   4.3186903  59.7434664  33.5000610  23.1346345  43.7895060   1.0955156
  22.4865627  43.1302023   0.8474095  23.9166570  43.2846022   1.3185529
  72.4410868   1.5352602  93.0492783  72.2250605   0.7025056  92.6296616
  72.1456051   1.4314388  93.9537907  10.0521767  43.3773184   7.1246624
   9.8775321  43.5531855   8.0492169  10.5679500  42.5709677   7.1275067
   3.8768563  46.9973516  26.2276363   4.0691003  46.0658741  26.3354611
   3.5871014  47.0784903  25.3189611 112.6734543  59.7961569  42.8051662
 111.7308712  59.6319246  42.8333855 113.0706501  58.9383888  42.9558372
  21.3050699  41.6304445   0.1733829  21.3033557  41.4907503   1.1203329
  20.4004097  41.4685869  -0.0942372 115.8856010  58.4814596   8.3640093
 115.6756592  59.4133568   8.4250158 115.8472729  58.2881260   7.4273205
  33.0519032 100.2555561  97.0103168  32.8987408 101.1693954  97.2504902
  33.7836313  99.9819469  97.5634384 104.0087414  80.0949574  14.0550756
 104.4617748  79.3153477  13.7338257 104.5766735  80.8230019  13.8028359
 117.9142666  70.0347233  34.0441275 118.4367180  70.1475525  33.2500601
 118.2587814  69.2372990  34.4462061  11.8416262  35.4926181  15.8117902
  11.6348898  36.3882756  16.0787940  11.0233223  35.1568389  15.4459167
  61.5390205  88.0653000  87.6682281  62.4958324  88.0903816  87.6578045
  61.2737608  88.8340950  87.1634293   4.5817333  83.0857563  24.4958138
   4.0234986  82.3758888  24.1785049   5.2794707  82.6437855  24.9795985
  12.9735076  73.3813715  21.5370488  12.2077084  73.9002514  21.2909889
  12.8782213  72.5656986  21.0452843  56.0664892  97.4126530  70.8980274
  56.7725372  97.9756546  71.2154484  56.1070251  97.4919319  69.9449778
 112.0567608  54.7293568  27.0308185 112.1100235  53.9160776  27.5327849
 111.5986347  55.3385878  27.6097703 118.2570553  49.5194817  26.8811011
 117.5033474  50.0971889  27.0011735 118.2511616  48.9543867  27.6536751
  42.5798512  75.1725817  22.0109558  41.9992685  74.4470167  22.2405386
  42.4145126  75.3265429  21.0807991  50.0833988 106.7924690  93.5279846
  50.3054523 107.3814678  92.8068733  49.3257332 107.2011948  93.9464474
   5.0942558  47.1374416  15.7641900   5.5883962  47.6711321  16.3864684
   4.6417987  47.7731943  15.2098119  45.8067894  89.7236061  88.7609482
  46.2745237  89.4154358  89.5371532  45.4693604  88.9264393  88.3524227
  41.8037701 105.1311874  93.5098267  40.9111881 105.4598045  93.6172104
  41.7610455 104.2213345  93.8040733   8.0007905  67.5750017  23.8535738
   8.4391445  67.7758026  23.0266786   8.0099517  68.4014654  24.3363833
  17.3769557  76.2453747  17.0398867  17.2193515  76.2380171  17.9839945
  16.7680979  75.5947256  16.6903448 108.4589291  56.6645670  25.6317186
 109.2545414  56.1657333  25.4462814 108.5817623  57.4926329  25.1675534
  12.4604034  58.8915157   7.0166987  11.7220879  59.3883896   7.3691773
  12.1349227  57.9938364   6.9499308  76.3510418  62.9983044  39.6072817
  77.1505642  63.5211134  39.5467353  76.0296965  62.9469585  38.7070966
  13.4288335  64.9112177   3.5777584  13.8566864  64.9295330   4.4338182
  12.4938750  64.8674154   3.7781715   6.4477783  60.8292150  15.9007752
   5.9478956  61.1089420  16.6676545   7.3542458  61.0538387  16.1107624
  11.6555703  54.6063185  17.8638053  10.9569144  54.1850471  18.3644497
  11.9065666  55.3633213  18.3931243  14.6574104  69.6389389  34.5086575
  15.3842151  70.2286530  34.7092080  14.3381262  69.3526554  35.3644204
  26.6414905  52.0361710  16.2211788  27.5248885  51.7519903  16.4558756
  26.7759848  52.8147411  15.6808352  18.1994867  70.5774355  24.1985869
  17.9756320  71.4619303  23.9091086  17.3695457  70.1010418  24.1767478
 105.3901386   0.3578334  97.1506310 104.9224949   0.2583214  97.9798698
 104.7270203   0.1927069  96.4803791   5.0383389  65.8879519  39.7115636
   4.7919381  64.9915981  39.4833899   5.9931982  65.8652210  39.7744823
 118.0332375  71.0735941  46.5696001 117.7993488  71.5912962  47.3399973
 118.6596870  71.6200066  46.0950184  13.1695259  82.3753166   4.5116106
  13.8675356  81.7402363   4.3513301  13.1758952  82.9386234   3.7377384
  47.7369308  67.8206301  13.8192713  48.2442427  67.0169115  13.7056732
  48.2522917  68.3444834  14.4326353 110.7664776  87.9837418  10.3490114
 110.6653404  88.0759335   9.4016439 109.9580288  88.3450413  10.7124722
  21.6685867  66.0593605   3.8836372  22.1761918  66.6914225   3.3746547
  22.2847009  65.7279205   4.5369259  18.6350334  57.0310926   4.5047298
  18.7009144  56.4630413   3.7371272  17.9309332  56.6470242   5.0271916
  22.2590399  50.4629993   0.3791362  22.9607701  49.8215532   0.2679829
  21.6767049  50.0706244   1.0296432  98.9647102  44.4829226   6.3890928
  99.1986847  44.7451878   5.4987526  99.5356846  43.7380600   6.5772253
  30.4608893  49.7726965  11.3290071  30.4843426  48.8227892  11.4445722
  29.5525575  49.9631119  11.0946822   8.4099430  64.1582298  36.3951111
   8.1670129  64.3641901  35.4924488   7.5865418  64.2037630  36.8810821
  83.6918354 104.8622608  93.4304619  83.3922768 105.3630829  94.1891956
  83.4499073 105.4010105  92.6771736  12.1845639  41.8200064  22.4758434
  13.0461967  41.7810917  22.0607448  12.2671354  42.5092173  23.1349349
  23.2322669  41.0467720  35.2127004  22.9136896  40.1935911  34.9180412
  23.5497665  41.4720488  34.4161057  19.6045256  69.9494314  16.4009428
  19.8411524  70.6264591  15.7670045  19.2803633  70.4346037  17.1597326
  23.1293583  39.6406555   7.3395294  23.9204812  39.1372919   7.1472305
  22.5444651  39.0140820   7.7656013  20.0489855  72.4885225  31.5102506
  20.3359413  72.3443031  30.6085348  20.1225185  73.4344912  31.6366005
  95.2049255  56.9290113  15.3484905  94.9691200  57.3020124  14.4990802
  94.3658543  56.7299032  15.7638919  94.1317272  91.1827564  96.3772869
  94.1722775  90.2351952  96.5065384  93.2552052  91.4276505  96.6738701
   6.8686569  11.6688621  68.9284563   6.2323004  11.6652524  68.2134247
   6.7814994  12.5369322  69.3222713  23.8421321  61.2182951  20.5911374
  23.9753032  61.9259548  21.2217784  24.5697331  61.3061142  19.9754119
 113.4760761  64.9242687   3.5908058 113.6867523  64.5327473   4.4384840
 112.5403309  65.1189804   3.6428484  48.5715628 104.4928837  90.7836246
  47.8985023 104.8118401  91.3848686  48.9743567 103.7565517  91.2438488
  18.8162231  92.0699215  14.4936061  19.1618752  92.3783970  13.6559916
  18.1158578  91.4627647  14.2546940   7.1099263  70.8811617  10.3859043
   8.0471265  70.7418728  10.5218685   6.7194563  70.0152636  10.5041480
   8.4774798  65.5697155  16.3013148   7.9390782  65.9449053  15.6044710
   9.3309712  65.9904099  16.1973870  41.4866257  65.2887249   5.9756118
  40.9115410  65.9771872   6.3095754  40.9241104  64.7606516   5.4090917
 113.5277081  64.9328661  14.9774492 113.6556435  65.4061651  15.7995522
 113.1976318  65.5941725  14.3692136  12.5601816  33.9049220   6.1783981
  12.1743906  34.5704913   5.6088245  13.4543812  34.2100525   6.3317984
  29.1416359  75.7567644  15.3633547  29.3617606  74.8415947  15.1894593
  29.9878287  76.1884785  15.4808903 117.5245094  97.4137497  31.4508200
 117.5396156  98.3703804  31.4216638 118.3088017  97.1767902  31.9457579
  11.8568945  49.0077639   7.2525144  12.7726758  48.7952375   7.0724863
  11.4910650  48.2016659   7.6166642  19.6885812  59.2051792  18.3830750
  20.4933047  58.8412285  18.0140352  19.0378487  58.5126400  18.2683206
  77.9736757  15.8084881  91.4289379  77.6307964  16.5981185  91.8474483
  78.2367563  15.2462149  92.1575451  27.6640916  53.9956951  14.5834112
  27.7111816  54.8950481  14.2590916  28.1227469  53.4781122  13.9216185
  21.9547629  80.5462742  30.2200961  21.4476109  80.6760311  29.4187284
  21.3534594  80.0968266  30.8139467   7.4248779  69.0926552  28.1181884
   6.9874299  68.4902477  27.5165462   8.3550614  69.0060329  27.9096532
   3.7615108  77.6604033   8.0824167   4.6979466  77.7533102   8.2575977
   3.6703929  76.7749739   7.7303642   3.0548805  83.4526443  16.0012865
   3.7339082  83.4043407  15.3283668   2.7696338  82.5465679  16.1191797
   6.3645506  54.4124889  23.1689072   5.8694375  53.6788464  22.8044009
   5.8959806  54.6425772  23.9712381 106.7807007  37.5274777  10.6365514
 106.2250710  36.8143034  10.3220856 106.9614029  37.3054147  11.5499318
  85.9094143  32.3209262  83.2376862  86.5419292  32.1495366  83.9353943
  85.4353142  33.0993485  83.5301208   2.7863595  72.5220299  21.9358921
   3.5778522  72.6915693  22.4468017   2.6119390  71.5899849  22.0666623
  54.2675734 103.1259918  96.0737133  54.6539497 103.3376884  95.2239227
  54.2980146 103.9485645  96.5622616 103.3537579  74.7007179  31.6705680
 103.8601971  75.0524855  30.9384418 102.4525928  74.6766281  31.3487697
  49.4588041 102.3398399  91.9242096  50.3929710 102.1393013  91.8663406
  49.1428089 101.8016624  92.6499748 116.2188244  69.3817425  19.2192161
 115.5663872  69.7719479  19.8008537 117.0549393  69.5377207  19.6583092
 113.2411957  88.2406998   3.7009522 112.9036808  89.1063309   3.4707332
 114.1910934  88.3545113   3.7321046  55.2263117  40.3139925   2.6651561
  55.0387383  39.4899106   2.2157846  54.4079208  40.5364561   3.1089818
   5.5034882  67.0324230  17.1044922   5.9116191  67.8544283  17.3764610
   6.2242514  66.4029408  17.0824742  29.0840483  61.7680454  16.3611722
  28.4164453  61.9149685  15.6911349  29.5555115  60.9901905  16.0630190
  29.2162204  61.5051603  33.8694549  29.3860674  60.9441662  34.6262002
  29.8824096  61.2530136  33.2300472   9.6262312  57.6304245   6.1593181
   9.9960303  57.0318460   6.8083048   9.7081929  58.4966421   6.5582925
  24.7509599  81.7978477  10.1480830  24.7945762  80.8823776   9.8719692
  24.4153619  81.7621326  11.0438120 113.8246822  60.2579451   2.7193049
 113.5761833  59.6700430   2.0059645 113.9462757  59.6813011   3.4735787
  30.1065254  55.7746077   5.8250010  29.1846299  55.8812666   5.5905616
  30.5841756  55.9972906   5.0259405  37.8447747  47.8284883   8.6348164
  37.6267648  46.9229889   8.8556749  38.7864113  47.8131962   8.4635872
  24.6335292  52.0993996  40.3625393  24.3242455  52.7195740  39.7022676
  24.0173817  52.1955872  41.0887241  32.9064870  37.3103333  16.3805008
  32.9158568  37.8082395  17.1979547  33.0996013  37.9584312  15.7030749
   0.7386206  27.1491003  14.1641808  -0.1074608  26.7018747  14.1833901
   1.2102636  26.7383289  13.4395766   4.5209515  43.9378834  21.9027877
   4.4627696  43.4526396  21.0797548   5.2757335  43.5576344  22.3521733
  41.9931221  74.4905949  25.7356215  41.1977434  74.2226934  25.2753663
  42.4804163  73.6769676  25.8652234  37.8428483  53.1621408  20.0039029
  36.9464755  52.8415108  19.9041688  37.9397702  53.3137846  20.9440303
  34.4610763  57.6180410   0.9410042  34.5949173  57.3572063   1.8522039
  33.6243844  58.0829716   0.9453855  95.0262070  81.2842369  22.0360541
  95.1909351  81.3330650  22.9777098  94.8118401  82.1822929  21.7835212
  31.9193125  59.0880346  30.8420467  31.9661140  58.9303684  31.7850113
  31.0396433  58.8028479  30.5948949   3.3521333  45.0068092   4.9245796
   3.9047468  44.5077705   5.5260873   2.5128862  44.5465565   4.9326178
  12.0864272  44.0630913  14.2013705  12.8894067  44.2081261  14.7017920
  12.2995257  43.3406687  13.6106730  12.2882080  77.9049635   4.6376160
  11.7041838  78.4484959   4.1087317  12.2740090  78.3111715   5.5042338
 116.9762993  76.7160320   8.9105785 116.5834713  76.5445137   9.7664422
 117.3811913  75.8850622   8.6620176  16.4478159  38.6823034  13.6365068
  16.3917625  38.2145405  14.4697464  17.3839223  38.7069964  13.4381986
  14.0938246  44.5372343  16.0145617  13.6470461  44.3857384  16.8474293
  14.5425177  45.3745222  16.1322880 115.7311440  43.8517952  14.2673969
 116.2881660  44.0494871  15.0203097 116.3440609  43.7198830  13.5440922
  35.6387639  67.6687002   7.0929027  35.3506923  67.8324986   7.9909098
  35.6797528  66.7148113   7.0247436  18.1546366  59.2157459   6.2780660
  18.4942329  58.5410976   5.6900579  17.6015341  59.7630405   5.7205880
 118.3004379  44.6465397  10.1826918 118.4231091  45.5803776  10.0120080
 119.0509605  44.2257881   9.7632611  33.7660146  64.3344402  10.0412321
  33.3755660  65.2041960  10.1266980  33.9951372  64.0857124  10.9367037
  26.5404034  59.1988897   9.4290692  27.4735808  59.1807318   9.2167509
  26.3013744  60.1244164   9.3791407  36.4525771  53.1613922  23.4865308
  37.2891855  53.6222410  23.4237981  35.9402370  53.4936571  22.7494144
  79.7160864  98.9057064  96.9563675  79.9013519  99.6943569  96.4465141
  80.1671410  98.2047939  96.4857292  24.7608638  81.1081028  28.6224842
  24.2406201  80.3460407  28.8771200  24.1194201  81.7353344  28.2887816
  45.1174927 105.8420277  91.1882210  45.3781319 106.7621231  91.1466980
  45.6427670 105.4761696  91.8998814  28.1870151  70.5220318   4.2556310
  28.3610630  69.9219179   3.5305107  28.8304424  71.2222958   4.1466975
  44.7954655  72.3620510   0.9430123  45.5899906  72.5897694   1.4258204
  44.8550415  71.4150858   0.8167584  29.4898486  85.2802658  20.9006572
  29.2667031  86.2054348  21.0031414  29.9633670  85.0578785  21.7022514
 106.3127422  83.3999538  28.1274223 107.0615578  83.2968426  28.7146783
 105.5751419  83.5823536  28.7095809   9.4226331  91.2352467  30.9473276
  10.0210929  91.6600990  30.3328538   9.5910412  90.2994156  30.8374047
  88.6584473  16.3873303  76.7126322  88.5151958  15.9912896  75.8530617
  88.4142685  15.7027256  77.3354721  16.3594627  50.0691223  45.6445789
  16.3906205  49.6277332  44.7957945  15.6741810  50.7300806  45.5458164
   1.9455750   6.9548047  84.0177917   2.2491679   7.6121289  83.3917046
   1.7562626   7.4516129  84.8137665  23.9594531  63.5638618  22.1417594
  24.8972654  63.7272406  22.2420025  23.6445403  64.2946625  21.6097903
 105.9482670  13.3388829  83.5868740 105.3057384  13.1080949  82.9159546
 105.4767990  13.2402241  84.4140434  10.7843781  59.8831940  26.3133454
  11.6346383  60.0716209  25.9161258  10.1990736  59.7398281  25.5696392
 106.7741680  21.7678642  93.6133671 106.8291664  20.8457899  93.3623981
 105.8373833  21.9640708  93.6006927  89.0886688 110.3729725  90.4218960
  88.9442921 110.5212307  89.4873333  88.4521198 109.6984100  90.6585312
  98.0428886  10.3775334  85.2712059  98.1365967  10.7803309  84.4079494
  97.5787640   9.5573151  85.1036835  24.1850877  87.9111290  25.5151725
  24.7966886  88.6450863  25.5742121  24.6780038  87.2241116  25.0665402
  10.2485156  46.9509315   7.9465836  10.7421875  46.3661194   8.5214895
   9.4506735  47.1507931   8.4362119   5.2769458  94.4752884   8.1848574
   4.4278809  94.8388386   8.4361595   5.1639932  93.5278702   8.2615262
  46.4562941  81.8167973  21.5434361  45.6516933  82.1868038  21.9066787
  46.8942165  81.4135933  22.2930217  10.1265514  60.8567953   3.7057456
  10.5739152  60.0242138   3.5543865  10.8111572  61.5182304   3.6055207
  87.2414017   3.3246624  89.0856075  86.4352131   3.7817487  88.8461018
  87.2065449   3.2617396  90.0401020  37.3517251  67.2913218  61.6864109
  37.8922558  67.7104616  61.0167980  37.4765134  66.3532877  61.5423727
  18.0126703  87.7704144  13.5197926  17.1544898  88.1083965  13.7757766
  18.3614230  87.3732090  14.3178093  36.7691755  52.2696829  28.4162450
  37.5242448  52.8400612  28.5603690  36.8701553  51.9616365  27.5156116
  10.1915836  66.0816002   9.0155661  10.5863762  65.7344103   9.8154610
  10.8996797  66.0637903   8.3717382  13.0369353  75.7761574   1.4861895
  13.3755088  76.6011381   1.1383387  13.5694551  75.6074572   2.2634894
  11.4230120  30.0395441  73.5366583  11.9928682  30.7145691  73.1680965
  11.2988317  30.3026485  74.4485712  37.2681928  63.5267258  47.7744484
  37.9121256  63.0466461  48.2951260  37.3133683  64.4237709  48.1053591
  19.6639299  41.7876482  11.5182030  18.7797749  41.7591906  11.8838418
  19.8369658  42.7191877  11.3821077  11.8506658  76.1427355   9.5723730
  12.7405620  76.4903307   9.6314573  11.2902224  76.8737316   9.8327214
  22.5348806  59.8131418  29.7985578  23.3492160  59.9716568  29.3211031
  21.9197202  60.4541779  29.4423532  28.3029890  90.2709293  23.4144998
  28.7806034  90.3160763  22.5862002  28.9799500  90.3536797  24.0861464
  22.1046591  85.6800556  32.8540683  22.5706244  85.9291840  33.6522174
  22.7879143  85.6212807  32.1862817   6.1991400  87.6056004   4.0314353
   6.0510498  86.6672897   3.9136735   7.1511436  87.7025509   4.0085799
  42.4039221  84.4269562  29.0972710  43.1074572  85.0188255  28.8309002
  42.5147581  84.3336868  30.0434470   2.9758224   0.2489077  96.9199657
   2.9923356   1.1631263  97.2031021   2.0730728  -0.0319211  97.0696735
  90.8442783  12.1603966  64.5482922  90.4147625  11.3273168  64.3540382
  90.7125950  12.6872766  63.7600708  25.3501558  67.7458382  24.4798636
  25.2393746  67.1818447  23.7144375  26.1317945  68.2629395  24.2852402
 117.6191235   9.1693902  96.3049412 118.4071064   9.5610398  96.6816902
 117.0080948   9.1071433  97.0391083  47.2194242  91.3849258  32.5090313
  47.4319077  91.2155819  31.5912080  48.0076647  91.1297417  32.9883909
  11.5958464  72.2648573   9.6018404  11.8852186  73.1406736   9.3460238
  12.4047792  71.7950869   9.8047531  75.2047634 106.3817787  87.2136307
  75.2531815 107.1496773  87.7830219  76.0416126 106.3749599  86.7490196
   3.4483656  44.5816851   8.3211148   4.0630463  45.3132772   8.2647729
   2.5911427  44.9961185   8.4193444   6.9263309  17.1142328  86.0143757
   6.3257176  17.6583850  86.5236855   7.4837708  16.6947687  86.6697693
 111.4548874  52.9766607   0.5403861 110.8303833  53.0322266   1.2636706
 112.2657871  52.6711702   0.9470312  27.4905348   1.5343247  72.5744104
  28.1031132   1.8548664  71.9124174  26.9252515   0.9233288  72.1017885
  92.0418453  21.5178323  94.4773483  91.3323402  21.0760188  94.9438667
  91.6024876  22.0100927  93.7839031 102.8527260  26.1229944  72.0562840
 103.3606434  25.4135394  71.6626835 103.5049629  26.6708493  72.4929428
  72.3720264  98.1031513  96.9719315  72.2508240  97.1571255  96.8908215
  72.9800653  98.2048130  97.7041721  43.9546871  76.4843988  26.6277385
  43.7128210  76.5357399  27.5524545  43.4176302  75.7730103  26.2788415
   1.2378797  26.1126232  88.0802250   1.0445973  27.0063686  87.7972126
   0.7364412  26.0035276  88.8882446  91.7904758   4.6908468  82.0473766
  92.3656940   3.9258906  82.0614243  91.3537884   4.6778160  82.8990555
   8.1567204  70.2074480  24.6843362   8.8164395  70.0448465  25.3585505
   7.8742123  71.1089802  24.8381519  24.5558643  99.5069981  15.4754758
  23.9669943  99.9274445  14.8488259  25.4055190  99.9193096  15.3195333
  37.5225496  51.5694618   1.6718253  38.4791708  51.5364838   1.6760772
  37.2850537  51.5128231   0.7462879  31.6811037  86.6922474   6.0281736
  30.8855605  87.1948814   5.8529502  32.3212075  87.3467255   6.3077509
  99.7482014 110.2307892  80.9285355  99.2515659 110.0250816  81.7205429
  99.3468666 109.6912861  80.2472878  33.0555701  84.6878624  53.6174440
  32.5409913  84.6566486  52.8109312  32.9946351  85.5987072  53.9053345
  30.2160668  89.2881489  16.4944577  30.2108431  89.8359966  17.2793579
  30.7168627  88.5125065  16.7470837 117.4747849  21.6659331  70.7879734
 116.8586254  20.9337187  70.8088636 117.0801926  22.3273087  71.3564014
  38.4832549  82.0647526  19.7953939  39.1015434  81.7872620  19.1194129
  37.7573562  82.4565220  19.3097806   7.9982203  90.3588772  33.5816741
   7.3069209  89.7397804  33.3470345   8.4677345  90.5154419  32.7623606
  49.9547863  66.1666203  18.3714962  50.2152920  66.0253572  19.2816675
  49.0240908  66.3850117  18.4198880  76.9428253 109.9707317  87.5531197
  76.5689945 109.6544838  86.7306423  76.8858671 110.9242249  87.4911213
  42.2855997  93.7270069  25.3642750  42.6786137  94.5974350  25.4285622
  42.7328396  93.2120800  26.0358858  19.1716826  86.0672569  16.0307050
  20.0748944  86.1835957  15.7359076  18.8506830  85.3178310  15.5291629
  20.7859564  68.7948990  11.6117597  20.6488466  69.6481895  11.2002599
  21.6891146  68.8236237  11.9275320  25.5963898  80.9564114   1.5386121
  25.5771232  80.9388256   0.5817677  26.4735317  80.6481171   1.7662187
  43.2381439  66.6553211  40.0318956  42.3981857  66.4225960  39.6362495
  43.7346077  67.0589209  39.3199539  19.0958703  58.4024382  30.5840039
  18.6182070  58.3268499  31.4100504  20.0006914  58.1868505  30.8099508
  94.6869373  13.2273865  85.3462315  94.5580959  12.8947926  84.4579697
  94.6422386  12.4494207  85.9021091  23.0533218  43.7639761   4.4213718
  22.7654934  44.6597862   4.2455426  24.0076160  43.8234758   4.4662261
   2.6726285  63.6414194  24.0783858   2.2871050  63.0933666  24.7619343
   3.5707933  63.3216286  23.9931536  14.5398736  48.1072474   7.0781380
  15.4121459  48.1439543   6.6856778  14.6894598  47.7764845   7.9638302
  77.3845482 107.2414684  93.2883739  77.2698975 108.1191635  93.6527252
  76.5267658 106.8279266  93.3854008 101.6345229   8.1051835  96.8179266
 102.0320429   7.3745164  97.2915687 100.8155312   8.2750806  97.2833504
 102.5465393  26.9323993  68.9702892 102.9585075  26.9097090  69.8339987
 101.7468452  27.4422860  69.0996838  47.0622540  67.8398991  30.8155918
  46.4079189  68.1622028  30.1957560  47.8911209  68.1960726  30.4956675
  85.8753586  31.2773848  73.8348341  85.0521851  31.7499495  73.7111378
  86.1946869  31.5717578  74.6878290   6.0220963  86.9521618  21.1349487
   6.2657785  87.5969791  21.7990708   5.3969991  86.3776016  21.5769601
  27.3952937  55.8565140   5.5406541  27.5558233  55.1976347   4.8651251
  26.6931844  55.4854822   6.0750782   8.5772836  73.2537508  17.6862812
   8.2345951  74.1287518  17.8684068   8.2471526  73.0443001  16.8125665
  99.1157436   6.8433565  94.9252892  98.7598324   7.0232534  95.7954597
  99.9954414   6.5047055  95.0916386  96.5281391  15.8754170  76.5143394
  96.5718555  16.8313265  76.5379763  95.9827805  15.6419492  77.2655439
  33.0261564  78.0352926  27.9384971  32.9076529  77.7890491  27.0211339
  32.2071624  77.7795506  28.3628511  63.6710215   5.6216311  15.5260253
  62.9237366   5.0682962  15.2988303  64.4350195   5.1233596  15.2357399
  90.8928585 111.9925880  85.6782055  90.6161308 111.0838032  85.7955170
  90.9828949 112.0951462  84.7307873  36.7021203  50.8151722  16.4178026
  36.1608434  50.6667328  17.1931839  36.5535831  51.7339897  16.1943340
  12.2339284  83.1320858  37.1952081  12.8783596  83.6070251  37.7199697
  12.6066482  82.2563553  37.0931888  35.2014422  71.9697237   6.5054429
  34.8596835  71.5236521   7.2803313  35.3830934  71.2648010   5.8838987
   7.9741299  46.2492418   4.7169748   7.9611272  45.4879093   5.2970099
   7.3443711  46.8567514   5.1050001  32.0038056  79.7849894   8.8748389
  31.4907336  79.0629196   8.5120642  32.3431993  80.2465820   8.1080431
  54.6161556  74.1405821  40.4435873  53.8067627  74.2634964  39.9475932
  54.6887589  73.1923580  40.5523491  20.2754354  76.2960577  16.6161883
  20.6175566  77.1317387  16.9337189  19.4306314  76.5166283  16.2239039
  39.1911936  78.5139751   2.6942554  40.0561285  78.1089258   2.6305524
  38.7305903  78.2200241   1.9083363 114.8488808  65.1844740  28.4934282
 114.8415661  64.4844818  29.1462588 114.0191364  65.6432533  28.6248732
  48.1521273  45.1451826  15.6871212  47.6185465  45.8625793  16.0289752
  48.8661146  45.0558519  16.3183701   8.8269663  68.9455128  18.7366104
   7.9364407  69.1070175  18.4249842   9.3865430  69.1877317  17.9987514
  26.9255400   6.3267624  83.4521389  26.8228340   7.0378834  82.8196907
  27.3595214   6.7338693  84.2019081   4.7722015  43.8073301  11.6877055
   3.8930389  43.8770533  11.3156271   4.8819923  44.6114969  12.1951449
  14.6194494  71.6025877   2.0391604  13.6922050  71.5771151   2.2753793
  14.6395266  72.0558071   1.1962961   6.4368242  86.6194248  12.1472073
   7.3854131  86.4951515  12.1782994   6.1577505  86.1390305  11.3677418
  31.2773204  71.4877939  14.6270931  30.8984852  71.7804146  13.7981856
  30.5555534  71.5437746  15.2533102  31.6924000  77.6669455  11.9085968
  30.7567263  77.6149035  12.1036386  31.8833113  78.6048698  11.8992960
 108.6408901  20.3201580  77.9429865 108.3035755  19.9017930  78.7350845
 108.8900089  19.5913196  77.3746824   5.5796546  65.1874113  12.7110517
   6.3643163  64.7280693  12.4118161   5.0310594  65.2582884  11.9298661
  54.5682669  51.4456224   7.8178877  54.8967409  51.7374802   6.9675016
  55.0245094  50.6199789   7.9803473   9.0159595  69.7492313  55.1759148
   8.9016724  70.4045248  54.4876146   8.1531298  69.3450308  55.2674484
   6.0174650  31.9374514  77.8763580   6.8080014  31.5105247  77.5461817
   6.3125396  32.8036475  78.1571960  17.1856070  60.7355595  17.1486914
  17.0573211  60.4705620  16.2378943  18.0686867  60.4350901  17.3634470
  26.5215039  75.7343674  15.2832806  26.2190413  76.6415882  15.2420127
  27.4638557  75.8028126  15.4366481   2.6757586  59.6461630   8.7463737
   3.4661883  59.1150331   8.8430727   2.8999403  60.2889204   8.0734396
  95.6744003  29.7482991  88.7002659  96.1501408  29.1292167  88.1465149
  96.3491917  30.3409314  89.0314484  38.0376554  74.6044779  21.6096663
  37.6094007  75.0108719  20.8562255  38.7723637  74.1190100  21.2344909
 118.0161667  73.7138557  24.0562725 118.0092144  74.4769478  23.4784579
 118.7312031  73.8842010  24.6694088  34.1018581  93.8696671  21.4946795
  33.4421039  93.3655739  21.0183907  34.8630810  93.2907009  21.5343428
  12.7955639  65.5971766  18.2712591  12.6949048  66.0580826  17.4383914
  11.9786453  65.1092625  18.3752489  48.9047766  57.9827404  23.5733199
  49.3759727  57.1707106  23.7599134  48.0107069  57.7015781  23.3788371
  89.7393894   2.5916675  95.1983356  90.2334023   2.6704967  96.0144043
  89.0496349   3.2513320  95.2712250  37.8256130  77.6198483  23.5655093
  37.2666693  77.1769238  22.9270458  38.7054849  77.2900009  23.3831334
  16.3672304  53.7297106   3.7398255  16.1764336  53.3408737   2.8862241
  15.5108130  53.8242340   4.1567743  52.7326870  86.6189480  22.9230404
  52.2117901  87.3355484  23.2855010  52.5553274  86.6456699  21.9827962
  49.3048048  79.0109968  30.0576568  49.7639656  78.5138607  30.7346058
  49.8542929  78.9196825  29.2792249  11.3859880  86.2966824  17.5404751
  11.2420535  86.9611835  18.2142377  12.3324919  86.1540127  17.5431180
  42.9213572  79.5562124   0.5059534  42.3830032  79.0143633  -0.0709361
  42.3213863  80.2259159   0.8342328  44.4971180  81.4440918   9.9267727
  43.9853573  80.6465626   9.7915679  44.8023844  81.3822365  10.8318806
  23.6909509  88.4424019  18.8071620  23.4153771  88.7752151  17.9530370
  23.5669088  89.1809082  19.4033587   4.7600284   3.3536243  87.4755573
   4.6256077   4.2920178  87.3429680   4.7861496   3.2474178  88.4264946
  29.1196465  78.6273336  13.0402040  28.4383464  78.6023664  13.7120962
  29.4993162  79.5026970  13.1164992   9.3736643  72.0995903   8.0069929
  10.1838028  72.4413633   8.3852762   9.4217616  72.3391390   7.0815015
  71.4111471   2.9896685  86.2574482  71.0180235   3.8414362  86.0672474
  72.0540142   3.1703565  86.9432449  21.2972546  59.8785162   4.0400016
  22.0628285  59.9976063   4.6020895  21.6178775  59.3534803   3.3066744
  51.4600372  99.2866421  92.0614052  52.2014713  98.6907482  91.9545269
  51.7571974 100.1104164  91.6749859  20.9977412  75.6586790   9.7732514
  21.1157155  75.2289248  10.6203783  21.8223405  76.1206770   9.6221572
  45.2729559  91.8823051  84.4822025  44.3968487  91.7844296  84.1092587
  45.7133484  91.0570908  84.2789459 116.9405079  73.2177067  43.7727642
 116.3649368  73.3471584  44.5265532 117.7123451  72.7809572  44.1329718
  35.4918528  86.9666958   1.8706533  35.6321931  86.0490131   1.6374451
  35.0877285  87.3522663   1.0933155  27.9816222  76.3232136  19.9422956
  27.4821901  75.6263018  19.5167208  28.8849092  76.0065174  19.9395669
   7.6668227  34.0772915  77.4890471   8.5810637  33.9952970  77.2176218
   7.1734756  34.0876317  76.6688442  45.7951069  82.3167992  16.7186022
  45.0570869  82.8194618  17.0634031  46.0051012  82.7400494  15.8861411
  97.9867363  66.0234690   3.0142671  98.5516453  65.3547668   2.6270297
  97.5698566  66.4482641   2.2646049 101.0384846  11.7484784  88.7458134
 100.1717281  11.8303776  89.1436291 100.8932114  11.2184298  87.9621220
  86.8039989   9.0456814  94.3371201  86.2814426   8.6039025  93.6678028
  86.3657761   8.8341421  95.1614094  14.0173435  12.1464181  77.0341539
  14.2025137  11.6610134  77.8380966  14.4001114  13.0110598  77.1828747
 110.8056450  19.2112839  92.8666592 111.7374897  19.4288802  92.8433418
 110.7839489  18.2676375  93.0256939 116.8320274  20.2305675  91.6661358
 117.6816273  20.5220103  91.3352680 116.7223072  19.3516815  91.3031673
  34.4255495  54.3962336  29.8832393  35.2543974  54.7209883  30.2350640
  34.2928362  54.8993778  29.0798306  40.3818417 109.9555397  73.1506777
  40.3757095 110.6149101  73.8445282  39.4703937 109.6712303  73.0823851
  37.1949697  97.6152420   5.4825795  36.8107820  97.3006725   4.6642408
  37.0342517  96.9098568   6.1093378  18.2635915  64.5451498   6.5167576
  18.3179617  63.9922571   7.2962350  18.9840162  64.2474699   5.9612346
   5.0789505  52.3084354  21.9090509   5.0135398  51.3942242  22.1850371
   4.1721490  52.6125383  21.8707776  54.7707987  94.8023796   8.6874163
  54.8168135  94.5999718   7.7529943  53.9221954  95.2311707   8.7980962
  35.2665734  89.5686150  11.7097425  36.2081194  89.4266224  11.6119695
  35.1004052  90.3944111  11.2551117  50.6865406  94.5107841  24.2677331
  50.1162958  93.9285755  23.7656593  51.0063457  93.9691353  24.9892402
  16.6235709  89.7758484  30.8062840  16.8596566  88.8531303  30.9016156
  17.4449050  90.2484322  30.9415746  18.7942469  96.0227871  17.0520031
  18.6329246  96.9516659  17.2175002  18.9686608  95.6521225  17.9171181
 114.3053627  47.5093746  92.8375435 115.1975632  47.2521162  92.6051044
 114.0042973  48.0295324  92.0925522 104.0847015  19.7754431  89.2394924
 104.8669815  20.3252816  89.1952133 104.3750381  18.9199388  88.9231873
  28.1110430 103.1250286   2.5800723  28.7691140 102.6633930   3.0997467
  27.4411726 103.3806419   3.2142410  44.4603682  54.7296667   0.7521885
  45.0183439  55.2942324   1.2871349  43.9071417  55.3364563   0.2602790
  29.9779320  73.2106829   1.2254879  30.1755524  73.5938597   2.0800939
  30.6374025  73.5808849   0.6387369  26.0632658  73.1242847  31.7375183
  26.1564970  72.6178408  32.5443983  26.8627858  72.9391956  31.2448311
  38.6805916  87.3346710  13.8569307  38.9496565  87.7556992  14.6733677
  38.6207199  88.0519676  13.2259512  60.7264519   5.2206844  16.4532483
  59.9310398   5.2995485  16.9798684  60.8325195   6.0818911  16.0491371
  42.6302433  82.5779533   7.6492727  41.7648172  82.2555542   7.9009396
  43.2215738  82.2175789   8.3101004  32.7051187  87.7222347  16.4299595
  32.8148532  87.6838303  15.4798460  33.5741019  87.9469490  16.7625380
  86.1139774   2.6192337  23.7347674  85.5684471   2.0889544  23.1538844
  86.7063999   3.0869418  23.1461048  76.6265774   3.5685849  32.4380350
  76.3443613   4.1232717  33.1652975  77.5322628   3.3407894  32.6479888
  28.3188295  94.8123837  43.1854153  28.4283853  94.5906925  42.2607088
  28.2640767  93.9663029  43.6296940   9.9531955 101.9043636  22.2220349
  10.5315161 102.6534367  22.3657846   9.1036975 102.1895790  22.5585413
  27.6967512  -0.0651574  76.2666559  27.1813951  -0.0983167  77.0726013
  27.2854982   0.6260371  75.7476616   2.7865168  46.2121058  90.6724930
   3.3159441  45.6641483  91.2518787   2.7531299  47.0621681  91.1112595
  12.2434032  83.1567001  18.9307761  13.1878161  83.0056095  18.8922346
  11.9550359  83.1040382  18.0195677  80.1141167  93.7748337  21.5673733
  79.4645691  94.0002537  20.9014058  80.9512520  93.8008881  21.1039495
  23.6014533  98.9313793  17.9795420  23.3253312  99.4626236  17.2327077
  24.5343161  98.7763500  17.8313422   2.6664555  45.2886248  83.9135838
   3.1834820  45.5459595  83.1502438   1.7610064  45.4704952  83.6619568
  98.4755230   9.0419728  93.5510445  98.7289143   8.2281142  93.9865398
  97.8206539   8.7746733  92.9061127  50.8598280  82.9227161   4.3504024
  50.5973339  82.0088959   4.4611108  51.6937542  82.8773880   3.8826993
  53.4579611  77.9545784  15.7632744  54.2726135  77.4551821  15.8196795
  53.5129261  78.5844803  16.4819098   1.8182911  49.4345808  89.6070862
   1.9599906  49.3675709  90.5513668   2.6184544  49.0804195  89.2190838
  58.4881639  75.7370949  12.3186076  59.0654039  74.9747610  12.3618388
  59.0022516  76.4010429  11.8591344 101.8342495  34.2893910  95.4842854
 101.5309429  34.8187137  96.2218857 101.1238480  34.3403482  94.8447800
  33.8441348  89.9397182   9.0833122  34.3560386  89.2115593   9.4354075
  33.1087613  90.0306034   9.6892804  22.6682591  93.2574654  16.8341053
  21.8859887  92.7059269  16.8437123  22.3351240  94.1431236  16.6896713
  37.8612304  76.5613174  15.2893102  38.7558794  76.8919420  15.2085447
  37.5681710  76.8703032  16.1465585 102.8442001  21.6142559  90.6225204
 103.1220627  20.8621359  90.0996971 102.1822262  21.2612700  91.2170124
  30.7817650  94.1290951  33.4459186  30.1505351  94.5029259  34.0607619
  30.5009699  94.4507217  32.5892115  39.9964428  79.3092728  12.3451042
  39.8354840  78.6755943  11.6459811  40.9322214  79.2294216  12.5299621
  37.6982498  74.0201044  14.4837713  37.7224302  74.9518013  14.7019172
  38.2576251  73.6056995  15.1407325  71.7358971   9.6474695  34.2811513
  71.5867329   9.1351634  35.0758362  72.3081684   9.0978485  33.7457538
  34.7024179 106.3104630  25.8892798  34.9884892 105.5599117  25.3686523
  34.4778204 106.9791412  25.2422380  41.6664124  86.8738365   3.5712793
  40.8233404  87.3142147   3.6786231  42.2062731  87.2126865   4.2853984
  14.5562768  15.2400064  84.8833656  14.7709024  14.8008358  85.7063484
  15.4036903  15.3926468  84.4652462  49.5314932  84.0926170  10.9114051
  50.1774788  84.5430851  10.3673339  49.4558573  83.2215691  10.5217946
  99.3254566  18.9127839  96.9391823  98.4136772  18.9340150  97.2297764
  99.7910690  19.4605839  97.5711250  49.5429564  75.0426912  32.3881769
  49.6435881  74.4484186  31.6445756  48.6365271  74.9213314  32.6708150
  27.7165818 109.0564919   5.5939770  27.5252867 108.3313560   6.1887974
  28.4441876 109.5204639   6.0081691  57.9328299  96.6784286  20.3341913
  58.3817291  95.9340954  19.9333334  58.6138773  97.3436546  20.4335546
  50.2869749  70.4784489  13.5270560  49.6108055  71.1440039  13.6537993
  50.3761625  70.0614023  14.3839991  29.3170834  68.8297987   6.5411210
  29.2378831  68.1356239   5.8868414  28.8109541  69.5577812   6.1804175
  36.6880107  73.4169960  10.0423241  35.9928036  73.9903259  10.3651381
  36.9923162  72.9484797  10.8195782  36.9901109  90.1983929   8.0252784
  36.7684531  89.2779350   8.1661659  36.9102240  90.5991936   8.8908494
  16.1590123  93.1404781  16.0675824  16.6114712  92.3818779  16.4364207
  16.5006471  93.8862801  16.5608323   4.7005469  49.7931576  93.3611679
   4.9369228  49.9180841  92.4420643   4.8708832  48.8662052  93.5284233
  25.8293295  90.8787537  10.0221670  25.5012226  91.7744255  10.1018739
  26.3843465  90.7575417  10.7925558  48.6561966  84.5590878   7.6253259
  47.7300072  84.6101093   7.8615379  48.6908960  83.8984299   6.9335419
  41.0129595  63.5455608  18.6209989  40.6044865  64.3246603  18.2436609
  40.4389143  63.3020592  19.3472278  25.6388021  87.6587296  12.9468358
  26.5232205  87.9470825  12.7212584  25.3369570  87.1837425  12.1725559
  21.6028214  65.3770065  33.0625153  20.8611178  65.1059532  33.6034751
  21.5815735  66.3336039  33.0888915  47.3083496  71.9809389  40.5943584
  46.8565941  71.7680883  41.4109612  46.7099190  72.5711679  40.1363897
  49.4831371  84.9310017  20.5778003  49.4740009  84.9290085  19.6206462
  50.2824116  84.4586086  20.8106804 117.8966522  28.9841747  95.3678417
 117.9237556  28.1869817  95.8969688 117.7049541  29.6814775  95.9949398
  45.0060415  73.3316374  16.1569440  44.3092632  72.8478336  15.7134712
  45.7088470  73.3868361  15.5094504  50.6870127  71.0353088  36.1813545
  51.2140656  70.8018684  36.9455194  49.7891903  70.8216333  36.4353061
  88.2843304  29.5593739  84.3552685  88.4813118  30.0951910  85.1235962
  88.7519360  29.9877262  83.6382675  23.0574203  90.8738899  23.3778048
  22.9160213  91.5830898  24.0049243  24.0018702  90.8766079  23.2221079
 117.3447800  14.1995132  96.6249752 118.0244064  13.5289156  96.6930771
 117.8267002  15.0172246  96.5011597  26.8000650  95.6840038  22.6929069
  27.6745224  95.3156662  22.8189301  26.5478158  96.0039139  23.5590839
  30.0931358 107.5097656  16.2249601  29.7586346 108.1879330  16.8118358
  30.5395341 106.8913651  16.8033528  17.2833526  25.1414275  91.6745472
  17.8869486  25.8286953  91.3924694  17.7643764  24.3264318  91.5309143
 115.2633190  97.7966022  49.6869659 115.7387352  98.6229515  49.6011543
 115.4821301  97.4844456  50.5649805  44.7215319  98.7646484  32.0143628
  44.7640276  98.7131405  32.9692292  45.5790901  99.1010666  31.7542505
  29.7553825  85.9695530  28.9357686  30.6691146  85.9725094  29.2209268
  29.2537880  85.8384514  29.7404122  35.7426643  62.2083712   3.6805820
  35.7968163  61.8141890   4.5511684  36.6513753  62.2605562   3.3843488
  34.7442579 100.1922894   1.4676403  35.3916264  99.5728207   1.1308923
  35.2558684 100.9625435   1.7150366  35.4307222  62.0560408  18.3692348
  34.6468234  62.1564007  17.8291750  35.2871561  62.6434040  19.1112781
  67.1585369   5.0859535  23.3472824  67.3179579   6.0283375  23.2950234
  66.3476276   5.0077206  23.8498092  59.0363121   7.0953721  11.1574805
  59.0520382   6.1828196  10.8689797  58.1120300   7.3417616  11.1224103
  88.3898926  -0.1296350   4.1229364  89.2353249   0.3169839   4.1677871
  87.7444458   0.5769506   4.1418904  21.9180012  78.7512207   8.6216331
  22.2756457  77.9252672   8.2958728  21.9897699  79.3523073   7.8801638
  46.9511700  84.8866558  56.7427683  47.1372271  84.6680927  55.8296156
  47.8120232  85.0378132  57.1330547  29.8336577  99.3804550  18.0473447
  29.3183255  98.6800289  17.6472604  29.8427653 100.0764179  17.3902357
  24.3278599  78.1106663   1.5089327  25.2748084  78.0182409   1.4041585
  24.1264033  78.9635563   1.1239327  41.5033627  86.6444683   7.1746236
  40.5554819  86.5114307   7.1815252  41.6265631  87.4651814   6.6976666
  13.9521849  69.6715879  14.5148981  14.2835259  70.3372574  13.9121330
  14.6962249  69.0867329  14.6583557 111.5771580  70.4717255  15.6569195
 111.1189270  70.5328035  14.8187518 112.1467781  71.2407732  15.6750703
  33.5160422  72.8743029  13.6291981  32.8356981  72.2902489  13.9642298
  33.0712342  73.7123680  13.5026097  39.9464726  67.6943350  23.8566637
  39.5489788  67.7331591  22.9867673  39.5567203  66.9206572  24.2637777
  25.0510168  84.9499226   5.0025249  26.0020614  84.8579311   5.0598443
  24.8436022  84.7316265   4.0939230  27.3624659  73.1149864  10.6338584
  27.0126176  73.1652308  11.5234160  27.2645974  74.0019608  10.2875447
  40.0493622  76.9764233  27.4890351  39.2971706  77.0033503  28.0804014
  40.5855274  76.2541342  27.8162265  47.2185707  93.2406712  12.9938328
  46.5855503  93.7771034  13.4710765  46.7540598  92.9695892  12.2020173
   4.3603820  11.2038648  87.8841209   3.8973483  11.9742906  88.2131767
   4.5422298  11.4074302  86.9666672  27.9184389  95.9215164   3.8872379
  27.9336262  95.3926373   3.0895641  27.0696449  95.7294369   4.2858449
  30.4481220  88.2408524  23.9079118  30.6292820  87.3894978  24.3061638
  29.5009470  88.2439804  23.7697744  92.4742699  30.3734541  96.0314083
  93.2405853  29.8000479  96.0171509  92.4907970  30.7737374  96.9007397
  85.8992958  10.2031112  63.7627840  85.6305599   9.3438703  64.0879250
  86.5603447  10.4998517  64.3882322  92.0347595  46.2879372  90.7473373
  91.5652943  46.9480991  91.2572670  91.3526917  45.8466339  90.2411079
  96.6113949  11.3149083  95.4710770  97.2862053  11.6547453  96.0587502
  96.7011833  11.8387115  94.6749592  27.7596164  72.7689934  21.3318920
  28.1873822  72.0636177  21.8173790  27.2917080  72.3239517  20.6253290
  19.0055513  56.6823483  92.7566528  18.9560902  55.8834839  93.2816315
  18.4797454  57.3195744  93.2400894  35.1489019  64.8555851   7.4312627
  34.4470763  64.7357559   8.0710405  34.7297072  64.7026634   6.5844309
  46.3652468  79.8477125  17.3229802  47.2568655  79.8335266  16.9750524
  46.0928822  80.7621574  17.2466433  24.1360998  90.8642673   7.8601259
  23.5242462  90.2173615   8.2113838  24.8347473  90.9121990   8.5126799
  35.7980347  85.2476215  17.1509004  35.1220155  85.0366306  17.7948809
  35.4908013  84.8428154  16.3397455   2.5211760  30.6604528  92.0345497
   2.5936881  31.2865138  91.3141155   1.6037939  30.3874803  92.0232296
  10.9062600  97.2035885  15.4368031  10.7991731  97.8736496  14.7616887
  10.0928998  97.2386837  15.9402382  31.4498115  88.8583374  27.4864864
  32.2242141  88.4419918  27.8648806  30.8336854  88.9259243  28.2159042
 111.7389202  30.0611949  93.9462376 111.2913990  29.4553089  93.3555984
 111.8358326  30.8653069  93.4360981  32.3300600  80.8100414   6.0276246
  32.6368332  80.9089470   5.1263267  31.7967033  81.5889454   6.1859345
  48.5780239  63.6520052   0.4344504  48.6391735  64.2816639  -0.2838958
  48.7221003  62.8012323   0.0201312  35.6497335  74.6545839   7.7210301
  35.9386826  74.4502926   8.6104155  35.4821467  73.8009834   7.3216337
  50.0646877  66.7107105   2.7196589  50.8085537  66.2327862   2.3529401
  50.4519749  67.2889471   3.3768380   1.2401164  17.5045657  75.5035782
   1.5671606  18.2484865  74.9977589   0.5838270  17.0994389  74.9366665
  50.1684809  80.6268597  24.3471670  49.2841053  80.8479023  24.0551877
  50.2337170  79.6806049  24.2184019  31.7444468  73.1383562  57.2257662
  31.9092083  72.7172565  56.3821077  31.3659763  73.9879513  56.9995356
  57.8004885  83.5370541   3.0797216  56.9100285  83.3184052   3.3545011
  57.7507305  83.5886955   2.1252117  57.5767422  78.6249638   1.0580007
  56.7348528  78.2062960   0.8786336  57.6236248  79.3468380   0.4311566
  30.3729916  96.2355709  12.4247265  29.6208072  96.8105602  12.2838640
  30.0300455  95.5190468  12.9587805  43.2674122  91.2861347  17.7519643
  42.3158455  91.1932755  17.7057886  43.6038065  90.4175663  17.5313866
  26.7113137 101.2287426   1.1477401  27.1606231 101.9735336   1.5473025
  27.0606017 101.1878109   0.2574850   3.0545947  74.7227812  28.0627966
   3.6391085  74.8555231  27.3165035   2.7189663  75.5966663  28.2625604
  37.6565051  86.6534519  19.5268631  37.7188063  87.3651123  18.8897765
  38.5432029  86.5670395  19.8769116  49.5835972  80.8713245  38.2308793
  50.1220798  81.3003922  37.5659227  50.1642323  80.7789230  38.9862299
  36.7093062  83.7465763  44.3747091  36.4465189  83.9371872  45.2751780
  37.3599029  83.0493736  44.4575596  23.0307317  88.1781387  36.9258809
  23.2450891  88.2008934  37.8584933  23.3117890  89.0310955  36.5946460
 104.7766495   7.7843291  90.7250118 105.3023624   7.5368845  89.9643326
 103.9091110   7.9709417  90.3661346   4.5129785  77.3733282  86.8912983
   5.2178812  77.7889872  86.3947392   4.6105757  77.7170801  87.7792931
  33.1867003  99.1951466  12.8090942  33.3775592  99.7485638  12.0517707
  33.6657715  98.3839417  12.6397669  37.5185394  93.2547283   4.3013161
  38.0750394  94.0038681   4.0884194  37.3695159  93.3273125   5.2440548
  34.6491313  67.3114347  20.9249592  35.4767609  66.8520164  20.7828426
  34.3543506  67.5511932  20.0464082  53.6465311  80.9611416   4.5782393
  53.9551544  80.6989384   5.4455537  52.7375984  80.6626415   4.5471007
  22.7414727   1.6058964  82.4747467  22.5490284   2.3491037  81.9030476
  22.6554918   0.8392610  81.9080830  80.0592327   2.1819510  16.9117117
  79.4598293   1.6809687  16.3585699  79.6906900   2.1085091  17.7920616
  26.3586092  96.9824028  36.7459536  26.7178178  96.3636875  37.3818755
  27.1248555  97.3244476  36.2854004  33.7042332  80.0684834   3.6378863
  33.6216617  79.1220188   3.5212055  34.5391178  80.1818752   4.0921348
  35.5042195  61.3141823  10.5496204  35.0468206  62.0384836  10.9767103
  36.0924363  61.7377424   9.9244589 104.0916443  15.9604990  76.7798042
 103.1534004  16.1483836  76.8048573 104.5054913  16.7653692  77.0914793
  86.2602711  11.1327767  22.4325395  86.0209274  11.8467641  21.8416357
  87.2164822  11.1047077  22.3992991 117.1079254   3.6458820  88.3816051
 117.3876190   3.2844973  89.2226791 117.5461006   3.0999717  87.7287579
  21.3161421  78.2668686  14.2024267  21.9552469  78.0948210  13.5109234
  21.7973781  78.1166601  15.0161099  11.4103806  88.4134007  19.4566178
  10.7985210  88.2710648  20.1788354  12.1515095  88.8682556  19.8567033
  20.0421166  96.9970322   6.3276762  20.9255362  97.3533726   6.4215821
  19.4798303  97.7678585   6.2509263  32.9810953 105.4406071   8.6653864
  33.7172437 105.9963894   8.9211714  32.5183773 105.9479237   7.9984832
  18.4951234  80.2712822  12.2122693  18.7699831  80.5674362  11.3445258
  18.7062371  79.3377399  12.2247362 115.8088398   0.1006360  86.9735813
 115.1522064   0.2911033  86.3036728 116.5634727   0.6359981  86.7283440
  55.0716782  59.9502897  24.3101740  55.3502226  59.7162962  25.1955509
  55.6631851  59.4632816  23.7364340  58.9349890 104.0226936  27.1360230
  59.5838356 104.1094208  26.4376616  59.4109488 104.2500877  27.9347610
  60.0771332  71.9983101   5.9058028  59.2902136  72.5432014   5.8965969
  59.8678017  71.2854481   6.5093267  54.1214895  78.9172316  35.2310228
  54.4984055  79.7542095  34.9596715  54.7431660  78.5709000  35.8711839
   6.5519875  48.4255552  96.4287567   7.2081542  48.5998964  97.1035004
   6.4534432  47.4734449  96.4308167  88.0854225  16.0012090  92.9086018
  87.4474144  15.6844389  93.5480022  88.7135315  15.2841818  92.8215599
  34.7533679  75.1230764   0.3850205  34.6892905  75.5205965   1.2534106
  34.6349406  74.1861534   0.5411708 105.8084202  38.5361719  66.3842964
 106.5152836  38.9198709  65.8653069 105.3090668  38.0118132  65.7582569
  73.5084438  10.4291964  13.7289190  72.9538202  10.3376031  14.5036685
  73.2693720   9.6867460  13.1740820  94.2810154  20.2705121  66.7436934
  94.2913055  21.2258935  66.6856146  93.3906937  20.0248551  66.4922714
  51.3318777  82.0105648  33.5590839  51.6438770  81.4068890  32.8849363
  50.8359385  82.6723289  33.0770588  68.5163641 103.1702805   0.7090703
  68.4801674 102.2761631   1.0488967  67.6627207 103.5442352   0.9274191
  30.6836987 108.9153576   7.4251717  31.5911317 109.0939045   7.6719856
  30.7017779 108.8601875   6.4697349  19.0820062  85.9355831  39.6399736
  18.8606071  86.8666458  39.6213055  19.3140686  85.7263947  38.7352014
 110.7984066  42.3559904  91.0861111 111.1575222  42.3576021  91.9733906
 109.8497295  42.3345804  91.2117290  53.0300570  85.7307816  25.5109310
  52.6623821  86.5263367  25.8958292  53.0509567  85.9073162  24.5703816
  57.3077726  97.3902798  17.3316407  57.5741100  96.6975403  17.9361284
  56.9140673  96.9255352  16.5932405  39.2453647  82.8145027  14.5761478
  39.2138648  83.6111069  14.0463793  38.4545422  82.8531551  15.1140463
  44.1519737 106.1026192   0.4209543  43.9079952 105.5383301   1.1546312
  44.7432137 105.5663776  -0.1073526  34.0104985 105.7105255  13.0468178
  33.8608932 106.1921406  13.8603890  33.5792685 106.2372684  12.3739040
  48.0255413  89.7950649  26.9794703  48.9379930  90.0165844  27.1654415
  48.0758667  89.1256714  26.2971115  80.3512764   5.1636773   8.1812632
  79.7288227   5.8905566   8.2020444  80.0900459   4.6036720   8.9122790
  93.7088108   8.4713447   6.7557830  93.3049488   7.6324224   6.9779009
  92.9706669   9.0470839   6.5560305  42.9959059  89.9112034  36.1780500
  42.6167917  89.8504066  35.3012323  43.9097118  90.1532078  36.0276270
  44.5049524 100.7653522  28.2564259  43.8568163 101.1707497  28.8324547
  45.0348330 100.2203655  28.8381863  48.6093378  73.9860392   9.4445813
  48.3041859  74.1125488  10.3429747  48.4841537  74.8381472   9.0268791
  18.8145447  71.4379358  45.6045055  17.8727388  71.4034033  45.7719612
  19.1390944  72.1133709  46.2000656  52.6001358 109.5982265   0.0728988
  52.2137880 110.3538036   0.5156977  53.1800652 109.2080784   0.7268828
  54.3216324  94.2435551  32.2489882  55.1953459  93.9953899  31.9468808
  54.3153572  95.1996899  32.2042894  26.9481373 101.6286850  19.5645165
  26.7759585 102.5493717  19.3672383  27.6598120 101.6498470  20.2042842
  42.2707748  90.4374027   7.8201163  42.0769787  90.7489014   8.7042212
  41.4291143  90.1279640   7.4853331  93.0416584  44.5540810  83.5882187
  92.6948929  45.3779602  83.2458591  93.6233425  44.8170280  84.3014717
  64.3370390 100.4660225   3.1135672  64.9328661  99.7224426   3.0223468
  64.9109221 101.2318802   3.1323683  57.9393148  12.8835762  24.0423942
  57.8033161  12.7730477  24.9834156  57.1058607  13.2250917  23.7184262
  34.3738866  77.9037809  23.6875916  34.8883653  77.2753096  23.1810665
  34.9940968  78.5988283  23.9077735  30.9342957  94.6352100  15.5409467
  31.5699291  94.6395111  16.2566161  30.1645160  95.0751686  15.9016514
  44.3700075  92.1605968   7.7813584  44.5945358  92.4415016   6.8942767
  43.8733768  91.3516808   7.6579493  56.2942410  92.3476219   4.2003739
  56.9106150  91.8028355   4.6897826  55.7652187  92.7750111   4.8739484
  42.2891665  88.6534786  12.5355184  42.9833031  89.3125534  12.5298893
  41.4951420  89.1400051  12.3140275 100.9613609  43.0251026  81.1505985
 101.0439491  42.6626778  82.0326710 101.5156651  43.8054228  81.1594009
  45.1039362 108.5608482  12.2843301  44.2982960 109.0737724  12.2204065
  45.1923895 108.1458759  11.4263046  53.1226444  92.6655865   5.8608949
  53.1706095  91.7617035   6.1722112  52.3724937  93.0388260   6.3237172
 112.6458836  39.0026188  93.9086056 112.9904842  39.7583747  93.4328842
 111.7305851  39.2243385  94.0797424  64.3757200  87.7562714  15.7722533
  63.8448286  87.9093456  14.9906158  64.7726297  88.6062908  15.9624398
  44.5870686 101.4744091  23.5096312  44.7521067 101.8410778  24.3782806
  43.8444471 101.9769573  23.1746697 111.7356014   8.2527387   2.7394047
 112.1350098   7.8931183   3.5314792 112.1527290   9.1069698   2.6274687
  58.9294767  87.7665520  39.1881084  59.0054846  87.0244122  38.5883617
  58.0870676  88.1653690  38.9701033  17.5830436  43.8266706  87.4845886
  18.4022689  43.3786345  87.6952267  17.0771420  43.7950802  88.2965565
  31.5827227  90.1089096  10.8627009  31.1950803  89.8980999  11.7121279
  30.8356237  90.1729107  10.2677393  18.2133579  98.4760284  18.1752503
  17.7979636  99.2249775  17.7477586  19.1510689  98.6131573  18.0406165
  45.8778858 109.1693115   1.3211463  46.2063980 108.2775211   1.2070539
  46.5147400 109.5867920   1.9011098  51.1324024  91.4062977   3.7266809
  51.4706230  91.4568520   4.6207073  50.3051615  90.9320068   3.8100198
  24.7787333 111.9438744  25.3779960  25.2783394 111.7259789  26.1648536
  25.1920438 111.4322758  24.6825314  91.4087486   6.1036623  17.3227787
  90.7658386   6.1535460  16.6153824  91.1425877   5.3400499  17.8349185
  17.4776804  88.3252716   7.5480074  17.3902571  88.4136963   6.5989178
  16.6074669  88.5319138   7.8889763  41.5340519 107.7159119  25.3698730
  42.3881531 108.1432533  25.4340863  40.9022236 108.4211922  25.5098748
  68.5281992 103.1540394  21.4383984  67.9557228 102.6339722  22.0023346
  68.0304003 103.9525604  21.2629318  36.3577127 104.4200230  24.6746683
  36.6636872 104.5573235  23.7781405  37.1538019 104.4432545  25.2056432
  31.8032789 102.3495674  27.4356437  31.8855262 102.5651646  28.3646154
  32.6257348 102.6473808  27.0469213  72.2275352   1.9546847  11.4053810
  71.8521118   2.5327456  10.7412016  71.5213442   1.3448384  11.6189575
  66.7221785  29.9467373   3.9234644  66.0533047  29.5893550   4.5075187
  67.5519562  29.7299981   4.3485862  42.3995781  92.6526451   5.7932937
  42.3681498  91.9045353   5.1969922  42.2471476  92.2750282   6.6595513
  77.6970530 102.2567558  10.5845213  78.1371164 101.9443035  11.3750601
  78.2958841 102.0320892   9.8723722  54.6545076  94.9417019   5.4066628
  54.4626617  95.5715561   4.7118884  53.9533424  94.2932606   5.3424007
  41.6453743 104.0870857  14.0917242  42.5294733 104.2438221  14.4234383
  41.0991812 104.0441418  14.8766172  33.3257222  90.4034519  18.5712874
  33.3468080  91.1358261  17.9553211  33.0092859  89.6635723  18.0529451
 103.8619614  48.1736946  88.1417370 103.3034420  48.9197254  88.3601952
 104.6690655  48.3267546  88.6330414  22.1033669  39.9871683  77.4304485
  22.6189661  40.6622839  77.8715944  21.2971210  40.4330063  77.1707773
  36.7609096 101.3706493  15.8584452  36.0543847 101.0313988  16.4079571
  37.0592761 100.6121349  15.3565764 112.8342724 109.8790741  26.6996026
 112.6196957 109.0500164  26.2719917 113.4838772 109.6454716  27.3626828
   3.8879582  43.3647203  96.1066437   4.2208076  44.2464352  95.9392452
   3.1849825  43.4910679  96.7438984  51.5588140   1.6123389   4.6351179
  52.3474789   1.5979561   5.1773673  51.0559320   0.8506579   4.9235293
  54.5087862  95.5894470  24.1733742  53.9403296  94.8363590  24.0122652
  54.7251987  95.9172630  23.3004856  76.0110283  20.2173495   8.1953835
  75.8534050  19.3394685   8.5428190  76.0080814  20.7842660   8.9666355
  76.1605978   4.5065323  20.9585094  76.9953442   4.0850970  20.7540107
  76.3383245   5.4433280  20.8744884  21.0619807  36.7366123  90.1174450
  20.3409600  36.9708753  90.7018089  20.6979990  36.8329430  89.2374039
  98.1665802  48.2702208  96.7477894  97.4785900  48.7041855  97.2523499
  98.6202526  47.7194023  97.3857594  63.2091904  92.3203182   5.1344573
  62.8553915  92.9008770   5.8082628  62.8012657  92.6198101   4.3219718
  61.2169838  79.9745083  18.9987063  62.1249914  80.0090885  18.6977887
  61.2619209  80.2157974  19.9239039  62.8671217  90.6586170  10.3991520
  62.6627731  91.0144901  11.2639213  63.0672693  89.7366333  10.5607569
  41.3974524 109.3412113   4.0049213  41.9680071 109.3170643   3.2367289
  41.4791632 110.2356243   4.3359387  32.6975942  99.6406841  15.6709337
  32.6695442  99.4247437  14.7388315  32.6069713 100.5931664  15.6989563
  42.6898813  91.6207504  10.7383430  43.2867002  92.2323418  10.3070712
  43.2463837  91.1282635  11.3416612  14.9298191  66.1013174  94.6813202
  14.8738027  65.1458359  94.6690464  15.8655965  66.2873888  94.6043110
   4.9589071  46.9798708  94.1452312   4.0561998  46.7301273  94.3426609
   5.4854339  46.5002632  94.7847462  37.5729680  80.4637337   2.7624923
  38.2610345  79.8055696   2.8605404  37.3100042  80.4003716   1.8443048
   2.1256930  42.3094702  94.1563320   2.3894621  41.7925453  93.3951092
   2.9207098  42.3806667  94.6846390  28.6173749  95.8255100  15.8633304
  28.2926369  95.5778313  14.9976313  28.2556152  96.6988087  16.0140073
  54.0557766  19.3069172  33.7494922  54.3673468  19.4918180  34.6354771
  54.6581030  18.6409736  33.4178925  42.4447584 107.4830151  22.2825980
  42.3805141 107.8850555  23.1488943  42.6602983 106.5672302  22.4589467
  42.2433615  95.5836296  17.7013910  42.9844427  96.1609936  17.5178814
  41.8060637  95.9862995  18.4516311  30.6384563 104.4974995   5.7507670
  30.2455854 104.9067116   4.9797755  29.8953104 104.2934704   6.3185161
  92.1649933  71.2275171  95.6052399  92.7258205  70.4528952  95.5643940
  92.6312637  71.8880701  95.0928974   8.2952684  35.7913804  91.3180637
   7.5268775  35.2336431  91.4394474   8.7519395  35.7562184  92.1585655
  40.3172874 107.9304790  15.5324495  39.7949767 107.4354076  14.9013150
  41.1509180 108.0818653  15.0870574  95.7668209  75.8025599  11.1744559
  96.2065125  74.9709368  11.3513970  95.2677250  75.9838104  11.9708729
  98.5851860   9.2958629  17.9110003  98.7050915   9.6032590  17.0124674
  98.1298447   8.4589386  17.8190696  63.0253649 100.2669048  21.6063356
  63.1204796 100.0180912  22.5257254  63.3878088 101.1515522  21.5588808
  26.4034700  24.3474984  90.0244617  25.7520700  24.0424895  89.3929005
  26.2959790  23.7676072  90.7783890  23.8220048  50.5724144  90.1846027
  23.6069322  51.3747454  89.7089577  23.4660983  50.7115412  91.0622215
  12.5049269  55.2498913  90.7677078  12.6320076  54.9111700  89.8815060
  13.0557263  56.0317755  90.8065414   8.3835912  44.7520876  90.2035427
   9.0052891  44.0525770  90.4045677   7.5516611  44.3000317  90.0629330
  84.7474766  94.6380711  23.6070251  85.3973770  95.2470684  23.2563233
  85.2470970  94.0611267  24.1847324  47.5822783  97.0353889  26.3991022
  47.1633720  97.0680714  25.5390549  46.9679928  96.5460014  26.9462705
  48.3396721  89.9867535   1.8522328  49.0768909  89.7425175   1.2926883
  47.5687551  89.6582317   1.3896459  28.2792234   7.2135854  91.8632793
  28.0425858   8.0848765  92.1812248  29.1058707   7.0145482  92.3029041
  53.4074211  77.4895525  12.2294009  53.7874508  78.2098770  11.7264700
  54.1104937  77.2095728  12.8155136  34.2620730  91.9035625   6.9338435
  34.3590426  91.5654945   7.8240907  34.7825432  91.3088512   6.3937879
  42.9720354 109.0430737  15.3782976  43.3043432 109.9123096  15.1541793
  43.4574842 108.7967300  16.1656284  50.0775433 105.7272720  32.6028299
  49.2715979 105.6415653  33.1120849  49.9546909 105.1375198  31.8589616
  44.1337156 107.4958038  17.3876846  43.9738512 106.6118336  17.0571220
  43.4834051 107.6138401  18.0800653  37.2725034  92.6245975  34.8066378
  37.0111704  93.5148144  35.0421429  36.4632511  92.2078133  34.5106220
  45.5195761  96.7550945   3.7925020  44.6276426  97.0321369   4.0021110
  45.4102325  96.0889816   3.1138492  76.4291000  28.6729503  10.3599417
  77.3262882  28.3885813  10.5343378  76.1298704  28.1014156   9.6528065
  19.6319306 101.7784309  19.3740094  20.0093913 101.0807514  18.8382912
  20.3062224 101.9717312  20.0253129  15.6420171   3.9700183  85.2480221
  14.8138285   4.2089319  85.6642628  16.2177360   4.7164282  85.4143047
  63.9135725   0.3773474  20.9766173  64.3617279   0.8078265  20.2485538
  63.0491979   0.1572203  20.6292963  85.0280476  18.6019361   9.7213894
  84.6939754  17.9650784  10.3530836  85.7981491  18.1800282   9.3403721
 109.7474575  13.7207472  13.5632658 109.5171452  14.2848980  14.3014562
 108.9634418  13.1930220  13.4113979  66.5275288  91.6840649   1.7042282
  67.1065235  91.1214447   1.1899735  65.6558228  91.5256214   1.3419327
  13.1246257  68.4486008  88.4758377  14.0139127  68.5937119  88.1528187
  13.0006492  67.5011873  88.4186649  50.6855536  80.1348305   4.0236148
  50.6353903  79.5075178   3.3023676  50.3902483  79.6429539   4.7898307
  71.7345047  12.4029756  33.5729337  70.8059120  12.3839724  33.3414435
  71.9687700  11.4834940  33.6990547  74.9520588  13.0828416  16.8718266
  75.7654667  12.5821292  16.8095362  74.7121334  13.2640088  15.9630656
  11.7271578  33.4559131   1.7938654  12.6252842  33.7784290   1.7191374
  11.7547214  32.5794053   1.4101940  37.6429224  61.0100460   1.8250901
  38.5003138  61.0776901   1.4049277  37.4829960  60.0687361   1.8928337
  35.1334810  48.8273430  27.7798104  35.5594039  48.7727737  26.9243312
  34.3980289  49.4246435  27.6435399 106.8143272   5.6093985  69.8366451
 106.3211727   4.9864703  69.3027973 106.2493229   6.3803118  69.8884821
  98.7213516   4.1814047  83.0608177  99.5353603   3.6780438  83.0763340
  98.9575195   5.0303108  83.4347343   6.4298958  48.0106783   1.0217175
   6.6777688  47.3316193   1.6491476   7.2604847  48.3091450   0.6512184
  28.2454729  63.6238098   8.1998873  28.0184650  63.7160683   9.1251910
  27.7339625  64.3021917   7.7589911  31.8701363  81.5580368   2.0455563
  31.3009596  81.6431808   2.8104225  32.5992727  81.0169888   2.3486353
 106.0143852  21.7492080  85.6731606 106.9527340  21.9254088  85.7416725
 105.7200718  22.2980571  84.9462700  70.7299137 103.5040760  64.7755146
  71.0236311 103.6427689  63.8751078  71.5359020 103.4959412  65.2918005
  18.3399415   3.3722153  75.4640532  17.8867531   2.7968428  74.8477793
  19.2454767   3.3892125  75.1542950  16.3304901  78.2947445  24.0570259
  16.4733219  77.4052954  24.3806100  16.9338465  78.8350058  24.5672369
 111.7176437   1.6143297  84.0606403 111.5623569   1.6149887  83.1161213
 111.7621708   2.5408974  84.2966938 112.6404762  16.2976372  90.4558754
 112.5681210  15.3505599  90.5743694 112.2251606  16.6688347  91.2343121
  16.8880296  58.8000107  28.7331963  17.8214848  58.6136818  28.8340688
  16.4981270  58.5266495  29.5635462  22.2519660  73.5579014  26.0137558
  22.0746589  73.3133984  25.1054549  22.6301932  74.4353151  25.9561372
  30.0736237  21.7447591  87.7825260  29.5852399  22.2183156  87.1091270
  29.8976040  20.8214879  87.6013565  94.7208595  12.5247610  89.2967319
  93.7809753  12.5291026  89.4779205  94.8433590  11.7994130  88.6842823
  22.7196598  19.8909605  79.3302965  22.6018095  20.8399343  79.3726254
  22.5585961  19.6702862  78.4129143  96.0286427  25.5782485  65.5392218
  96.0617447  26.2917852  64.9020386  95.7710934  26.0006452  66.3586569
  38.4360385  51.4328861  12.3670161  38.3993554  52.2445297  12.8731060
  38.4179282  51.7190456  11.4537716   2.7332136  26.1961627  67.3593760
   2.4862805  25.9606314  66.4650726   1.9808093  26.6833591  67.6951742
  78.0685520 110.0146770  90.2082920  77.9339790 110.2008057  89.2790508
  77.1857834 109.8979187  90.5594635 104.6869659  30.8274794  74.4236946
 105.4934311  30.8356786  73.9081621 103.9916420  30.6984091  73.7786341
  20.1653385  35.5617809  17.3115134  19.3285429  36.0195327  17.2310948
  20.5244756  35.5615854  16.4242399  40.9074354  75.4566479  17.8486454
  41.8643665  75.4575300  17.8713942  40.6811762  76.1772346  17.2605991
 114.0822315  24.1189742  63.6215401 113.4356499  24.8231006  63.5727835
 114.9267101  24.5695138  63.6313343 114.3896675   1.1925835  84.4868088
 114.4994926   2.1337783  84.3514538 113.4425163   1.0682495  84.5474720
  83.2857895  99.3130970  86.4288807  83.0685616  99.7220135  87.2666359
  83.1617069 100.0089359  85.7834053  30.8680415  61.7816114  19.8061001
  30.8101130  61.2583542  20.6055212  30.0111723  62.2017956  19.7322559
  33.2237601  57.2008705   7.0562732  32.4562049  56.6290092   7.0480049
  33.3527803  57.4418640   6.1389363  47.7993155  61.9332504  13.0584204
  47.7821589  62.6299095  12.4022198  48.5303545  61.3742113  12.7951777
  30.0150943  46.0688591  17.9704380  29.3553162  46.1401224  18.6602557
  29.7335935  46.6957283  17.3040867  48.2574177  38.3343959   7.5939298
  48.2650328  37.5996995   6.9804192  47.3387432  38.4258246   7.8467286
  50.0724554  71.9848919   4.7899398  50.9177017  72.4046564   4.6299970
  49.4906521  72.3579216   4.1276821 112.5270176  36.9953227  91.3160992
 112.2011662  37.1169138  92.2078800 112.0370293  36.2437725  90.9824562
  48.8068724  79.7513866  16.0970986  49.4416475  79.2579937  15.5776250
  49.1640663  80.6387520  16.1320949  43.4406042  68.6168051   2.4078053
  43.4565735  67.8052902   2.9151720  43.0851316  69.2694712   3.0110461
 114.0478706  25.2329206  83.0421543 113.6492157  24.4141817  82.7472305
 114.3129158  25.6745124  82.2353172  22.5450230  68.2502985   2.3281102
  23.4277105  68.4257412   2.0020476  22.0135260  68.9646530   1.9767645
 101.7574215  13.5674691  91.9723225 102.2568130  12.9413819  91.4480591
 101.2295055  14.0471005  91.3339710  92.1120834 107.0207310  86.4187527
  93.0670452 106.9553089  86.4156628  91.8102837 106.1275482  86.2533188
  25.9515190  80.2786541  16.0231483  26.7864919  80.7299995  16.1469722
  25.3007770  80.8713531  16.3992786  88.6085987 108.3108521  88.3093166
  88.9421368 107.4327850  88.4936523  87.7455330 108.1629467  87.9227066
  27.7946067  80.1249790   2.5807521  28.1879497  80.8387470   3.0828050
  28.5210919  79.7575140   2.0773467 119.0406513  26.1045027  90.8856201
 118.2655048  26.6660881  90.8865833 119.6064472  26.4760518  91.5624142
   6.9977564  25.9199572  72.7859259   6.5437311  25.6729579  73.5915804
   6.3101846  25.9409380  72.1203136 105.0744247   9.5237333  86.1651516
 105.9215927   9.9693066  86.1681461 104.4313145  10.2317011  86.2027836
  22.2346425  32.1507764  90.5925560  21.4097595  32.4370503  90.2003288
  22.6052904  32.9450393  90.9772682   1.3869651  56.0752249  20.2033496
   2.0985723  56.4771271  20.7016683   1.0363686  56.7879200  19.6691406
  10.7297289  69.3129873  11.2024415  10.4487288  70.1687479  11.5263867
  10.0956595  68.6975622  11.5704656   3.7318239  10.0350261  94.9014187
   4.4587985   9.4713610  95.1660347   3.5632479  10.5838859  95.6672955
 118.0542088  22.7874494  80.8164215 118.6646843  22.5281334  80.1262760
 118.0619335  23.7443972  80.7958889  19.0803659  12.7422214  94.3893242
  18.1284833  12.6417816  94.3814468  19.3821001  12.1137440  95.0452232
   0.5073498  12.7973866  96.1785030   0.2729088  12.8171051  95.2506638
   0.3295426  11.8973053  96.4513874  48.0204678  76.4629602   8.6750716
  47.7599716  77.3056602   9.0468657  47.3870897  76.3038731   7.9752463
   8.1886822  28.3876324  81.9600296   9.0642434  28.1270671  81.6741467
   7.6857692  28.4669185  81.1494541  53.6566496  88.4179878  95.5921745
  53.9928246  87.6742840  96.0923004  54.4046831  89.0096378  95.5107594
  87.4508286 105.3085423  95.7760620  88.0435085 105.3441429  95.0252628
  88.0081367 105.4997730  96.5304279  18.2210672  76.6322708   5.3264910
  17.8591669  77.0323372   4.5357904  18.9477146  76.0945320   5.0117749
  92.0983505 104.3698978  79.0103626  91.2004662 104.3763733  79.3420029
  92.0396614 103.9172268  78.1690121  37.6751304  82.8792953   3.6376885
  36.8406963  83.3455181   3.5868210  37.4903178  82.0163345   3.2670337
  80.3662300  96.5646076  93.4446716  79.9363518  97.0874691  92.7678680
  79.6466446  96.1456203  93.9167786   4.3478286   7.8794575  90.3136730
   4.9276301   7.1853513  90.6271648   3.4653747   7.5391406  90.4609489
  98.1817818 101.6778564  79.2828321  98.0396748 102.0751953  80.1419926
  98.2120895 102.4192429  78.6781311 105.7014847  90.4408646  78.7308884
 106.1661243  91.1571026  78.2980633 104.8698235  90.3765678  78.2613707
  17.0693469  40.1993322  85.9513855  17.1003604  40.9515858  85.3603077
  16.5294707  40.4933310  86.6850948   7.8403944  82.7332020   4.7843668
   7.3142248  83.3263493   4.2481288   8.7256163  82.8101635   4.4284302
  98.8695431  13.3992505  78.6885881  99.5005608  12.9697490  78.1110191
  98.0147934  13.1445909  78.3410549   3.7381712  62.4152088   2.7225363
   2.9443315  62.0242119   3.0874628   3.7562689  63.3016014   3.0833864
  42.3133898  68.4238958   8.5050875  42.9470921  68.8188791   7.9062206
  42.6382208  67.5344324   8.6449927   5.1280165  21.7174530  64.7271967
   4.7642148  21.8580461  65.6013298   6.0364395  22.0112228  64.7957468
  38.1131101  63.6666727   3.0184108  37.7721906  64.3836308   2.4836460
  38.7261820  63.2092237   2.4429817  21.5511370  56.8713808   8.1197077
  21.4155936  56.5077019   7.2447222  20.8468246  57.5109863   8.2249856
  37.1229577  64.1172552  15.2006614  38.0597687  64.1710138  15.0116384
  36.8155479  63.3758116  14.6791351   8.7622881  76.4297628   8.4373349
   8.8403547  76.4072657   9.3910807   8.3983058  75.5750656   8.2065880
  59.1344452  92.4832153  86.8346024  58.4756136  93.1765842  86.8722153
  59.0059233  92.0769405  85.9774876 113.3997440  15.4235649  70.1278496
 113.3179379  15.6655610  69.2053652 112.6327991  14.8776782  70.3011799
   5.3113496  12.4321461  85.4973316   6.2499237  12.6196766  85.4853535
   4.9009457  13.2757854  85.6872559  18.0417287  72.3500299  11.2221289
  18.5244381  71.7073488  10.7023370  17.6357698  72.9258871  10.5741930
  43.3227682  70.6378365  12.6899290  43.3362627  71.0648155  11.8333435
  44.2159319  70.3156137  12.8110242 108.8199711  23.3368063  84.0246964
 109.6207809  23.6966467  83.6433029 108.9968872  23.3023381  84.9647713
   3.9929977   6.8297035  70.1824522   4.4026193   7.4410951  69.5703745
   3.6088818   7.3884630  70.8580828   7.7482939   3.1887454  92.6353645
   8.2974416   3.5701093  93.3203697   8.0771816   3.5733756  91.8228817
  32.3671031  69.6375179  16.0097027  31.9789171  70.2957678  15.4332900
  31.6214085  69.1301060  16.3301730  47.5861168  72.8324795  18.9694345
  48.3519602  73.3262444  19.2625451  46.9491959  72.9363966  19.6763730
 110.6908894  11.3619578  93.5224724 110.4407406  10.9718847  94.3600368
 110.8632374  10.6132579  92.9515362   2.7150258  11.3499701  73.4346676
   1.9424209  11.6154253  73.9335155   3.4532064  11.7075288  73.9280987
  41.1588526  49.7509384   7.0781440  41.5210915  49.9987078   7.9288048
  41.7016220  50.2165651   6.4418840  43.7167454  56.8668032  17.0601463
  44.1087103  56.3627720  16.3470173  44.1755962  57.7066183  17.0402646
  25.0537872   0.6423389  77.4303150  25.2662754  -0.2727725  77.6137590
  25.4237556   0.8048298  76.5625906  19.6248031  11.5595067  75.7277441
  20.4811358  11.9797468  75.6482029  19.7258091  10.7223833  75.2746964
   8.5123974  33.8179588  89.1184902   8.9110255  34.5024586  89.6558762
   8.6727327  34.0973091  88.2171059   6.3406909  55.6213093   3.0395594
   7.0508307  55.1537514   2.5998721   6.7711937  56.0983181   3.7490377
  13.7635231  14.8032439  89.5089912  14.6859670  14.9423409  89.7234249
  13.5715628  13.9242721  89.8357868  97.2594643 103.4052467  88.9724445
  96.8280888 104.2597008  88.9801502  98.1131554 103.5715294  88.5726929
   4.2546457 111.5944672  95.4289436   4.3458688 110.8680725  94.8122787
   3.3757579 111.9372845  95.2668762  80.8017063 101.4699364  96.1311913
  80.9006691 101.4521599  95.1792908  81.5677834 101.9519329  96.4426804
   2.9790244  10.8051288  80.3675652   3.8996425  11.0081601  80.2018166
   2.5596794  10.8774436  79.5101547   4.2285559  14.0749013  91.1269474
   3.6497107  13.3679986  91.4123535   4.8208809  14.2126405  91.8661499
  33.4356546  52.0715904   3.1752840  34.0786242  52.6132536   3.6329174
  32.8682947  51.7355919   3.8691410  87.5213337   2.3467229  77.7607536
  87.7733135   3.2573962  77.6077318  87.0610905   2.0881508  76.9622898
  44.8356628  60.5449629   5.5245793  45.0352812  60.1086903   4.6962982
  45.6516647  60.9823179   5.7676667  85.1453590 107.1202850  95.9025002
  85.9240150 106.6157913  95.6670952  84.4123459 106.5427780  95.6894016
 113.7384987  49.3681622  94.7788525 114.0658474  48.7126780  94.1628838
 113.9446926  50.2074909  94.3674564  27.7993703  90.5889130   2.9486421
  28.2010722  91.4573193   2.9757982  27.0476222  90.6908989   2.3649439
  78.0472326 109.3573856  70.1566410  77.4302769 109.3535423  69.4248009
  77.7755070 108.6197853  70.7028484   6.5374011  20.1359344  96.6202545
   7.4240029  19.7769928  96.5837955   6.0128438  19.5324266  96.0940933
  86.3777924 108.4100056  86.7515945  86.1202240 109.3302345  86.8069077
  85.6934643 108.0011845  86.2216854   4.9918395  55.6444359   0.6037818
   5.7134712  55.4270029   1.1938705   4.2097357  55.5947161   1.1533943
  37.6554418  78.7056208  17.1771240  38.2633209  79.2725992  16.7025208
  37.0098186  79.3057823  17.5502336 109.6156406   7.8930151  95.5389500
 108.6983013   7.8507793  95.8090210 109.8668861   8.8048661  95.6860542
  14.4445097  42.1488047  21.0662699  14.8664129  41.4592791  20.5536461
  15.0973618  42.8473759  21.1111736  26.6550159  33.0494976  58.9368534
  27.2331262  32.3093438  59.1217709  27.2489238  33.7807441  58.7671995
  59.2567968  94.2452812   1.1678147  58.3629751  94.3925858   1.4770307
  59.1703224  94.1566372   0.2186592  82.6244545  74.4110775  31.0583854
  81.8333244  74.8979807  30.8275604  82.5160980  73.5615158  30.6309009
  12.7921343  77.5586319  15.8929646  12.2063291  78.2421064  15.5675066
  13.4529269  77.4629593  15.2070844  58.9656496  61.0257959  24.8158646
  58.0340099  60.8388090  24.7004867  59.3379068  60.2023649  25.1314926
  56.2763214  89.6686554  11.9525611  56.5187597  90.5564308  12.2158051
  56.8638039  89.1017914  12.4523270  62.4725389  74.2481565   2.6308677
  62.5474167  73.9885712   3.5491493  61.5338516  74.3759298   2.4938639
  13.2661164  31.5296245  91.6886425  14.1307855  31.3097978  92.0354271
  12.6918817  30.8403563  92.0224094 112.7955532  10.9279788  68.5277557
 112.3465061  11.0158491  69.3685150 112.1341991  11.1638296  67.8772020
   9.8408717  27.3777175  86.3713932  10.2216351  26.8713975  87.0889473
   9.8678190  26.7856050  85.6197929  19.5233524  72.2245502   2.8706980
  18.9338279  71.6282225   2.4090856  19.6271646  71.8345070   3.7386400
  72.7100849 111.2219524  89.0212345  73.0561447 112.0668316  88.7337208
  71.8280602 111.1859322  88.6511421  82.4492931  12.7846539  64.8041821
  82.2298622  12.2668278  64.0296268  83.3573914  13.0527020  64.6637011
  11.1310720  24.3105960  96.4887714  11.6849220  25.0096250  96.1411476
  11.3056171  23.5611963  95.9194088  39.6570826  72.9480362   5.9354216
  39.2379665  72.1804380   5.5463600  40.0987530  73.3770227   5.2025306
  62.0850897  70.5771160  14.0046453  62.7043581  71.3016415  13.9163375
  61.5161705  70.8353424  14.7298229  14.6245539  28.9112139  72.2446823
  14.4774508  29.7830987  72.6113033  15.5552137  28.7431264  72.3925066
  48.3181763  52.4806499   8.0928898  47.9832935  53.2946396   7.7167231
  47.5401735  51.9377518   8.2201958  18.3707511  74.9987984  12.3427641
  19.0843797  74.5169258  12.7608132  18.0911076  74.4348431  11.6216660
 106.1433601  38.9866805  93.7585068 106.1129856  39.9390459  93.6673450
 106.2739563  38.8397908  94.6953106 110.0865078  10.8171535  76.5544176
 109.4934940  11.5378189  76.7670441 110.9392738  11.2355781  76.4363575
  26.8433475 100.8975220  14.9545908  26.8919349 101.4118004  14.1487432
  27.7319026 100.9239960  15.3095567   5.7916409   9.9136776  82.3586559
   6.6198272   9.8162186  82.8285885   5.1200253   9.7436327  83.0191422
  12.4996328  52.9492950  92.2969246  12.6779866  53.7602091  91.8206501
  12.2136211  52.3333073  91.6223907  46.0383701  76.2241077   3.9590567
  46.9284916  76.5386724   3.8010657  45.5338097  76.5483618   3.2130611
  43.3474064  88.2361794  17.0002401  43.3125210  87.4992371  17.6101112
  44.2111397  88.1694603  16.5931189  19.4767487  22.1729779  92.6814365
  18.6071193  22.0142484  93.0485630  19.4629586  21.7302656  91.8328857
   8.2207078  67.6366949   6.5058035   8.5311252  68.4229708   6.9548476
   8.4816927  66.9152117   7.0781517  26.5867281  96.5447044   8.4050143
  25.8638954  96.6496754   9.0236640  26.4166069  97.1965790   7.7250493
  35.8742070  81.9499016  13.7257886  36.5696359  81.5774059  13.1836998
  36.1611390  81.7921066  14.6252346 104.0722370  22.0514250  93.4932518
 103.9391136  21.3130784  94.0876961 103.5949802  21.8090868  92.6996994
 108.7683773   0.3821880  80.3318977 108.0411530   0.9796421  80.1574802
 108.8893127   0.4226223  81.2805653  88.6047840 106.5888691  92.1924019
  88.9980412 106.4710140  93.0570984  89.3328190 106.8596840  91.6330719
  10.1305819  38.8872647  87.1576214  10.2015972  39.8418140  87.1624565
   9.5866799  38.6836982  87.9185104  54.7062874  66.5134954   4.2795452
  54.8780346  67.4304914   4.4936839  55.1201439  66.3852930   3.4260118
  10.8895731  15.2691782  77.9122591  10.3567636  14.7269654  77.3305798
  10.3652048  15.3529000  78.7086630   4.4601732  17.1634781  88.2967567
   3.8213259  17.0369768  88.9982510   5.2697289  17.3994029  88.7497330
  23.1324720  71.0260630  13.3397841  23.2541966  70.4930115  12.5541210
  22.2013640  70.9412146  13.5448992  18.1846535  84.4061756   9.3365306
  18.8108993  83.7706375   8.9899188  17.5959027  83.8876724   9.8849440
  18.1672192  12.4750161  90.8756638  18.3485305  11.6470385  90.4309082
  18.6866224  12.4343085  91.6786575  43.7688494  58.9230967   0.0438010
  43.8902617  59.7702980   0.4724556  44.5684052  58.7963200  -0.4669471
   0.7239595  36.9631362  91.6578102   0.0325673  37.5105262  92.0300674
   1.3489199  36.8469954  92.3734665  45.1355267  69.5449448  20.1547623
  44.7049952  69.8173285  20.9651208  44.6699429  68.7511873  19.8912990
 115.2262402  45.5309629  89.2038059 115.5066967  46.4403534  89.1009426
 115.7570457  45.0438690  88.5735512 113.2398224  39.0183067  86.2760544
 113.2865429  38.8339567  87.2141743 112.5607491  38.4280109  85.9494877
 109.9252510   9.7357160  83.7713242 108.9698029   9.6993732  83.8163090
 110.1587009  10.5204463  84.2672348  15.7433057  30.6878996  92.4377918
  16.0452771  30.4872394  93.3236694  16.1565149  30.0226045  91.8874550
  31.6016626  77.6446152   3.2519421  31.0815597  77.9137468   4.0091026
  31.0484314  77.8465366   2.4973583  54.6304226  55.0585508  14.6717131
  53.8152456  55.4092598  14.3129396  54.7364712  55.5086851  15.5097866
  62.0720720  55.2270126   6.7961425  61.9693422  56.0178804   6.2667930
  61.6906786  55.4550505   7.6439470  22.0642042  67.7755547  19.2750895
  22.7622700  67.5082588  19.8729944  21.9695926  67.0379829  18.6723757
 110.9634304   7.8926575  90.5039215 111.1365318   7.5138009  89.6421051
 110.3765392   7.2662210  90.9274483  96.9118118  15.4282713  92.8651333
  97.2033978  15.3004611  91.9624329  97.4661064  14.8427689  93.3810616
  35.8569264  84.4696331  11.7078781  36.7021084  84.4452667  12.1565509
  35.9990478  83.9727211  10.9022045 104.2042542  32.3296690  76.5504313
 104.3289566  31.7843390  75.7737112 105.0770760  32.6700568  76.7467451
  25.0167871  74.0432119   7.8011471  24.9893379  73.2859421   8.3859724
  25.4336596  74.7313356   8.3197308  44.6114540  72.3313475  36.0894489
  43.6744833  72.3167992  35.8942485  44.9998665  72.8191280  35.3631949
  10.2869940   4.3226162  87.6575184   9.7626489   4.2318979  86.8618679
  11.1657548   4.5341140  87.3424339  53.0215073  89.9166965   6.5608019
  53.8755655  89.5390034   6.7709488  52.4513769  89.1596603   6.4263254
  64.4003671 112.2458674  74.2939425  63.7815755 111.5156407  74.2839193
  64.0334504 112.8620465  74.9279165   9.2203188  31.4302516  81.4409542
   8.5999781  32.1101570  81.7038918   8.6783791  30.6546926  81.2959003
  18.8465834  77.7240133  12.7181637  18.5284829  76.9127417  12.3220837
  19.6592629  77.4734688  13.1574929 106.5742683   1.7721921  80.3223515
 106.3114357   2.6436692  80.6184578 105.7683945   1.2564409  80.3507137
  34.1757679  66.6218185   2.3211460  33.7993312  66.1726570   1.5643209
  33.6509633  67.4170208   2.4131650  32.3109984  83.5459042  11.9926298
  32.6969385  84.3706131  12.2878063  33.0596638  83.0144882  11.7218375
   3.6000589  37.4114203  70.4303598   4.0436706  37.2412920  69.5993948
   4.2820814  37.7730298  70.9963226  13.1276476  27.1816111  58.3414507
  12.1877897  27.3629880  58.3407354  13.5018921  27.8590894  58.9046526
   2.7885622  16.2170470  68.2123947   1.8974996  16.1178339  68.5476494
   2.8469038  17.1374178  67.9559851  27.2285295  27.7408791  85.1564789
  27.4477577  28.5724115  85.5768681  26.6525364  27.3009372  85.7817078
  16.5871346  32.0660901  77.4017668  17.1299410  31.5012240  77.9517841
  16.7351770  32.9476118  77.7441597  20.2324367  15.4864633  83.5147572
  19.9457204  15.2826583  82.6245403  20.2260470  14.6430898  83.9674282
  13.0752265  40.0996256  88.4999561  12.9094136  39.1569042  88.4963322
  12.2366405  40.4912519  88.2557583 112.4026489  34.0757895  95.1527882
 112.1231461  34.9004722  94.7552872 111.9255352  34.0355992  95.9816360
  14.5450950  29.8127270  76.5149784  15.4186666  30.0194168  76.8472147
  14.4085789  28.8960052  76.7541790  14.9471784   5.2551228  92.3864269
  15.7896042   5.4530245  91.9772911  15.1527572   4.5997098  93.0530548
   5.4026824  25.5877852  70.6164598   4.6291745  25.1570678  70.2525949
   5.6138337  26.2748647  69.9843454  49.2267418  87.5909710  21.4224005
  50.1370144  87.8690147  21.5240097  49.2771435  86.6413593  21.3131261
 101.0274982  23.1612110  87.7477837 101.4812088  23.9802766  87.5489902
 100.0981426  23.3878613  87.7138233  15.1081860  16.8216741  81.3375378
  14.8232627  17.6717150  81.0021591  14.2954206  16.3392055  81.4887714
  21.9181442  27.6226282  89.3630600  21.4518070  27.9459739  90.1339149
  22.7515459  28.0933571  89.3723679  24.8259187  14.1035402  81.3514233
  24.4229031  14.7568846  81.9232178  24.5340466  14.3425226  80.4716969
  17.8917258  13.3315095  97.0649743  18.1388658  14.2401513  96.8931540
  16.9358199  13.3480748  97.1119541  26.0061097  28.0116224  97.1925640
  25.4685998  28.5237241  96.5883541  25.7089067  27.1097517  97.0720100
 117.4709892  23.4888124  91.0278606 116.8210411  23.1306839  90.4232597
 117.8719330  24.2129421  90.5471134 114.8173523  12.5585139  82.7621841
 114.8573017  12.5957239  83.7178230 114.4299698  11.7041719  82.5717354
   2.2169240   3.1223297  83.4787464   1.8347308   3.3241019  84.3328190
   1.4881793   2.7708727  82.9672337  59.9048662  60.6784582   4.1104400
  59.8572683  61.2027884   3.3110368  60.7596016  60.2499485   4.0652740
   0.5872777  50.4586887  80.1234341   0.1144917  50.1057053  80.8771706
   1.4159982  50.7719660  80.4858112  33.5953403  60.6695318  21.0078788
  34.1210461  60.1668072  20.3856778  33.0912018  61.2733793  20.4624987
 116.9625854  18.8834393  85.4585934 116.3776493  18.5617185  84.7726059
 116.4770603  19.5972788  85.8720207 110.4618549  25.8022976  72.6803923
 109.9379921  25.0084829  72.7883625 109.9115086  26.5021181  73.0319548
  39.4175339  80.1651955  26.5022993  39.9701262  79.3926668  26.3836813
  39.5835829  80.6999397  25.7259560 108.6204720  32.4848723  74.8279810
 109.5192242  32.4659610  75.1567745 108.6161995  33.1921768  74.1830492
  53.4844255  71.1201191   9.7360021  52.9518843  71.3892746   8.9875472
  54.3873262  71.1979485   9.4278657  43.4096718  88.0410957   5.4711050
  43.6122608  87.1327305   5.6948483  44.2096233  88.5233879   5.6801528
  43.1692696  84.4308758   9.9296218  44.0590572  84.0781116   9.9218410
  42.8060961  84.1834927   9.0792459   4.6652874  31.5495801  86.4940643
   5.1437944  32.3318005  86.2194824   4.8907468  30.8887339  85.8393288
  49.1370201  91.3090324  12.6266253  48.3900595  91.8346405  12.9129934
  48.8612270  90.4034996  12.7687180  46.4087915  79.4424772  14.5325649
  47.3240423  79.3310165  14.7897029  45.9376860  79.5399904  15.3600812
  28.0046225 103.7790203   9.0315080  28.8878417 103.7430477   9.3987429
  27.6120901 104.5570564   9.4274908  27.0635796  25.6043696  74.8455620
  27.0210814  26.5356469  75.0626993  26.9373131  25.5735421  73.8972282
 104.5044422  19.8675537  81.6759109 104.4505501  19.6202302  82.5990295
 103.5946465  19.8840237  81.3788605  19.5997274  37.0105767  87.6894379
  18.6840701  37.2812653  87.6221275  19.8003459  36.6296530  86.8345261
  44.9717760 105.2103424   6.4745051  44.6750546 105.1097679   7.3789793
  44.4463253 105.9319210   6.1288905  62.8170061  41.9870186   4.0390736
  63.1062031  42.8671694   3.7983826  62.0974159  41.7982626   3.4367532
   6.8507504   7.0336336  92.3832893   6.3482016   6.2941712  92.0414257
   7.4342561   6.6456419  93.0353737  15.1991808  31.8634772  97.2733974
  15.2315247  32.1116400  96.3494873  14.6185887  32.5099802  97.6748657
  27.8918362  26.7611718  92.1378613  27.9999900  26.6884327  91.1895752
  27.6096487  27.6650143  92.2781181  32.6288772  57.7428341   9.9912012
  32.7337599  56.7998219   9.8648685  32.7770090  58.1186771   9.1234285
  39.7764301  89.0705776   7.2433597  39.2769551  88.4185314   6.7518336
  39.2888284  89.8855877   7.1241033  47.2929049  63.1258488  18.8104844
  46.7582703  63.4265137  19.5453310  48.1070614  62.8248882  19.2139745
 115.5765820  22.7232265  89.0489006 115.0454712  23.2062149  88.4157562
 114.9384880  22.2861838  89.6128750  42.4859095  79.2438126  13.1197786
  42.8677130  80.0247097  13.5206032  43.0742121  78.5325241  13.3731675
  21.7760324  21.1840487  82.8127480  22.3439789  20.4226518  82.6946545
  21.6994333  21.5637755  81.9374371  91.6243172 111.6512489  82.8133488
  91.3660717 111.4776134  81.9081402  92.5520325 111.8803883  82.7579880
   5.4918379   5.3156936  90.6916523   5.0229079   4.4813919  90.7082844
   6.1353457   5.2148086  89.9902534  24.6586275   7.0159179  77.4725819
  24.2358351   7.6496482  76.8930435  24.7419357   7.4743640  78.3087158
  22.1819329  98.9154053  10.3840971  21.9948602  99.7957516  10.0581706
  21.4536452  98.7183094  10.9731460 112.3020077  33.8995671  64.7710943
 112.5888824  34.7979808  64.9347782 112.9925919  33.3550262  65.1489925
  34.3627143  63.3313274  12.9283512  33.5592723  63.0490065  13.3653963
  34.9892306  62.6287079  13.1016636  94.1326809  85.8257008  77.2637272
  94.9885654  86.2510490  77.3163795  93.6225319  86.3856602  76.6785574
  78.2815742 100.4184723  71.3114214  78.9768314  99.7919083  71.5120649
  77.4710274  99.9244976  71.4348555  10.9970319   8.7914222  93.3113194
  10.5427992   7.9891914  93.5688591  11.5566003   8.5260540  92.5814533
  30.8995318  40.1940298  20.7048488  30.3266382  40.7025909  20.1309252
  30.3245544  39.5355511  21.0947704   8.6115479  11.5838325  64.8195457
   8.3111554  12.4339712  65.1408863   8.5678083  11.0096812  65.5841780
  26.5693593  31.2898970  79.2199659  25.8311725  31.8863559  79.0952682
  27.2987747  31.7137098  78.7676764  76.3333082 103.2475567  92.9659081
  75.6112576 103.1290436  93.5830307  76.3597345 104.1910267  92.8065205
  17.3072875  14.8964059  84.1027546  17.4843800  14.0172863  84.4374466
  17.7862072  15.4783297  84.6928596
 119.1644498 119.1644498 119.1644498 109.4712190 109.4712190 109.4712190
