default_name
129975
  85.4023576  86.2550552  75.2207950  85.4700708  87.0961039  75.7759103
  84.6806024  86.3820721  74.5257867  86.3313685  85.9764424  74.9389914
  84.9177039  85.1696530  76.0915060  83.9777666  84.7798601  75.7007650
  85.9184130  84.0417497  76.1547172  86.8620313  84.5165930  76.4234318
  85.6008188  83.3827578  76.9627788  86.1032965  83.2336110  74.8881534
  85.5634318  83.7773619  73.8924110  86.7035380  82.1515207  74.8768535
  84.4379817  85.5144820  77.5286579  85.1959677  85.9600569  78.3803741
  83.1405542  85.3666746  77.8476058  82.5087410  85.0575275  77.1228028
  82.5621487  85.8187784  79.1421089  83.4184366  85.9667302  79.8001213
  81.7704283  87.1136267  79.0771401  81.4620314  87.3852860  80.0866909
  82.6194395  88.2550470  78.4735836  82.9278385  87.9842920  77.4637908
  82.0275693  89.1697093  78.4392086  83.5026286  88.4174032  79.0914170
  80.6654549  87.0332568  78.2502836  80.2056155  87.8759563  78.2478995
  81.7735537  84.7310508  79.8566427  81.4187926  84.9574891  81.0125662
  81.5006736  83.6238442  79.2828796  81.6856594  83.5384892  78.2936404
  80.7277677  82.5401331  79.9532464  81.0011163  82.4428277  81.0039183
  79.2010186  82.9456114  79.8634834  79.0472819  83.8813185  80.4009929
  78.9273954  83.0792272  78.8168807  78.3890414  81.9291607  80.4395981
  77.4656955  82.1850328  80.3799186  81.0987628  81.1373863  79.4652196
  81.2225070  80.9306752  78.2520771  81.2523090  80.1538377  80.4090584
  80.9727139  80.4850619  81.3213173  81.9114366  78.7681261  80.3069972
  82.9805786  78.8686391  80.1200972  81.7062341  77.9870212  81.6772793
  82.0653370  78.7375524  82.3814434  80.6295037  77.8649071  81.7949219
  82.4057299  76.6495687  81.9547816  81.9027635  75.8935167  81.3518630
  83.8877281  76.6464342  81.6353688  84.3914766  77.4019676  82.2382831
  84.3061542  75.6652054  81.8594457  84.0325997  76.8698738  80.5783980
  82.1543069  76.2982786  83.3938305  81.0814460  76.2092526  83.5645448
  82.6386867  75.3500330  83.6268709  82.5601302  77.0803404  84.0355359
  81.4586788  77.9732908  79.0234178  82.2966028  77.5628359  78.2190744
  80.1629499  77.6335306  78.8095165  79.0509691  78.0313281  79.7271453
  79.3428283  78.9629425  80.2119268  78.9487884  77.2480184  80.4782007
  77.7627129  78.1880736  78.8480521  77.6640128  79.1598083  78.3642245
  76.8348359  77.9445318  79.3655781  78.1313831  77.0881342  77.8322050
  77.6295826  77.2928008  76.8864741  77.7529650  76.1548441  78.2491811
  79.6649846  76.9837803  77.6046493  80.0270746  75.9571505  77.6596070
  80.0681291  77.6022297  76.2361377  80.7518236  76.9323897  75.3798654
  79.8271539  78.9006224  76.0666312  79.4566411  79.4472680  76.8308290
  80.0842526  79.5807339  74.7773498  79.8293924  78.9401314  73.9330904
  79.2514321  80.9403087  74.6568001  79.8472624  81.6862873  75.1827302
  78.9189958  81.4465364  73.2718219  78.3227409  80.7012384  72.7454089
  78.3530428  82.3748186  73.3498503  79.8411477  81.6291047  72.7200925
  78.0397217  80.8214970  75.3396460  77.5468732  81.6416558  75.2619271
  81.5970911  79.8707314  74.7510572  82.1226696  80.3653965  73.7524528
  82.3996805  79.5330956  75.7572546  82.0090335  79.2464142  76.6434307
  83.8879862  79.6126713  75.6308631  84.1828672  80.5302083  75.1216773
  84.5114785  79.6136878  77.0609601  84.1475131  78.7244104  77.5755609
  85.5932826  79.5483262  76.9446505  84.1829954  80.7795584  77.8307481
  84.5951788  80.7185445  78.6956077  84.4719922  78.4546571  74.7990481
  85.6467017  78.5741297  74.3441133  83.6866307  77.3645091  74.4750687
  82.8525360  77.2021243  75.0209777  84.1557903  76.2807771  73.5581569
  83.5467441  75.3869207  73.6930008  84.0310654  76.7567979  72.0482768
  84.8143293  77.4438900  71.7281187  84.0606396  75.8594962  71.4301546
  82.6511095  77.4702620  71.7450531  81.3736844  76.9035230  71.9375526
  80.4393324  77.7715041  71.4995158  79.3742245  77.5689283  71.6117973
  81.0917051  78.8279585  70.9523513  80.6561848  79.5928189  70.4569621
  82.4302561  78.7010529  71.1729872  83.1070502  79.5100130  70.8979697
  85.5133669  75.6471130  73.9781288  86.3883369  75.2588165  73.1586659
  85.6463071  75.3394084  75.2521527  84.8177930  75.3629840  75.8293076
  86.9530154  75.0654358  75.9058432  87.7274817  75.7245656  75.5136072
  86.8472301  75.2805637  77.4184530  87.8020201  74.9850857  77.8533887
  86.5294316  76.7145083  77.8193086  85.5744910  77.0105615  77.3850959
  86.4712942  76.7842866  78.9055176  87.3146586  77.3767670  77.4547097
  85.8588905  74.4770402  77.9924910  85.8232290  74.6399311  78.9378984
  87.4834750  73.6999444  75.5878638  88.7217885  73.5547129  75.6799594
  86.7106749  72.7659222  75.1618209  85.7274015  72.8123783  75.3879061
  87.2016600  71.5913791  74.4826359  87.9289508  71.0769538  75.1107392
  86.0280679  70.6126062  74.1755557  86.3253111  69.8932375  73.4124998
  85.9359543  70.1055081  75.1360070  84.7220468  71.2135886  73.8064949
  83.7216059  71.4066025  74.7508729  83.9888249  71.1376057  75.7727996
  82.4249744  71.9143314  74.4655116  81.6079631  71.9827715  75.1837806
  82.2367756  72.3278069  73.1712890  81.1168326  72.8764880  72.7571563
  80.4578235  72.9533995  73.4509799  83.2484214  72.1976964  72.1911252
  83.0581524  72.4700669  71.1529959  84.5236380  71.7056183  72.5734115
  85.3506672  71.7255114  71.8636742  88.0057158  71.8898168  73.2316682
  88.9701472  71.1368347  73.0107244  87.6266105  72.8916867  72.3910013
  86.6875184  73.2540172  72.4741993  88.4361606  73.3016015  71.2207037
  88.7749908  72.3946444  70.7199823  87.6750646  74.2023896  70.1718936
  87.6161401  75.1507786  70.7059212  88.2878905  74.3262384  69.2790297
  86.2795645  73.7608521  69.7700666  85.6703623  73.6939015  70.6714496
  85.6499826  74.7081748  68.8172385  86.2584150  74.7753060  67.9153503
  84.6528646  74.3532890  68.5566382  85.5755215  75.6928221  69.2787856
  86.3126260  72.2829316  69.2051320  86.6917722  71.6083633  69.9727942
  85.3050538  71.9794257  68.9209071  86.9638562  72.2416285  68.3320386
  89.7859831  73.8673068  71.6271062  90.7385065  73.7930347  70.8176516
  89.9971695  74.4234944  72.8676092  89.2048019  74.2291559  73.4629960
  91.1276358  75.2103767  73.4318646  91.6645141  74.5605896  74.1229779
  91.7831095  75.4796824  72.6036569  90.7168232  76.4583068  74.1547156
  89.5361365  76.9530534  74.0404983  91.5629968  76.9036918  75.0505329
  92.3691102  76.3315403  75.2577117  91.3542908  78.1084588  75.8337566
  90.3194946  78.1206993  76.1760230  92.2726497  77.9496551  77.0536793
  93.3128136  77.9448141  76.7278948  92.1115691  78.7802133  77.7409394
  92.0465380  77.0110255  77.5595916  91.5713676  79.4308829  75.0848332
  90.7140376  80.3366040  75.1510189  92.6608391  79.5036970  74.3293864
  93.0260607  78.6088768  74.0361130  93.4251731  80.7142052  73.9899864
  92.8566191  81.6117807  74.2333045  94.7331026  80.7171535  74.8187722
  94.2700754  80.5159566  75.7848078  95.3690387  79.8771763  74.5392661
  95.5334124  81.9180574  74.9090110  96.7332602  81.8625708  75.2250290
  94.9994125  83.0666246  74.8496082  93.6916674  80.8887319  72.4923071
  94.0039216  79.9047509  71.7867516  93.4919265  82.1328010  71.9793932
  92.9303594  82.7522174  72.5460192  93.7760368  82.5132225  70.6607473
  93.2999979  81.8012750  69.9864945  93.2608061  83.9690710  70.3058452
  93.1476180  84.0585526  69.2254375  92.2974151  84.1382930  70.7868250
  94.2608283  85.0029859  70.7975732  94.4366504  84.7892988  71.8518622
  95.1803346  84.8385879  70.2358050  93.7550923  86.7285816  70.6174717
  94.0781069  87.0925703  68.9245500  93.4938012  86.4252610  68.2910011
  93.8015536  88.1259468  68.7153802  95.1391338  86.9520585  68.7182019
  95.2279053  82.2409978  70.1820182  96.0952429  82.0323766  70.9987535
  95.3806869  82.2897925  68.8783515  94.5512539  82.4065422  68.3139847
  96.6539486  82.0998939  68.2017030  97.4530124  81.9258564  68.9223328
  96.5374547  80.8337861  67.2605005  96.1145385  80.0110855  67.8370460
  95.8709957  81.0772024  66.4330460  97.9070223  80.4197436  66.7085302
  97.7581155  79.5763569  66.0342702  98.2330175  81.2884184  66.1364896
  99.0025405  80.0523919  67.7715666  98.6519842  79.4785029  68.8393792
 100.2097954  80.2606626  67.5823341  97.1776294  83.3193263  67.3901003
  96.5654276  83.7175945  66.4118542  98.1966787  83.9973822  67.8622251
  98.6558224  83.6122698  68.6752287  98.6269569  85.3625633  67.3754582
  97.7542165  85.9377655  67.0663211  99.3536084  86.1343651  68.5073317
 100.2923763  85.6063725  68.6747764  99.5618108  87.1266397  68.1071530
  98.5925186  86.2683100  69.8456448  97.6381733  86.7863164  69.7508010
  98.4244135  85.2684063  70.2456852  99.5007345  87.0464647  70.7894838
 100.4334845  86.3718441  71.3417577  99.3396201  88.2677402  70.9321379
  99.4513719  85.2602443  66.0678815 100.6384504  85.6347363  66.0642195
  98.8605035  84.9337993  64.9651498  97.9175744  84.5782290  65.0326315
  99.4822940  85.0332836  63.6165148 100.3956227  84.4408855  63.5617942
  98.4989980  84.4952935  62.6114469  97.5928478  85.0949662  62.6973752
  98.9341124  84.6351072  61.6218876  98.0477966  82.9751783  62.6987171
  98.9847170  81.9765667  62.4521159  99.9970257  82.1667217  62.0955040
  98.5573322  80.6516610  62.6910997  99.2967292  79.8655339  62.5381392
  97.2975553  80.3317413  63.0921316  97.0572770  79.2918534  63.3134894
  96.3181891  81.3166081  63.2213341  95.2796446  81.0954648  63.4675476
  96.7343742  82.6797654  63.0126882  96.0109609  83.4902011  63.1019456
  99.8307226  86.4910226  63.2955419  99.2503339  87.3829961  63.9861469
 100.6982156  86.8123330  62.3052245 101.2642942  86.1003691  61.8661781
 100.8270227  88.2045040  61.8257168 100.7735474  88.8687724  62.6882637
 102.1468737  88.4790863  61.0724853 103.0522346  88.1537914  61.5849345
 102.0338741  87.9184930  60.1445487 102.3648922  89.9143768  60.6838788
 102.7485993  90.8263117  61.6234456 102.7717942  92.0258245  61.0090459
 103.0569333  92.9128422  61.5747262 102.4252120  91.8842861  59.7727823
 102.3883490  92.6374228  59.1008254 102.1125136  90.5573278  59.5011147
 101.7588365  90.2726078  58.5101816  99.7283282  88.5660993  60.8544016
  99.3584199  87.6852670  60.0270321  99.2264208  89.7956005  60.9067921
  99.4351928  90.4434648  61.6529727  98.3176629  90.2412308  59.8221444
  98.4510995  91.3156601  59.6960671  98.6147041  89.7288898  58.9070638
  96.8429196  89.9523298  60.0973578  96.5087551  89.1977615  60.9877632
  95.9748649  90.4037399  59.1529236  96.2866771  91.1084109  58.4999983
  94.5363584  90.0417740  59.1631438  94.3935074  88.9918137  59.4186358
  93.8654694  90.8903041  60.2166364  94.4977007  90.7894703  61.0988016
  93.9326936  91.9097258  59.8366885  92.3853775  90.5743931  60.5988210
  92.3776011  89.4900940  60.7098880  92.2708043  91.0401941  61.5775980
  91.1861945  91.0181615  59.6584675  91.5209920  91.8596496  59.0519138
  90.9334853  90.1803354  59.0086330  89.9750154  91.4227291  60.4019588
  90.1552390  91.6604583  61.3668959  88.7884320  91.6382397  59.9222631
  87.8486113  92.2261469  60.5499606  88.0053171  92.5606714  61.4899801
  86.9513046  92.3549054  60.1045828  88.5243325  91.3968518  58.6544605
  89.2505255  91.0409976  58.0493890  87.5968791  91.5687537  58.2933805
  93.9230824  90.0925545  57.7702314  94.3371681  91.0346832  57.0419206
  92.9826949  89.1736336  57.3955250  92.8710643  88.4396246  58.0802648
  92.2445866  89.0685202  56.1435628  93.0412417  88.9422364  55.4104242
  91.2368760  87.8429533  56.0158985  91.8368706  86.9631858  56.2485268
  89.9765072  87.8426292  56.8801585  89.3757349  88.7219224  56.6477460
  89.3961742  86.9426328  56.6768871  90.2573822  87.8631028  57.9331498
  90.7592493  87.9756344  54.6867478  90.1321388  87.2730490  54.5004511
  91.4886136  90.3644700  55.8132887  90.8590508  90.9370032  56.7099856
  91.6246853  90.9158677  54.5783968  92.2477529  90.5391788  53.8784027
  90.9734661  92.2268906  54.3111341  89.9074923  92.1323470  54.5181624
  91.5487683  93.3824289  55.1816309  91.6816130  93.0258517  56.2030535
  92.5215552  93.6188105  54.7504588  90.6778579  94.6364651  55.1899445
  90.1551942  94.7289947  54.2379141  89.6230862  94.5191752  56.3600849
  90.1450345  94.4270718  57.3125479  88.9955402  95.4102791  56.3749410
  88.9998625  93.6391289  56.2013044  91.4520911  95.9383350  55.4565915
  92.2066843  96.0779580  54.6825153  90.7611244  96.7812782  55.4459541
  91.9379592  95.8797406  56.4305514  91.0234069  92.4661088  52.7939454
  91.8418870  93.2039027  52.2204975  90.0603996  91.8284252  52.1386611
  89.6255389  91.0638664  52.6350937  89.6702809  92.0659420  50.7821821
  90.5520743  92.1883334  50.1532466  88.8576302  90.8735369  50.2605242
  88.0578283  90.6367398  50.9621961  88.4344362  91.0353702  49.2691530
  89.7482674  89.6105786  50.1612752  91.0122997  89.5917912  49.5462447
  91.4054710  88.3411808  49.5406821  92.3329042  88.0823577  49.0298229
  90.5298811  87.5815921  50.2086681  90.6131819  86.5858612  50.3559122
  89.4822347  88.3724897  50.6724343  88.7039558  87.9344614  51.2973458
  88.9172239  93.3662883  50.5693353  88.3890838  93.9012161  51.4894474
  88.9557314  94.0003791  49.3466121  89.5678675  93.6247156  48.6364954
  88.2141082  95.2054666  49.0453230  88.2035156  95.8187193  49.9463824
  88.7702503  96.0273432  47.9094617  88.8568548  95.5361026  46.9402963
  87.9315005  96.7231983  47.8898530  90.0280708  96.7734613  48.2024587
  90.9128619  96.2142030  48.9164809  90.3110595  97.7683753  47.5512017
  86.7210666  94.8622268  48.7176123  86.4028784  93.7829476  48.1805131
  85.7256853  95.7433111  48.9418607  85.8750466  96.4473541  49.6504607
  84.4712143  95.7243195  48.2603631  83.9646936  94.7826561  48.4720371
  83.5417055  96.9062666  48.7111361  82.7137205  97.0564368  48.0183238
  83.1592396  96.5168717  49.6546358  84.2494034  98.2453217  48.9599980
  83.8472985  99.3004332  48.4173367  85.1841871  98.3062506  49.8458761
  84.5572734  95.8137013  46.6742503  85.2289784  96.7407443  46.1416785
  83.9996923  94.8225218  46.0127826  83.6030486  94.0971914  46.5930144
  84.0043071  94.6218517  44.5315493  83.0787640  94.1047741  44.2783696
  84.1084124  95.9331463  43.6507602  85.0742031  96.3390742  43.9517089
  84.1161590  95.7351254  42.5789263  82.9726906  96.9765875  43.9843055
  81.9242200  96.6558103  44.5904395  83.1050211  98.0948821  43.5042598
  85.1102622  93.6266695  44.0402351  85.0831038  93.1486480  42.8806564
  86.0128764  93.2681393  44.9291360  85.9790753  93.7291439  45.8271514
  87.0966387  92.2509745  44.6893337  87.7722740  92.5481468  43.8872709
  87.8807848  92.1868992  45.9840593  88.3053628  93.1666544  46.2029485
  87.2194344  91.8881543  46.7973656  88.9336821  91.2309394  45.8514545
  89.4322669  91.1883554  46.6707223  86.5962427  90.8098912  44.2946290
  85.4396664  90.5145986  44.6860616  87.4143818  89.9045301  43.6416606
  88.3461483  90.2655703  43.4948257  87.0998173  88.5354480  43.1416443
  86.1351049  88.1789927  43.5027105  87.1135069  88.5076069  41.5696544
  88.0947287  88.8123735  41.2057568  86.8102734  87.0813652  41.0892950
  85.8289425  86.7760501  41.4524383  86.8182352  87.0550194  39.9996422
  87.5680382  86.3989500  41.4742639  86.1360374  89.5174670  40.9193412
  86.5886009  90.4948057  41.0869598  86.1585594  89.2849996  39.8546576
  84.7027326  89.5369468  41.4004043  84.6793743  89.7698215  42.4649810
  84.1447563  90.2950653  40.8508426  84.2493333  88.5600139  41.2326807
  88.0611231  87.4791439  43.6135179  89.2504881  87.5109042  43.2756078
  87.6218871  86.4664563  44.3488931  86.6235368  86.3149484  44.3278815
  88.4240808  85.6029820  45.1680215  89.4465671  85.5774272  44.7912353
  88.4473389  86.1204564  46.6287817  87.4297506  86.0184728  47.0058925
  89.1074365  85.4509259  47.1802345  88.9244450  87.5883565  46.8161668
  88.3465348  88.3416329  46.2807274  88.8405248  87.7615886  47.8890368
  90.4124784  87.7235219  46.4078680  91.1787756  86.7804321  46.5212892
  90.7540175  88.8336696  45.8169602  91.7117586  88.9750255  45.5291201
  90.0593795  89.5475103  45.6495953  87.9329972  84.1754572  45.1867832
  86.7324864  83.9033479  45.3344325  88.9201556  83.2526716  44.9663270
  89.8621478  83.5458872  44.7500525  88.6039310  81.8014807  44.9120320
  87.5176919  81.7113604  44.9041482  89.1658088  81.0232782  43.7281070
  90.2377170  80.8923676  43.8763446  88.4889459  79.6331316  43.5934155
  87.4170092  79.7632480  43.4446791  88.9120472  79.1036106  42.7397801
  88.6617381  79.0548363  44.5010603  88.9197634  81.8356905  42.4596004
  89.4194874  82.8007954  42.5429696  89.3149757  81.2956033  41.5992443
  87.8488657  81.9916733  42.3294148  89.0071924  81.1109618  46.1884213
  90.2034325  80.9570084  46.4654487  88.0206677  80.7390740  47.0701138
  87.0574834  80.7184100  46.7668841  88.3216066  80.3578879  48.4496597
  89.4060856  80.2497084  48.4670277  87.8922907  81.4208226  49.4916553
  86.8092401  81.5433303  49.4819811  88.3428246  80.9279594  50.8875582
  89.4258895  80.8056532  50.8981494  88.0528267  81.6587388  51.6425175
  87.8675707  79.9718146  51.1066931  88.6182851  82.7698358  49.2650047
  89.6801858  82.5271532  49.2253466  88.2888985  83.1180872  48.2860640
  88.3940885  83.8288570  50.2633568  88.7236867  83.4814852  51.2425390
  88.9599924  84.7176657  49.9843031  87.3323983  84.0724176  50.3032579
  87.5650442  79.0573351  48.7695261  86.4026646  78.9519472  48.4604742
  88.2128857  77.9505423  49.3049373  89.6559702  77.9646114  49.6327406
  89.7959653  78.7968140  50.3226251  90.1717345  78.1786523  48.6966462
  90.0667808  76.6543996  50.2230157  90.9191556  76.7528015  50.8952310
  90.2912056  75.9099667  49.4591083  88.7970593  76.2878874  50.9837922
  88.6727431  76.6567858  52.0019074  88.7988455  75.1979098  50.9905134
  87.6477456  76.8071891  50.0935165  87.4985405  76.0186118  49.3559652
  86.3368322  77.0119809  50.9047701  86.2287135  77.9626874  51.5887040
  85.3842119  76.0814183  50.8298650  85.6800122  75.3157665  50.2413254
  84.0010614  76.0495200  51.3907956  83.6905127  76.9507647  51.9193945
  82.9658042  75.7455821  50.2807820  83.2222381  74.7781450  49.8490340
  81.5026293  75.7099460  50.7966446  81.2452987  76.6772551  51.2281478
  80.8296567  75.4920137  49.9673594  81.4037595  74.9355027  51.5572786
  82.9980661  76.6179624  49.0136617  83.9706550  76.5225455  48.5308901
  82.2181296  76.2902550  48.3263433  82.8283027  77.6599434  49.2848753
  83.8465143  75.0276429  52.5720146  84.3206933  73.9076998  52.4879039
  83.1313692  75.3944993  53.6499371  82.7995797  76.3483779  53.6613704
  82.7742351  74.5142364  54.7835960  83.3743645  73.6043265  54.7807916
  83.0575242  75.2792336  56.0669571  82.4171676  76.1612004  56.0802634
  82.7252368  74.5780324  56.8324648  84.4960187  75.6925272  56.3476776
  84.8878926  76.2308768  55.4847087  84.5550876  76.5917536  57.5766620
  84.1637806  76.0538963  58.4401938  85.5887965  76.8804478  57.7669312
  83.9549928  77.4849899  57.4031241  85.2982982  74.4395568  56.6874641
  85.2663935  73.7477070  55.8457839  86.3330185  74.7144302  56.8921580
  84.8693088  73.9603512  57.5674807  81.2479752  74.1464590  54.7519046
  80.3700843  74.8641954  55.3016272  80.8925492  73.0456490  54.1006092
  81.9378676  72.0230369  53.7352147  82.2193908  71.4642634  54.6277488
  82.8139596  72.5337194  53.3355084  81.2664620  71.1759855  52.7218123
  81.7615376  70.2110099  52.6130865  81.2203248  71.6714090  51.7520039
  79.8911185  71.0244163  53.3135311  79.8028454  70.1902701  54.0095965
  79.2066317  70.8742711  52.4786456  79.5534926  72.3688611  54.0470887
  78.9449528  73.0072912  53.4066322  78.8330827  72.1157931  55.3204159
  77.5896426  71.9297564  55.3165312  79.6543010  71.8052806  56.3251011
  80.6512633  71.7857012  56.1645329  79.1342312  71.2948153  57.6391893
  78.3018973  70.6176415  57.4474731  80.2202032  70.5306365  58.4568014
  80.9928045  71.2673272  58.6769679  79.7310322  70.2299444  59.3832981
  80.8775733  69.2665308  57.7745300  80.1303086  68.8503724  57.0988759
  81.7480108  69.5850528  57.2009584  81.3159451  68.1634193  58.7666718
  82.4354809  67.6487669  58.6936824  80.5500050  67.6935346  59.7027520
  80.8958370  66.9723281  60.3194876  79.6115919  68.0512082  59.8102315
  78.4158338  72.3351667  58.5259080  77.8203738  71.9699863  59.5617056
  78.4343949  73.5963153  58.0863870  79.0668465  73.8397612  57.3374956
  77.7210388  74.6921247  58.7893450  77.6415505  74.5760674  59.8702296
  78.3491824  76.0874267  58.4824475  78.2870515  76.2389294  57.4048178
  77.6624095  77.2495160  59.2005816  77.7245417  77.0989423  60.2783423
  78.1568361  78.1841219  58.9357144  76.6155599  77.2951002  58.9003657
  79.8634896  76.2385958  58.6736348  80.3843683  75.5381897  58.0207806
  80.1617762  77.2570225  58.4247737  80.1220069  76.0281536  59.7114131
  76.2149505  74.6029822  58.5541673  75.7258542  74.8929586  57.5058790
  75.4779350  74.2599085  59.6247404  75.9634431  74.0617691  60.4879449
  74.0647209  73.9643446  59.5497956  73.7934604  73.8521614  58.5000661
  73.6667782  72.6808203  60.3005446  73.9695893  72.7952611  61.3413655
  72.5823348  72.5850344  60.2466214  74.3233001  71.4183398  59.7110398
  74.3587482  71.5996258  58.6368054  75.3365892  71.4189612  60.1127200
  73.5812383  69.8437487  60.0099360  72.3067424  69.8415853  58.8314024
  72.7340857  69.9364584  57.8331660  71.7492166  68.9074848  58.9001184
  71.6354999  70.6794547  59.0198425  73.2807383  75.2748676  59.9519032
  72.3541078  75.1787316  60.7093230  73.6922728  76.4813480  59.5513205
  74.4333479  76.4394019  58.8663770  73.2790597  77.7719469  60.0298876
  72.1909604  77.8355982  60.0392478  73.8069163  77.9988110  61.4891851
  73.5029615  78.9987717  61.7986835  73.3293714  77.2592416  62.1319043
  75.3429236  77.8680141  61.6065598  75.5899391  76.8063987  61.5990251
  75.7873541  78.3501178  60.7358362  76.0296101  78.6457796  63.1545573
  76.4770131  80.3102038  62.5761970  75.5872067  80.8170322  62.2027422
  76.8997668  80.8812209  63.4028284  77.2127002  80.2317214  61.7757557
  73.7379784  78.9288478  59.0579113  74.6448171  78.6995631  58.2825010
  73.2181982  80.1603862  59.1290212  72.4219314  80.2393918  59.7453139
  73.6173567  81.3913173  58.2877709  74.2687021  81.1502449  57.4476920
  72.3562637  82.0060967  57.7786347  71.7733589  82.4217998  58.6005309
  72.7603843  83.1459916  56.8019709  73.3429657  82.7309615  55.9795053
  71.8628635  83.6218952  56.4069103  73.3590892  83.8855255  57.3337050
  71.3730216  81.0183896  57.0877954  71.8801483  80.6597867  56.1920683
  71.2345702  80.1899974  57.7825594  70.0254534  81.5885725  56.7092357
  70.1630771  82.4167726  56.0140781  69.4225599  80.8137521  56.2356621
  69.5174999  81.9469856  57.6045697  74.5074294  82.3065207  59.0915689
  74.1137981  83.0180675  59.9840747  75.7807566  82.3313323  58.7554106
  76.1296206  81.6512300  58.0952181  76.7490097  83.2437484  59.3990523
  76.6907577  83.1532680  60.4837270  78.1869265  82.8743172  58.9471232
  78.2334827  81.8309442  59.2590600  78.1098614  82.9252013  57.8610422
  79.4470442  83.5950595  59.3998349  79.3322982  84.6527749  59.1628274
  79.7074487  83.4349300  60.8909334  79.8227724  82.3774367  61.1286462
  80.6186568  83.9688794  61.1605603  78.8676595  83.8436398  61.4529038
  80.6922996  83.1451822  58.7071651  80.5942683  83.3159487  57.6350979
  81.5442165  83.7085547  59.0878884  80.8480613  82.0824118  58.8925195
  76.5285679  84.7849573  59.2159935  76.0571318  85.2557158  58.1719435
  76.8885209  85.5930650  60.2040647  77.1686772  85.1529319  61.0688737
  76.8075885  87.0126861  60.1651950  76.5419091  87.3893744  59.1774604
  75.7491407  87.4344951  61.1393893  75.9937627  86.9752457  62.0971729
  75.6283406  88.9514782  61.3168255  75.3832593  89.4114136  60.3594878
  74.8408189  89.1719532  62.0374508  76.5748812  89.3518543  61.6799528
  74.3342552  86.9356384  60.7674407  74.3299236  85.8461883  60.7330638
  73.6193936  87.2778690  61.5157393  74.0542593  87.3305641  59.7908462
  78.2122997  87.5972448  60.4319882  78.9701919  87.0309965  61.2282892
  78.6335744  88.7052888  59.8505563  78.0239905  89.4070834  58.6966859
  77.0660569  89.8287341  59.0011100  77.8657512  88.6934662  57.8881008
  79.0635412  90.4959566  58.3287425  78.5179247  91.3569682  57.9426587
  79.7039959  90.0911268  57.5451406  79.8561127  90.8514427  59.5281566
  79.3766992  91.5521691  60.2117091  80.8701740  91.1892757  59.3145023
  79.8920631  89.4502279  60.1570871  80.7249293  88.9126256  59.7038586
  80.1340738  89.5841911  61.6892720  79.2785337  90.2006428  62.3323641
  81.2727718  89.2150585  62.1684401  81.9387736  88.7573327  61.5626117
  81.6400905  89.4320743  63.5544874  82.7144661  89.6134132  63.5850214
  81.1121204  90.3213328  63.8988219  81.3101510  88.2786929  64.4717099
  81.8895666  88.1960299  65.6017269  80.5334239  87.3627535  64.0042112
  80.1061450  87.5577702  63.1100633  80.1241407  86.1949629  64.7072307
  79.9665485  86.4273341  65.7604484  78.7813761  85.6559414  64.1072199
  78.0668248  86.4790457  64.1110933  78.9800200  85.3527663  63.0792484
  78.1955968  84.4633511  64.8905334  78.8351904  83.5851552  64.8022560
  78.1519252  84.7770206  65.9335129  76.7578154  84.0813459  64.4246034
  76.3892050  84.3695484  63.3137611  75.9788641  83.4053046  65.2019412
  75.0488104  83.1619566  64.8922910  76.3034492  83.1231725  66.1158052
  81.2259742  85.0674772  64.8168390  81.8076091  84.7353475  63.7738032
  81.4655582  84.4124071  65.9625299  81.0695447  84.8417304  66.7865166
  82.3091499  83.2337920  66.1339281  83.1978258  83.4413507  65.5378797
  82.7249812  83.0977658  67.6013508  81.7884620  83.0190783  68.1534743
  83.6265747  81.9579988  67.9805293  84.5635453  82.0362729  67.4291140
  83.8309999  81.9962099  69.0505056  83.1404370  81.0131553  67.7375445
  83.5322434  84.2378316  67.8340198  83.8399178  84.2318692  68.7433609
  81.7062840  81.9863077  65.6421135  80.4699618  81.8997097  65.6367135
  82.5530190  81.0191447  65.1858398  83.5257127  81.2334963  65.3532308
  82.2263362  79.7870013  64.4460947  81.2079722  79.4567771  64.6509995
  82.3445145  80.1140647  62.9506284  81.8274814  81.0627120  62.8062528
  83.4176861  80.2641655  62.8328464  81.8429712  79.0799178  61.8880827
  82.2064972  78.0859787  62.1489176  80.2886394  79.0726159  61.8625826
  79.9243551  80.0661716  61.6013493  79.9402623  78.3522466  61.1224459
  79.9099086  78.7943029  62.8460486  82.3393781  79.5449485  60.4998274
  83.4285188  79.5881955  60.4985870  82.0033670  78.8408268  59.7386373
  81.9367500  80.5341705  60.2820444  83.1398351  78.6659890  64.8930413
  84.3458996  78.6488321  64.6538592  82.7190456  77.7879728  65.7728303
  81.4113123  77.8671760  66.3981635  80.7022243  77.9918246  65.5797767
  81.4298532  78.7735293  67.0033734  81.1287936  76.5986270  67.2424222
  80.5983531  75.8128309  66.7045966  80.6232113  76.7962478  68.1876385
  82.6209835  76.2186433  67.4787925  82.6434273  75.1396557  67.6317011
  83.0471527  76.7173874  68.3492715  83.4016218  76.5748907  66.2534502
  84.4481486  76.8237885  66.4293190  83.3159821  75.4498050  65.2770516
  82.3345288  75.2087516  64.5406363  84.4165107  74.7011775  65.1470065
  85.1193756  74.7528111  65.8704803  84.6148595  73.7611381  64.0624672
  83.6454466  73.4046378  63.7142644  85.3568516  74.4111030  62.8752623
  86.2982414  74.8048152  63.2585053  85.5615992  73.6491329  62.1232118
  84.5298838  75.5734819  62.2285904  84.1820953  76.2053697  63.0458186
  85.2916590  76.4123050  61.2344922  85.6393944  75.7811483  60.4166780
  84.6390040  77.1909197  60.8396486  86.1482147  76.8722753  61.7272805
  83.3591383  75.0483001  61.5332912  82.7240043  74.5158141  62.2412199
  82.7985615  75.8720113  61.0913017  83.6792072  74.3642722  60.7473136
  85.5251736  72.6666300  64.6096355  86.5273547  72.8562465  65.2594159
  85.2653461  71.3978681  64.3038529  84.3337643  71.1718806  63.9857581
  86.2279658  70.2911908  64.4981047  87.2484645  70.6606350  64.3971456
  86.0558404  69.6779613  65.9342104  86.7423064  68.8338783  66.0004482
  86.3583131  70.4481488  66.6437324  84.6109784  69.1998908  66.2714157
  83.8493560  69.9474164  66.0495206  84.4886296  68.3477439  65.6028512
  84.4204330  68.7187220  67.7219312  85.3269536  68.5684295  68.5446217
  83.2358603  68.5659586  68.2081460  83.1211024  68.2499482  69.1605480
  82.4284549  68.7630476  67.6342524  86.0592206  69.2230622  63.3581660
  84.9378357  69.0747128  62.8364578  87.1694915  68.6326332  62.9149064
  87.9685314  68.7170145  63.5268823  87.3402667  67.9068773  61.6289514
  86.3485688  67.6804282  61.2373454  88.1329405  68.7001416  60.5481545
  89.0315500  69.0896556  61.0265675  88.3992683  67.8630523  59.9028243
  87.4681239  69.8278787  59.6912543  86.5939124  69.4203774  59.1835163
  87.0415563  70.9921221  60.5838177  87.9153632  71.4004699  61.0915700
  86.5807560  71.7687387  59.9733830  86.3237793  70.6389758  61.3242124
  88.5407947  70.4813162  58.7178963  88.9414134  69.7168368  58.0521823
  88.0662892  71.2646493  58.1268506  89.3515284  70.9113259  59.3060302
  88.0737390  66.5557864  61.7874345  89.1084782  66.6234757  62.4441223
  87.4245742  65.5171541  61.3387852  86.5949989  65.7164748  60.7982528
  87.8650609  64.0859188  61.4663275  88.6765413  63.9850417  62.1870372
  86.6660340  63.2772862  61.9640190  85.7799171  63.2187444  61.3319834
  87.0506309  62.2733098  62.1435095  86.2020674  63.8178569  63.3202824
  86.8150299  63.2679910  64.4336527  87.5522121  62.4679167  64.3662475
  86.4460727  63.7905765  65.7053363  86.8846718  63.3389048  66.5951251
  85.5294774  64.8748905  65.8343408  85.3481576  65.3014776  66.8208733
  84.8672459  65.3912206  64.7173776  84.0427561  66.1006664  64.7881121
  85.3181634  64.9467158  63.4388449  84.9930473  65.4639929  62.5361689
  88.2386317  63.4061169  60.1131105  88.5244026  62.2222526  60.1231724
  88.2019633  64.1081857  58.9527778  87.9718625  65.0881660  59.0351886
  88.3423866  63.5422919  57.6195909  88.4031986  62.4546912  57.6586526
  87.0388213  63.9541686  56.7714612  86.0954035  63.8512124  57.3076162
  87.1650342  64.9894784  56.4547531  86.9157558  63.1505560  55.5445823
  87.8178337  63.2720160  54.4449274  87.3479662  62.3723384  53.5638083
  87.9483485  62.2542650  52.6617558  86.2155979  61.7725961  53.9494665
  85.6590855  61.0986114  53.4433653  85.9277188  62.2471864  55.1977448
  85.0407742  61.8941651  55.7238688  89.6838314  63.9223658  56.8931779
  89.9277589  65.1457121  56.8127474  90.5265866  62.9825039  56.4682221
  90.5406051  61.5513558  56.7212311  89.8502306  61.1072115  56.0041404
  90.1526081  61.4150620  57.7306772  91.9821060  61.0163190  56.5668787
  92.0089026  60.0198965  56.1258310  92.5235589  61.0090498  57.5128582
  92.5636848  62.0698530  55.6096926  92.4320379  61.8908257  54.5425856
  93.6278203  62.1119134  55.8419561  91.8987173  63.3718155  55.9985290
  92.4189041  63.7064190  56.8960502  92.0148850  64.4343554  54.9217587
  92.7834999  65.4344055  55.0276879  91.2468862  64.2403748  53.8673901
  90.7150001  63.3869248  53.7734778  91.2329817  65.1998466  52.7472010
  92.2219199  65.2450588  52.2910691  90.1981993  64.7654870  51.6559480
  89.3129735  64.4818858  52.2251974  89.9947681  65.6814482  51.1012130
  90.5521418  63.6542582  50.6846951  90.0678646  63.7758951  49.7157880
  91.6315954  63.7466506  50.5649214  90.2458443  62.2928140  51.2018727
  90.3343276  61.9545352  52.3995434  89.7472679  61.3954278  50.3752013
  89.5341689  60.4670876  50.7111697  89.5806264  61.6402776  49.4096028
  90.9829700  66.6327610  53.2167361  91.6516188  67.5142920  52.6746606
  90.2230883  66.8333728  54.2758073  89.8159680  66.0545045  54.7735186
  89.9240641  68.1976686  54.7478428  90.0375796  68.9140344  53.9341884
  88.4455436  68.2561254  55.2638678  88.3758069  67.4903492  56.0364109
  88.3338424  69.2407532  55.7178842  87.3487209  68.0442096  54.2438243
  87.2073014  69.0465134  53.8394875  87.6789482  67.3755545  53.4488719
  86.0352273  67.5395875  54.8165087  85.9485135  67.5141826  56.0958242
  85.1547963  67.0813429  54.0456916  90.8756302  68.6617766  55.8937497
  91.2387423  69.8403361  55.9062393  91.2971715  67.7385453  56.8259926
  90.8982170  66.8107813  56.8397260  92.2780754  68.0960562  57.8748617
  91.9302022  68.9909451  58.3908630  92.3012237  66.8886443  58.9105570
  92.5019703  65.9439757  58.4051845  93.4356403  67.1896790  59.9025198
  93.2353509  68.1340391  60.4086513  93.4966260  66.3888739  60.6394677
  94.3807353  67.2599545  59.3640420  90.9676567  66.8254325  59.7256626
  90.1300557  66.6842393  59.0425879  91.0087831  65.9916532  60.4265338
  90.8335351  67.7562972  60.2766644  93.6788756  68.3936243  57.2535236
  94.2401940  69.4427441  57.5798168  94.0786088  67.6704302  56.1981802
  93.5661620  66.8195140  56.0153168  95.2037126  68.0309799  55.2821324
  96.1505177  67.9794060  55.8197192  95.2587702  67.0636195  54.1040881
  95.1179541  66.0596893  54.5045807  94.4269298  67.3111467  53.4446399
  96.4986934  67.1155650  53.3570552  96.4636823  66.4843446  52.6346046
  95.1270852  69.4269786  54.6629573  96.0546858  70.1917583  54.5350546
  93.9147426  69.8052621  54.3367394  93.1719814  69.1230031  54.2826306
  93.6535322  71.1667812  53.8268220  94.4779307  71.4726044  53.1826648
  92.3450551  71.2299566  53.0154247  92.5863363  70.6714906  52.1109921
  91.6478574  70.6529683  53.6229607  91.6928805  72.5886130  52.6272648
  92.5293781  73.2491613  52.3991232  91.1332313  72.3834513  51.7146841
  90.5784712  73.4182281  53.8511478  89.3235291  72.1118519  54.0908531
  89.8041583  71.2113837  54.4732813  88.5739041  72.4539560  54.8043851
  88.8428676  71.8898349  53.1380812  93.7531989  72.3105307  54.8716888
  94.3306093  73.3368499  54.5349276  93.1579730  72.0611923  56.0532278
  92.5942615  71.2313338  56.1701194  93.1997578  73.0601448  57.1789990
  92.7848465  73.9635397  56.7319806  92.3190229  72.6635994  58.4210670
  92.5972707  71.6628655  58.7515347  92.5441641  73.6793638  59.5889785
  92.2656760  74.6803216  59.2593897  91.9293359  73.3943201  60.4426979
  93.5946018  73.6723201  59.8798953  90.9024679  72.8509807  57.9518993
  90.7138845  72.2028281  57.0960742  90.2152471  72.5959095  58.7585998
  90.7501501  73.8902054  57.6605024  94.6670671  73.3183682  57.5779352
  95.1067339  74.4591674  57.6320486  95.5336748  72.2703435  57.6665481
  95.1522775  71.3535029  57.4820520  96.9775880  72.3768360  58.0209828
  97.0675269  72.9078062  58.9686541  97.6465731  71.0185354  58.1597068
  97.2741532  70.3441139  57.3886307  98.7261484  71.1273978  58.0559468
  97.3250115  70.4472697  59.5299271  97.7222807  71.1168054  60.2928163
  96.2425776  70.3768158  59.6370492  97.9331080  69.0857220  59.6942058
  97.6452012  68.4571079  58.8515595  99.0189182  69.1760433  59.7251537
  97.4672351  68.4298204  60.9665692  97.6057336  68.9624116  61.8134837
  96.8428971  67.2933861  61.0441655  96.7597026  66.3666873  60.1461104
  97.2182450  66.4890895  59.2545631  96.2365732  65.5248696  60.3404767
  96.3024894  67.0098759  62.1736926  96.3775083  67.6597268  62.9432158
  95.8049052  66.1383366  62.2873940  97.7943275  73.1559699  56.9825435
  98.7721841  73.6707246  57.4568831  97.3191660  73.2954209  55.7139329
  96.5034568  72.7641104  55.4448104  97.9976841  74.0998186  54.6862917
  99.0131754  74.3181752  55.0167415  98.0663809  73.3739359  53.3540120
  98.7114482  72.5144566  53.5364481  97.0787645  73.0280612  53.0489143
  98.6825285  74.2250266  52.1872174  97.9965875  74.5482939  51.2427264
  99.9619257  74.5009066  52.2352073 100.3857232  75.0465700  51.4984937
 100.5188023  74.1667095  53.0087068  97.2833856  75.5316503  54.5530337
  98.0452901  76.5085552  54.4977509  95.9719680  75.6268911  54.5960000
  95.4416702  74.7728980  54.4981255  95.2264622  76.9189655  54.6677152
  95.4040787  77.5096164  53.7690033  93.6947413  76.6282061  54.7796984
  93.3432221  75.7901661  54.1778494  93.5210470  76.4154236  55.8345225
  92.9198428  77.9181671  54.3760216  93.4838605  78.7875884  54.7137962
  92.7328757  77.9893833  52.8422222  92.1685035  77.1204682  52.5037413
  92.1894148  78.8981927  52.5837330  93.7087695  77.9997446  52.3568107
  91.5222198  77.8096651  54.9294411  91.5666110  77.7200446  56.0148429
  90.9547267  78.7009961  54.6618930  91.0330728  76.9293701  54.5124101
  95.7789475  77.7821901  55.8307819  96.0767313  79.0059862  55.6157657
  96.1904896  77.1761189  56.9602087  95.9786320  76.1897307  57.0076841
  96.8703147  77.8216563  58.1476031  96.4280172  78.7721270  58.4460617
  96.9355991  76.8882332  59.3568571  97.0957515  75.8919974  58.9445881
  98.0080765  77.1808776  60.4225975  97.8482888  78.1768330  60.8356851
  97.9391402  76.4417129  61.2207103  98.9969637  77.1315125  59.9667859
  95.5316949  76.8159594  59.9582982  95.2816759  77.8337174  60.2578975
  94.8740364  76.5047536  59.1466728  95.3528849  75.8878895  61.1338143
  96.0099299  76.1987624  61.9460641  94.3170349  75.9234889  61.4712261
  95.6022929  74.8697983  60.8348396  98.2924123  78.3064218  57.8702556
  98.7594539  79.3850124  58.3275349  99.0159219  77.5965931  56.9809731
  98.7657819  76.6406966  56.7717099 100.2914343  78.1016029  56.4863035
 100.8071030  78.6219742  57.2933962 101.2138714  76.9447457  55.9659496
 100.7131844  76.4994943  55.1062037 102.1492242  77.4025962  55.6440987
 101.5142811  75.8367684  57.0241808 100.5449843  75.4638024  57.3550297
 102.0711885  75.0288188  56.5496560 102.2584520  76.2934744  58.1877354
 103.1765752  77.1001387  58.0568562 102.0125675  75.8483445  59.3721366
 102.5493344  76.1878879  60.1574347 101.2842950  75.1621178  59.5092984
 100.2249019  79.2971182  55.4791264 101.0420189  80.2459922  55.5456913
  99.1806810  79.3273777  54.6082211  98.6820418  78.4500368  54.5666116
  98.7802275  80.4266390  53.6477871  99.6551715  80.9572459  53.2722495
  98.0439857  79.7652341  52.4436187  97.2474993  79.1140794  52.8037663
  97.6170187  80.5482077  51.8169198  98.9913832  78.9498726  51.6134461
  99.9321090  79.4605135  51.1042440  98.6845908  77.6770464  51.5337338
  99.2678920  77.0529209  50.9949139  97.8664915  77.3270359  52.0115485
  97.9576170  81.5332147  54.4147102  98.4393849  82.1345493  55.3795659
  96.6862889  81.6744660  54.0693495  96.3462308  80.9207142  53.4894202
  95.8033308  82.8844851  54.2612887  96.4013336  83.6934053  54.6809792
  95.1594329  83.3829945  52.9050531  94.2303207  82.9362270  52.5511484
  94.9691656  84.4055070  53.2311920  96.1453680  83.3922832  51.8138002
  95.7715153  82.8467717  50.7348390  97.1696184  84.1430834  51.8553950
  94.7342075  82.8267908  55.3898191  94.0284524  83.8061401  55.6661118
  94.5755766  81.6224069  55.9241041  94.9854158  80.9232483  55.3213533
  93.7888714  81.1655446  57.1004888  93.5969452  80.0978286  56.9944420
  94.4956296  81.4004137  58.4128879  93.8944966  80.9062385  59.1761238
  95.4616943  80.9019934  58.3329108  94.7127494  82.8952921  58.8089001
  95.3654836  83.3235921  58.0482438  93.7341319  83.3725714  58.7577712
  95.3231146  83.1288289  60.1961365  94.6397643  82.7823002  60.9714102
  96.2711893  82.5983270  60.2845769  95.5626285  84.5383330  60.3875033
  94.8568291  85.0650550  60.8819834  96.6383908  85.2043276  59.8877557
  97.6393102  84.5365951  59.2944946  97.5952099  83.5305039  59.2174517
  98.4324229  85.0430056  58.9275882  96.7973102  86.4446699  60.0000160
  96.1035990  86.9979727  60.4824275  97.6180895  86.8831280  59.6073652
  92.3240910  81.7190496  57.0949694  91.7250651  81.9923518  58.1587870
  91.6852642  81.5457761  55.8917962  92.1487420  81.0583387  55.1383425
  90.3833389  82.1889824  55.6143616  89.8916308  82.2580457  56.5846980
  90.4424221  83.6254030  54.9776739  91.0658938  83.5203972  54.0897792
  89.0847637  84.3035687  54.5851538  88.4608994  84.4093408  55.4726814
  89.2794628  85.2877920  54.1591305  88.5685342  83.6858062  53.8503225
  91.0013661  84.5172198  55.9177725  91.0419119  85.3981226  55.5383431
  89.5536572  81.2377297  54.7842698  90.0555985  80.8984440  53.7004330
  88.4282710  80.8164242  55.2776384  88.2135539  81.1556303  56.2044259
  87.4037202  79.9930731  54.5704986  87.8719433  79.3955248  53.7883206
  86.7432223  79.0666581  55.5519657  86.2154644  79.6981175  56.2666892
  86.0213082  78.4795941  54.9842545  87.5586447  78.0835721  56.3626063
  88.0903003  76.9493884  55.8225113  88.0876080  76.7995398  54.7428641
  88.6413130  75.9751728  56.6628642  89.1730112  75.1170120  56.2518194
  88.5013995  76.1148502  58.0562789  88.6744447  75.2134271  58.6441493
  88.1694005  77.2908720  58.6837799  88.1757999  77.4675697  59.7593436
  87.7811580  78.3638830  57.7686318  87.6575600  79.3804825  58.1419263
  86.1747553  80.7661538  53.9874132  85.8308981  81.8193672  54.4820704
  85.4620463  80.1699036  53.0389087  85.8980844  79.4107032  52.5353366
  84.1245722  80.6401624  52.5867875  84.0358696  81.6828053  52.8919545
  83.9968438  80.5646321  51.0829423  84.0745231  79.5255713  50.7629133
  83.0302210  80.9665106  50.7792412  84.7935251  81.1472556  50.6203970
  83.0146549  79.8864349  53.3200526  83.0468791  78.6436016  53.4023686
  82.0067127  80.5766898  53.7718342  82.0919558  81.5801716  53.6953019
  80.8334242  80.0378994  54.4093960  80.8326110  78.9543232  54.2912386
  80.7449482  80.3637112  55.8853525  80.5882000  81.4355877  56.0062249
  79.5445754  79.5792368  56.5445202  79.7008574  78.5072018  56.4244464
  79.4907753  79.8214089  57.6059149  78.6118753  79.8665315  56.0590988
  82.0614183  79.9890918  56.6435079  82.8965695  80.5469223  56.2198930
  81.9567942  80.2386191  57.6993912  82.2492870  78.9203910  56.5401398
  79.5132352  80.5174960  53.7332770  79.0531757  81.6745074  53.8408308
  79.0366315  79.6620356  52.8897407  79.6196667  78.8567588  52.7116995
  77.8229015  79.8423869  52.0692446  77.8510892  80.8059371  51.5604464
  77.7447651  78.7033213  50.9854483  77.7479382  77.7467787  51.5080528
  76.7787613  78.8495091  50.5021619  78.8859903  78.7099764  49.8931714
  79.8569594  78.6902684  50.3880770  78.7521717  77.4991919  48.9988003
  77.7815693  77.5184453  48.5031603  79.5429153  77.5117468  48.2486885
  78.8353734  76.5928400  49.5985537  78.8578950  79.9263111  48.9221902
  78.9653273  80.8492918  49.4919835  79.6785114  79.8421570  48.2097241
  77.9101446  79.9404170  48.3839810  76.5692250  79.9781070  52.9451745
  76.4352737  79.2790476  53.9859209  75.6514747  80.8464345  52.4897233
  75.9640203  81.4444538  51.7381998  74.3183932  81.0459983  53.0161081
  74.3241649  80.7314809  54.0597290  73.9683339  82.5232698  52.9561643
  73.9496787  82.8508899  51.9167332  72.9878735  82.6833531  53.4046854
  74.7159576  83.0968770  53.5040081  73.2369855  80.1944848  52.2805048
  72.5185761  80.6939310  51.3887282  73.1327725  78.9304566  52.6249919
  73.7605925  78.5254116  53.3046094  72.2052423  78.0702107  51.9632699
  72.3288718  78.1790505  50.8857873  72.4149402  76.5874255  52.3364504
  72.1169379  76.4580387  53.3769085  71.7398949  76.0233195  51.6928679
  73.8246489  76.0830730  52.1510218  74.4040281  75.9966767  50.8653525
  73.8656324  76.2186612  49.9439664  75.7218324  75.6077287  50.8148808
  76.2117543  75.5815432  49.8415398  76.4467577  75.2789222  51.9775977
  77.7844221  74.9636303  51.8793624  78.1131898  75.0000609  50.9781498
  75.8404165  75.2305554  53.2417737  76.3032039  74.8387187  54.1475288
  74.5703072  75.7264102  53.2844270  74.0722604  75.8675152  54.2436657
  70.8077778  78.6812984  52.3511305  70.4685584  78.7455710  53.5203102
  70.0056304  78.8602273  51.3386949  70.4975503  79.0336451  50.4738016
  68.5926758  78.9401057  51.3345736  68.3067895  79.9188804  51.7197595
  67.9534694  78.7540818  49.9152169  66.8761809  78.6114512  50.0001009
  68.1561597  79.6242927  49.2909176  68.5129191  77.6518397  49.3507453
  68.1381156  77.5142124  48.4777156  68.0311263  77.9303211  52.3524376
  67.4041154  78.2927544  53.3112433  68.4591654  76.6770289  52.2508592
  69.0411875  76.5696011  51.4324406  68.2129267  75.5292361  53.0608439
  68.1998546  75.7731192  54.1231289  66.8283998  75.0239681  52.6589079
  66.0979432  75.8049881  52.8699530  66.8095898  74.7875058  51.5950320
  66.4523909  73.7976176  53.4277420  67.1017805  72.7743320  53.3308414
  65.3869102  73.9086254  54.1757789  65.0736596  73.1198832  54.7233732
  64.8815123  74.7826601  54.2029304  69.2959056  74.4718865  52.8339088
  69.6502535  74.0335190  51.6945653  69.8292063  74.0249734  53.9621025
  69.4555089  74.3287279  54.8498991  71.0047231  73.2074062  53.9643642
  71.6943928  73.4997109  53.1725228  71.7434095  73.3042087  55.3263336
  71.7246632  74.3398807  55.6656438  71.0639623  72.4086044  56.3763690
  71.0827343  71.3726405  56.0379501  71.5965530  72.4904786  57.3238628
  70.0304690  72.7271832  56.5123867  73.1997149  72.9009731  55.1142379
  73.6617607  73.5731234  54.3911682  73.7359586  72.9626830  56.0611984
  73.2431840  71.8786600  54.7386220  70.7450501  71.6859528  53.5838758
  71.6842024  70.9995859  53.1353855  69.5006930  71.2072948  53.7618754
  68.9130172  71.6562494  54.4497535  69.0070709  69.9710672  53.1175745
  69.7111995  69.1544623  53.2771318  67.6200496  69.5692560  53.7450366
  66.9186434  70.1972595  53.1957278  67.5053054  68.5330648  53.4268517
  67.3289934  69.6786024  55.2711724  67.4193287  70.7267636  55.5563013
  66.2872800  69.3685992  55.3538370  68.1510508  68.8527141  56.2149553
  69.0023801  68.0109774  55.8681721  67.9667423  69.1099678  57.4767952
  68.4842406  68.5951440  58.1748307  67.3070191  69.8233097  57.7524942
  69.0024230  70.1365207  51.6191165  68.7783441  69.1518088  50.8790900
  69.0049628  71.3186842  51.0507751  69.1830318  72.1263619  51.6304712
  68.7565690  71.5336067  49.5946691  68.5906282  70.5989690  49.0589311
  67.4794484  72.3673841  49.5281976  67.6829191  73.2692737  50.1055138
  67.3503375  72.6301185  48.4782447  66.1929081  71.7017878  50.0525722
  66.5142123  71.0172340  50.8375885  65.5570446  72.4751639  50.4834622
  65.4125866  70.9337120  48.9995571  64.1597397  70.7366269  49.0955896
  66.0062733  70.4490963  48.0230328  69.9411479  72.3011260  48.8369008
  69.9609873  72.3155008  47.6045547  70.9207019  72.8532077  49.5566173
  70.5781288  73.0773835  50.4799201  72.2698436  73.3315412  49.1724379
  72.7490184  73.8841700  49.9805790  73.1182561  72.0567362  48.8682383
  72.4970662  71.4267220  48.2316031  73.9852802  72.3999334  48.3038051
  73.5935000  71.2386294  50.0998854  73.9070293  71.9333471  50.8790949
  72.7584876  70.6392809  50.4627045  74.7905258  70.2959076  49.7279029
  74.5402437  69.7104969  48.8431701  75.6824993  70.8901095  49.5293914
  75.0797012  69.3615436  50.8527239  74.2533355  69.0535875  51.3450472
  76.2459860  68.9729742  51.2900449  77.3922290  69.1177485  50.6347118
  77.3985883  69.5579616  49.7257167  78.2521855  68.7869524  51.0484127
  76.3582410  68.3186548  52.4260532  75.5327185  68.1122861  52.9701347
  77.2694096  68.0258010  52.7487096  72.2757152  74.4460530  48.0910106
  73.1057997  74.5399108  47.2030892  71.2748933  75.3971064  48.1422945
  70.4423980  75.2351445  48.6907643  71.2920002  76.5547600  47.2152484
  72.1148221  76.4086284  46.5154565  70.0378780  76.7423877  46.4409750
  69.2311135  76.8022926  47.1714828  70.1336105  77.6987744  45.9269129
  69.7280566  75.6650287  45.4402711  69.8170551  74.7158879  45.9687707
  68.6951177  75.8081846  45.1230288  70.6631736  75.6520746  44.1830429
  71.0664482  76.7460290  43.6971803  70.9377013  74.5024931  43.7417111
  71.7590747  77.8355204  47.8557992  71.1110204  78.3950282  48.7268563
  72.9007250  78.3167627  47.4051980  73.4044766  77.7995387  46.6989310
  73.5454563  79.5529656  47.9829255  72.7494720  80.0234220  48.5601421
  74.6897341  79.1642900  48.9454194  75.4983079  78.7001404  48.3807306
  75.0631372  80.0575208  49.4462279  74.3162281  78.4605962  49.6893331
  74.0593048  80.5769509  46.9700574  74.9769874  80.2428617  46.2610129
  73.3544135  81.7273490  46.7646006  72.4110296  81.7492537  47.1246648
  73.8242324  82.8735608  45.9653117  74.3801498  82.5190887  45.0973229
  72.6336025  83.7002757  45.4786980  71.8748819  82.9835114  45.1645464
  72.2733834  84.2530441  46.3463323  72.9161319  84.6702875  44.3413940
  72.0734800  85.3477148  44.2030797  73.7850532  85.2360061  44.6776043
  73.2457304  83.9668644  42.9869599  73.7888147  84.6706702  42.1667167
  73.0445460  82.7478470  42.7570224  74.8195896  83.6775406  46.7384097
  75.5790898  84.4754061  46.1686738  74.9199658  83.5289768  48.0632250
  74.3988735  82.7552610  48.4504277  75.6961610  84.3290649  48.9472188
  76.4716224  84.8720746  48.4069418  74.7174852  85.3868581  49.6351362
  73.9270535  84.8095609  50.1147661  75.2735676  85.9396011  50.3923335
  74.0316185  86.4188151  48.7610295  72.7056400  86.0814081  48.3462964
  72.2587807  85.1250179  48.6178374  71.9887762  86.9891390  47.5899863
  70.9988935  86.7251472  47.2177750  72.5379893  88.2590245  47.2988906
  71.8896978  88.9953468  46.8238668  73.8657294  88.5858518  47.5997863
  74.3246846  89.5281246  47.3004834  74.6206245  87.6278229  48.3271528
  75.6684358  87.8204925  48.5575219  76.3897514  83.5594699  50.0990890
  76.3464363  82.2979179  50.1450810  77.0837045  84.2749731  50.9570897
  77.0590978  85.2591654  50.7315695  77.8437147  83.8523952  52.1298550
  77.1320513  83.4240291  52.8356432  78.5379433  83.0793615  51.8003631
  78.6196283  84.9478863  52.8188182  78.6341800  86.1227903  52.4930856
  79.4796178  84.5287145  53.8175906  79.3552105  83.5837491  54.1517500
  80.4933852  85.3504563  54.4443617  80.7654228  86.1735547  53.7836017
  79.9479559  85.9298170  55.7454420  79.7984542  85.0698445  56.3982795
  80.7709357  86.9577130  56.4558222  80.9204795  87.8182458  55.8037335
  80.2545532  87.2745290  57.3619546  81.7381944  86.5302825  56.7200463
  78.7353720  86.5670034  55.5507049  78.4210147  86.9190655  56.3866668
  81.7816193  84.6385292  54.7343662  81.7528622  83.4693193  55.1538793
  82.8876646  85.2957523  54.5859190  82.8114850  86.1775782  54.0994222
  84.2616321  84.7655008  54.8896619  84.2268951  83.7620674  54.4653814
  85.5001180  85.4959759  54.3279440  86.3784715  84.8809393  54.5237129
  85.3799852  85.7444780  52.8388759  84.5020561  86.3598808  52.6423574
  86.2717575  86.2604055  52.4829825  85.2795524  84.7922582  52.3180197
  85.6480571  86.8528926  54.9185472  86.4250013  87.2794308  54.5497339
  84.3996677  84.5309388  56.3791346  83.8370787  85.2716479  57.1932640
  85.2009296  83.5044140  56.7771222  85.4362617  82.8332289  56.0600248
  85.6322576  83.2315579  58.1555313  85.4758603  84.1470996  58.7259894
  84.6456605  82.1708661  58.6523263  84.7962029  81.2452764  58.0966998
  84.8120958  81.9879416  59.7138997  83.6254659  82.5233499  58.5004793
  87.1035203  82.8467210  58.3704190  87.6521594  81.9414685  57.7428824
  87.7184689  83.5937370  59.3176735  87.2318314  84.3109332  59.8362416
  89.0966352  83.4176725  59.5532770  89.5655689  82.8492232  58.7501171
  89.7261580  84.7864240  59.6058336  89.4061429  85.2575866  58.6764814
  89.2305005  85.2703710  60.4473911  91.2656057  84.9336420  59.7574565
  91.4768990  84.4780537  60.7248733  91.8358985  84.4211121  58.9827447
  91.6818797  86.4736746  59.7929029  90.9165709  87.3877680  60.2369127
  92.7673102  86.7336432  59.2411223  89.4203795  82.6275989  60.8306080
  88.7472692  82.8579922  61.8362677  90.3548457  81.7048945  60.7441351
  90.7375740  81.5020296  59.8317404  90.8306861  80.9648552  61.8498493
  90.0024353  80.5299525  62.4092770  91.7594969  79.8383294  61.3469706
  92.5541027  80.3307935  60.7864519  92.3819321  78.9305163  62.4337125
  91.5878912  78.4373184  62.9943866  93.0136877  78.1782727  61.9613620
  92.9834614  79.5353243  63.1122911  91.1321933  78.8253207  60.3654775
  90.5587307  78.2039414  61.0533213  90.4538734  79.4732163  59.8103082
  91.8837761  77.9467162  59.4049098  92.5620104  77.2981640  59.9594169
  91.1779399  77.3365331  58.8413753  92.4571552  78.5674394  58.7164049
  91.6227818  81.8408132  62.9011898  92.6221263  82.5208568  62.5948561
  91.2634415  81.8019088  64.1779365  90.4131542  81.2871575  64.3572186
  91.8329768  82.5963238  65.2618291  92.7501542  83.0619715  64.9011949
  90.8896770  83.6981278  65.7696976  91.4953200  84.4618439  66.2575844
  90.3922339  84.1296655  64.9011208  89.8503781  83.1822289  66.7411991
  90.1706575  83.2745602  68.0907757  91.0957584  83.7131994  68.4647860
  89.2189686  82.7604627  68.9941211  89.5296194  82.5882856  70.0246321
  87.9222674  82.4081629  68.5829995  86.9902704  82.1525538  69.4816623
  87.3063109  82.2368096  70.3842247  87.6235796  82.4037308  67.2065432
  86.6006375  82.2109729  66.8832256  88.6097809  82.6400055  66.2710828
  88.4291524  82.4148769  65.2199926  92.4604266  81.6835313  66.4070010
  93.2629077  82.1717812  67.2179738  92.2200181  80.3670668  66.3689764
  91.6006722  80.1123513  65.6129141  92.6522359  79.3236652  67.2889665
  93.6970835  79.5647488  67.4845975  91.8775222  79.4285714  68.5919505
  90.8310136  79.1810971  68.4139723  92.2956554  78.7342544  69.3207775
  91.9493809  80.4457220  68.9771003  92.5736115  77.8517128  66.7890291
  91.7718027  77.4268876  65.9256936  93.5145304  77.0657314  67.3020854
  94.0544492  77.3330260  68.1127275  93.8248156  75.8386833  66.6623441
  92.9188301  75.3193135  66.3500229  94.6830631  76.1630176  65.3862044
  93.9820063  76.4362587  64.5975614  95.2459593  77.0446555  65.6927374
  95.6642392  75.0813328  64.8547221  95.2902172  73.8275713  64.3099068
  94.2524813  73.4955761  64.3412589  96.2989019  72.9875980  63.7093103
  95.9256987  72.0702041  63.2541075  97.6579489  73.2706913  63.6868312
  98.5745948  72.4269932  63.1175712  98.1765198  71.6366982  62.7453216
  98.0222692  74.4955862  64.2887219  99.0865737  74.7306761  64.2981640
  97.0720925  75.4182174  64.8727208  97.4203623  76.3505201  65.3172654
  94.5576211  74.8697628  67.5980718  95.4835044  75.2580057  68.2406242
  94.1398104  73.5525354  67.5319418  93.2738802  73.4139278  67.0308909
  94.7733432  72.3774810  68.1804088  95.8328872  72.5942512  68.3163372
  94.1738153  72.0279978  69.5276660  93.0896927  71.9718694  69.4295489
  94.5597938  71.0600008  69.8472007  94.5536605  73.1382450  70.6146719
  95.6421937  73.1934366  70.6269227  94.1468068  74.0793326  70.2446366
  94.0468134  72.8870538  72.0152011  94.6144737  73.4931136  72.7212836
  92.9918326  73.1548761  72.0733910  94.1937868  71.4785400  72.3824322
  93.5256382  70.8498860  71.9599740  95.1693399  70.9626038  73.1241215
  95.2128561  69.7113043  73.4582128  94.4829152  69.0842185  73.1515375
  95.9765067  69.3690251  74.0237057  96.2026383  71.5867531  73.5032139
  96.3295394  72.5537246  73.2406073  96.8955580  71.1149825  74.0665909
  94.6569544  71.2313053  67.1459095  93.6363598  71.1312516  66.4050168
  95.5518697  70.2928502  67.1401128  94.6896604  70.4268731  67.6487702
  96.8820137  70.1835215  67.9527000  96.7114871  69.5605396  68.8307168
  98.0379309  69.5507387  67.1070816  98.9634303  69.7041889  67.6620619
  97.8332470  68.4828281  67.0311119  98.1834771  70.1539022  65.6788001
  97.7449496  71.1498150  65.7416673  99.2612770  70.2401011  65.5409003
  97.5549757  69.3774334  64.4502737  97.1394786  68.1852168  64.5619103
  97.4707096  70.0135452  63.3556308  96.6638384  69.1936511  69.1337898
  97.4685539  69.2558808  70.1097710  95.6939669  68.2998512  69.0845148
  95.1825753  68.2518298  68.2148759  95.3442593  67.3542808  70.1500505
  95.2723662  67.8880507  71.0976898  93.9683312  66.6523370  69.8636294
  94.0273086  66.2547729  68.8504347  93.8863647  65.8283803  70.5724854
  92.7235918  67.5655351  69.9878666  93.0725397  68.4818435  69.5117206
  91.8627873  67.1784395  69.4426403  92.3222404  67.8620081  71.4226261
  93.0229898  68.7634911  71.9413831  91.4793358  67.1433777  71.9840237
  96.3199702  66.1977878  70.3024453  96.3036342  65.4535478  71.3065533
  97.1561585  65.9622381  69.2704044  97.2273291  66.6803192  68.5637265
  97.8782026  64.6788405  69.0480961  98.4233449  64.4212126  69.9561417
  96.9132837  63.5021549  68.6942604  97.4765435  62.5721897  68.7717343
  96.1058261  63.4993430  69.4264519  96.3183176  63.6274242  67.2712453
  96.0758146  64.5011604  66.6663668  97.2888784  63.2345093  66.9683729
  95.2699193  62.5654228  67.0281694  94.6954869  62.0163198  67.9192247
  94.5918701  62.6897056  65.9367945  93.8750264  62.0147777  65.7116084
  94.7813958  63.4612884  65.3132232  98.9760637  64.7471151  68.0209620
  99.0298860  65.7404930  67.3255416  99.8184996  63.7402703  67.8468033
  99.8146572  63.0662158  68.5989569 100.7578517  63.5768976  66.8071648
 100.8540276  64.4772391  66.2003414 102.1093669  63.2978620  67.4915263
 102.1970098  64.2259051  68.0564634 102.0961961  62.4534651  68.1806709
 103.2756858  63.1666122  66.5652510 104.3276667  62.6640172  66.9899312
 103.1982111  63.7532065  65.4550232 100.4364916  62.5189941  65.7282603
 100.8851234  61.3989986  65.7358465  99.6109501  62.9683215  64.7861270
  99.2118427  63.8699150  65.0050830  99.1671684  62.2938696  63.5795361
  98.2521660  62.7771259  63.2369968 100.1874424  62.3259910  62.4486033
 101.0755563  61.7150712  62.6102505  99.6863713  62.0034097  61.5359318
 100.6698598  63.7303053  62.2017031 102.0073119  64.1258057  62.6034932
 102.6686874  63.3600396  63.0088136 102.4531096  65.4366524  62.4839972
 103.4291702  65.7600079  62.8457259 101.5787971  66.3725934  61.8599826
 101.9119481  67.4056360  61.7603170 100.3644572  66.0075425  61.3975774
  99.7437832  66.7742822  60.9339244  99.8864189  64.6708067  61.5000062
  98.9363290  64.3951975  61.0423286  98.7485646  60.7747248  63.9680794
  99.0386534  59.8312691  63.1806985  98.0703715  60.4862338  65.0560207
  98.0975588  61.1866257  65.7832149  97.2931093  59.2575673  65.2979777
  97.9505348  58.4046127  65.1295753  96.9672043  59.2646619  66.3380906
  96.0111026  59.1212174  64.3518845  95.9421751  59.5455243  63.1632556
  94.9353670  58.5972608  64.9171318  95.1170307  58.0892245  65.7709449
  93.5845442  58.5719264  64.3725432  93.5271263  58.2861462  63.3222422
  92.6021541  57.6967483  65.2020557  92.6978860  57.9758320  66.2513641
  91.0991052  57.8948519  64.7378705  91.0024834  57.6155090  63.6887125
  90.4456776  57.2658760  65.3424551  90.8143793  58.9395550  64.8628735
  92.9927238  56.1746236  65.2990954  93.9830007  56.1280165  65.7521739
  92.2680042  55.7013053  65.9615535  93.0118449  55.4236591  63.9252567
  93.7367190  55.8961542  63.2623799  93.2904215  54.3818695  64.0839032
  92.0217223  55.4694451  63.4717582  93.0643978  60.0126871  64.1791253
  92.6210410  60.6463912  65.1293710  93.1641744  60.5401515  62.9625601
  93.3045945  59.8786462  62.2123653  93.1373038  62.0160729  62.6229071
  94.0449360  62.5512749  62.9019441  93.0345284  61.9797585  61.0142551
  93.7876404  61.2624016  60.6881868  92.0413706  61.5892366  60.7923759
  93.2398388  63.3140829  60.2696833  93.2175872  63.0136536  59.2221395
  92.4941026  64.0905129  60.4403674  94.6330026  63.8580737  60.6161941
  94.8614676  64.4734520  61.6948980  95.4807864  63.8239484  59.7708528
  92.0311663  62.9165345  63.2295946  90.8989288  62.5087657  63.3298388
  92.3835462  64.1680458  63.5811754  93.3726541  64.3454008  63.4796375
  91.5456164  65.2111386  64.2077375  90.6810667  65.4913218  63.6059481
  91.0809354  64.8664060  65.6554474  90.7746486  63.8218112  65.5996739
  92.0415465  65.0470899  66.8014114  92.3479435  66.0916024  66.8581138
  91.5540918  64.7608705  67.7333808  92.9187628  64.4197406  66.6432230
  89.7553550  65.6077574  65.9152259  89.9272887  66.6830652  65.9626874
  89.0392562  65.3894524  65.1229855  89.1949546  65.1185995  67.2614610
  89.9103498  65.3369916  68.0543131  88.2544879  65.6282783  67.4708632
  89.0223193  64.0433776  67.2146118  92.2273072  66.6562529  64.1578234
  93.3443431  66.7897752  64.6265104  91.4707395  67.7251978  63.8055847
  90.6605486  67.5459933  63.2297585  91.8491625  69.1178753  64.0580098
  92.5260519  69.2386712  64.9037807  92.4071854  69.8726365  62.8848794
  92.0082785  69.3693914  62.0041314  92.1069643  71.3729128  62.7954410
  92.5060029  71.8769377  63.6756842  92.5722252  71.7843145  61.8996836
  91.0288428  71.5259945  62.7472581  93.8678735  69.6403130  62.7074078
  94.0500638  68.5782758  62.5431342  94.2245532  70.2069155  61.8472678
  94.3993279  69.9655095  63.6017814  90.5916955  69.8089106  64.7404465
  89.4335090  69.3895144  64.4764635  90.8000753  70.7695705  65.6049118
  91.7765455  71.0019215  65.7172431  89.7884187  71.4803544  66.4776908
  88.7811349  71.2577273  66.1256744  89.9084208  71.0284978  67.9250347
  90.9611968  71.1106454  68.1952451  89.3245852  71.7277520  68.5235992
  89.4090569  69.5583608  68.1990308  88.3705010  69.4891664  67.8754345
  90.0201254  68.8784948  67.6053309  89.5132187  69.1588991  69.7383194
  90.5487077  69.2028341  70.0758564  88.9040415  69.8255215  70.3487432
  88.9902990  67.7179871  69.8746746  88.0985317  67.6132053  69.2567164
  89.7610502  67.0346119  69.5182478  88.6590393  67.3973663  71.2711267
  87.9445518  68.0302089  71.6014561  88.3197328  66.4477159  71.3271194
  89.4853356  67.4939840  71.8438382  90.0694988  72.9609519  66.2409479
  91.2349812  73.3002801  66.4667093  89.1115671  73.7765831  65.7161673
  88.1954920  73.4103319  65.4999134  89.4056954  75.1874281  65.3651206
  90.2478035  75.6047753  65.9171844  89.7351855  75.2396714  63.8349099
  89.1737532  74.4415475  63.3492235  89.3717524  76.6096927  63.1731002
  89.9331838  77.4083052  63.6579856  89.6246093  76.5802374  62.1132435
  88.3038626  76.7965229  63.2862695  91.2121444  74.9408929  63.6552047
  91.4337412  73.9499325  64.0514298  91.4633393  74.9722344  62.5950073
  91.8017057  75.6856048  64.1899217  88.3020162  76.2233450  65.7091375
  87.1314327  75.9443979  65.5466697  88.5867182  77.4684995  66.1750043
  89.5063667  77.5303459  66.5879462  87.6927915  78.6684844  66.2489053
  86.6362524  78.4155360  66.1603543  87.9487960  79.2467764  67.6735488
  88.9360762  79.7066325  67.6298528  87.1941758  80.0204026  67.8155023
  87.8959714  78.2570767  68.8506283  86.9168589  77.7792245  68.8837482
  88.6667213  77.4966865  68.7247181  88.1344542  79.0071428  70.1421417
  89.1302654  79.4485914  70.1023654  87.3894404  79.7989368  70.2203473
  88.0337046  78.1013316  71.3453730  87.0609224  77.6104216  71.3737062
  88.8202309  77.3470352  71.3227360  88.1979542  78.9611020  72.5718602
  87.4689827  79.6598456  72.5932512  88.1354999  78.3839799  73.3983766
  89.0994690  79.4157471  72.5460122  87.8651271  79.6292693  65.1743882
  89.0142858  80.0759834  64.9336523  86.8259708  79.8760917  64.4676621
  85.9798408  79.3902187  64.7286040  86.7892900  80.7638304  63.2800592
  87.7767866  81.1619398  63.0466959  86.2724331  80.0335239  62.0805592
  85.2802628  79.6367795  62.2957150  86.2136608  80.7186480  61.2348340
  86.9463595  79.2124300  61.8361672  85.9160851  81.9609731  63.6521624
  85.2479626  81.9741295  64.6702003  85.9810566  83.0907037  62.9706571
  86.6855251  83.0901809  62.2469007  85.2230358  84.3227967  63.2010595
  84.1919833  84.2325025  63.5429322  85.9988307  85.2639420  64.1488631
  85.9201678  84.8434797  65.1514218  87.4473037  85.4419308  63.7931678
  87.5267693  85.8628165  62.7908500  87.9173221  86.1169112  64.5084194
  87.9504086  84.4754074  63.8217526  85.2041065  86.5217606  64.3310052
  85.4551867  87.2227753  63.5349914  84.1413553  86.2842768  64.2834583
  85.5233879  87.1510259  65.6804905  86.5859529  87.3892277  65.7286088
  84.9409462  88.0641699  65.8030833  85.2721233  86.4507278  66.4770760
  84.9207097  84.9638040  61.8237510  85.7899377  85.1375581  60.9789847
  83.6601661  85.2207900  61.5564363  83.0126445  85.0228458  62.3058582
  83.1334273  85.7481866  60.3159690  83.5157459  85.1492300  59.4894204
  82.0457459  85.6812559  60.3398210  83.5383825  87.2101572  60.1013390
  83.4942574  88.0088130  61.0372321  84.0071398  87.4815391  58.8774238
  84.0067538  86.6780283  58.2654845  84.6536534  88.7402158  58.3942735
  84.5926233  89.5018856  59.1715982  86.0855723  88.5139678  58.0619586
  86.0263990  87.9965166  57.1044399  86.4539763  89.5276514  57.9044017
  87.0701052  87.7406728  59.0158243  86.7756400  86.6920076  59.0569624
  88.0829134  87.8178785  58.6203994  87.0244553  88.3551220  60.4637560
  86.8060154  89.4221940  60.4220381  86.2704628  87.8538907  61.0706842
  88.3338943  88.1683697  61.0933599  88.9411774  87.5154001  60.6190842
  88.7654273  88.7333121  62.2328639  87.9295517  89.4420794  63.0268902
  86.9607042  89.5526330  62.7638077  88.2783566  89.8572827  63.8789707
  89.9705622  88.6687399  62.5859562  90.6384085  88.1822100  62.0051205
  90.2648348  89.1037166  63.4486831  83.8851048  89.4332596  57.2525129
  83.2223325  90.3675436  57.6269411  84.0555211  89.0615638  55.9907722
  84.4689208  88.1704014  55.7561884  83.5184198  89.8749337  54.9159729
  83.1149799  90.8141614  55.2943730  84.7286692  90.2042012  53.9078021
  85.1950727  89.2948625  53.5287636  84.3985733  90.8188638  53.0703497
  85.7732033  91.0096379  54.7705913  85.3477117  91.8076607  55.3790463
  86.2441053  90.2707746  55.4190005  86.8236298  91.5989421  53.8720271
  87.9430941  90.9947133  53.8261867  86.4189252  92.6046934  53.1480076
  87.0624429  93.0594195  52.5161765  85.4637620  92.9244513  53.2223014
  82.5377910  89.0696040  54.0937805  82.8092666  87.9023403  53.7936649
  81.3581119  89.6271316  53.7961225  81.3070706  90.5302148  54.2454942
  80.2350731  89.2046488  52.9581594  79.7263961  88.3518723  53.4077359
  79.2460746  90.3459461  52.8297757  79.8119417  91.2218815  52.5125520
  78.5399653  90.0673345  52.0475448  78.4697894  90.6759351  54.1339008
  77.7474433  89.8823181  54.3249222  79.1770874  90.7296697  54.9615143
  77.7435100  91.9987316  54.0042222  77.2514178  92.1055617  54.9709339
  78.5570402  92.7203177  53.9295125  76.7615892  92.2816284  52.9401898
  76.0929219  91.5415182  52.7813804  76.5861777  93.4287017  52.3223811
  77.3912131  94.4154809  52.4504784  78.2013429  94.3281490  53.0472722
  77.2124959  95.2767734  51.9541569  75.6825129  93.5871749  51.4078270
  75.0867112  92.8129875  51.1514011  75.5780226  94.4841693  50.9555201
  80.7005523  88.8701931  51.5540912  81.4878530  89.5725731  50.9605510
  80.1050640  87.9394502  50.8410923  79.5085119  87.3188980  51.3694291
  80.2936449  87.6761505  49.4526815  80.5263602  88.6083337  48.9379220
  81.4180922  86.7074452  49.2229987  81.6592368  86.4883868  48.1828247
  82.2321454  87.2764219  49.6720900  81.3707698  85.4294222  49.9174610
  80.5701734  84.3830014  49.4382211  80.0200996  84.3853653  48.4972039
  80.5100044  83.2706777  50.2788330  79.6331002  82.6316817  50.1747948
  81.4904813  82.9575378  51.2104786  81.5331532  81.9980653  51.7259313
  82.4458324  83.9322271  51.4756635  83.2943524  83.7005523  52.1194342
  82.3196367  85.2049132  50.9192735  82.9586339  86.0170793  51.2659269
  79.0661771  87.1874610  48.7197672  78.1842680  86.6218578  49.3406821
  79.0383996  87.3516306  47.3497979  79.7278832  88.0435875  47.0930738
  78.1097529  86.8512108  46.2925485  77.3157922  86.2437225  46.7269256
  77.4542663  88.1051984  45.5766013  77.2281936  88.8131509  46.3739680
  78.2335265  88.5174274  44.9355703  76.1889486  87.8507056  44.7445596
  76.4189526  87.0697149  44.0198165  75.4105855  87.4992993  45.4218827
  75.7042178  89.0865856  44.0172750  75.6040465  89.9497915  44.6752570
  76.3346104  89.3491805  43.1677172  74.2934012  88.6567378  43.5048372
  74.2374021  87.5693773  43.5559438  73.5497206  89.0901633  44.1735529
  74.0273777  89.0987533  42.1202222  74.7161236  88.6968948  41.5003523
  73.1053847  88.7951585  41.8411899  74.0787983  90.1063247  42.0727376
  78.8587274  85.7793288  45.3690620  79.9785625  86.0127423  45.0180900
  78.2807613  84.6126889  45.0879561  77.2926681  84.5609802  45.2906811
  78.9335426  83.4353317  44.4251435  79.9562474  83.2869042  44.7717604
  78.1270478  82.1470319  44.7008101  77.0884223  82.4137580  44.5053271
  78.4856587  80.9056966  43.9127633  79.5240790  80.6380660  44.1081045
  77.8363309  80.0835202  44.2135952  78.3552098  81.1002115  42.8482218
  78.2733017  81.8403772  46.1874384  77.8806748  82.6730459  46.7710555
  77.7173363  80.9343392  46.4284723  79.3265836  81.6942483  46.4269052
  78.8721227  83.6524840  42.9654691  77.8424376  84.1513786  42.4627428
  80.0216720  83.4530033  42.3268261  80.8031863  83.2130179  42.9199043
  80.2504421  83.5310054  40.8438059  79.4078676  84.0625916  40.4015576
  81.5441187  84.2470411  40.4457599  82.2863621  83.5735832  40.8742787
  81.7133162  84.3380341  39.3728235  81.6703556  85.6513534  41.1125711
  81.5403794  85.5176359  42.1865016  82.9975498  86.3242617  40.8458819
  83.1280420  86.4587466  39.7721108  83.0180752  87.2964099  41.3384338
  83.8048291  85.7034989  41.2345386  80.4364261  86.4821331  40.7434207
  79.5386325  85.9802196  41.1041824  80.5105850  87.4677302  41.2029856
  80.3812644  86.5901244  39.6601875  80.3404343  82.1192317  40.3077587
  79.6228594  81.7798847  39.3687982  81.1554662  81.2627577  40.9503421
  81.8300236  81.6089507  41.6175918  81.1980707  79.8403235  40.5922268
  80.1890649  79.4554081  40.4444206  81.9989614  79.6666798  39.2609774
  81.7291372  80.5316086  38.6550134  83.0470751  79.7397416  39.5511837
  81.7909008  78.4353568  38.4789464  81.5618700  77.5628482  39.0908079
  80.9123625  78.7097214  37.8949998  82.9387095  78.1083930  37.5419277
  83.3875849  79.0228259  36.7203023  83.5133074  77.0071419  37.7115484
  81.6804752  78.8566877  41.6021355  82.6355650  79.1906869  42.2948237
  81.1385218  77.6476032  41.6620202  80.3029618  77.5946544  41.0970996
  81.4239459  76.5552523  42.5705842  82.1687914  76.8412718  43.3132128
  80.1148001  76.2091104  43.2963639  79.4598809  75.8408419  42.5067067
  80.3675581  75.3899577  43.9695670  79.3858461  77.3298764  44.0941104
  79.0141945  78.0606657  43.3758326  78.1947279  76.7909955  44.9528081
  78.5656943  76.0604446  45.6716810  77.7264723  77.6187047  45.4854758
  77.4607803  76.3177712  44.3005197  80.4061053  78.0373792  45.0577395
  81.2147614  78.4758892  44.4730312  79.8952790  78.8219219  45.6159963
  80.8168736  77.3057063  45.7534572  82.2458504  75.3328318  42.0521414
  82.1770849  75.0016793  40.8320454  83.1498467  74.7611193  42.8620336
  83.1702693  75.0036752  43.8422626  84.2225714  73.8391492  42.3295282
  83.7910940  73.2455782  41.5235506  85.4604643  74.5761546  41.7890236
  85.8479719  75.2004887  42.5940975  86.2021215  73.8220553  41.5256247
  85.1678939  75.4325362  40.5872336  84.6822403  74.7952639  39.8482307
  84.4746062  76.2104059  40.9071913  86.4661144  76.1092236  39.9374893
  86.9789550  76.7462593  40.6580994  87.1575624  75.3536206  39.5645774
  86.0172487  76.9461498  38.7983193  85.2402567  76.6771943  38.2117652
  86.6862761  77.9987937  38.4858549  86.2142990  78.7991113  37.5619445
  85.3377768  78.5818170  37.1096258  86.7292151  79.6295694  37.3064054
  87.8321336  78.2774553  38.9588923  88.2670367  77.6520363  39.6220743
  88.3025657  79.1230434  38.6694566  84.6732708  72.7887377  43.3554301
  84.5645372  73.0645030  44.5306226  85.1308900  71.6541271  42.9325205
  85.0106110  71.4274935  41.9556533  85.7494014  70.6604007  43.8014609
  85.1939265  70.5322458  44.7305051  85.7679048  69.2703421  43.0235278
  86.2999305  68.5317667  43.6231570  84.3284768  68.7851321  42.7705768
  83.7959297  69.5230265  42.1705727  84.3532866  67.8342673  42.2382801
  83.8158976  68.6541709  43.7235786  86.4596960  69.3860747  41.7448207
  86.4547588  68.5352662  41.3001851  87.1221441  71.0451060  44.2420201
  87.6903174  71.9646143  43.6737073  87.7047828  70.3191699  45.1930306
  87.1434625  69.6291831  45.6715042  89.0131768  70.6560657  45.7509717
  89.7078531  70.8309739  44.9294297  88.9779490  71.8709571  46.6111164
  88.1937711  72.4811535  46.1629817  88.6377078  71.4939117  47.5755710
  90.2504063  72.7324755  46.8133249  91.0777854  72.0280376  46.7278151
  90.3748547  73.5290758  46.0798110  90.2766035  73.3695898  48.2607188
  89.2725570  73.8340848  48.7999265  91.4454337  73.5051530  48.8512344
  91.4969234  73.9083995  49.7758113  92.2852091  73.2052755  48.3769432
  89.7627251  69.4665796  46.3702133  89.2295043  68.7750355  47.2435730
  90.9711918  69.1825357  45.9219773  91.3823808  69.7282013  45.1781548
  91.7640303  68.1585787  46.5300802  91.3354081  67.7818336  47.4587596
  91.7564775  67.0239053  45.4886239  90.7397068  66.7253691  45.2333738
  92.2881628  67.3128887  44.5820372  92.4182317  65.9519927  46.0949562
  92.4452997  65.2083120  45.4884861  93.2318936  68.6016976  46.7328140
  93.9389579  69.0462118  45.8133162  93.7030118  68.7304122  48.0042247
  94.6502875  69.0801077  47.9822862  93.0725954  68.5304171  49.2973875
  92.7492910  67.4934590  49.3884443  94.0632270  68.8471389  50.4585981
  94.1986996  69.9248353  50.5497952  93.5376843  68.4719361  51.3367369
  95.4429614  68.1624540  50.3534425  96.3036509  68.6646143  51.1297991
  95.7096791  67.1633291  49.6610812  91.8725584  69.5082494  49.5716450
  91.6922631  70.4664747  48.8327019  91.0191634  69.0573950  50.4667071
  91.2552108  68.1986816  50.9431443  89.7461081  69.7254962  50.8148969
  89.7413858  69.9455778  51.8824365  89.6682790  70.6558380  50.2523081
  88.5332641  68.8344238  50.4810417  88.6044300  67.6520790  50.5574691
  87.4271162  69.4837229  50.2038568  87.4268000  70.4410617  50.5257289
  86.2179795  68.9626114  49.5940067  86.4274814  68.0375025  49.0569948
  85.1024894  68.6895440  50.7136728  85.5911014  68.0321940  51.4328736
  84.4943736  69.8607108  51.4374335  84.0051427  70.5183192  50.7188899
  83.7603894  69.5014302  52.1587416  85.2765555  70.4117667  51.9595715
  83.9055751  67.9199611  50.1159303  83.4086339  68.6233975  49.4478528
  84.3404876  67.1095064  49.5310254  82.8993957  67.3540899  51.0891275
  82.4636862  68.1640594  51.6741118  82.1115530  66.8389496  50.5395517
  83.3955408  66.6501695  51.7572862  85.7188922  69.9369629  48.4706189
  85.4459330  69.4769288  47.3698143  85.6057993  71.2599880  48.6994934
  85.9581259  71.6416396  49.5656962  84.9945497  72.1779944  47.7330095
  85.1843449  71.8944338  46.6977943  83.4645551  72.0507468  48.0123991
  83.2079856  70.9945070  47.9309818  83.2936632  72.3878618  49.0347735
  82.6067058  72.8474298  47.0733065  82.8858112  73.8911049  47.2180248
  82.7445135  72.5768164  46.0264639  81.1096882  72.6806865  47.4347425
  80.6920043  72.6052755  48.5864640  80.3103259  72.5349280  46.4502592
  79.3210930  72.4213907  46.6194604  80.6709041  72.5338364  45.5068168
  85.4742531  73.6358268  47.9397826  85.7889147  73.9797043  49.0619543
  85.5014625  74.4590274  46.9001218  85.2272821  74.0346105  46.0255964
  85.9508090  75.8655825  46.8851404  85.9039722  76.2788126  47.8926851
  87.4261253  75.9644524  46.3721186  87.7405035  77.0001991  46.5005491
  88.0304537  75.3200366  47.0105663  87.6164027  75.5437890  44.8781438
  87.0892319  74.6031375  44.7188749  87.1703590  76.3195597  44.2557878
  89.1170722  75.3572850  44.4497676  89.9749697  76.1179043  44.8010853
  89.3742255  74.2952363  43.6768078  90.3186708  74.1174107  43.3661591
  88.6226511  73.6765033  43.4077228  85.0026660  76.7406430  46.0298930
  84.2786746  76.1685306  45.2086995  85.1154044  78.0549152  46.0931667
  85.8823266  78.4571132  46.6129421  84.1610202  78.9654426  45.4414092
  83.6706424  78.4691692  44.6039478  83.0501483  79.4098716  46.4902831
  83.5250012  79.9164684  47.3305060  82.3457178  80.0881277  46.0087787
  82.5176431  78.5299078  46.8511169  84.8596030  80.1998813  44.9130116
  85.5434848  80.9419580  45.6421542  84.5750322  80.5482074  43.6324268
  84.2216845  79.8367550  43.0086640  84.8775709  81.8686315  43.0784631
  85.7627266  82.2797744  43.5638084  85.1561519  81.7637004  41.5221466
  85.9643224  81.0370580  41.4387772  84.2413381  81.3377624  41.1100877
  85.5243750  83.0248755  40.7457214  84.6911155  83.7249676  40.8061409
  86.4064832  83.4701879  41.2058128  85.8228122  82.7056991  39.2613816
  86.8224893  82.2724869  39.2286446  85.0932747  81.9587453  38.9484368
  85.7587081  83.8853147  38.3361941  84.7396042  84.2712005  38.3610944
  86.4430636  84.6432300  38.7174041  86.1282499  83.5436081  36.9262554
  85.4939646  82.8416330  36.5726838  86.0673891  84.3722534  36.3520229
  87.0726915  83.1864192  36.9029036  83.7827779  82.6908374  43.4720653
  82.6050404  82.3547172  43.2652912  84.1202628  83.7876709  44.1100827
  85.0981230  84.0188572  44.2122675  83.0962428  84.7207433  44.7149662
  82.1137974  84.6660019  44.2460276  82.9396845  84.4690463  46.1894116
  82.0896536  85.0431973  46.5580541  82.7094274  83.0071463  46.4545346
  83.5593115  82.4323502  46.0865573  82.5985416  82.8448470  47.5266651
  81.8032576  82.6828786  45.9428624  84.0467340  84.9708078  47.0647005
  84.1388894  86.0509964  46.9515541  83.8245533  84.7326068  48.1048907
  84.9835371  84.4944866  46.7755313  83.4962477  86.1993229  44.5203522
  84.6259877  86.4630872  44.1090252  82.5952755  87.1167346  44.8345796
  81.6755714  86.7499148  45.0337954  82.7899904  88.5263900  44.9046285
  83.7941122  88.8003491  44.5809232  81.7506152  89.2041269  43.9431500
  81.9153596  88.7809607  42.9522469  80.7602656  88.9200017  44.2989318
  81.8472697  90.7305041  43.8684607  81.2170553  91.1770893  44.6375461
  82.8853878  91.0153849  44.0395035  81.4138618  91.2656442  42.5147046
  80.3490196  90.8873701  42.0174624  82.1742610  92.1387389  41.9034505
  81.8971583  92.5022057  41.0027800  83.0344124  92.4447348  42.3354313
  82.6102494  89.1013493  46.2910126  81.5919985  88.7916610  46.9055615
  83.5319906  89.9727388  46.7903268  84.3884438  90.1404811  46.2819473
  83.3941494  90.5551684  48.1464026  82.7537998  90.0214578  48.8486878
  84.8043134  90.8473139  48.8300468  85.3492304  91.5270245  48.1749442
  84.6969676  91.4427146  50.1768066  84.1525348  90.7633267  50.8326462
  85.6952523  91.6137143  50.5796559  84.1637508  92.3912984  50.1138159
  85.7626775  89.5587256  48.7179063  85.7182312  89.2240502  47.6815099
  86.7728802  89.8983399  48.9464937  85.4042627  88.4334871  49.6165242
  84.3942910  88.0930060  49.3882052  86.1059196  87.6124729  49.4691724
  85.4489378  88.7672966  50.6531896  82.4624322  91.8169659  48.2200178
  82.5796978  92.7154375  47.3742852  81.5768073  91.8631752  49.2087433
  81.3681893  90.9534017  49.5946062  80.7326213  92.9790217  49.5851879
  80.7903567  93.7643812  48.8315458  79.2871199  92.5172953  49.6964918
  78.9769338  92.2352558  50.7026416  78.8306689  93.4705529  49.4299350
  78.8174063  91.3922750  48.6585205  79.5059178  90.5472741  48.6636399
  77.4124728  90.9177585  49.1208581  76.7232496  91.7621766  49.1155530
  77.0471798  90.1470037  48.4421838  77.4797040  90.5106398  50.1297361
  78.4511148  91.9865109  47.2890140  79.3191367  92.4946099  46.8689273
  78.1384442  91.1870117  46.6173449  77.6356556  92.6998862  47.4082661
  81.2780713  93.8742610  50.7894440  82.1354612  93.4833034  51.5440868
  80.7600923  95.0860684  50.9910815  79.7814634  95.7083445  50.0582734
  78.8180006  95.2210633  50.2079293  80.1254935  95.5269687  49.0400175
  79.7468329  97.1942612  50.4047530  78.8059616  97.6514942  50.0984879
  80.5771156  97.7284430  49.9428202  79.8895347  97.1757370  51.9309938
  78.9949047  96.8548932  52.4646560  80.2368093  98.1236609  52.3420173
  80.9689862  96.1304530  52.0648287  81.8746957  96.7170699  51.9109808
  80.9919739  95.5251993  53.4434517  81.9615830  95.8160037  54.2107952
  80.0146993  94.8578119  53.8102399  62.1302250 108.5562412  70.7985377
  62.2159472 108.6997780  69.8024705  62.1583276 109.4544541  71.2595411
  61.3614010 107.9242146  70.9704435  63.3753567 107.8168571  71.2798726
  63.8861976 108.4433539  72.0110652  63.0611088 106.4504058  71.9333320
  63.9962096 105.9770949  72.2327691  62.4386672 106.6128867  72.8132561
  62.3167733 105.5346215  70.9391913  61.3828267 106.0455935  70.7051992
  62.8772054 105.3640839  70.0199894  62.0057522 104.1732067  71.6149491
  62.6623661 103.8171741  72.6083518  61.1577493 103.4659964  71.0691820
  64.3776604 107.4600036  70.1614541  63.9967390 107.3648168  68.9909959
  65.6636885 107.3326918  70.4512216  66.0069145 107.4993536  71.3863789
  66.6324904 106.9429490  69.4100619  66.3402578 107.4239538  68.4766093
  68.0701480 107.3452700  69.7376002  68.6980306 107.0385172  68.9010798
  68.2304120 108.8150916  69.9684290  67.6031401 109.1225224  70.8051583
  69.2731676 109.0360427  70.1963332  67.9318271 109.3588423  69.0721685
  68.5120943 106.7084870  70.8937359  69.4152708 106.9749393  71.0804865
  66.6387585 105.4019533  69.2009428  66.3208545 104.6447885  70.1088654
  67.2073397 105.0186500  68.0394171  67.2371077 105.6765254  67.2736409
  67.5929269 103.6704520  67.7870648  66.7251630 103.0196282  67.8943654
  68.1434095 103.5111396  66.3995269  67.3636907 103.9332595  65.7655296
  69.0438094 104.1204968  66.3216571  68.4575824 102.0632433  65.9378585
  69.2082152 101.6387991  66.6045656  67.1931937 101.1878910  65.9665017
  66.4422198 101.6114759  65.2996337  67.4418735 100.1786252  65.6384136
  66.7981802 101.1523557  66.9817859  69.0742392 102.0701293  64.5341944
  69.9992323 102.6466260  64.5459718  69.2883963 101.0468232  64.2258398
  68.3741243 102.5218419  63.8314186  68.5079423 103.0378343  68.8484628
  68.3954920 101.8236433  69.1329716  69.4048293 103.9150986  69.3281618
  69.6929603 104.7765237  68.8865436  70.2032340 103.4105447  70.4796241
  70.5772214 102.4093677  70.2654346  71.3816278 104.3230535  70.7292672
  71.8533829 104.4479063  69.7546092  70.9434857 105.2701062  71.0442638
  72.3780774 103.9049425  71.6988590  73.1771500 104.6444392  71.7510936
  71.9174021 103.7985801  72.6809829  73.0578622 102.3478779  71.2034235
  74.0713615 102.8410103  69.7900939  74.8244502 103.5588254  70.1152062
  74.5636318 101.9632267  69.3714455  73.4379780 103.2987465  69.0302227
  69.3712366 103.0680966  71.7324224  69.5025001 102.0326715  72.3699699
  68.4164322 103.9272298  72.1236609  68.3449684 104.8551779  71.7313540
  67.5082285 103.5629929  73.2332047  68.1221568 103.3041016  74.0958556
  66.5428588 104.6594954  73.6372955  65.6789292 104.7366674  72.9771672
  66.2378825 104.2118206  74.5831690  67.1166457 106.0622795  73.8960299
  68.1538085 106.1470335  74.5990094  66.6192212 106.9776319  73.1970115
  66.7124259 102.2863966  72.9537905  66.5792654 101.4329811  73.8649700
  66.2063816 102.0968112  71.7288976  66.2772621 102.8691925  71.0819801
  65.4864892 100.8935928  71.2989565  64.6364440 100.7088904  71.9557726
  64.9687275 101.0844316  69.8704537  65.7642729 101.5185231  69.2648372
  64.6940061 100.1107865  69.4646909  63.7274426 102.0249311  69.8477906
  62.9367498 101.5394851  70.4198463  64.0113219 102.9557680  70.3387664
  63.2292768 102.3231011  68.4538281  62.3039561 102.8976318  68.4961970
  63.9787556 102.8830997  67.8945585  62.9629129 101.0408358  67.7433135
  63.1396282 100.2470813  68.3423334  62.5201867 100.8206741  66.5225321
  62.3898969 101.7283144  65.5683458  62.6417633 102.6890665  65.7516999
  62.0391915 101.4560951  64.6611512  62.2165426  99.5846385  66.2123798
  62.3272274  98.8529705  66.8997741  61.8731743  99.3691196  65.2873131
  66.3646008  99.6334763  71.4237187  65.8982226  98.5663395  71.8129183
  67.6683472  99.7477312  71.0741229  67.9294334 100.5080888  70.4627395
  68.6245688  98.7377356  71.3345995  68.2573264  97.7527284  71.0465143
  69.9710884  99.0200905  70.6115403  70.1513149 100.0927035  70.6830952
  71.1804273  98.2557503  71.1909622  71.0011243  97.1829878  71.1193264
  72.0771656  98.5121827  70.6268670  71.3182170  98.5315494  72.2364516
  69.8967486  98.7183872  69.0065148  70.0268010  97.6455012  68.8647310
  68.9062403  99.0127646  68.6596218  70.9900159  99.4911158  68.1847696
  71.9808696  99.1968920  68.5308060  70.8885514  99.2492499  67.1267975
  70.8603101 100.5641560  68.3256988  68.7090477  98.4541322  72.8400291
  68.5151509  97.2739692  73.2129492  69.0296420  99.4377842  73.6959334
  69.1857395 100.3698080  73.3394723  69.1330548  99.2118030  75.2057440
  69.9994097  98.5802357  75.4023429  69.2893663 100.5414787  76.0159669
  68.6045093 101.3134929  75.6651619  69.1431459 100.3851666  77.0847448
  70.7223639 100.9810744  75.7597117  71.4046256 100.3003553  76.2688690
  70.9200219 100.9585411  74.6880188  70.9291440 102.3803487  76.2789105
  70.3479649 102.4633183  77.1973036  71.9899054 102.4753322  76.5109943
  70.5053603 103.5248887  75.2850768  71.3896537 103.8423761  74.7325122
  69.7697548 103.1192619  74.5904902  69.9178999 104.6997304  76.0038524
  70.5995185 105.0760074  76.6472118  69.6597082 105.4097674  75.3335656
  69.0982343 104.4058412  76.5155912  67.8877248  98.5547733  75.7691741
  67.9713912  97.5099364  76.4940367  66.7633035  99.0549079  75.3251718
  66.8007426  99.8719243  74.7325657  65.4250613  98.5377243  75.7326934
  65.3435254  98.5111887  76.8193153  64.3552921  99.4441190  75.1929682
  64.6983423 100.4468252  75.4479113  64.4061342  99.3069552  74.1128287
  62.8727679  99.2607431  75.6740089  62.4412480  98.4429102  75.0969121
  62.9034999  98.9843811  76.7279452  61.9886759 100.5524018  75.4957648
  60.9623193 100.3308892  75.7883794  62.3819502 101.3492953  76.1269506
  62.0151746 100.9827624  74.0901515  62.9451425 101.5269424  73.9254447
  62.0029577 100.0883782  73.4672335  60.8498015 101.8613767  73.7279908
  60.8611830 102.6903947  74.3047918  60.9175431 102.1266665  72.7558116
  59.9879872 101.3571670  73.8801343  65.3113874  97.0670523  75.2491541
  64.9360810  96.1925919  75.9958542  65.6321589  96.6764087  74.0006545
  65.8133594  97.4023408  73.3222090  65.5899003  95.3158955  73.5463880
  64.5991452  94.8905211  73.7062633  65.9020525  95.2790638  72.0485818
  65.2598350  96.0408841  71.6066702  66.9432997  95.5913174  71.9685693
  65.7042204  93.9275423  71.2899323  65.8356184  94.0168416  70.2115719
  66.4570963  93.2497495  71.6922716  64.3518263  93.3533951  71.5601154
  63.3121359  93.5319320  70.8718498  64.2190617  92.4818772  72.5905810
  63.3154031  92.0793936  72.7943198  65.0244381  92.2391981  73.1496668
  66.4578634  94.3115654  74.3335945  65.9295457  93.2570673  74.7121751
  67.7598414  94.6296828  74.5371739  68.0616928  95.5367205  74.2111866
  68.6908851  93.8209379  75.2186057  68.7801560  92.8664013  74.6999633
  70.0734548  94.4720869  75.2854777  69.7718419  95.4808303  75.5675516
  70.7230979  94.0585803  76.0568895  70.8245608  94.5187142  73.9608771
  70.0892764  94.6030574  73.1606622  71.7716681  95.6582516  73.8839463
  72.5075863  95.5743432  74.6836229  72.2802067  95.6442609  72.9199476
  71.2239754  96.5944823  73.9916733  71.5294263  93.2610963  73.4226095
  70.7967481  92.4671548  73.2779068  72.0076652  93.4913854  72.4705824
  72.2838349  92.9327048  74.1375401  68.3704612  93.5471828  76.7354246
  68.4070536  92.4167131  77.2390248  67.8395022  94.5736494  77.3993967
  68.0504098  95.4919334  77.0355674  67.1502066  94.4743445  78.7555177
  67.7636949  93.9102112  79.4580025  66.9393097  95.9311898  79.3267305
  67.8226155  96.5409155  79.1367180  66.0705919  96.3957084  78.8601987
  66.7134378  95.8237247  80.8142819  65.8232929  95.2252014  81.0079639
  67.5769094  95.3520844  81.2834026  66.5206295  97.2274312  81.3951932
  67.2205857  97.8872172  80.8825112  65.4997486  97.5333412  81.1664562
  66.7401740  97.3510957  82.8798576  66.7355371  96.5009049  83.4250671
  67.1788399  98.5026970  83.4711752  67.8874442  98.4998790  84.5742840
  68.1260922  97.6231651  85.0153281  68.1913625  99.3744347  84.9778751
  67.1671142  99.6586001  82.9583665  66.8075829  99.7894117  82.0236336
  67.5173385 100.4453862  83.4860115  65.9052138  93.5787784  78.7756050
  65.7341660  92.9137904  79.7846499  65.1279082  93.5256108  77.7377322
  65.1132636  94.2805983  77.0670022  64.0738191  92.5154799  77.6671847
  63.5239555  92.4699682  78.6072261  63.1010251  92.8896976  76.5502165
  62.5288039  93.7097206  76.9840648  63.7562756  93.2773678  75.7701789
  62.1684863  91.8912593  75.9628569  62.8382202  91.1771584  75.4836730
  61.5115632  91.3644950  76.6550062  61.3180271  92.6020356  74.8859440
  60.3834068  93.3926657  75.2242588  61.4068636  92.3211933  73.6761202
  64.5365281  91.0435950  77.6706835  63.8745966  90.1511011  78.1795522
  65.6703911  90.7968957  77.0148839  66.1316190  91.5512896  76.5267670
  66.2912316  89.4073868  76.9483710  65.5188184  88.6650233  76.7474398
  67.2965443  89.3468575  75.8678861  67.9726471  90.1991587  75.9354643
  67.8748595  88.4230242  75.8814399  66.6637370  89.4213460  74.5643799
  65.4573995  89.0058848  74.2440055  64.8423162  88.5772866  75.0352551
  65.2351192  89.2314662  72.8544086  64.3549603  89.0012705  72.4157405
  66.3345836  89.8176629  72.2139076  66.6162322  90.2464931  70.9032953
  65.7956107  90.2902107  70.1872172  67.9684105  90.5992540  70.5935894
  68.3311013  90.6624648  69.5676461  68.8585645  90.8734962  71.6509891
  69.8243916  91.3427118  71.4636010  68.5245364  90.5468735  72.9936330
  69.2790044  90.7681725  73.7485539  67.2660585  89.9578220  73.3043575
  66.9549862  89.0457295  78.2793436  67.0335409  87.8214922  78.5107658
  67.5009053  90.0125576  79.0229818  67.4412653  90.9421047  78.6324891
  68.2569829  89.8265153  80.3269392  67.6695795  89.2640338  81.0526602
  69.5189638  89.0337322  80.0018315  69.1974281  88.0324107  79.7153540
  70.1474982  89.4518067  79.2155375  70.3095823  88.9601499  81.2957048
  71.4637238  89.4215314  81.4759867  69.7071962  88.2665441  82.1912890
  68.5679904  91.2074305  81.0363817  69.0503054  92.1092320  80.4160129
  68.6180175  91.2011944  82.3694325  68.4038875  90.3783384  82.9145523
  68.8410240  92.4260422  83.0567656  68.2453565  93.2108855  82.5906106
  68.4475723  92.3277315  84.5505797  67.4110465  91.9917878  84.5213359
  69.0788507  91.5241455  84.9298384  68.5636416  93.5486215  85.4743420
  68.2100608  93.3487594  86.4858442  69.6354897  93.7454222  85.4969325
  67.8439094  94.7511811  84.9192727  66.8873370  94.6054905  84.1141271
  68.1572162  95.8625082  85.3739152  70.2666940  93.0723463  82.9652555
  70.4521848  94.3015758  82.9198469  71.2893512  92.2550791  82.7337676
  71.0845650  91.2660906  82.7257817  72.6727191  92.6683508  82.6887704
  72.7992981  93.5428427  83.3270029  73.6240004  91.5743316  83.1661286
  73.8641648  90.8939558  82.3491163  74.5204441  92.1213240  83.4581697
  73.1375674  90.7431989  84.3737740  73.3460759  91.0845735  85.4745159
  72.4183299  89.7076914  84.1078898  72.0739990  89.1289869  84.8606429
  72.2022984  89.4796276  83.1479845  73.0771971  93.2794889  81.2981281
  74.0540667  94.0222945  81.1066196  72.3113427  92.8913988  80.3191776
  71.5397396  92.3062419  80.6060912  72.6075988  92.9877663  78.9196939
  73.6793795  93.0644953  78.7366699  72.0821247  91.6663744  78.2665902
  72.5909437  90.8582620  78.7920963  71.0204108  91.6471944  78.5125492
  72.2612034  91.4819819  76.7401092  72.1859781  92.4371729  76.2204438
  73.6737960  90.8929463  76.5320870  73.7496415  89.9374582  77.0511138
  73.8521552  90.7426198  75.4673379  74.4178829  91.5824850  76.9307995
  71.2050612  90.5033487  76.1571042  70.2048401  90.8951319  76.3419368
  71.3606024  90.3975502  75.0834586  71.3076061  89.5296940  76.6362493
  72.2434531  94.3569536  78.2242272  72.6385107  94.6501416  77.0879411
  71.6111414  95.2266184  79.0521470  71.2707892  94.8003008  79.9021547
  71.3557599  96.6464521  78.8406579  70.7735938  96.8012044  77.9322342
  70.5486348  97.1925460  80.0449155  70.1025035  98.1251376  79.6994608
  69.7624636  96.4597639  80.2267539  71.3157503  97.4449040  81.3366474
  71.8648246  96.5420242  81.6039047  72.0182953  98.2627760  81.1765913
  70.3207641  97.8254372  82.5116673  69.9525710  98.8284959  82.2962468
  69.4938668  97.1170002  82.4620969  70.9445990  97.7967635  83.9411557
  71.7912796  98.4827589  83.9665091  70.1910828  98.1238118  84.6576416
  71.4043133  96.4305081  84.2959641  72.1028565  96.1274397  83.6324232
  71.8029980  96.4398412  85.2238992  70.6198310  95.7947749  84.2729468
  72.5862485  97.5030994  78.6752159  72.5126023  98.6383869  78.1474124
  73.7616133  97.0866068  79.1785205  73.6964849  96.2961682  79.8038719
  74.9905728  97.7261564  79.0495090  74.9303980  98.7689834  79.3609409
  75.9952638  96.9874593  79.9782026  75.5121989  97.0493395  80.9533530
  76.0558229  95.9440294  79.6688698  77.4088971  97.5761132  80.0699425
  78.3536256  96.7708959  80.2961444  77.6051340  98.8126665  79.9986325
  75.5754860  97.9623925  77.6189962  75.6653316  97.0584704  76.7965476
  76.0271002  99.1704901  77.4085398  76.1683149  99.7553651  78.2197605
  76.4343926  99.6878258  76.1000267  76.1531408  99.0454525  75.2655489
  75.6074763 101.0294659  76.0049619  76.0932631 101.2513972  75.0547741
  74.5429622 100.8646196  75.8384224  75.8004231 102.2287987  76.9786155
  76.2682740 102.0723602  78.1500511  75.1413093 103.2811611  76.6374111
  77.9105451 100.0794669  75.9695768  78.3330628 100.8326538  75.1026194
  78.6867850  99.7495578  76.9980678  78.3569056  98.9921795  77.5791505
  80.0343562 100.3728834  77.3230773  79.9753696 101.4611910  77.3374363
  80.4421082  99.8795583  78.7371599  80.3108892  98.8041433  78.8570080
  81.4661275 100.1509402  78.9937458  79.5669314 100.5455094  79.5718823
  79.7446762 100.3005512  80.4829269  81.1179398  99.8406839  76.2669432
  82.2854363 100.2101847  76.4119608  80.8035583  99.1156620  75.2144051
  79.8580227  98.7794337  75.1003338  81.8040369  98.7304101  74.2135246
  82.7038591  98.3306391  74.6810739  81.1721968  97.6324282  73.3475823
  80.2311036  97.9567101  72.9034157  81.9135342  97.4878992  72.5616877
  80.9548103  96.3051150  74.0982378  80.4911894  96.5005713  75.0651676
  80.0403856  95.4094732  73.2679383  80.5035768  95.2131834  72.3009724
  79.8807636  94.4670189  73.7917717  79.0825953  95.9074357  73.1170363
  82.3456428  95.5802897  74.1484899  83.0646625  96.2087173  74.6740265
  82.2422188  94.6305135  74.6732090  82.6975386  95.3974355  73.1331906
  82.2489243  99.9150631  73.3733738  81.4098533 100.6257983  72.9161207
  83.5175881 100.0233423  72.9307805  84.6582541  99.3355209  73.4997180
  84.7296344  98.3477831  73.0443291  84.4991487  99.2296483  74.5728328
  85.8663993 100.2246413  73.1719576  86.4404688  99.7669448  72.3663167
  86.4945944 100.3171388  74.0579127  85.3055265 101.5874723  72.7547534
  85.9434896 102.0165649  71.9821076  85.1876253 102.3043281  73.5673521
  83.9336790 101.2364921  72.1630293  83.2035338 102.0269315  72.3367873
  84.0161332 100.9388430  70.6604158  84.6547643 101.6631986  69.9118001
  83.3512754  99.9238743  70.1724121  82.8247833  99.3972216  70.8547188
  83.3354734  99.4744091  68.7992999  84.3664634  99.4179090  68.4500628
  82.6645009  98.0823624  68.5979473  82.3611540  97.9955961  67.5546106
  83.3996033  97.3109542  68.8274118  81.5656922  97.9237253  69.4091098
  81.1792442  97.0579135  69.2586846  82.6143709 100.4626705  67.8434732
  81.9303324 101.4141054  68.2417257  82.9421715 100.3005236  66.5576392
  83.7010948  99.6661877  66.3533043  82.3406790 100.9706435  65.4993996
  82.4963001 102.0477202  65.5609372  83.0072858 100.4541600  64.2306218
  84.0851693 100.6026806  64.1657524  82.7893088  99.3866052  64.2608363
  82.3646567 101.0426779  62.9993536  81.4085607 100.5514351  62.4549806
  82.8294070 102.2113628  62.6782668  82.4643764 102.6914387  61.8680942
  83.5538686 102.6351331  63.2401163  80.8164199 100.7464185  65.4702889
  80.3893451  99.5741958  65.6253213  79.9788549 101.7539219  65.1812750
  80.2918243 103.1377914  65.2695440  80.5340857 103.5208628  64.2782489
  81.1468141 103.2768550  65.9311728  79.0512061 103.7279701  65.8192627
  78.9561919 104.7660074  65.5005938  79.0647431 103.6825353  66.9082318
  77.9182504 102.8590625  65.2476144  77.5587488 103.0770950  64.2419706
  77.0829500 102.8938584  65.9470157  78.5601784 101.4904350  65.2784529
  78.3953524 101.1304983  66.2940198  77.9635436 100.4695846  64.2629902
  77.0729244  99.7330345  64.6267159  78.5253257 100.2329944  63.0582787
  79.3363703 100.7924934  62.8363172  78.0876694  99.2122148  62.0795289
  77.0095302  99.1978633  61.9198132  78.8066857  99.3851296  60.7228860
  79.8877723  99.3816875  60.8619548  78.4045642  98.2106249  59.8350200
  77.3235852  98.2136719  59.6951062  78.8960374  98.3017717  58.8663885
  78.7064787  97.2764478  60.3085809  78.5088916 100.7944483  60.1329321
  77.4268742 100.9246544  60.1132966  78.9513019 101.5342562  60.8000579
  79.0695179 100.9800520  58.7237382  78.6271908 100.2408409  58.0558957
  78.8302553 101.9814669  58.3659382  80.1516189 100.8504403  58.7426568
  78.4924093  97.8006843  62.6650449  77.5638218  96.9597549  62.6574993
  79.7377287  97.5223088  63.0799866  80.3854729  98.2951393  63.1370815
  80.1786398  96.2242115  63.5349096  79.9969468  95.4613011  62.7779059
  81.7140668  96.3051375  63.8029465  81.9512371  97.1848113  64.4012970
  81.9019960  95.4058868  64.3895731  82.6550332  96.2879391  62.4603089
  82.1725962  96.1554082  61.2898355  83.8942958  96.5096989  62.5971876
  79.4792066  95.9313709  64.9266138  79.1716208  94.7574993  65.1849597
  79.1473487  96.9313071  65.7793499  79.6880358  97.7809240  65.7024875
  78.2068113  96.8226133  66.8458100  78.4612562  95.9531253  67.4519021
  78.1982583  98.0572539  67.7433770  79.1508691  98.2157726  68.2488507
  77.9926152  98.9005569  67.0840963  77.1545372  98.0753549  68.7919148
  75.8878776  98.5759656  68.5847712  75.6254017  98.9738453  67.6045171
  74.9503248  98.5773208  69.6079149  73.9467782  98.9719075  69.4488667
  75.3149466  98.0541275  70.8774407  74.5741246  98.0322588  71.6766930
  76.5702762  97.5843627  71.1015004  76.8568648  97.3125702  72.1174217
  77.5211694  97.4422263  70.0182178  78.4427921  96.8809637  70.1721524
  76.7836383  96.4790138  66.4320107  76.1041376  95.6924895  67.0850139
  76.2989262  96.9995532  65.3032516  76.8314108  97.7077322  64.8184405
  74.9591741  96.6726306  64.8030705  74.2143272  96.7516802  65.5949375
  74.6232536  97.6448166  63.7391214  73.5488651  97.8094887  63.8208025
  75.1517616  98.5612550  64.0016476  74.9420369  97.2823675  62.4203216
  74.6793658  97.9862081  61.8226494  74.7316481  95.2133594  64.3203816
  73.6754097  94.6218876  64.6263789  75.6877317  94.5786185  63.6944509
  76.3252358  95.2010113  63.2187251  75.8466851  93.1212231  63.4905454
  74.9011967  92.7387944  63.1059688  76.9764533  92.7170310  62.5153255
  77.8598105  93.2284571  62.8977163  77.0994792  91.6407796  62.6363523
  76.7972844  93.0498638  61.0147217  77.5395573  94.1054708  60.4263962
  78.2463313  94.6680743  61.0363529  77.3714612  94.4257605  59.0805763
  77.9147081  95.2744152  58.6649204  76.4504823  93.7235310  58.2852582
  76.4123497  93.9791330  56.9642573  77.0480542  94.6452174  56.6925755
  75.6314796  92.6952304  58.8439884  74.8421520  92.1942793  58.2835328
  75.8845419  92.3314655  60.1994855  75.3697007  91.4775741  60.6398355
  75.9744258  92.4326620  64.8022827  75.5149346  91.3143098  64.8940053
  76.6070670  93.0523575  65.7893677  77.2055861  93.8552369  65.6579947
  76.6262462  92.3731352  67.0970814  76.9605229  91.3442167  66.9640962
  77.5746882  93.0739502  68.0803722  78.5905899  92.9694246  67.6994294
  77.3777551  94.1220584  68.3057310  77.5302701  92.3682433  69.3331318
  78.1591569  91.2489096  69.6415464  78.9129012  90.8906531  68.9403891
  77.6885332  90.7655456  70.8493021  78.0699026  89.9423920  71.2932334
  76.7263806  91.6237516  71.4098070  76.0029816  91.6510162  72.5957630
  76.1610677  90.8255604  73.2898308  75.1218417  92.7212733  72.8340300
  74.3948015  92.7185725  73.6461293  75.1889784  93.8384394  71.9829298
  74.6777104  94.7566697  72.2719930  75.8911908  93.8290966  70.7635232
  75.7948235  94.6899722  70.1019287  76.6927122  92.7015249  70.4520036
  75.2144064  92.1027211  67.6297076  74.8670656  90.9860833  68.0459580
  74.3710021  93.1605949  67.5863230  74.8315459  94.0310453  67.3620135
  72.9389856  93.1980991  67.9429856  72.7257430  92.7548236  68.9156796
  72.3692134  94.6132397  67.9166273  72.5688757  95.0628718  66.9439685
  70.8578209  94.5733460  68.1595579  70.6573806  94.1242322  69.1322970
  70.4591196  95.5876046  68.1391321  70.3796083  93.9797614  67.3804098
  72.9817238  95.6359628  68.8299457  74.0386303  95.7516900  68.5898251
  72.4733016  96.5912543  68.6994674  72.8784444  95.3083065  69.8643902
  72.2184152  92.2110407  67.0232574  71.4974638  91.3573153  67.5103395
  72.5100902  92.2969610  65.7020033  73.2078764  92.9337595  65.3446779
  71.7995889  91.3643403  64.7102672  70.7255302  91.5238188  64.8054703
  72.2022349  91.6899642  63.3366619  73.2739138  91.5264701  63.2231986
  71.6618096  91.0512873  62.6379970  71.9703802  92.7342611  63.1274097
  72.1205800  89.9070324  64.8594661  71.2005068  89.0777987  64.7790733
  73.3364833  89.5771558  65.3697196  73.9655728  90.3648539  65.3074502
  73.8739615  88.3024488  65.7878502  73.6393693  87.6380157  64.9562287
  75.4050334  88.3639258  65.9522928  75.6553158  89.0184459  66.7871953
  75.7904743  87.3632254  66.1475727  75.8537548  88.7536506  65.0385844
  73.1201520  87.7122239  67.0214822  72.8200004  86.5520270  67.0605366
  72.7055987  88.5819019  67.9565061  73.0416100  89.5328651  67.9029838
  71.8684966  88.1891464  69.1368260  71.9996495  87.1361741  69.3861200
  72.3441188  89.0452542  70.3376474  72.3351165  90.0952861  70.0453267
  71.6770847  88.8994471  71.1872978  73.7346306  88.6759064  70.7521256
  73.8568558  87.8791140  71.6523055  74.7959241  89.2031365  70.1767930
  75.7195048  88.9309099  70.4817374  74.6811241  89.8771493  69.4334031
  70.3478227  88.2794713  68.9420181  69.6871509  87.7439252  69.8576491
  69.8312064  88.7261350  67.7860833  70.5128160  88.8898090  67.0589530
  68.4559294  88.9260262  67.4791150  67.8099187  89.0445724  68.3490093
  68.5337256  90.3155410  66.7110664  68.9780644  91.0687309  67.3617332
  69.1695864  90.1697238  65.8378434  67.1195878  90.7941727  66.2509721
  66.7547302  90.0736512  65.5189690  66.1353959  90.9122587  67.3649107
  66.4993687  91.6330019  68.0971346  65.1771016  91.2491297  66.9695744
  66.0092556  89.9410870  67.8434652  67.3597366  92.1861540  65.6511275
  68.0535105  92.1069303  64.8141683  66.4139854  92.5993888  65.3005666
  67.7825270  92.8422285  66.4119912  67.9372596  87.8265026  66.5499656
  68.4710138  87.6715231  65.4493604  67.0016120  86.9600331  66.9661450
  66.3275461  86.8920239  68.2730355  66.0475908  87.8995601  68.5806001
  67.0145185  86.4670062  69.0048332  65.1281475  86.0061930  68.0262364
  64.2507588  86.5951947  67.7590941  64.9027036  85.3954484  68.9004603
  65.5831242  85.1556765  66.8840705  64.7022045  84.8246850  66.3340485
  66.1356275  84.2865901  67.2411821  66.4627869  85.9923329  65.9880736
  67.3131785  85.4512923  65.5730946  65.6492171  86.6323690  64.8387452
  64.5977982  87.1960127  65.1430264  65.9795541  86.3706195  63.5579994
  66.8515031  85.8677051  63.4750452  65.3193046  86.8835524  62.2874703
  64.2494792  87.0694742  62.3823697  66.0168771  88.1498957  61.7005741
  67.0757362  87.9606037  61.5242605  65.3186784  88.4673918  60.3554106
  64.2598012  88.6572664  60.5309880  65.7760524  89.3495372  59.9073825
  65.4280028  87.6191823  59.6796237  66.1135048  89.3303708  62.6822903
  66.7248558  88.9874644  63.5170154  66.6354312  90.1282715  62.1540416
  64.7833209  89.8558182  63.2093632  64.2609906  89.0585515  63.7381702
  64.9648202  90.6858335  63.8921748  64.1715649  90.1993567  62.3751956
  65.1597865  85.7219951  61.2988324  66.1053146  84.9073742  61.1314547
  64.0220737  85.4810502  60.7403075  63.2290406  86.0711851  60.9475238
  63.8407089  84.3744824  59.7678835  63.7692236  83.3898259  60.2298798
  62.4843850  84.7204446  59.1382093  61.7659812  84.5378332  59.9373641
  62.4679987  85.7768055  58.8700058  62.1102387  83.8740582  57.9096547
  61.6484757  84.3805826  56.8909271  62.2314255  82.6342960  58.0055798
  64.9073739  84.2151210  58.5943334  65.4452741  85.2009079  58.1620782
  65.2050534  82.9630182  58.0409596  64.6894154  82.1503420  58.3471853
  66.2526189  82.7806716  57.0808501  67.2181619  82.9338394  57.5628932
  66.2186707  81.3246346  56.4704422  65.2282472  81.2999458  56.0159635
  66.9743180  81.1571337  55.7029523  66.3203611  80.2180204  57.5425924
  66.8503086  80.3672097  58.6369526  65.9448846  79.0931493  57.1517582
  66.2734429  83.7686359  55.8619740  67.2541212  84.4125609  55.5375289
  65.1126697  84.0386670  55.2411530  64.3368629  83.5017253  55.6015928
  64.8782004  84.9108383  54.0510226  65.4996499  84.5969413  53.2123521
  63.4031175  84.7879320  53.6417971  63.3282060  85.2304669  52.6484943
  63.1957702  83.7196428  53.5796259  62.4444420  85.4132275  54.5200293
  61.5588069  85.2782314  54.1750274  65.3036457  86.3753819  54.2202723
  65.8682185  86.9610822  53.3424239  65.1288259  86.7804216  55.4696925
  64.5470038  86.2352154  56.0896381  65.6387233  88.1625918  55.9636442
  65.7342871  88.8719977  55.1416283  64.5749410  88.7038595  56.9680900
  64.2222223  87.8001288  57.4650404  65.1234462  89.3194273  57.6810544
  63.3695889  89.4957459  56.4272986  62.9603339  88.9357775  55.5864380
  62.2930921  89.7184737  57.4517614  62.7015037  90.2788230  58.2927771
  61.4750050  90.2821128  57.0032692  61.9207857  88.7562769  57.8034227
  63.6668910  90.9157842  55.8464358  64.3624692  90.8291411  55.0117123
  62.7381772  91.3686531  55.4993021  64.1076821  91.5414048  56.6225808
  67.0830505  88.1527926  56.5002603  67.6735100  89.1907370  56.6339505
  67.7054377  86.9911415  56.6857563  67.1331758  86.1723395  56.8346825
  69.2038361  86.8606939  56.8585877  69.5320967  87.7385342  57.4151310
  69.7117212  85.5890753  57.5924772  69.1511593  84.7310879  57.2213608
  70.7691418  85.4586794  57.3623499  69.5324191  85.6984674  59.0856132
  68.6263024  86.2623476  59.3071813  69.4553462  84.7021913  59.5210392
  70.7696642  86.4393881  59.6945321  71.6777325  86.0743338  59.2146921
  70.6699541  87.5099562  59.5155318  70.8803175  86.2078235  61.1702487
  71.1361148  85.2573361  61.3966134  70.5582461  87.0219352  62.1520217
  69.9721985  88.1948230  62.0549688  69.7205140  88.5565141  61.1461593
  69.7763993  88.7287089  62.8896712  70.9747009  86.7308969  63.3246124
  71.5301732  85.8996473  63.4680516  70.7463770  87.3335172  64.1023114
  69.8643329  87.0547971  55.4606467  70.8491476  87.7349004  55.3354729
  69.1882695  86.5033881  54.4697586  68.4594203  85.8318464  54.6644634
  69.6546582  86.6413851  53.0871523  70.7372471  86.6126742  52.9635556
  69.0058889  85.5598181  52.1946590  67.9246634  85.6872372  52.2477278
  69.4639423  85.6491222  50.7181511  70.5450808  85.5213237  50.6642278
  68.9765913  84.8655493  50.1379759  69.1930416  86.6234450  50.3114483
  69.1608671  84.1195214  52.7120459  68.6041400  84.0894571  53.6486632
  68.6611984  83.4935602  51.9727197  70.5174503  83.6210287  52.9354759
  71.0176262  84.2462542  53.6750818  70.4725798  82.5944049  53.2989720
  71.0746855  83.6503595  51.9991381  69.5640393  88.0927586  52.6275512
  70.5413667  88.5707237  52.0274666  68.5302972  88.8408124  52.9907684
  67.6684700  88.3410056  53.1567396  68.4922022  90.3121402  52.9773422
  68.6724814  90.7097936  51.9786078  67.1031931  90.7151871  53.4139733
  66.4294571  90.1026129  52.8148640  67.0361802  90.4124692  54.4589476
  66.6955888  92.2250433  53.2798351  65.8586072  92.4740576  53.9321805
  67.5700597  92.8054259  53.5740438  66.3265089  92.5930024  51.8565417
  66.5610693  91.9479094  50.8662537  65.6252786  93.6869257  51.6083744
  65.3843146  93.9235159  50.6565010  65.3340954  94.2804848  52.3719196
  69.5683889  91.0909412  53.6736182  70.0698102  92.0819563  53.2368955
  69.9242402  90.6142347  54.8343549  69.2474920  90.0654634  55.3451986
  71.1728037  91.0497096  55.5478482  71.2081010  92.1377633  55.6025529
  71.1956373  90.4885594  56.9683741  70.3891883  91.0160521  57.4777764
  70.9430383  89.4313690  56.8868753  72.5435059  90.6492165  57.8008743
  72.9048774  91.6772616  57.7756766  72.1779713  90.2545278  59.2915769
  71.8169341  89.2263880  59.3176463  73.0645125  90.3437796  59.9194141
  71.4006994  90.9215689  59.6644106  73.6857273  89.7761156  57.2697867
  73.9016684  90.0483402  56.2366542  74.5758831  89.9310873  57.8794651
  73.3931160  88.7271003  57.3150016  72.5174244  90.8276993  54.6836291
  73.3847937  91.6498409  54.7057123  72.5678711  89.7761112  53.8657034
  71.8897931  89.0290691  53.9130085  73.6841585  89.6256981  52.9785770
  74.6127828  89.9986982  53.4105805  73.8201464  88.0800861  52.7571100
  72.9119522  87.5770974  52.4250181  74.6025776  87.9468238  52.0100205
  74.3036838  87.4456612  54.1617344  73.6236217  87.7434163  54.9598311
  74.2985711  85.9068121  54.0288049  74.9788007  85.6082486  53.2311544
  74.6226156  85.4593612  54.9684238  73.2906832  85.5653315  53.7928951
  75.7594382  87.7615476  54.5360441  75.8887871  88.8409560  54.6150746
  75.9983121  87.2965180  55.4924896  76.4257799  87.3716610  53.7665792
  73.5402838  90.4703161  51.6702966  74.5893255  90.9930682  51.1586495
  72.3772453  90.7551637  51.2225227  71.5859791  90.3185719  51.6735046
  72.1234318  91.6425797  50.0615712  72.8214163  91.3805844  49.2664138
  70.6965839  91.5256032  49.5183672  70.4876069  90.4822503  49.2820567
  69.9949531  91.8734529  50.2765326  70.5459650  92.3638401  48.2711179
  70.4437362  93.4250477  48.4980288  71.3727696  92.2195377  47.5756519
  69.2628923  91.8557945  47.6427811  69.4126213  92.0615190  46.5828954
  69.3164541  90.7807893  47.8148113  67.9306750  92.3571978  48.0600553
  68.0096635  92.4698381  49.1413386  67.8540166  93.3411617  47.5974130
  66.7171271  91.5587603  47.7317933  66.7877643  90.6471107  48.1607515
  65.8971449  92.0330846  48.0821441  66.6435154  91.4546314  46.7298763
  72.3793935  93.0681497  50.4051462  73.2493648  93.6359031  49.7564129
  71.6710123  93.6826911  51.3376198  71.1778953  93.0564995  51.9579577
  71.4708516  95.1375082  51.5060949  71.5134205  95.7086174  50.5786676
  70.0863014  95.3822781  52.2086086  70.0218643  94.6785355  53.0384848
  69.8797721  96.8417255  52.7440701  69.9436169  97.5460456  51.9146380
  68.8992270  96.9217620  53.2133528  70.6527205  97.0732012  53.4769200
  68.9739925  94.9645262  51.2444730  69.0587046  93.8843976  51.1251133
  68.0319713  95.2021651  51.7386626  69.0099928  95.6158164  49.9058883
  69.9515910  95.3782348  49.4108653  68.1799195  95.2506410  49.3011367
  68.9248600  96.6960032  50.0244150  72.6155744  95.8056985  52.2788305
  73.0270540  95.2958037  53.3252386  73.3080566  96.7834374  51.7198724
  73.0009853  97.0368735  50.7916609  74.5839183  97.4179668  52.2565095
  75.1596877  96.6328467  52.7465861  75.4732004  98.0902072  51.1943144
  75.0306029  99.0114696  50.8155240  76.4522544  98.3069815  51.6215873
  75.6284165  97.0869624  50.0437398  75.1306727  97.3675939  48.9190322
  76.2887131  96.0229059  50.2955694  74.2779914  98.3809613  53.4472233
  75.1721276  98.7745527  54.1609692  73.0447828  98.7430297  53.6292019
  72.4189570  98.4304096  52.9007034  72.4928797  99.6098926  54.7129978
  73.1830325 100.4106324  54.9787119  71.2263070 100.2249600  54.1719415
  70.6197778  99.4188472  53.7591417  70.6997001 100.6830387  55.0091685
  71.4614238 101.2066240  53.1641221  70.6223695 101.5603481  52.8600383
  72.2708286  98.8196597  56.0360273  71.0976201  98.6537667  56.4346780
  73.3975769  98.4495303  56.6655456  74.2909962  98.7936209  56.3438267
  73.3814287  97.5227195  57.7282187  72.9291229  96.5916924  57.3865945
  74.8664547  97.2541214  58.0721804  75.3306868  98.1752346  58.4245142
  74.9277517  96.4954459  58.8524076  75.3881908  96.9022648  57.1821874
  72.5692822  97.9832069  58.9751411  71.8489538  97.1944384  59.5273324
  72.7364300  99.2457376  59.3552987  73.5098350  99.7367714  58.9300578
  72.0197786  99.9005668  60.4866101  71.8115166  99.2358116  61.3249577
  72.7902688 101.1409097  60.9922853  72.9024481 101.8563235  60.1776078
  71.9970634 101.8061505  62.1641193  71.8848783 101.0914429  62.9794156
  72.5405528 102.6810714  62.5208172  71.0120287 102.1103349  61.8101734
  74.2805950 100.8116754  61.3594455  74.2857999 100.0150448  62.1033899
  74.7915401 100.4705981  60.4590562  75.0090400 102.0500715  61.9265813
  74.4989069 102.3914689  62.8273098  76.0383376 101.7868638  62.1702358
  75.0046449 102.8470233  61.1829763  70.5754569 100.1633409  60.2327885
  69.7397420  99.5979866  60.9365649  70.1966835 100.7750711  59.1119165
  70.9147749 101.1662553  58.5191105  68.7824788 100.8660288  58.6602411
  68.2027791 101.4779947  59.3512875  68.7293781 101.5411731  57.2119795
  69.4045000 102.3969109  57.2167258  69.0800003 100.8064384  56.4871836
  67.3274126 102.0024829  56.8298711  66.7997183 101.9189260  57.7799541
  67.3773713 103.0502342  56.5335211  66.5718301 101.2573878  55.8034241
  66.9967431 100.1971197  55.2450394  65.4076672 101.7789504  55.3712306
  64.8690302 101.2914653  54.6695685  65.0786021 102.6551775  55.7507614
  68.0811469  99.4930326  58.4933760  66.8906375  99.2754439  58.8163350
  68.8403389  98.4998505  58.0790574  69.7611805  98.6490710  57.6919096
  68.2573513  97.1553200  57.9900341  67.2710805  97.1657653  57.5260729
  69.2521380  96.3106312  57.0595761  69.4554364  96.9010365  56.1661610
  70.1788764  96.1592243  57.6130486  68.6601693  94.9217753  56.6434999
  67.7294308  94.7845563  57.1939522  68.4471748  94.9635440  55.5753282
  69.5838113  93.7684910  56.9255386  69.1360354  92.8477942  56.5514890
  70.5366136  93.9383407  56.4241224  69.8236499  93.6244575  58.3296489
  68.9842340  93.3511060  58.8203212  70.8907498  93.8658391  59.0193784
  72.0211910  94.2489935  58.4971663  72.0960384  94.3725266  57.4975476
  72.8173875  94.4206922  59.0944019  70.9497255  93.6556741  60.2945421
  70.1431514  93.2911375  60.7810103  71.8020619  93.8571290  60.7975703
  67.9223755  96.5621570  59.3266455  66.8241671  95.8851342  59.4644835
  68.8177845  96.7382342  60.2810985  69.6601300  97.2521008  60.0654729
  68.6153006  96.2792097  61.6649724  68.4136100  95.2081765  61.6474274
  69.8228980  96.5337688  62.5648180  70.5032346  95.7499168  62.2319254
  70.2353623  97.5078889  62.3020190  69.6492164  96.4470163  64.0768675
  68.8482459  97.1092058  64.4055806  69.2819996  94.9753221  64.4272556
  70.0827638  94.3125393  64.0992396  69.1506139  94.8798388  65.5050874
  68.3551400  94.7016828  63.9231193  70.9081777  96.9493641  64.8660899
  71.1035484  97.9916857  64.6141067  70.7244694  96.8632905  65.9370446
  71.7726488  96.3427094  64.5963518  67.4557838  97.1031664  62.2620880
  66.6604166  96.5693230  63.0533638  67.3352117  98.3522258  61.9298323
  68.0740714  98.8295621  61.4335100  66.1267970  99.1281214  62.3103789
  66.0331235  99.1374083  63.3963063  66.2062062 100.5871568  61.8092841
  67.1954083 101.0220777  61.9521902  65.9152086 100.6834271  60.7632667
  65.1763374 101.3356566  62.7050159  64.6141959 100.5799919  63.2537132
  65.7420046 101.9480643  63.4072121  64.2189458 102.2117790  61.9307830
  63.5594676 102.7129546  62.6393099  64.7974065 102.9565855  61.3842064
  63.4023778 101.4643224  60.9802912  62.8543461 100.7104868  61.3695115
  63.2000642 101.8077652  59.6983235  63.9609620 102.5136387  58.9638589
  64.8238834 102.8793266  59.3403414  63.6988017 102.7052700  58.0074861
  62.2661792 101.2958254  59.0325326  61.6564710 100.6158094  59.4637335
  62.1294495 101.5666544  58.0691764  64.8924650  98.4631832  61.7524912
  63.8890555  98.3267015  62.5716622  64.7698621  98.1203911  60.5326350
  65.5254317  98.3350158  59.8976939  63.5897972  97.4101617  60.0015203
  62.6715357  97.9634270  60.1984783  63.7720549  97.2919885  58.4997150
  64.6487979  96.7013025  58.2341759  62.8924966  96.8774019  58.0071756
  64.0308745  98.9324860  57.7698661  64.1506216  98.5089567  56.5148036
  63.3752183  95.9709727  60.5477401  62.2231286  95.4699265  60.6917474
  64.4899661  95.3711722  60.9881179  65.3950509  95.7005849  60.6841308
  64.4287783  94.1060355  61.8348257  63.7164058  93.4235230  61.3713590
  65.7757223  93.3861896  61.9773059  66.5373451  94.1494149  62.1370464
  65.7118057  92.7474451  62.8582260  66.1511258  92.5379518  60.7580627
  65.6668687  91.5615116  60.7707333  65.7656069  93.1233240  59.9233090
  67.6478523  92.3572896  60.5994945  68.4862296  92.7829832  61.4163975
  68.0117530  91.6443814  59.6383649  63.8180043  94.3054648  63.2474552
  63.1375712  93.3946197  63.7243095  64.1042848  95.4211842  63.9359744
  64.7767095  96.0488318  63.5188380  63.5902903  95.7399920  65.3022087
  63.5704918  94.8395723  65.9161725  64.5249129  96.7901384  65.9856669
  64.6215389  97.5551085  65.2152232  63.9361654  97.1825950  66.8147955
  65.9887655  96.3745983  66.5161166  66.6283207  96.1686905  65.6578206
  66.6141695  97.5173959  67.3659616  65.9753665  97.7235666  68.2247533
  67.6018965  97.2139958  67.7130129  66.7041340  98.4166064  66.7565132
  65.9430042  95.1229099  67.3463877  65.5497050  94.3023870  66.7462566
  66.9485535  94.8745527  67.6859326  65.2975134  95.2825847  68.2100686
  62.1252882  96.1942533  65.2087709  61.3023745  95.8342341  66.0718196
  61.7744799  96.9158242  64.1673910  62.4986999  97.4131666  63.6691387
  60.3337503  97.1434585  63.7567150  59.8133178  97.6063405  64.5951597
  60.1693131  98.0446415  62.5166663  60.7052151  97.4715027  61.7600818
  59.1083916  98.0709573  62.2679633  60.7180951  99.4709820  62.5585717
  60.7584699 100.0852813  63.6629445  61.0631656 100.0886921  61.5187878
  59.5959369  95.8336020  63.5600594  58.4800531  95.7128709  63.9665387
  60.2415916  94.8825838  62.8339709  61.0028060  95.0622591  62.1949336
  59.5991435  93.5561370  62.8003682  58.5468280  93.7502619  62.5928907
  60.1918601  92.5881431  61.6797376  61.2592893  92.4906075  61.8776826
  59.5274399  91.1442665  61.6346244  58.4600151  91.2409687  61.4362467
  59.9914765  90.5547527  60.8439006  59.6747101  90.6458752  62.5927563
  59.9350366  93.1721031  60.2471109  58.8680940  93.0888195  60.0402341
  60.2210295  94.2238314  60.2603444  60.7560763  92.4133485  59.1130446
  60.4702628  91.3615832  59.0988928  60.5375510  92.8617787  58.1438923
  61.8231989  92.4965933  59.3190046  59.4938745  92.9053685  64.1632547
  58.3595969  92.4164149  64.4519634  60.5670210  92.8792963  64.9841822
  61.4673011  93.2139936  64.6718157  60.5006929  92.1130615  66.2740542
  60.0386441  91.1495627  66.0589257  61.8690458  91.8641417  66.9627204
  62.4519052  91.3074128  66.2289445  62.3000970  92.8570735  67.0907107
  61.8912272  91.1402338  68.2683878  62.9138509  91.2379348  68.6327999
  61.2193578  91.7008989  68.9182710  61.4085068  89.3615697  68.2876212
  62.5241340  88.7065770  67.0141647  63.5580727  88.8849930  67.3095248
  62.3586782  87.6350982  66.9016558  62.3264818  89.2057914  66.0655764
  59.4325583  92.7174076  67.1613328  58.6959933  92.0462561  67.8422782
  59.4050778  94.0524637  67.2408762  60.2017240  94.6031361  66.9541463
  58.3644384  94.6986132  67.9774150  58.2914182  94.2648390  68.9747149
  58.6577184  96.1779744  68.1134717  58.9400154  96.5586482  67.1318939
  57.7053677  96.6159431  68.4123223  59.7300762  96.5963387  69.1287692
  59.8033109  97.7256485  69.5519795  60.5803653  95.7428428  69.6163298
  61.2740150  96.0503508  70.2829546  60.5434895  94.7760822  69.3263041
  56.9029966  94.3453109  67.5126415  56.0484453  94.0284174  68.3243364
  56.6866480  94.2631098  66.2350703  57.4169008  94.6492414  65.6539227
  55.4320877  93.8198103  65.5844405  54.5850823  94.3901107  65.9658046
  55.5363940  94.0504380  64.0584995  55.7187196  95.1163483  63.9217815
  56.4071892  93.4873950  63.7226448  54.3548281  93.6477358  63.2676353
  54.2261098  92.5806801  63.4490866  53.5126350  94.1924985  63.6943042
  54.4151733  93.8966192  61.8073003  53.5428419  93.4070081  61.3743824
  54.3293301  94.9750409  61.6741201  55.6521091  93.4069613  61.1232499
  56.4481948  94.1405762  61.2503612  55.9577192  92.4593914  61.5668858
  55.3909051  93.2160865  59.7046858  55.1081204  94.0941031  59.2933230
  56.2297290  92.8856451  59.2494025  54.6535570  92.5360208  59.5866706
  55.0956494  92.3978227  66.0165533  53.9456410  92.0471964  66.3851814
  56.0663179  91.5351217  66.0695508  56.9527969  91.8423985  65.6956053
  55.9428729  90.1676004  66.4931600  55.0869769  89.6877811  66.0184868
  57.2147753  89.4235057  66.0757484  58.1325513  89.9075944  66.4095814
  57.2263187  88.3762957  66.3779372  57.2757282  89.4245706  64.2785816
  58.4179306  88.7506872  64.1778180  55.6179434  90.0438980  67.9974131
  56.0187590  90.8258817  68.8139799  54.9845193  88.9284718  68.3266642
  54.5978811  88.3977155  67.5592607  54.6934580  88.4702969  69.7276938
  55.2568734  89.1492311  70.3677803  53.1781143  88.6383638  70.0367438
  52.6432275  87.6986057  69.8994440  53.0849798  89.0701887  71.5091619
  53.6192804  90.0101784  71.6471539  52.0386147  89.2039459  71.7836218
  53.5309151  88.3030648  72.1422205  52.5046719  89.6077868  69.4253843
  51.5884995  89.5906250  69.7116253  55.1644630  87.0318985  70.0789107
  55.2352534  86.6176365  71.2517716  55.5622265  86.2250351  69.0572357
  55.6554012  86.7229734  68.1834650  55.8398431  84.7968952  69.0702844
  56.0996248  84.4311280  70.0636761  54.5029562  84.1250267  68.6251773
  54.6098339  83.0599958  68.8310548  53.7220989  84.5410498  69.2617986
  54.1376565  84.3171108  67.2118664  53.3066410  83.8711154  67.0326984
  56.9661965  84.2683302  68.1763895  57.5264956  85.0949782  67.4213417
  57.1602601  82.9032156  68.3408472  56.7869962  82.4422774  69.1583491
  57.9284064  82.0977857  67.3738669  58.0557576  82.6804397  66.4615100
  59.3195183  81.6928610  67.8976014  59.1739603  80.8043983  68.5120492
  59.8654477  81.4232771  66.9935075  60.1286845  82.7433839  68.6942034
  59.5271466  83.1593138  69.5024456  61.3438280  82.0272609  69.2808646
  61.9461380  81.6114348  68.4731455  61.9430319  82.7360685  69.8523952
  61.0105948  81.2225724  69.9362518  60.5980224  83.8204818  67.7517047
  59.7356801  84.2976056  67.2860675  61.1694464  84.5651601  68.3058077
  61.2290656  83.3792434  66.9802177  57.1763937  80.8560485  67.0205521
  56.8339289  80.0849905  67.9368263  57.0025715  80.5042711  65.7419264
  57.4050558  81.1537190  65.0813788  56.3464961  79.2992040  65.2211890
  55.8715825  78.7585402  66.0398701  55.2398317  79.6755951  64.1545397
  55.6612508  80.1794083  63.2846676  54.6693966  78.8056992  63.8289866
  54.0031467  80.8591182  64.8879456  53.2516123  80.9691342  63.7961623
  57.3993700  78.4348560  64.5135075  58.5681808  78.8178835  64.3592054
  57.0120104  77.2355800  64.1818739  56.1284628  76.8522801  64.4860528
  57.8230300  76.4532657  63.2450855  58.8119080  76.2404312  63.6511910
  57.0629193  75.1168782  63.0682777  56.1212698  75.2996149  62.5505872
  56.8604419  74.6812474  64.0467094  57.9499172  73.8542699  62.0773967
  57.9465000  77.0244415  61.7924230  56.9585805  77.4745418  61.1796433
  59.1284469  77.0768326  61.2325706  59.9258719  76.7144034  61.7354203
  59.3427215  77.6400125  59.9450432  58.9786937  78.6654186  59.8808144
  60.9037168  77.6457927  59.7330453  61.3798022  78.2496342  60.5055850
  61.2874364  76.6267056  59.7812190  61.2212124  78.2599961  58.3164481
  61.1021464  77.4472863  57.5999098  60.4581781  79.0172400  58.1362745
  62.5931085  78.8781288  58.1542786  62.6972787  79.6522737  58.9145070
  63.3300867  78.0946908  58.3308779  62.8260045  79.5037982  56.7370195
  63.7993842  79.9941788  56.7496422  62.8404459  78.6872630  56.0151047
  61.8117983  80.4585797  56.3622835  61.7985438  81.2154997  57.0308613
  62.0169234  80.8244592  55.4435039  60.9098209  80.0042806  56.3501110
  58.6076910  76.7691266  58.8656878  57.9833486  77.4121648  58.0017276
  58.7857647  75.4698393  58.8314798  59.5210843  75.1352876  59.4376807
  58.2579617  74.5678901  57.8314014  58.5633811  74.9017523  56.8397592
  58.7950585  73.1024074  58.0573693  59.8733986  73.1330032  58.2134003
  58.3134265  72.6726472  58.9356840  58.4807096  72.2391411  56.8282342
  57.4249495  71.9807335  56.9100689  58.6452703  72.8072542  55.9126637
  59.2638040  70.9978955  56.7577617  60.3080495  70.8937024  56.0892460
  58.7872192  69.9795622  57.3827684  59.2864396  69.1017197  57.3662494
  57.9160731  70.0626972  57.8870444  56.7688891  74.7412486  57.5816045
  56.3847628  75.0109414  56.4925256  55.9182135  74.5085867  58.5896027
  56.3822433  74.3328720  59.4693190  54.4767060  74.3830060  58.5367752
  54.2518404  74.1199682  57.5031667  53.9408847  73.2689399  59.4559863
  54.4211550  72.3243016  59.2008411  52.8629841  73.1752419  59.3238842
  54.3405628  73.4803645  61.2217343  53.7562801  75.7334142  58.8428687
  52.7337967  76.1172793  58.2476743  54.1965702  76.4932726  59.8540253
  54.9360455  76.0522286  60.3819987  53.6004117  77.6594893  60.3823621
  54.1726477  77.9251418  61.2712231  53.5325578  78.8852339  59.4573887
  52.7484052  78.6979233  58.7238229  53.2576992  79.7429478  60.0712940
  54.8732008  79.1828734  58.7198434  55.5544599  79.0429882  59.5591402
  55.1230240  78.4765382  57.9281484  55.0512937  80.6342727  58.1686564
  54.6364822  81.6221152  58.8055744  55.4378822  80.7877995  56.9841933
  55.5581548  81.7190487  56.6121574  55.6267553  79.9793217  56.4090481
  52.2531442  77.3848975  61.1058390  51.8206184  78.3805680  61.7403235
  51.7026950  76.1518921  61.1497984  52.1760083  75.3806735  60.7011384
  50.3428900  75.9087079  61.7339506  49.6591067  76.7293495  61.5169553
  49.7868234  74.5962598  61.0561668  49.7893105  74.8236847  59.9901597
  50.5457404  73.8431554  61.2682484  48.4219712  74.0656719  61.4568887
  48.3756039  73.2846074  60.6980151  48.3389792  73.6157094  62.4462042
  47.2631010  75.0554568  61.2451468  46.1552454  74.6628396  61.6748314
  47.3789159  76.0206580  60.4853215  50.3872269  75.8641288  63.2978009
  49.3595915  75.8588335  64.0031728  51.5794845  75.8843434  63.8451904
  52.3872303  75.7627989  63.2511592  51.7788298  75.9155557  65.2690798
  50.9142804  76.2251632  65.8562738  52.1840965  74.4682731  65.7012384
  51.3436534  73.8721543  65.3457133  53.4938338  73.8111375  65.2675900
  54.3347994  74.4064820  65.6231759  53.5550013  72.8081737  65.6899894
  53.5272312  73.7493745  64.1798536  52.1504671  74.3955967  67.1377749
  52.3973244  73.5116291  67.4193120  52.7063071  76.9538428  65.8369599
  53.8835089  76.9286061  65.5813565  52.1375082  77.8266760  66.6742119
  51.1808173  78.1200222  66.5371356  52.8681347  78.3945179  67.7518400
  53.4797743  79.2185898  67.3845502  51.8909888  78.9480323  68.8681212
  51.1319953  79.5745018  68.3995446  51.4095150  78.1084134  69.3694426
  52.6575969  79.7585472  69.8739361  53.1092632  79.0022921  70.5159459
  53.4366470  80.4084441  69.4754212  51.6868024  80.5742209  70.6707847
  50.6521835  80.0877692  71.1991430  51.8521450  81.8433625  70.6830483
  53.8374465  77.4132015  68.4148700  53.4599802  76.3277913  68.8336288
  55.1333061  77.7687573  68.5532963  55.4742146  78.5135196  67.9623564
  56.1173055  77.0131410  69.3739546  55.7137382  76.0449126  69.6702084
  57.4484355  76.8152511  68.6908714  57.8827093  77.7845238  68.4458878
  58.4247679  76.0295338  69.6694036  57.9913555  75.0599000  69.9144846
  59.3885140  75.8833215  69.1816371  58.5646956  76.6059756  70.5838621
  57.2616667  76.1158683  67.3663450  56.8078622  76.8850232  66.7413946
  58.2841679  75.9354567  67.0346185  56.4308745  74.7875781  67.2476711
  55.4080659  74.9673310  67.5788074  56.4230137  74.4548400  66.2097295
  56.8843707  74.0177648  67.8720336  56.2173905  77.6491820  70.7772639
  56.2185691  77.0273476  71.8384606  56.3814582  78.9828680  70.8589061
  56.5832583  79.4636458  69.9939039  56.3304953  79.8017878  72.1480973
  55.4858359  79.5680931  72.7961994  57.6580699  79.6233375  72.9694933
  57.8235645  78.5463611  72.9983635  58.8920146  80.3018039  72.4876282
  58.7274290  81.3789239  72.4589295  59.7174781  80.0787923  73.1636274
  59.1361175  79.9452874  71.4869233  57.4435943  79.9776236  74.2867919
  58.2570663  79.8670013  74.7844127  56.1009086  81.3017102  71.8445570
  56.0564339  81.7544289  70.6983525  56.0126159  82.0335750  72.9084820
  55.9763437  81.5297126  73.7830712  55.9258876  83.4910929  72.9449465
  55.4683448  83.8158433  72.0104461  55.0848976  84.0506851  74.1321758
  54.0391622  83.7902823  73.9686882  55.5571460  83.4641602  75.4858182
  56.6027359  83.7245635  75.6502306  54.9497547  83.8752005  76.2921809
  55.4517351  82.3794003  75.4689326  55.2956016  85.4649556  74.1043776
  54.8009356  85.8762344  74.8169474  57.3833471  83.9958013  73.0258054
  58.2529232  83.4133474  73.6600876  57.6760221  85.1080148  72.3904224
  56.9504470  85.4726836  71.7898753  58.9531683  85.8323776  72.4591980
  59.7501869  85.1831141  72.0968206  58.9367977  87.0879072  71.6234622
  59.9840177  87.3787767  71.5408526  58.5715954  86.7661504  70.6481674
  58.0813449  88.3280526  72.1258943  57.0374704  88.0143380  72.1290880
  58.3991749  88.5414682  73.1464529  58.2338582  89.6013646  71.2620163
  59.3095824  89.7440762  71.1593033  57.8089034  89.3366282  70.2938079
  57.6021181  90.8796366  71.7556175  56.5149993  90.8162670  71.7081048
  57.9087930  91.0912032  72.7799658  58.0762079  91.9748613  70.8582059
  57.7917666  91.7792268  69.9090378  57.6740113  92.8520976  71.1561896
  59.0835033  92.0340300  70.9024122  59.3553888  86.2446321  73.8391042
  60.4989581  86.3780403  74.0916756  58.4172707  86.4742003  74.7950429
  57.4482333  86.5371571  74.5173698  58.7713038  86.6862579  76.3021229
  59.2859620  87.6351988  76.4529119  57.4579783  86.7072738  77.1011051
  56.9155356  85.7821406  76.9062108  57.6809916  86.7797335  78.1655837
  56.5778519  87.8756112  76.7105732  55.7976366  87.7795752  75.8202125
  56.6851995  89.0220459  77.3625739  56.0993606  89.8031715  77.1042420
  57.3524787  89.1106793  78.1155569  59.6976991  85.5990245  76.8386389
  60.5539429  85.9959946  77.7162193  59.7040333  84.3546770  76.4478805
  59.0271682  84.0985677  75.7433516  60.5045093  83.3027852  77.0477787
  60.7511377  83.5417229  78.0822749  59.6631248  81.9775425  77.0258753
  59.5400130  81.7263305  75.9723881  60.2884548  81.2257798  77.5074511
  58.3254143  82.0108639  77.6889606  57.7693216  82.7477640  77.1094436
  57.9529339  81.0125456  77.4593564  58.1374544  82.2994638  79.2187522
  57.0666990  81.9981732  79.7292638  59.0625725  82.7736652  79.8376500
  61.8857262  83.1679484  76.4124930  62.6463330  82.2148998  76.6289940
  62.3739891  84.1169158  75.5845430  61.6507053  84.7064448  75.1980001
  63.7851774  84.2600881  75.0430799  64.1902775  83.2759629  74.8075152
  63.6934968  85.1261226  73.7150992  63.3097900  86.1227022  73.9334995
  65.1193734  85.2392871  73.1423666  65.5036014  84.2430611  72.9232699
  65.0976996  85.8293907  72.2261741  65.7669798  85.7255790  73.8719043
  62.8245726  84.5269326  72.6397201  63.0622630  83.4631834  72.6332789
  61.7994919  84.6675743  72.9825451  62.9667835  85.0756783  71.2616141
  63.9915598  84.9349724  70.9179059  62.2841733  84.5546647  70.5902816
  62.7287907  86.1393646  71.2671727  64.7079660  84.7341481  76.1703640
  64.3907965  85.7482054  76.7318909  65.8157022  84.0185429  76.3755630
  65.9590593  83.1151480  75.9472807  66.7184314  84.4255214  77.4663684
  66.7806705  85.5133140  77.4358269  66.2953210  83.9825048  78.9310240
  66.7055169  84.6824102  79.6590151  65.2079616  83.9761549  79.0065840
  66.7792989  82.5653130  79.3542338  66.5678304  81.5171814  78.4963392
  66.1336892  81.6474850  77.5050560  66.9399346  80.2183089  78.9454292
  66.7245021  79.3349263  78.3443263  67.6152445  80.0798666  80.2232364
  67.9816148  79.0958340  80.5157300  67.8010055  81.1821371  81.0775113
  68.2269473  81.0686617  82.0744050  67.4288316  82.4300547  80.6248721
  67.6285738  83.3123054  81.2330141  68.1560509  84.1233094  77.1411929
  68.5660577  83.1486228  76.4019917  68.9307635  85.0782606  77.7155608
  68.4675211  85.7895433  78.2629022  70.4175587  85.1234269  77.6107034
  70.7436429  84.7731168  76.6313918  70.8870328  86.5810129  77.7941677
  70.2664491  87.2534573  77.2018894  70.8295389  86.8652921  78.8448722
  72.1792945  86.6655171  77.3712438  72.4922729  87.5668903  77.4769356
  71.0211440  84.2641666  78.7237382  71.1445967  84.7760040  79.8701303
  71.3567703  83.0053405  78.4901360  71.2001535  82.6128316  77.5727989
  71.8800027  82.0941684  79.5814087  71.5089338  82.3828648  80.5648016
  71.3496296  80.6700681  79.2483315  70.2649652  80.7738527  79.2195019
  71.7059010  80.3144710  78.2815216  71.7396102  79.6577575  80.3432084
  72.8226037  79.7450589  80.4304118  71.0866118  79.8022465  81.7652537
  70.0035790  79.7145847  81.6789158  71.4631643  79.0164361  82.4200903
  71.3395138  80.7760832  82.1845187  71.4665902  78.2379827  79.8206908
  72.0598127  78.0600393  78.9237389  71.7380665  77.5103357  80.5854990
  70.4080368  78.1354782  79.5818260  73.4259403  82.1610388  79.7129284
  73.9795804  82.1201813  80.8050782  74.0409466  82.2736392  78.5536711
  73.6143448  81.8225109  77.7570574  75.3589351  82.9120362  78.3732444
  76.0451330  82.5401778  79.1341340  75.9466679  82.6106490  76.9972031
  75.7771477  81.5648580  76.7409155  75.4811689  83.2484106  76.2457572
  77.3411783  82.8674188  77.0366629  77.7251510  82.6819574  76.1765648
  75.3108401  84.4259657  78.6370439  74.3658129  85.1497962  78.3883234
  76.5325059  84.8736846  79.0437056  77.2090192  84.1926023  79.3576420
  76.8287663  86.3145970  79.2628636  75.9253255  86.8417812  79.5694101
  77.8971445  86.4667452  80.3827707  77.6435969  85.8263441  81.2275780
  78.8792088  86.1897786  79.9994439  77.9216181  87.9361744  80.8422320
  78.2577541  88.6085087  80.0528778  76.9515044  88.2676797  81.2124829
  78.9505725  87.9482599  82.0048612  78.5988005  87.3386813  82.8371888
  79.9182135  87.5772903  81.6669972  79.1155840  89.3495399  82.4766433
  78.5952012  89.5649155  83.3150433  79.8979166  90.2714184  81.9723709
  80.0950661  91.3950146  82.5320893  79.6369917  91.6072757  83.4068539
  80.7088949  92.0704419  82.0995251  80.5388468  89.9789416  80.9161930
  80.4318852  89.0643798  80.5011798  81.1526072  90.6622340  80.4960640
  77.1220239  87.0631593  77.9128860  76.9087379  88.3217165  77.9228216
  77.4271523  86.3443618  76.8362915  77.6418748  85.3644736  76.9538190
  77.4778297  86.9090577  75.4862606  78.1665891  87.7453346  75.3664661
  78.0363639  85.6945128  74.7114410  77.3365891  84.8773006  74.8863082
  78.0136228  85.9724318  73.6577124  79.4666275  85.2398785  75.0943596
  79.5981747  85.0662680  76.1623744  79.5882545  84.2997850  74.5562796
  80.5218651  86.2523114  74.6046756  81.1359766  86.7997608  75.5271219
  80.7716002  86.3649681  73.3554299  76.1873787  87.3620042  74.9636617
  76.2272650  88.3656915  74.2503946  75.0793250  86.6153306  75.2651238
  75.2574504  85.8311988  75.8762769  73.7226580  86.8347992  74.8071740
  73.2160817  87.4486205  75.5519580  73.7745666  87.3781549  73.8636861
  72.9271271  85.5520266  74.5975507  73.4105069  84.4741662  74.9352342
  71.6775965  85.6839495  74.0935084  70.9805789  87.0027119  74.1031620
  71.6280046  87.7461439  73.6381361  70.7832967  87.2887976  75.1362805
  69.7353123  86.7710220  73.3332973  69.9218225  86.9911467  72.2821750
  68.9564305  87.4339141  73.7101509  69.3488913  85.3001780  73.5377419
  68.8851887  84.8357470  72.6674645  68.6899128  85.1947197  74.3995571
  70.6879540  84.6389190  73.8245531  70.5457080  84.0699957  74.7433516
  71.1226701  83.6745644  72.6790113  70.7702309  82.5155696  72.6595716
  71.8899765  84.1727778  71.7024760  72.2721009  85.1075228  71.7206997
  72.0669524  83.3524427  70.4497223  71.6899881  82.3408669  70.6004256
  71.2810570  84.0023466  69.3077935  70.3899558  84.4704483  69.7260264
  71.9095461  84.7649177  68.8478079  70.8722817  82.9837412  68.2589428
  71.7720472  82.7772786  67.6793773  70.5830263  82.0893949  68.8108286
  69.5350724  83.4467532  67.1351897  70.2263802  84.8736206  66.3738751
  71.1510622  84.6023357  65.8644965  69.5189843  85.2787915  65.6503226
  70.4381299  85.6252707  67.1343260  73.5544558  83.1746644  70.1994993
  74.3877912  84.0526272  70.3776776  73.8685588  81.9546208  69.7476365
  73.1150795  81.3548178  69.4433261  75.2555898  81.4423618  69.6541873
  75.9056771  82.1915497  69.2022988  75.7878068  81.1201597  71.0960974
  75.1523047  80.3646657  71.5581211  76.8091717  80.7449968  71.0315478
  75.7718742  82.0268612  71.7008600  75.3422717  80.1594545  68.8335307
  74.4708755  79.2663991  68.8772884  76.4210419  80.1724834  68.0113367
  76.8110190  81.0647011  67.7430742  76.9202960  79.0027019  67.3805557
  76.0481048  78.4494992  67.0322046  77.6775502  79.5089441  66.1841397
  78.5588733  80.0573646  66.5167124  77.9865903  78.6661576  65.5658312
  77.0368844  80.1707958  65.6013885  77.7117668  78.0017852  68.2786056
  78.6202836  78.3078525  69.0359603  77.4075995  76.7530154  68.0126638
  76.7402543  76.5144117  67.2930680  78.0649151  75.6244403  68.7879182
  78.9340843  76.0219471  69.3119722  77.1495855  74.9991468  69.7880285
  76.2475851  75.0732999  69.1805782  77.3140931  73.9585747  70.0677552
  76.9818656  75.8595929  71.0707894  77.8160452  75.5892044  72.1956665
  78.6163708  74.8657483  72.0401361  77.6540835  76.1921000  73.4418134
  78.3514214  76.0197259  74.2616359  76.6467328  77.1685295  73.5675985
  76.4510971  77.8473834  74.6728434  77.0617059  77.6072295  75.3736163
  75.7094380  77.3410741  72.5539636  74.8504613  77.9842066  72.7453796
  75.8496984  76.7111053  71.3100759  75.1027280  76.8686632  70.5320587
  78.5048284  74.5118194  67.7259234  77.9862763  74.4648937  66.6474469
  79.3033023  73.5104764  68.1656255  79.7623264  73.6119247  69.0595519
  79.6985247  72.3811948  67.2997483  78.9754417  72.2429311  66.4959242
  81.1455805  72.5746683  66.6561222  81.2059319  73.6044393  66.3039451
  82.3187470  72.2932398  67.6378386  82.2593289  71.2634457  67.9901090
  83.2677989  72.4468068  67.1242063  82.2524160  72.9719668  68.4881513
  81.3753560  71.6537691  65.3702770  80.6354321  71.9007329  64.6089469
  82.3757738  71.8261512  64.9733534  81.2717925  70.6054589  65.6503149
  79.5097745  70.9883274  67.9865320  79.8893218  70.7331345  69.1642155
  78.9341970  70.0897204  67.1859441  78.5709308  70.4568803  66.3179979
  78.6273022  68.7206512  67.5325418  78.5189692  68.6354099  68.6137897
  77.2518320  68.2359781  66.8358790  76.7943989  67.7273323  67.6844859
  76.6259620  69.0766180  66.5363606  77.3395166  67.2794688  65.6989167
  78.3042598  67.2650605  65.0173214  76.2710696  66.5696738  65.3523724
  76.3285480  65.9200726  64.5811304  75.4063430  66.6829998  65.8617896
  79.8293428  67.7519207  67.3033857  80.8371602  68.0861921  66.6322345
  79.7965208  66.4599312  67.7064175  78.6542325  65.8751774  68.4397465
  77.7946124  65.8560054  67.7698315  78.4346275  66.5162298  69.2935172
  79.0962985  64.4904618  68.8570670  78.7759824  63.7316830  68.1430982
  78.7291491  64.2320592  69.8503096  80.6146233  64.6464247  68.8610168
  81.1229723  63.6963592  68.6965301  80.9154987  65.0567799  69.8249578
  80.9610896  65.6009228  67.7721834  81.7878063  66.2159981  68.1275989
  81.3480505  64.9453372  66.4429513  82.4824830  64.4330967  66.3494127
  80.5808360  64.9822060  65.3561948  79.6247008  65.2277880  65.5697229
  80.9243077  64.6434575  63.9499435  81.8568263  64.0803160  63.9127956
  79.7780030  63.7600327  63.3297354  78.8233253  64.2799864  63.4093463
  79.9357476  63.4471137  62.2976025  79.6545791  62.5213146  64.1342327
  80.5379824  61.4792198  64.0613069  80.0668403  60.4860841  64.8502053
  80.5664639  59.5176190  64.8736671  78.9395172  60.9515526  65.5288796
  78.3643738  60.4816695  66.2133647  78.7359362  62.2482934  65.0715799
  77.9267717  62.8509346  65.4841057  81.1841502  65.9563959  63.1258928
  81.4410672  65.9076327  61.9424729  81.1946002  67.1394035  63.8320442
  80.8673921  67.1268190  64.7874895  81.6499347  68.4007782  63.2772889
  82.2549049  68.8629488  64.0573586  82.2866370  68.1370161  62.4328132
  80.5554835  69.4358880  62.7933690  81.0199687  70.4288476  62.2902918
  79.2773775  69.2237859  62.8240222  79.0224623  68.4172686  63.3759709
  78.2281210  70.0259574  62.2685885  78.5106200  70.4035442  61.2858771
  76.9901267  69.1679911  62.1195182  76.6648295  68.7644275  63.0783808
  76.2269564  69.8430727  61.7323027  77.1969796  68.0644634  61.1679461
  77.0635005  68.2813370  59.8094862  76.7302333  69.2671900  59.4852545
  77.3414870  67.2814639  58.8543447  77.1114079  67.4148475  57.7972854
  77.7217678  65.9763034  59.3535406  78.0196487  65.0247093  58.4943540
  77.9502374  65.3095208  57.5802073  77.9852551  65.8298393  60.7613700
  78.4789302  64.9210078  61.1054785  77.6154258  66.8418087  61.7007455
  77.6684157  66.6382184  62.7702516  77.8213735  71.1439503  63.2350575
  77.8711058  70.9952018  64.4319425  77.5883408  72.3225062  62.6017040
  77.4571112  72.3961167  61.6029750  77.6140881  73.5407528  63.3817689
  77.9578780  73.2826720  64.3834185  78.6095575  74.5578818  62.7624441
  78.1154865  75.0222731  61.9090193  79.0483005  75.6180783  63.7215947
  79.5429054  75.1544511  64.5751266  79.7426583  76.2946732  63.2234110
  78.1795728  76.1789452  64.0663297  79.9230298  73.8749009  62.3298324
  79.7066678  73.1086807  61.5853889  80.5953642  74.6179239  61.9009002
  80.3966303  73.4147336  63.1970402  76.1743516  74.1330277  63.4953574
  75.5025470  74.3796520  62.4923599  75.7281919  74.4263965  64.7112777
  76.3668982  74.3859416  65.4926336  74.3381065  74.7555872  64.9744641
  73.7811824  74.9177467  64.0516212  73.7329264  73.5533104  65.7067601
  74.3145282  73.4456326  66.6223168  72.7048411  73.8136163  65.9585171
  73.6890757  72.2396635  65.0848630  72.7292223  71.8101449  64.1742429
  73.0634199  70.5573370  63.8286284  72.5290379  70.0520207  63.0241471
  74.0763968  70.1436464  64.6115888  74.4017579  69.1912880  64.6967567
  74.6016973  71.2133630  65.2782413  75.5515168  71.1150763  65.8038685
  74.2396257  76.0157899  65.7722233  74.8782322  76.2186548  66.7985086
  73.4246129  76.9426745  65.3029845  73.1093572  76.7423269  64.3645954
  73.0474091  78.2279341  65.9045508  73.8501741  78.5182245  66.5823406
  72.8078510  79.3719988  64.9094131  73.7793853  79.5569873  64.4511560
  72.1273125  78.9610296  64.1637109  72.2274893  80.7152722  65.4600063
  71.1820254  80.5382104  65.7125042  72.7683922  81.0284541  66.3530014
  72.3162179  81.8103530  64.4020558  71.6312927  81.6736396  63.3561858
  73.0971396  82.7875164  64.5962671  71.8509143  78.0902595  66.8359298
  70.7077214  78.0434810  66.3649341  72.0895132  77.9540182  68.1648222
  73.0739284  77.8993149  68.3839879  71.1358767  77.8518968  69.2532644
  70.2294033  77.3469273  68.9194813  71.8018571  77.0222341  70.4067321
  72.5931768  77.6396814  70.8317878  70.8241812  76.6004895  71.5222321
  70.0327798  75.9825854  71.0979927  71.3614327  76.0314724  72.2809686
  70.3862950  77.4888838  71.9773259  72.4450341  75.7102015  69.8955121
  73.3392614  76.0437749  69.3690264  72.7345224  75.1870702  70.8069009
  71.6755470  74.7972918  69.0279578  71.3860843  75.3196147  68.1160971
  72.2900956  73.9341598  68.7721602  70.7813436  74.4629117  69.5539713
  70.7111283  79.2097750  69.7655276  71.5262501  79.9671995  70.2289212
  69.3654280  79.4267471  69.6968059  68.8856949  78.9410336  68.9524686
  68.5923628  80.3317688  70.5445080  69.1618614  81.2223475  70.8102900
  67.3221436  80.7756972  69.6894706  67.6528973  81.0511198  68.6880498
  66.7282448  79.8631963  69.6372549  66.4894397  81.8806024  70.2610880
  66.1100746  81.5303643  71.2210444  67.2599891  83.2306973  70.4651748
  67.6392805  83.5818228  69.5055146  66.5833305  83.9763210  70.8826425
  68.0938207  83.0738953  71.1494543  65.3705652  82.1867107  69.2051740
  64.7704066  81.2917227  69.0411451  64.7318783  82.9892597  69.5740852
  65.8308182  82.4921612  68.2655112  68.1950007  79.6557184  71.9165824
  67.4964536  78.6340244  71.8954533  68.6908132  80.2603860  72.9978539
  69.3067072  81.0582381  72.9330009  68.4024127  79.7127472  74.3234971
  68.2213568  78.6379365  74.3334957  69.5428252  80.0268908  75.3004198
  69.1495789  80.0943114  76.3147728  70.6005806  78.8891590  75.2294701
  70.9946452  78.8214344  74.2154553  71.4145800  79.1054677  75.9213622
  70.1349749  77.9419771  75.5017903  70.1321549  81.3357728  75.0913542
  70.8364172  81.4751012  75.7286944  67.0442206  80.3033309  74.7725072
  66.8056747  81.5595103  74.7215635  66.0663476  79.4155896  75.1182060
  66.3839363  78.4587391  75.0575926  64.6305431  79.6632999  75.3822400
  64.3048877  80.6567709  75.6905632  63.7940058  79.2269851  74.1627333
  64.3345500  78.3973479  73.7070873  62.3897737  78.8100291  74.4447371
  61.8484304  79.6393555  74.9000021  61.9007013  78.5253312  73.5131493
  62.3926602  77.9602976  75.1274154  63.8423796  80.1654882  72.9667831
  64.8707799  80.2567602  72.6172630  63.2209167  79.7659520  72.1653753
  63.4701603  81.1472778  73.2594311  64.2742141  79.0379894  76.7322520
  64.4142651  77.8604044  76.8962076  63.8604636  79.8243844  77.7083040
  63.9518130  80.8237724  77.5943813  63.4009864  79.3109519  79.0040689
  64.1831716  78.7384698  79.5026164  63.0429269  80.5276678  79.8843739
  63.8173615  81.2943398  79.9081316  62.1437597  80.9344544  79.4216396
  62.7320012  80.0927012  81.2757711  61.4299430  79.7547395  81.6754712
  60.6075350  79.7960889  80.9613040  61.1978867  79.3766836  82.9523704
  60.1761928  79.2010342  83.2891058  62.2770595  79.1564000  83.8312255
  62.0817896  78.6901932  85.0766097  61.1561223  78.5348794  85.2781471
  63.5873023  79.4758071  83.4343076  64.4165516  79.3835839  84.1356927
  63.8232513  79.9166672  82.1223444  64.8420967  80.1125688  81.7881636
  62.2569129  78.2720327  78.9268106  62.2366285  77.2619238  79.6341172
  61.2946760  78.5311321  78.0242843  61.3422303  79.4157495  77.5392173
  60.0564290  77.7571077  77.9354444  60.2727767  76.6893842  77.9709337
  59.1594037  78.1091355  79.1069871  59.6390529  77.6659591  79.9797016
  59.1995693  79.1957019  79.1835384  57.6468265  77.6400708  79.0406735
  57.2539059  78.0739667  78.1211907  57.6888700  76.5554529  78.9409825
  56.6931714  78.0249310  80.2595457  56.6458424  79.1115214  80.3315198
  55.6972607  77.6310280  80.0568097  57.1926669  77.4683222  81.5345014
  56.9201693  76.4130858  81.5524382  58.2785213  77.5624742  81.5220597
  56.6488662  78.1431189  82.7501984  55.6427347  78.0556184  82.7621407
  57.0343811  77.7093660  83.5768402  56.9016223  79.1208462  82.7339855
  59.4056971  77.7202280  76.5389607  59.3504808  78.6879802  75.8492768
  58.9240374  76.5621670  76.1942192  58.9747953  75.8240009  76.8817029
  58.3804610  76.2430191  74.8705595  57.9147397  77.1504330  74.4861080
  59.5282081  75.8391595  73.9237411  59.9985681  74.9268636  74.2905895
  59.1309041  75.6656611  72.9236671  60.2677685  76.6390163  73.8866107
  57.2700912  75.0949288  74.8883786  57.0741981  74.4527454  75.9342564
  56.5356747  74.8380752  73.7554975  56.7539849  75.4816647  73.0083479
  55.4099151  73.9445682  73.5844901  55.6569080  72.9678429  74.0005445
  54.1397386  74.4874028  74.3076211  54.3554256  74.6809674  75.3583880
  53.7966786  75.4064037  73.8323872  52.7623336  73.3808947  74.2859424
  51.9370782  74.1728927  74.9646109  55.1512690  73.5074150  72.1247626
  55.8152576  73.9775550  71.1977278  54.3190245  72.5164949  71.9171825
  53.9238718  72.1357368  72.7651076  53.9833428  71.8497459  70.6125302
  53.2610336  71.0467200  70.7592201  53.3548467  72.9183091  69.6707285
  53.9832695  73.8074425  69.6194859  53.1567458  72.5554196  68.6621814
  52.0353534  73.2938771  70.3187680  51.2404215  72.3956947  70.7000414
  51.7391632  74.5983447  70.4330737  50.8681619  74.8797638  70.8599928
  52.3886892  75.2923413  70.0916277  55.1608768  71.1147617  69.9095217
  55.2741367  71.0506928  68.6624045  56.0574296  70.6026582  70.8239862
  55.8305563  70.7048240  71.8028580  57.2193740  69.8162413  70.4672054
  57.2862444  69.7546872  69.3810017  58.5651342  70.4516788  71.0235243
  58.4098850  70.5085645  72.1009104  59.4561496  69.8590697  70.8161452
  58.7532401  71.8978811  70.4456028  57.8237073  72.4626884  70.5167522
  59.7985187  72.5638370  71.2565988  60.7285404  71.9998217  71.1855686
  59.9584616  73.5756516  70.8841068  59.4788820  72.6068192  72.2977929
  59.0423360  71.9324536  68.9512396  58.2146585  71.4742812  68.4098271
  59.1596983  72.9665281  68.6271760  59.9599222  71.3813380  68.7453117
  57.1873210  68.4503782  71.1768317  57.0312667  68.4271672  72.4037536
  57.3590771  67.3599006  70.4561511  57.4455926  67.5084361  69.4608865
  57.4535880  65.9692608  70.9718349  56.9859648  65.8402462  71.9479409
  56.6335371  65.1208370  69.8973775  57.0857527  65.3817840  68.9405563
  56.7680596  64.0553352  70.0836833  55.1522995  65.4159782  69.8281923
  54.6658410  66.5193838  70.0516362  54.2817691  64.4798762  69.5866391
  53.2984843  64.7070978  69.5463771  54.5932999  63.5303007  69.4405027
  58.9769947  65.5310566  71.0246271  59.7654524  66.0052357  70.2022637
  59.3370873  64.8343074  72.1025130  58.6169978  64.6338593  72.7817707
  60.7434126  64.4654404  72.4334226  61.4269657  65.1480921  71.9286049
  60.9956006  64.5480741  73.9466681  60.3312801  63.8412855  74.4438878
  62.0245976  64.1979634  74.0284466  60.8728590  65.8862308  74.5952543
  59.9175827  66.3503744  74.3500632  60.9525100  65.6536181  76.0947986
  61.9077701  65.1898889  76.3408315  60.8671797  66.6071467  76.6159538
  60.1397956  64.9967249  76.4047778  62.0714396  66.7816117  74.2130208
  62.0972106  66.9127995  73.1312514  61.9670822  67.7541442  74.6940524
  62.9972946  66.3108299  74.5435597  61.1000127  63.1086722  71.8335890
  60.3753472  62.1206647  72.0373911  62.1940475  63.0447608  71.1208308
  62.8323732  63.8252109  71.1803062  62.4941634  61.9774437  70.1755676
  61.9697852  61.0510991  70.4101148  62.1741625  62.3961234  68.7258229
  62.5821764  61.6295267  68.0670706  60.6790045  62.5586664  68.4530696
  60.2703485  63.3254794  69.1111719  60.5285711  62.8539523  67.4146686
  60.1703524  61.6126456  68.6385875  62.9536435  63.7087424  68.3280710
  62.3951948  64.5349891  68.7680167  63.9301402  63.6352245  68.8067660
  63.1408323  63.9625613  66.8067827  62.1646931  64.0366631  66.3274488
  63.6896810  64.8924491  66.6578763  63.6996369  63.1368967  66.3661975
  63.9709016  61.6052893  70.4255006  64.7739158  62.3643162  70.9715008
  64.2049585  60.3038507  70.0742386  63.5524879  59.8566070  69.4462621
  65.3339325  59.5349002  70.5523775  65.3435237  58.6190885  69.9613647
  66.2189829  60.1267106  70.3188273  65.3572586  59.1707050  72.0312685
  64.2873498  58.8773229  72.5902336  66.4983679  59.1781917  72.6877307
  67.3174872  59.3094807  72.1116177  66.6953441  58.9124804  74.1673681
  65.7960042  59.1644142  74.7293436  66.9827116  57.4528365  74.3524558
  67.9571107  57.3155248  73.8836369  67.0803136  57.3392575  75.4321195
  65.9909681  56.3871735  73.8072346  64.9647095  56.6216955  74.0898890
  66.0584283  56.3034068  72.7225529  66.4108452  55.0440440  74.4557439
  66.4402029  55.1895644  75.5355869  65.6504797  54.3026940  74.2100939
  67.7628065  54.5247073  73.9977318  68.1755323  54.9211777  73.1655251
  68.3603160  53.4883662  74.5677008  69.4189609  53.0464166  73.9945119
  69.7549778  53.4887919  73.1510092  69.9116600  52.2580782  74.3893154
  67.9192084  52.7964729  75.5789410  67.0358558  53.0377138  76.0050760
  68.4625211  52.0218684  75.9323501  67.8178564  59.8561551  74.7432381
  68.8198905  60.1275824  74.0685967  67.4978731  60.4081325  75.9345993
  66.3105424  60.2313702  76.8259887  66.0231151  59.1804326  76.7941164
  65.5000876  60.8414226  76.4271177  66.7377396  60.6721316  78.1996087
  67.2807534  59.8846282  78.7221729  65.8853046  60.9862177  78.8019424
  67.6276793  61.8343503  77.8860803  68.3798048  62.0238776  78.6519038
  66.9987909  62.7168865  77.7689100  68.3089434  61.5004638  76.5608886
  68.2314293  62.3514644  75.8842145  69.7758031  61.1981611  76.8284044
  70.0748855  60.0261383  76.8696526  70.6499192  62.2118408  76.9991774
  70.3441545  63.1732292  76.9508073  72.0938177  61.9414351  77.2504339
  72.1949207  61.1857514  78.0294201  72.7908037  61.4228723  75.9621679
  72.2316453  60.5254240  75.6975403  72.6000041  62.2004912  75.2225704
  74.1305286  61.1352939  75.9869803  74.4080666  60.8286141  75.1206547
  72.8671039  63.1369748  77.7103941  72.2935344  64.2117968  77.8398879
  74.1966716  62.9301133  78.0507102  74.4080310  61.9517650  78.1858439
  75.2583277  63.9555942  78.4216942  75.1273616  64.9987506  78.1339933
  75.4662431  63.8882788  79.9396520  76.5299597  64.1077541  80.0315095
  74.6852094  64.7323694  80.9407096  73.6213752  64.5130872  80.8497605
  75.0186259  64.4989106  81.9518622  74.8564637  65.7894178  80.7371874
  75.4401047  62.4921060  80.3517495  75.5693533  62.4362947  81.3013706
  76.4981287  63.9113285  77.6311140  77.3639732  64.7327961  77.9119736
  76.6808727  63.0042631  76.5952902  75.9986562  62.2621762  76.5321480
  77.7319099  63.0277655  75.6556773  78.7017437  62.8875231  76.1330176
  77.4852100  61.8537836  74.6868121  77.3095987  60.9349741  75.2463199
  76.6230385  62.0634686  74.0537303  78.7081059  61.6915649  73.8293043
  78.8233397  62.6176014  73.2660297  79.5877880  61.5347431  74.4535362
  78.5520933  60.4800500  72.8249837  78.4520487  59.3770184  73.3377198
  78.5711161  60.6345428  71.6133088  77.7325698  64.3640440  74.9273638
  76.7105478  64.8702712  74.4409320  78.8999226  64.9601870  74.8651467
  79.6175966  64.3229420  75.1797291  79.3014574  66.3236175  74.4624021
  80.1988203  66.6306184  74.9996073  79.6128947  66.3375438  72.9033659
  80.2368470  65.4589140  72.7396819  78.7831105  66.3300393  72.1966114
  80.4319887  67.4984826  72.5729778  81.7528508  67.6242956  72.8029088
  82.0873074  68.8002921  72.3377141  83.0964743  69.1579641  72.5420469
  81.0685113  69.3672886  71.6637145  81.0837084  70.2283194  71.1359883
  79.9851745  68.5671967  71.8147752  79.0319302  68.8505170  71.3685061
  78.2482230  67.4512228  74.7440126  77.8012574  68.2557054  73.9119612
  77.7685002  67.5656223  76.0012666  78.1527748  67.0096136  76.7517909
  76.6222421  68.4139673  76.2885575  75.9062332  68.3813560  75.4673590
  75.9316313  67.9041764  77.5625045  75.5162321  66.9062521  77.4221844
  76.6129732  67.8972194  78.4132835  74.9185700  68.7897760  77.7980681
  74.4414016  68.5272206  78.5886216  77.0887701  69.8438247  76.3787940
  77.9475678  70.2244649  77.1622424  76.5151809  70.7197387  75.5940927
  75.6745119  70.4344831  75.1124244  77.0818940  72.0704842  75.2918877
  78.1138430  72.0111181  74.9459743  76.1917939  72.6694226  74.1277574
  75.1240954  72.5310022  74.2979310  76.4273950  73.7334716  74.1475567
  76.4741951  72.1855868  72.7063389  77.6732333  71.7238820  72.2393218
  78.5301950  71.7829696  72.9103100  77.5160810  71.2527354  70.9275283
  78.2197390  70.7220890  70.4341934  76.2306760  71.4817782  70.4862536
  75.5351511  71.1959195  69.2917353  76.0909652  70.8169034  68.4341128
  74.1547242  71.4230204  69.2910023  73.5793728  71.2541936  68.3807451
  73.4934127  71.8636772  70.4367587  72.4045044  71.9101660  70.4220221
  74.1371240  72.2425788  71.5832731  73.5723464  72.6855312  72.4035901
  75.5210845  72.0120604  71.6442708  77.1305213  72.9289857  76.5743648
  77.9753678  73.8048528  76.7330983  76.2402216  72.5817945  77.5475932
  75.8205182  71.6671500  77.4617222  75.8669864  73.4087465  78.6875129
  76.3832187  74.3663453  78.6196315  74.3869931  73.6631310  78.7292435
  73.7974726  72.7752375  78.5007489  74.0793097  74.0643132  79.6948956
  74.0225604  74.7036550  77.6920148  74.0454855  76.1015187  78.0040414
  74.2634557  76.4435536  79.0157731  73.7825271  77.0366035  76.9869754
  73.7944590  78.1048580  77.2032870  73.4989888  76.5795499  75.6658025
  73.2783807  77.3042367  74.8820544  73.5028012  75.1901882  75.3681221
  73.3704743  74.8452635  74.3426385  73.6784564  74.2595577  76.4046640
  73.5477802  73.1951791  76.2094155  76.2521415  72.7017681  80.0123507
  75.6974256  71.5696440  80.1751829  77.2367807  73.2106468  80.8067441
  78.0978066  74.3832062  80.6921631  77.5138357  75.2528828  80.9933956
  78.3832940  74.4829031  79.6449494  79.2657296  74.1465447  81.5770322
  79.5651151  75.0825663  82.0485519  80.0966593  73.7533079  80.9913514
  78.8084523  73.1508686  82.5863966  78.4358613  73.6024937  83.5058039
  79.6332907  72.4780462  82.8210268  77.6779937  72.3727490  81.8904209
  78.0802008  71.4708150  81.4290719  76.5940464  71.9787235  82.9444959
  75.8931227  72.7787281  83.5485097  76.5116818  70.6501723  83.1315491
  77.0808695  70.0328363  82.5702818  75.6276660  70.0620828  84.1187247
  76.1100752  69.1529834  84.4777775  75.5440279  70.7762517  84.9379114
  74.2485049  69.7215722  83.6233692  73.4808605  69.0127546  84.2807700
  73.9561175  70.0311653  82.3400174  74.6268079  70.5717822  81.8127537
  72.6756235  69.6867453  81.6965487  71.8963228  69.5306050  82.4424775
  72.2694738  70.8279710  80.8102466  73.1161759  71.0218729  80.1517659
  71.4071939  70.5293008  80.2141179  71.9400674  72.0676899  81.5752830
  72.8804633  73.0937540  81.9481663  73.9248191  72.9317587  81.6813742
  72.5144365  74.2265538  82.6046151  73.2371997  75.0408329  82.6562366
  71.1994830  74.4289855  83.0407272  70.8644449  75.4655550  83.8150167
  71.6099704  76.0321739  84.0265218  70.2365209  73.4283201  82.8209440
  69.2332995  73.5106936  83.2391090  70.5926057  72.2855935  82.0319335
  69.8332266  71.5518170  81.7617197  72.8233045  68.3199453  80.9115309
  73.7171750  68.0993543  80.1237009  71.7986848  67.4902429  81.0022135
  71.2654506  67.5473424  81.8580759  71.4585134  66.4498993  80.0468719
  72.3428512  66.1374499  79.4915151  70.9626261  65.2676928  80.8819213
  70.0719617  65.5623932  81.4368707  70.7204102  64.4334029  80.2235962
  71.7417179  64.9638457  81.5810580  70.4378258  66.9689239  78.9467313
  69.9004485  68.0576233  79.0554756  70.2497406  66.2457768  77.8245030
  70.5660284  65.2877756  77.8724090  69.7070123  66.7267227  76.5736109
  69.0554093  67.5801826  76.7610112  70.8517447  67.1747336  75.6065804
  70.2145744  67.2966914  74.7306584  71.3195943  68.1285160  75.8505393
  71.9711016  66.2330054  75.2015742  73.3212049  66.3641268  75.5192650
  73.5933536  67.1813784  76.1871981  74.0588958  65.3761415  74.8836848
  75.0607926  65.2992866  74.9856435  73.2720290  64.5867202  74.0648396
  73.5458309  63.4975034  73.1921916  74.5713325  63.1342806  73.1250032
  72.4912313  62.9652955  72.4810886  72.6155611  62.0565210  71.8922161
  71.2548978  63.5830297  72.5072012  70.4624427  63.2745994  71.8253030
  70.9885912  64.5929588  73.3825464  69.9448403  64.9069068  73.3935579
  71.9600837  65.1632732  74.1990492  68.8330053  65.6902490  75.8882037
  69.1667425  64.4877052  75.9147375  67.7134455  66.1771034  75.3406157
  67.5350307  67.1627723  75.4699377  66.7357231  65.3792345  74.5405794
  67.2394399  64.4241011  74.3919562  65.4698699  65.1396748  75.3261166
  64.8512026  66.0270505  75.1922675  64.6672921  63.8890983  74.9220666
  65.2851928  63.0012162  75.0560955  63.7778733  63.8098987  75.5471751
  64.3699129  63.9697213  73.8765207  65.8648283  64.8322499  76.6402820
  65.0866403  64.6713222  77.1789155  66.3150833  66.1124536  73.2367002
  66.1850447  67.3382810  73.2043555  66.3327511  65.3728171  72.1572602
  66.5787063  64.3959884  72.2308208  66.1321860  65.9668539  70.7625603
  66.6910143  66.9020243  70.7269708  66.6977943  65.0206281  69.7083397
  66.1366703  64.0909981  69.8033511  66.6302471  65.5087127  68.2681388
  67.1915715  66.4381310  68.1722356  67.0602935  64.7553754  67.6081058
  65.5904356  65.6826426  67.9912958  68.2506349  64.8406336  69.9825622
  68.3981856  64.4220037  70.9780921  68.6757161  64.1665930  69.2388722
  68.7459875  65.8095132  69.9193251  64.5899309  66.3036384  70.6337367
  63.7915711  65.4793923  71.0735651  64.1932214  67.5237398  70.1489997
  64.9420162  68.1039364  69.7986033  62.8598688  68.0210415  70.0706936
  62.0837922  67.4061834  70.5264940  63.0172210  69.3358252  70.9129656
  63.7846420  69.9661217  70.4636425  62.0692655  69.8736357  70.9284750
  63.3072019  69.0822113  71.9326176  62.3882964  68.3363424  68.5855098
  63.1858247  68.7719883  67.7749321  61.1132883  67.9458079  68.2822239
  60.6282052  67.6191317  69.1056778  60.4386100  67.8518135  67.0065974
  60.9401319  68.4702266  66.2621914  60.4674074  66.4242176  66.5425353
  61.5172728  66.1378323  66.6047081  59.8977560  65.8804123  67.2961088
  59.9230338  66.0809195  65.1395966  59.2705462  66.9287795  64.9310440
  60.6063052  65.9345444  64.3030462  59.0718995  64.8424676  65.2899177
  59.3755758  63.8004578  64.7042332  57.8871477  64.8808147  65.8629122
  57.3429556  64.0341952  65.9477162  57.5279813  65.7566726  66.2150114
  59.0177500  68.4191990  67.0683187  58.2437187  67.9118047  67.8826428
  58.5721808  69.2753425  66.1716129  59.3784327  69.6916658  65.7280672
  57.2448008  69.8122068  65.8475261  56.8624506  70.4523860  66.6425600
  57.5537845  70.6911202  64.6096524  58.3295394  70.2150837  64.0099079
  57.8988028  71.6719554  64.9367985  56.0010108  70.7612702  63.6310769
  56.1857563  68.7185651  65.7568692  56.3747607  67.5977528  65.2884986
  54.9362007  69.1312769  66.0863775  54.8623973  70.0625179  66.4703601
  53.7499254  68.2479358  66.1543586  54.0743981  67.2073821  66.1624028
  52.9261192  68.5141051  67.4199506  52.4268684  67.5801256  67.6778851
  53.6300072  68.7791441  68.2088715  51.8860124  69.6231773  67.2722929
  52.3805953  70.4877336  66.8295392  51.1091468  69.2644043  66.5971161
  51.2624511  70.0204834  68.5922551  52.0992084  70.2745194  69.2429484
  50.6824062  70.9185403  68.3797903  50.3941958  69.0177850  69.2692888
  49.5608528  68.8176444  68.5958025  50.9910283  68.1133034  69.3867756
  49.8741624  69.4366314  70.5825439  49.3207383  70.2744882  70.4738357
  49.2990661  68.7008085  70.9671591  50.6461925  69.6217234  71.2068912
  52.9057760  68.1756951  64.8509407  51.8930768  67.4588119  64.7287532
  53.1986290  68.9712916  63.8039625  54.0631619  69.4872079  63.8846626
  52.4002724  69.1432098  62.5934449  51.3983411  68.7147922  62.5671533
  52.3200557  70.6976760  62.2713963  53.3253995  71.1100722  62.3569165
  51.7805074  70.9754589  60.8973551  50.7749399  70.5637364  60.8112204
  51.7472871  72.0520684  60.7302949  52.4272093  70.5124331  60.1520479
  51.6168584  71.4795996  63.4012941  52.2333133  71.3569813  64.2918270
  51.6191548  72.5270862  63.0998542  50.1725391  71.0375541  63.7115383
  50.1694949  69.9902251  64.0135194  49.7703702  71.6491891  64.5191658
  49.5553367  71.1603280  62.8215453  53.1137291  68.3848648  61.4626566
  52.4770765  67.4704450  60.8322473  54.3808435  68.7244062  61.2176220
  54.8917903  69.3122762  61.8606167  55.0416941  68.2734423  60.0519269
  54.3920963  67.6639740  59.4236984  55.4624333  69.5985508  59.2274957
  54.6300623  70.3022613  59.2204223  55.7148616  69.3248587  58.2030580
  56.9109276  70.4667611  59.9269247  56.2690240  67.4581070  60.3688097
  56.8757040  66.7820517  59.5308713  56.6440332  67.3591622  61.6605237
  56.0973458  67.9436165  62.2766774  57.7768971  66.6186435  62.2276935
  57.7129049  66.7795352  63.3038524  57.5956831  65.0581445  61.9328826
  57.6664488  64.8799500  60.8598780  58.3771727  64.4977571  62.4460494
  56.6196771  64.7310643  62.2913935  59.1683833  67.1048069  61.7761967
  60.1306079  66.3128547  61.6411508  59.3955684  68.4397696  61.7867084
  58.6125456  69.0535308  61.9606962  60.7171238  69.0348852  61.6198465
  61.2840078  68.5314581  60.8367100  60.5115306  70.4731592  61.2170198
  60.0470313  70.5321301  60.2327119  59.8853126  70.9886387  61.9451901
  61.7736837  71.0796917  61.1745245  61.6778524  72.0003737  60.9200431
  61.5170204  69.0370127  62.9668513  60.9611766  69.2252295  64.0158781
  62.7997416  68.6189894  62.9989254  63.2182689  68.2400978  62.1614438
  63.5965274  68.6595147  64.2060841  63.0338666  68.2594741  65.0495766
  64.8283133  67.8186203  64.0076554  64.9763095  68.2217178  63.0058027
  65.7502673  67.9214436  64.5799563  64.5723286  66.2704521  63.8381972
  64.0106520  65.7224885  62.6696527  64.1190865  64.4476732  62.7382528
  63.6099193  63.8294143  61.9989263  64.8656948  64.1257547  63.7447410
  65.1912126  63.1949776  63.9633552  65.1571704  65.2778840  64.4936616
  65.7540013  65.2006272  65.4024660  63.9338220  70.1877181  64.4636281
  64.5009095  70.8341660  63.5960465  63.6617264  70.6247474  65.7391838
  63.2324532  69.9900809  66.3972282  63.7478162  72.0234991  66.0927248
  63.9145157  72.6458195  65.2135047  62.3626060  72.3902658  66.7388083
  62.2655103  71.8277817  67.6674011  62.2275549  73.9225340  67.0399751
  62.3240875  74.4856852  66.1117280  61.2526947  74.1212954  67.4852191
  63.0118329  74.2276980  67.7327103  61.1759241  71.9792733  65.7481215
  61.3254668  70.9027905  65.6649194  60.2994806  72.1771960  66.3651895
  60.9550887  72.5945853  64.3047751  61.8309903  72.3966447  63.6869436
  60.0771391  72.1399473  63.8458545  60.8050063  73.6710512  64.3872138
  65.0085341  72.3930830  66.8579543  65.2597841  73.6008251  66.8675731
  65.6648038  71.3952231  67.5505137  65.4290573  70.4269122  67.3865112
  66.6916757  71.6940587  68.5153046  67.6670755  71.6959550  68.0287957
  66.5069073  72.6712151  68.9615392  66.6875899  70.6074485  69.6463636
  66.5786274  69.4384984  69.4362594  66.7680986  71.1049745  70.9196100
  66.6153145  72.0874978  71.0968223  67.0843262  70.2212566  72.0732952
  66.5882919  69.2599227  71.9395558  68.6217169  69.9766931  72.1959851
  69.1388473  70.9013059  72.4524349  68.7602345  69.2495832  72.9961250
  69.3333676  69.4030926  70.9489719  69.4524047  68.0907907  70.7277577
  68.8737646  67.4219972  71.3649317  70.3386693  67.8700976  69.6744411
  70.7380514  66.9630490  69.4798744  70.5804534  69.0214997  68.9569828
  71.2421187  69.1600699  67.7696807  71.7073225  68.2986706  67.2904361
  71.2682871  70.4612003  67.2423098  71.7604489  70.6764602  66.2938691
  70.6470853  71.5182046  67.9480515  70.6405284  72.5352005  67.5559090
  70.0192062  71.2835420  69.1790313  69.4950451  72.1464897  69.5897345
  69.9658736  70.0221192  69.7553144  66.5575864  70.9235952  73.3894132
  66.6924786  72.1250108  73.6865557  65.9503897  70.0844101  74.2121103
  65.7486361  69.2022897  73.7634918  65.5197366  70.2723654  75.5858835
  65.3205610  71.3341243  75.7311290  64.2879642  69.4967781  75.9614245
  63.5308501  69.6592557  75.1943010  64.5450345  68.4381934  75.9990193
  63.7149268  69.9560890  77.3805720  64.4454579  69.6829118  78.1420176
  63.5990856  71.0397423  77.3611198  62.3951426  69.3179101  77.7021608
  61.6339654  69.6914349  77.0171882  62.4788176  68.2362573  77.5966849
  61.9989553  69.6611292  79.1416246  62.7720430  69.2800299  79.8088571
  61.9446040  70.7460511  79.2315675  60.7165282  69.0802294  79.5045601
  60.7668079  68.0748908  79.4216983  60.4919821  69.3287103  80.4574171
  59.9999564  69.4335641  78.8866779  66.6031908  69.9014974  76.5179081
  67.1845345  68.8328326  76.3142345  66.8835846  70.6821749  77.5621213
  66.2853515  71.4930092  77.6311432  68.0084062  70.5605658  78.5082781
  68.5083460  69.6005384  78.3798004  68.9685419  71.6207345  78.2587209
  68.4477343  72.5656601  78.4135573  69.7942302  71.5414328  78.9658631
  69.5862563  71.6876113  76.8767823  69.1870981  72.5872564  75.8507914
  68.4136074  73.3276987  76.0546472  69.7800740  72.5262293  74.5872023
  69.4982265  73.2640266  73.8359914  70.7172662  71.5435057  74.2804223
  71.0350061  71.4256037  73.2444492  71.2585888  70.7017101  75.2901743
  72.1072123  70.0316090  75.1526869  70.6092083  70.7771425  76.5537390
  70.8967872  70.0972988  77.3557433  67.4398266  70.5117605  79.9679097
  67.0620443  71.5244530  80.5372605  67.6109378  69.3944125  80.6168938
  68.0817607  68.6473723  80.1266327  67.1221981  69.1333673  82.0055478
  66.5132555  69.9920366  82.2883463  66.2642433  67.8392773  82.1650277
  65.9010030  67.7688426  83.1903061  65.0643844  67.8919545  81.1973586
  65.4268649  67.9619319  80.1717804  64.4662472  66.9877010  81.3098605
  64.4508742  68.7635135  81.4255927  67.0902841  66.7295741  81.8286582
  66.5867760  65.9171253  81.9181396  68.3891954  69.0570100  82.8895169
  69.3212816  68.3143906  82.5736868  68.3553584  69.7443224  84.0625825
  67.5883189  70.3668625  84.2728048  69.4376842  69.7007142  84.9505415
  70.3102871  69.9680753  84.3545706  69.2342547  70.7830411  86.0461025
  68.3693192  70.5244043  86.6569165  70.1217833  70.8336164  86.6768445
  69.0687144  71.7516339  85.5743784  69.7230286  68.3237236  85.5781372
  68.8179000  67.5026098  85.8691549  71.0288458  68.0347681  85.8383627
  71.7632210  68.6336258  85.4888461  71.4166513  66.7270915  86.4744018
  70.6038401  66.0066474  86.5660399  72.6280310  66.0328926  85.7084011
  72.8654167  65.1089014  86.2356471  72.3112600  65.7153527  84.2318173
  72.0742135  66.6389784  83.7037791  73.1772007  65.2437948  83.7671896
  71.4583024  65.0386811  84.1800544  73.8318297  66.7683715  85.8294985
  74.5326073  66.3155568  85.3546618  71.6694790  66.7609708  87.9708069
  72.2156504  65.8140156  88.5137100  71.2338344  67.8481059  88.6666143
  70.8660418  68.5954684  88.0954074  71.3304886  68.0636642  90.1242691
  70.7206577  67.3386257  90.6632725  72.8140457  67.8824107  90.5540140
  72.9079599  68.0451037  91.6277040  73.1466979  66.8736342  90.3094484
  73.6941657  68.9172645  89.7937801  73.5018071  68.7932638  88.7280771
  73.3768416  69.9120929  90.1063883  75.2015168  68.7501215  90.0661218
  75.2699746  68.4806896  91.1200758  75.5067387  67.9013755  89.4541012
  76.1255222  69.9445633  89.7820925  75.8639955  70.7555809  90.4617651
  77.1556998  69.6376876  89.9628149  75.9887970  70.4055977  88.3951896
  75.0343798  70.6904074  88.2276459  76.6064416  71.1892160  88.2384814
  76.2314997  69.6543685  87.7652299  70.7561737  69.4153004  90.4033802
  70.6680169  70.3258081  89.5646997  70.3214214  69.5613630  91.6841523
  70.1642081  68.6906220  92.1711773  69.8360748  70.8126635  92.3090833
  69.2014238  71.3560276  91.6090314  69.0075000  70.4900377  93.5826508
  68.2467425  69.7656604  93.2917474  69.6901416  70.0316927  94.2982068
  68.3287807  71.7163802  94.2318744  69.0716908  72.4928689  94.4142228
  67.5560548  72.1024996  93.5671124  67.6976688  71.2969167  95.5543483
  68.4049183  70.6384499  96.0586485  67.5553809  72.1996550  96.1484166
  66.3697401  70.5835495  95.3937945  65.7319659  71.2518828  94.8152833
  66.5743924  69.6842577  94.8128550  65.6641125  70.2023511  96.6856712
  65.4740006  71.0355564  97.2239335  64.7949286  69.7355938  96.4694374
  66.2547433  69.5827188  97.2216844  70.9220942  71.9119434  92.4701289
  70.5568410  73.0568402  92.4530592  72.2186593  71.6685100  92.5500542
  72.5092215  70.7016180  92.5218953  73.2644934  72.7143896  92.6859690
  72.8802125  73.5628687  93.2521055  74.4990137  72.1212918  93.4484208
  74.0712631  71.8433926  94.4116968  74.8580654  71.2268853  92.9392853
  75.6457116  73.0688837  93.6644106  76.6772545  72.5490985  94.1373689
  75.4967021  74.3203776  93.4586435  73.7366326  73.2359724  91.2757609
  74.7378117  72.8042786  90.7466459  72.8394582  73.9417096  90.6254301
  71.9380117  73.8598578  91.0735304  72.9228367  74.6883252  89.3213326
  73.5152058  75.5882560  89.4866279  73.5581823  73.8863770  88.1787794
  73.5337096  74.4519093  87.2472894  74.5888093  73.6225839  88.4161001
  72.7109496  72.5831938  88.0189188  72.7241057  72.0697331  88.9803166
  71.6910753  72.8880415  87.7843417  73.3066035  71.4531496  86.7312222
  72.6812070  72.2080174  85.2665107  73.0885753  73.2147532  85.1735957
  72.9739554  71.6166621  84.3989291  71.5937621  72.2601474  85.3198719
  71.5269995  75.2789906  88.8874595  70.5222305  74.8222937  89.4549154
  71.4637056  76.2362921  87.9537991  72.3300486  76.5596834  87.5476375
  70.2192653  76.9072430  87.5628934  69.4703310  76.1381709  87.3738835
  69.6667715  77.8831577  88.6155064  70.4625177  78.2385299  89.2701801
  69.1822539  78.7348464  88.1380453  68.7222303  77.1711879  89.3715103
  68.3508401  77.7469848  90.0439143  70.3883196  77.6125838  86.2551820
  71.4639166  78.0491173  85.8732546  69.2679677  77.7855805  85.5206884
  69.1595631  78.3454341  84.1793453  69.8970053  77.8275642  83.5660834
  69.4292608  79.3985150  84.2592372  67.7472986  78.1487372  83.6787205
  67.6969174  77.2833736  83.0178828  67.4091780  79.0352051  83.1421103
  66.9372213  77.9350074  84.9246565  66.0935624  77.2722151  84.7321857
  66.5739833  78.8704762  85.3501632  67.9423432  77.2461500  85.9213634
  67.7879025  77.5284694  86.9627769  67.8027625  75.7563239  85.7809449
  68.5161679  75.1337388  85.0021726  66.8471580  75.1230173  86.5035616
  66.1468816  75.6591175  86.9958103  66.7810790  73.6595721  86.5766087
  67.7360483  73.2128745  86.8533650  65.7244088  73.3522404  87.7249659
  65.0533640  74.2103905  87.7620687  65.1691993  72.4711598  87.4031906
  66.3187027  73.1017170  89.1308950  66.6427497  73.9408484  89.7464865
  65.4593139  72.6200987  89.5973676  67.4333301  72.1123026  89.0482623
  67.3046075  70.9734027  88.6919782  68.6849879  72.5668835  89.1321061
  69.4586367  71.9197576  89.0792195  68.8530615  73.5560267  89.2480732
  66.3115118  73.0289549  85.2824528  66.4603931  71.7836213  85.1580350
  65.7965106  73.7944192  84.3044297  65.4764075  74.7278740  84.5195933
  65.5204721  73.2461426  82.9372554  66.4180985  72.7452763  82.5746274
  64.3809487  72.2614523  82.9232389  64.2602689  71.8383044  81.9260020
  64.5666124  71.4594264  83.6376502  63.0714713  73.0299323  83.3277093
  63.1777553  73.4236824  84.3385335  62.9031788  73.8532267  82.6334716
  61.8808577  72.0689408  83.2773452  61.6954774  71.7515954  82.2511751
  62.0756013  71.1943342  83.8980204  60.6319203  72.8226427  83.8206627
  60.5148441  73.7495556  83.2592126  59.7545351  72.1937451  83.6697253
  60.7743551  73.1337124  85.2633941  61.5870588  73.7168118  85.4034202
  59.9505997  73.6212827  85.5855778  60.8824242  72.2749221  85.7838741
  65.3571180  74.4782976  81.9711527  64.9712051  75.5515871  82.4387495
  65.5182904  74.2435222  80.6595087  65.7559462  73.2768479  80.4887460
  65.4793329  75.1105202  79.5803800  64.5319422  75.6494673  79.5896567
  66.6263145  76.1326570  79.6252208  66.3029956  76.9835125  79.0255466
  66.7432051  76.4438990  80.6632791  68.0173864  75.7488252  79.1248439
  68.9022348  74.9367256  79.8601341  68.5233428  74.4305202  80.7479949
  70.2159113  74.7738913  79.4830256  70.9665509  74.4004390  80.1795702
  70.5930273  75.1125160  78.1213451  71.5609190  74.8501931  77.6941774
  69.6702984  75.7917375  77.3650432  69.9287868  75.9776076  76.3225768
  68.4469850  76.2394022  77.8723790  67.8486518  76.9510372  77.3034564
  65.4912287  74.4087551  78.2176866  65.6987468  73.2011893  78.1618643
  65.2844691  75.1207288  77.1241736  65.0049989  76.0669953  77.3399870
  65.3928307  74.7423723  75.7482451  65.6304664  73.6805646  75.6834930
  64.1029980  74.9946616  75.0034609  63.9869365  76.0784646  75.0033270
  64.1761246  74.6374767  73.9762456  62.8370184  74.4287924  75.5641780
  62.1792802  74.9304284  76.5813313  62.6337233  75.8086914  77.0398457
  60.9941012  74.1944598  76.8593818  60.2870322  74.4867572  77.5187111
  60.9074023  73.1446464  76.0502285  59.8790424  72.2135436  75.9048306
  59.0049581  72.2738972  76.5532384  60.0497478  71.2459454  74.9119120
  59.3001094  70.4654782  74.7814778  61.1706731  71.2566401  74.0745029
  61.2361930  70.5136941  73.2796206  62.2627963  72.2140713  74.2086283
  63.1103879  72.1887819  73.5237564  62.0980193  73.2316353  75.2172080
  66.5010216  75.5127921  75.0080962  66.5592767  76.6980891  75.1611694
  67.2508859  74.8261721  74.1105203  67.2653304  73.8258368  74.2491564
  68.0183456  75.3841700  72.9927377  68.0621046  76.4692618  73.0863324
  69.0296649  74.9777784  73.0061007  67.3568140  75.0264714  71.6644490
  67.8823634  74.1990414  70.8898869  66.2528278  75.6561824  71.2596176
  65.7427104  76.1569919  71.9731086  65.6737864  75.6045792  69.8724986
  65.5494567  74.5794486  69.5235738  64.3205305  76.2513568  69.9539072
  64.5270986  77.3139937  70.0813103  63.8306732  76.0895441  68.9937215
  63.4114885  75.7756962  71.0715183  63.9540139  75.8562249  72.0134749
  62.1303577  76.6050525  71.1494607  61.5870218  76.5246410  70.2079625
  61.5055048  76.2338965  71.9618048  62.3834330  77.6490314  71.3342886
  62.9889207  74.3391871  70.9657493  63.8705469  73.6984315  70.9820837
  62.3418312  74.0874596  71.8059932  62.4471075  74.1870899  70.0322591
  66.6504806  76.2796881  68.8871468  67.1686364  77.3827095  69.1327081
  66.8466840  75.7696951  67.6778456  66.4226605  74.8824414  67.4474451
  67.6790526  76.4296421  66.6608360  68.5630326  76.9297707  67.0564999
  68.1227069  75.4572660  65.5271586  68.8644438  75.9661122  64.9115270
  68.7119928  74.1895943  66.0748672  67.9706358  73.6799228  66.6902731
  69.0079125  73.5402304  65.2509393  69.5858505  74.4270120  66.6815848
  67.1775824  75.1531621  64.5696215  67.5569534  74.5508199  63.9255238
  66.9371863  77.6005613  66.0101897  65.7083162  77.5762071  65.8117478
  67.6466790  78.6965525  65.6564267  68.6186254  78.7965601  65.9121963
  67.0321764  79.7460690  64.8925643  66.2072554  80.1803471  65.4573714
  68.0462072  80.8459141  64.5862435  68.5194939  81.1271520  65.5269901
  68.7947382  80.4244986  63.9152664  67.3996015  82.1277434  63.9169865
  66.6619883  81.7806434  63.1934196  66.8982118  82.6891903  64.7053315
  68.4293994  83.0429695  63.2061064  67.9430584  83.9310763  62.8025748
  69.2194063  83.3430934  63.8945207  69.0273746  82.2971223  62.1055309
  70.0091096  82.1113474  62.2531227  68.5026805  82.0048268  60.9366723
  67.4421940  82.6112593  60.4941196  67.0024072  83.3269130  61.0549471
  67.0626234  82.3641483  59.5913671  68.9472086  80.9641608  60.2956800
  69.6814865  80.4011278  60.7005627  68.5560587  80.7239165  59.3960228
  66.4994540  79.2027481  63.5483209  65.3996110  79.4991768  63.1133619
  67.2561374  78.4282217  62.8172020  68.1038456  78.0961535  63.2544901
  66.9551124  77.9791965  61.4543666  66.9594246  78.8235561  60.7650644
  68.0278920  76.9743518  61.0066302  68.0782139  76.1365346  61.7020648
  67.8069324  76.6025995  60.0060918  69.2472396  77.6392863  60.9943158
  69.9389912  77.0340107  60.7173302  65.5969304  77.2317397  61.3082226
  65.0398658  77.2906923  60.2088038  65.0760513  76.6260511  62.3724370
  65.6020933  76.7198732  63.2295115  63.8172870  75.8906108  62.4107753
  63.6249957  75.4066148  61.4532414  64.0632871  74.7755365  63.4987088
  64.2482917  75.2445678  64.4650850  63.1840251  74.1351378  63.5686246
  64.9277985  74.1751740  63.2153643  62.5718663  76.6656511  62.8319401
  61.5102002  76.1838465  62.8472526  62.7162774  77.9542910  63.1529846
  63.6854169  78.2321254  63.0923542  61.7768778  78.8886194  63.6801326
  60.7778508  78.4527159  63.6744471  62.1385436  79.2524652  65.1066641
  63.1899726  79.5352080  65.0551586  61.5462680  80.1129575  65.4178917
  61.9574463  78.0752542  66.1610586  62.5017558  77.1853797  65.8449077
  62.5192725  78.5689851  67.4663686  61.9751249  79.4586382  67.7834169
  62.4167843  77.7918570  68.2237779  63.5735513  78.8146959  67.3390000
  60.6461010  77.5052493  66.4445018  60.2255863  77.0873562  65.5298258
  60.7454983  76.7173629  67.1911319  59.9852568  78.2841979  66.8247950
  61.5288034  80.1144157  62.8385410  62.4404277  80.5414541  62.0881549
  60.3811654  80.8257725  62.9808169  59.7310757  80.2822795  63.5304514
  59.8786383  82.0437626  62.2979986  60.7043185  82.7001464  62.0232048
  59.0598019  81.7340290  61.0798533  59.6508535  81.1084539  60.4109630
  57.7351801  80.9810821  61.4669012  57.1433411  81.6062693  62.1354580
  57.1606138  80.7687508  60.5652972  57.9818379  80.0454208  61.9686950
  58.7718545  83.0483164  60.3105977  58.3794978  83.7608758  61.0361430
  59.7273429  83.4081003  59.9288950  57.7738505  82.9018091  59.1424139
  56.8179167  82.5424809  59.5234305  57.6320545  83.8696258  58.6614523
  58.1657612  82.1897032  58.4161832  59.2728905  83.0453718  63.3882121
  58.3378383  82.6289819  64.0495772  59.6672510  84.3082297  63.5154898
  60.9120337  84.8301498  62.8933222  60.7031014  85.1846790  61.8839875
  61.6657027  84.0437355  62.8528942  61.3074668  85.9803340  63.8597170
  61.9100312  86.7267559  63.3421559  61.8650314  85.5911011  64.7116095
  59.9703685  86.5556208  64.3028064  59.6271094  87.2370511  63.5243946
  59.9645563  87.0700531  65.2637566  59.0302180  85.2951549  64.3629470
  58.9042563  84.8746522  65.3606491  57.6508829  85.6945403  63.7956623
  57.5416212  85.6657294  62.5961479  56.6193000  85.8831999  64.6096017
  56.7896385  85.7522700  65.5964865  55.1954129  86.1226951  64.1522819
  55.1516508  86.7246159  63.2446060  54.5256040  84.8213929  63.8920558
  54.7692618  84.1683647  64.7300804  53.0012068  84.9039360  63.7346589
  52.7567698  85.5564700  62.8964766  52.6002371  83.9077301  63.5478540
  52.5624069  85.3063180  64.6476999  55.0694801  84.2776768  62.7588565
  54.6484337  83.4348760  62.5744465  54.4416870  87.0160174  65.1084004
  54.5655893  86.9218900  66.3589916  53.6010616  87.8318044  64.5680890
  56.3252546  72.0555571  61.8109988  81.0126206  53.6795751  55.7867059
  80.9130434  53.8704139  56.7735017  81.4567345  54.4724165  55.3459500
  81.4020671  52.7546872  55.6726301  79.6669255  53.6101681  55.1965726
  79.5668884  54.3708074  54.4222861  79.4152425  52.2199481  54.5603833
  79.9361663  52.1904748  53.6033729  79.7298495  51.3735703  55.1709299
  77.8953080  52.0078077  54.2497814  77.3685667  50.7320365  54.4463024
  77.9544339  49.9009140  54.8388515  75.9783924  50.5376182  54.1032778
  75.5773000  49.5324156  54.2328669  75.1621248  51.5544083  53.6295204
  74.1063539  51.4057486  53.4029195  75.7702568  52.8622461  53.4376124
  75.1573027  53.6909238  53.0830975  77.1209221  53.0600381  53.7022682
  77.5827365  54.0239387  53.4884390  78.7012850  53.8497734  56.3572008
  78.5989135  53.0597802  57.2675831  77.9502155  54.9175862  56.2752481
  78.1063379  55.4045106  55.4042545  77.0093557  55.4928137  57.2301079
  76.8122769  54.8793311  58.1092541  77.5844440  56.8734526  57.6777044
  77.9217307  57.3752628  56.7707730  76.6235210  57.7666957  58.4175746
  76.2861304  57.2657181  59.3249277  77.1231487  58.6986396  58.6820618
  75.7649010  57.9830630  57.7819205  78.8909467  56.6128138  58.5237180
  78.5906401  55.9310430  59.3193971  79.5773918  56.1022334  57.8482920
  79.5923713  57.8404530  59.1370619  78.9066507  58.3513188  59.8130080
  80.4738444  57.5170057  59.6906739  79.8934004  58.5225107  58.3419024
  75.6582882  55.5759287  56.4818095  75.4621085  56.1622982  55.4241941
  74.7160232  54.7799994  56.9971921  74.8838404  54.3037848  57.8719243
  73.4236554  54.5406078  56.3005063  73.5160881  54.0146052  55.3503081
  72.5264866  53.7441990  57.2047901  72.3843184  54.2914271  58.1366854
  71.1566835  53.5095881  56.5319981  71.2980049  52.9619685  55.6002031
  70.5177986  52.9312438  57.1994144  70.6858692  54.4696967  56.3207471
  73.1511509  52.3850522  57.6605440  74.0773614  52.5740969  58.2032209
  72.4498634  51.8621929  58.3108621  73.3622790  51.7701129  56.7856866
  72.6815331  55.7600614  55.8797586  72.6284039  56.7481754  56.6132992
  72.2039173  55.8015352  54.6130036  72.2229580  55.0202115  53.9732614
  71.6246883  57.0639525  54.1498305  71.3969919  56.9199882  53.0936450
  70.6965087  57.1905572  54.7071036  72.4928219  58.3493606  54.3111746
  72.0070194  59.5199177  54.3842349  73.7420940  58.2382568  54.3416406
  74.0918914  57.2928954  54.2781346  74.7038957  59.3229891  54.4573065
  75.6916570  58.9147442  54.2433837  74.4507309  60.0722135  53.7071934
  74.7272576  59.9856739  55.8337700  75.2789093  61.0477785  55.9253742
  74.0223307  59.4242518  56.8087384  73.6358835  58.5085667  56.6290752
  73.6416898  60.1049003  58.0378011  74.3677286  60.8323619  58.4007977
  72.3848501  60.8642274  57.5431172  72.7194265  61.5954304  56.8072502
  71.7367584  60.1332973  57.0595695  71.6143480  61.5726420  58.6474710
  71.2316658  60.8142808  59.3305108  72.3094765  62.2223245  59.1792708
  70.4188712  62.4280921  58.0921492  69.9690846  61.7704744  57.3482877
  69.7542500  62.5113480  58.9520600  70.6347666  63.7924418  57.4907990
  69.6441808  64.1819452  57.2560068  71.0881708  64.4015906  58.2727591
  71.4941057  63.8370663  56.2607267  71.0739256  63.2730234  55.5358791
  71.5743439  64.7916132  55.9405671  72.4121823  63.4765835  56.4781813
  73.4998472  59.2421240  59.2725976  73.6410545  59.7747914  60.4035985
  73.1981284  57.9670768  59.1857913  73.3502161  57.5446023  58.2810902
  72.6542642  57.1020869  60.2974141  72.5004718  57.6844440  61.2058784
  71.3181157  56.5438942  59.8476920  71.5693460  56.0032874  58.9351533
  70.9563152  55.8408340  60.5979632  70.2423423  57.5594311  59.5503011
  69.5913018  58.1441528  60.6536455  69.8924621  57.8592767  61.6617365
  68.5756451  59.0744153  60.4686612  67.9693909  59.4262290  61.3033976
  68.3534359  59.5834515  59.1713647  67.5519260  60.6462442  58.9559520
  67.1686478  60.9967603  59.7633155  68.9614317  58.9585094  58.0489818
  68.7765720  59.2937848  57.0284340  69.8231108  57.8777631  58.2868294
  70.1752413  57.2681162  57.4547027  73.6748618  55.9894568  60.5337270
  73.7884718  54.9493255  59.8529622  74.4689129  56.1874200  61.6253572
  74.4508152  57.0639976  62.1267388  75.4882624  55.2185076  61.9726730
  75.9502463  54.7592295  61.0987544  76.5778988  56.0597991  62.7334318
  76.6036363  57.0403861  62.2581572  76.2308211  56.1638722  63.7614425
  77.9969143  55.4480792  62.7286759  77.9238634  54.4167285  63.0737558
  78.3700780  55.4624619  61.7046426  78.9775741  56.2357178  63.6498886
  79.0700333  57.2585106  63.2845871  78.5839893  56.2476573  64.6662782
  80.3636756  55.5609976  63.6438549  80.3796088  54.7809812  64.4050521
  80.5347485  55.1152601  62.6639817  81.4196551  56.5417491  63.9262496
  81.2615609  56.9545853  64.8343643  82.3182641  56.0807386  63.9178076
  81.4053395  57.2643889  63.2207811  74.8582368  54.0600645  62.6574055
  74.2921809  54.2390237  63.7333210  74.9690955  52.8360971  62.1396459
  75.2611353  52.7828822  61.1742547  74.5907910  51.5888148  62.8241616
  73.5229811  51.6203509  63.0406950  74.8887566  50.3188647  61.9733666
  75.9722658  50.2829391  61.8601576  74.5598494  49.4789061  62.5852405
  74.2500780  50.2373048  60.6388215  74.6467241  51.0335427  60.0089184
  74.5397646  48.8439541  59.9670622  74.1429735  48.0471877  60.5962036
  74.0616795  48.8055040  58.9882583  75.6155712  48.7127280  59.8507862
  72.6836309  50.3916658  60.6610325  72.4195425  51.3616919  61.0822284
  72.2964998  50.3199141  59.6446259  72.2486698  49.6004261  61.2716450
  75.1700296  51.3437632  64.2307196  76.3118116  51.7460010  64.4993376
  74.4275130  50.6394515  65.0767982  73.5103626  50.3867256  64.7375871
  74.7061819  50.5005369  66.5438689  75.7700215  50.5402230  66.7778974
  73.9769076  51.5398333  67.4019942  72.9115481  51.4463802  67.1913410
  74.2100096  51.3761171  68.8653853  75.2751713  51.4699118  69.0768897
  73.6629157  52.1461085  69.4093539  73.8626116  50.3924610  69.1813553
  74.3387368  52.9108102  66.9291603  74.0428912  53.0259398  65.8864127
  73.8220159  53.6535095  67.5370229  75.4155462  53.0541923  67.0187361
  74.6717404  49.0608568  67.0626068  75.4480181  48.6236387  67.9285007
  73.6194628  48.3121371  66.7262814  72.8060202  48.8308186  66.4273165
  73.5138118  46.8486033  66.8306822  74.4080159  46.3926463  66.4057099
  73.3756944  46.3863187  68.3161648  73.2040149  45.3100260  68.3013510
  74.3268809  46.5952917  68.8057304  72.2677621  47.0584164  69.0700347
  72.5188849  48.1189973  69.0843964  71.3679907  46.9066590  68.4738107
  72.0203412  46.5760200  70.4942126  71.5978953  45.5741180  70.4178539
  72.9937647  46.5231372  70.9818083  71.1175533  47.4104854  71.3245123
  70.1308474  47.2203879  71.2226612  71.4926423  48.3490467  72.1679606
  72.7497551  48.6715391  72.3152464  73.4569075  48.1952138  71.7738134
  73.0088021  49.3957258  72.9698822  70.6288104  49.0414423  72.9217450
  69.6393025  48.8502541  72.8552524  70.9708367  49.7516128  73.5532310
  72.3563835  46.2498943  65.9983487  71.3931185  46.9761732  65.7480818
  72.4354566  44.9416002  65.7316503  73.3829586  44.5959665  65.6780162
  71.3480338  44.0661033  65.2754027  70.7208847  44.5990287  64.5607184
  71.9241878  42.7930241  64.5809900  72.6902665  43.1388878  63.8870153
  72.3884823  42.1957422  65.3657097  70.8768493  41.9178926  63.8090621
  70.2018782  41.5257388  64.5698053  70.3339800  42.6081919  63.1633982
  71.4296708  40.7563937  62.9670302  72.1087601  41.1800262  62.2271165
  71.9859335  40.1000177  63.6362399  70.3287661  39.9463048  62.2501851
  69.9035120  39.2254382  62.9484766  69.5478843  40.6268928  61.9108876
  70.8980563  39.2288140  61.0859615  71.6213641  38.5977971  61.4001956
  70.1691612  38.7028360  60.6253541  71.2917788  39.8966331  60.4385826
  70.2571001  43.8335740  66.3487693  70.4773009  43.6282431  67.5330479
  69.0217367  43.9624116  65.7813963  68.9505075  44.2279433  64.8095328
  67.7656556  43.8455441  66.5761059  67.8826982  43.6076088  67.6333604
  66.8902083  45.1415947  66.4250827  66.7882168  45.3491521  65.3598982
  65.4950142  45.0045538  67.0559918  65.5961912  44.7974340  68.1213393
  64.9404795  45.9327358  66.9178973  64.9577436  44.1861878  66.5767042
  67.6527422  46.3880535  66.8842466  68.5417352  46.4501773  66.2566059
  67.0019468  47.2374379  66.6766150  68.0747719  46.4113086  68.3878503
  68.7260032  45.5624206  68.5961456  68.6070402  47.3380762  68.6020731
  67.1862142  46.3496788  69.0161549  67.0264378  42.6169611  66.2142909
  66.4575110  42.0965180  67.1595153  67.1870577  42.0473177  64.9965251
  67.7790317  42.5419861  64.3446284  66.5582616  40.7516231  64.5498922
  67.0943006  39.9414653  65.0442662  65.5215302  40.7591456  64.8863899
  66.5900958  40.5132999  62.9984211  67.0190170  41.3672702  62.2808346
  66.2651476  39.3201237  62.5669997  66.1714673  38.5762063  63.2436903
  66.1293953  38.9930139  61.1662094  66.3960902  39.8609547  60.5631738
  67.0469511  37.8251109  60.7777652  68.0319517  37.9796215  61.2182190
  66.6231643  36.8940997  61.1542261  67.1669328  37.7528535  59.3620960
  67.7416655  37.0208455  59.1266254  64.6463048  38.7060499  60.8542153
  63.8533323  38.4823330  61.7442122  64.3000893  38.7494804  59.5708734
  65.0127264  38.9266609  58.8774364  62.9197290  38.5501201  59.1146223
  62.3942734  37.9318302  59.8424362  62.4293716  39.5208733  59.0419097
  62.8669590  37.8383773  57.6995002  63.8739749  37.2788470  57.2632172
  61.7194079  37.7253612  56.9674402  60.8468806  37.7865913  57.4724613
  61.6854544  37.2774175  55.5838298  62.4207649  36.4890672  55.4228284
  60.2646855  36.7106140  55.2551666  59.4946368  37.4380206  55.5120787
  60.1888614  36.4604157  54.1969835  60.0924712  35.5884851  55.9984148
  59.2264186  35.2153635  55.8186009  62.2824770  38.3427435  54.6170814
  62.8823631  38.0131598  53.5833415  62.1507796  39.6226519  54.8981653
  61.6833133  39.9067570  55.7471994  62.6781113  40.6471996  54.0330500
  62.4763037  40.3957900  52.9918171  61.9836552  42.0660860  54.3650336
  62.0679791  42.6312041  53.4367932  60.9369513  42.0149588  54.6648618
  62.7142897  42.8867945  55.4497661  63.6842855  43.8348620  55.1586266
  63.9164887  44.0676418  54.1193985  64.3698045  44.4973818  56.2009928
  65.0830913  45.2954990  55.9952466  64.1168620  44.1094622  57.5184812
  64.6731557  44.5966239  58.3192999  63.1737510  43.1191009  57.8226376
  62.9952785  42.8131477  58.8534821  62.4598854  42.5237276  56.7863386
  61.7008139  41.7735685  57.0080850  64.2845931  40.9180090  54.1575511
  64.8652885  41.5143636  53.2422255  64.9172533  40.5820632  55.2518634
  64.4730972  39.9703596  55.9216719  66.2788635  41.0730862  55.5471415
  66.9969560  40.4065658  55.0694461  66.3817594  42.0753521  55.1312390
  66.5588010  41.1227837  56.9920118  66.1816046  40.1727796  57.6717824
  67.1460543  42.2279497  57.4626664  67.4566651  42.9334606  56.8100757
  67.5319630  42.3552879  58.8321508  66.8464025  41.7586119  59.4338848
  69.0085785  41.8785321  59.1274329  69.5457755  42.7676229  58.7972266
  69.1807526  41.7253765  60.1927965  69.5183390  40.6448008  58.3393846
  69.3127185  39.4954395  58.8346763  70.2677165  40.7647737  57.3052154
  67.2397712  43.7279203  59.3745483  67.0031464  44.7059021  58.6703279
  67.0845355  43.7770973  60.7083734  67.2974735  42.9629497  61.2668718
  66.5791237  44.9911751  61.3978478  66.4989800  45.9094886  60.8161464
  65.1690623  44.6707157  62.0857007  65.2835103  43.9797150  62.9208774
  64.6418360  46.0174814  62.6042715  64.5266820  46.7089078  61.7695442
  63.6763794  45.8684482  63.0877829  65.3478841  46.4318854  63.3238995
  64.1517055  43.8221759  61.2706453  63.8636928  44.4338698  60.4156715
  64.6987559  42.9461639  60.9221653  62.9240703  43.3834158  62.0059074
  62.3762155  44.2589533  62.3543168  62.2894164  42.8000631  61.3388143
  63.2112792  42.7712490  62.8608125  67.6388214  45.3845007  62.4296917
  68.2058416  44.4792142  63.0662272  67.9501425  46.6633178  62.5450214
  67.3824791  47.3201804  62.0288924  69.0794182  47.1806436  63.3192671
  69.3388739  46.4166574  64.0521430  70.3462851  47.5420808  62.5136342
  70.2169061  48.4553697  61.9328900  71.0311968  47.7316348  63.3401117
  70.9063731  46.4741659  61.6403094  70.2306083  46.0398825  60.5008969
  69.2644786  46.4679525  60.2335976  70.8109178  45.0308342  59.6853460
  70.3243313  44.7148229  58.7625935  72.0012058  44.3679289  60.1314224
  72.4130527  43.2953985  59.4639235  71.8434776  43.0724845  58.7239957
  72.7659915  44.8972201  61.2062222  73.7174233  44.4560347  61.5032632
  72.2677520  46.0158069  61.8901265  72.8981075  46.5413871  62.6074252
  68.6699461  48.4687550  64.1332590  67.5511966  48.9185607  64.0626089
  69.6068779  48.9935322  64.8843254  70.4798207  48.4873073  64.8418217
  69.5583052  50.1882907  65.6494618  68.5685152  50.6438170  65.6796401
  69.9245427  49.6987709  67.0812943  69.2899004  48.8460510  67.3225351
  70.9679195  49.3835134  67.0724940  69.7310773  50.7931778  68.1353729
  70.3391352  51.6392093  67.8150652  68.2772728  51.2584861  68.3522359
  67.6686608  50.4130375  68.6730270  68.2537767  52.0337500  69.1180782
  67.8801153  51.6580994  67.4191359  70.2364385  50.2830725  69.5357121
  71.2946497  50.0300110  69.4705323  70.0959073  51.0663008  70.2806320
  69.6692867  49.3990870  69.8272724  70.6396624  51.1049846  65.1424627
  71.6526490  50.6637348  64.6277446  70.5539503  52.3947808  65.3268947
  69.7521671  52.7148709  65.8510945  71.4824404  53.4360961  64.7222938
  72.4790501  53.0098691  64.8371799  71.1862258  53.5876356  63.2357613
  70.1950586  54.0218055  63.1046730  71.9313114  54.2404190  62.7809849
  71.2200500  52.6092704  62.7564320  71.4869469  54.8053647  65.4035142
  70.5977821  54.9269087  66.2642041  72.3720252  55.7933048  65.0763722
  73.2505546  55.5532643  64.6397192  72.1798444  57.2018779  65.5631724
  71.1119799  57.3711916  65.7013663  72.9180030  57.4593495  66.8947583
  72.3569442  56.9905036  67.7031499  74.3657502  56.8682977  66.8541789
  74.9276044  57.3370282  66.0462729  74.8648372  57.0626379  67.8035181
  74.3150471  55.7927918  66.6844281  73.0481936  59.0046200  67.2136670
  73.9241162  59.4386112  66.7314720  72.1566933  59.5513993  66.9064876
  73.2136660  59.1023972  68.8216970  74.1052760  58.5562033  69.1295990
  73.3093987  60.1478998  69.1147137  72.3378535  58.6689889  69.3046148
  72.4757575  58.1212646  64.4187282  73.4496496  57.8921035  63.6700912
  71.6522365  59.1520950  64.2073069  70.7998114  59.1087142  64.7472966
  71.8351476  60.2569892  63.3151374  71.9565785  59.9209165  62.2853759
  70.5528293  61.1383588  63.4034334  69.7308987  60.4374130  63.2578167
  70.4162660  61.6666622  64.3470149  70.5323571  62.1605190  62.2627255
  71.6530188  62.6710321  61.9152393  69.3550362  62.5685563  61.7813909
  69.3264567  63.2421401  61.0293484  68.4988030  62.2016305  62.1716870
  73.0958392  61.0883495  63.6904906  73.0998563  61.7748919  64.7301715
  74.1506890  61.1728500  62.8186618  74.0885596  60.6940520  61.9315363
  75.3984081  61.9001451  63.1369698  75.7320437  61.7045975  64.1560614
  76.5167841  61.5327618  62.1539187  77.4507466  61.9947985  62.4738197
  76.6830714  60.0250999  62.1240835  75.7495909  59.5623519  61.8038037
  77.4773977  59.7603931  61.4261747  76.9418677  59.6677918  63.1208054
  76.2083333  62.1290114  60.7236552  75.1986514  61.8468806  60.4252506
  76.2851811  63.2156386  60.7615385  77.2599180  61.5561238  59.6577977
  77.1833306  60.4695098  59.6190151  77.0425667  61.9705269  58.6733548
  78.2698612  61.8382662  59.9553046  75.2643884  63.3881752  63.1321727
  76.1383900  64.0877801  63.5953067  74.1858965  63.9087824  62.6173441
  73.4154019  63.3276423  62.3194957  74.0357125  65.4185175  62.5058061
  75.0002216  65.9262733  62.5034841  73.2249964  65.8468735  61.1803630
  73.2057090  66.9360611  61.2177620  73.7264912  65.3943611  59.8132199
  73.7456154  64.3052029  59.7748996  73.0606142  65.7730486  59.0377828
  74.7322231  65.7809158  59.6483580  71.8439260  65.4239708  61.2528551
  71.3851052  65.6909955  60.4529916  73.1864168  65.9998687  63.7310296
  73.2950612  67.1751610  64.0357630  72.5281330  65.1830159  64.5643272
  72.4458693  64.2465569  64.1950352  71.6647572  65.5663275  65.7222302
  72.0939498  66.4069038  66.2675048  70.2850212  65.9873604  65.1732547
  69.8635707  66.4770791  66.0511239  70.3528513  66.7045523  64.3552480
  69.3642182  64.8677254  64.7574107  69.4855186  63.7196610  65.1220001
  68.4882128  65.1328892  63.8343090  67.8512071  64.4126782  63.5250849
  68.4487098  66.0578778  63.4306551  71.5891572  64.7918694  67.0334191
  71.0538222  65.1613215  68.0809675  72.1224030  63.5835789  67.0187912
  72.5400702  63.3104452  66.1406959  72.1600999  62.6414316  68.1205472
  72.9729635  61.9430726  67.9214323  72.3825349  63.2089828  69.0241554
  70.8795132  61.8600583  68.3318912  70.7157226  61.3261991  69.3659671
  69.8815379  61.8511169  67.4128752  69.9208703  62.5816674  66.7165647
  68.6266590  60.9684848  67.4717437  68.2585907  60.9466451  68.4974863
  67.4619316  61.5066814  66.5235076  67.3254232  62.5643555  66.7488747
  67.8063135  61.3963259  65.4952456  66.1435757  60.7798486  66.6949915
  66.2753167  59.7417589  67.0001387  65.7430868  61.3553109  67.5295878
  65.1390241  60.8471205  65.4801423  64.0151705  60.3995129  65.7540574
  65.3485596  61.4358979  64.4002692  68.9314982  59.4678798  67.2643343
  69.4991459  59.0608151  66.2411000  68.5704299  58.6347464  68.2260678
  68.4137200  59.0386553  69.1384268  68.4901127  57.1299743  68.0840816
  69.3790121  56.8240264  67.5323996  68.4131158  56.3385589  69.3344552
  67.5134094  56.6137555  69.8848138  68.3793135  55.2764702  69.0917105
  69.6611099  56.6294163  70.2065783  70.4315308  56.2311712  69.5463106
  69.8658866  57.6803947  70.4105635  69.6611685  55.8318509  71.5440129
  69.9424867  56.3729627  72.6228735  69.5766352  54.6442183  71.5788253
  67.3047011  56.6516630  67.1593612  66.1508090  57.1304294  67.3518029
  67.4277226  55.6116801  66.2844074  68.2967086  55.0990648  66.3311877
  66.4490834  55.2015433  65.3246808  65.4505722  55.4157493  65.7057193
  66.6154761  55.8979675  63.9624588  65.9848740  55.4305178  63.2061976
  66.1924879  57.3136380  64.1555184  66.8229785  57.7819189  64.9113593
  66.2916603  57.8545824  63.2144315  65.1529631  57.3414616  64.4821923
  68.0582894  55.8483312  63.4100993  68.3633662  54.8097506  63.2821129
  68.0973395  56.3591443  62.4479950  68.7330404  56.3410450  64.1101316
  66.5194266  53.7240670  65.0696089  67.5583710  53.0502675  65.2915995
  65.4866644  53.1597050  64.4852626  64.6924563  53.7726936  64.3687391
  65.3849226  51.7461609  63.9572705  65.9849049  50.9589973  64.4138818
  63.9237821  51.4390958  64.1946153  63.3098839  52.2138448  63.7352756
  63.6787086  50.4729326  63.7535167  63.7277833  51.4088042  65.2664204
  65.7426855  51.7561379  62.4444440  65.4819036  52.7663967  61.8033396
  66.1651984  50.6189058  61.8733397  66.1932605  49.7979573  62.4610092
  66.7228660  50.5211399  60.4991586  66.2282078  51.1341337  59.7457324
  68.2729747  50.8264727  60.4604660  68.8233870  50.0527679  60.9957475
  68.7134173  50.8444824  58.9966450  68.1637326  51.6183037  58.4607828
  69.7817191  51.0535223  58.9406625  68.5092807  49.8744786  58.5432989
  68.7040503  51.9982654  61.2159563  68.4435635  51.8698759  62.2665584
  69.7836398  52.1151520  61.1214914  68.2073772  52.8862391  60.8249071
  66.3621501  49.1927746  59.9043311  66.4191251  48.1800703  60.6042724
  66.0320433  49.1779651  58.5974603  65.9245425  50.0388388  58.0803150
  65.7382592  47.8949863  57.9013896  66.0804364  47.0383052  58.4820025
  64.1549663  47.8021037  57.7411483  63.7845629  48.7239895  57.2927878
  63.9080793  46.9596860  57.0950219  63.4815778  47.5967669  59.1524164
  63.9931646  46.7557752  59.6205113  63.6770130  48.5040511  59.7240305
  61.9646782  47.3240974  59.1247068  61.5726870  47.4201337  60.1372377
  61.4876273  48.0617984  58.4794788  61.6675690  45.9007780  58.5890306
  62.0084658  45.8962494  57.5537193  62.2886384  45.2262825  59.1784607
  60.2776825  45.4563787  58.6454550  59.7020809  46.0810017  58.0989857
  60.2079800  44.5206937  58.2716434  59.9617375  45.4600939  59.6047590
  66.4856822  47.8859506  56.6135731  66.4235972  48.7619023  55.7599549
  67.1785079  46.8004083  56.4826519  67.1818090  46.0758544  57.1862925
  68.0604236  46.6424624  55.3135430  67.9730025  47.5088534  54.6579337
  69.5112393  46.5220841  55.7718573  69.5554638  45.6089289  56.3653983
  70.0917503  46.3898209  54.8588330  70.1062381  47.7145524  56.6017434
  69.4473774  47.8494417  57.4595361  71.5378753  47.5316882  57.0857813
  72.1974392  47.3971938  56.2284683  71.8475966  48.4132471  57.6470543
  71.5951497  46.6534991  57.7289018  70.1447524  49.0290317  55.8244418
  69.1330078  49.3067525  55.5289025  70.5665310  49.8121041  56.4545225
  70.7622385  48.9075077  54.9344745  67.5633192  45.3765222  54.4802552
  67.6942539  44.2657974  54.9461902  66.9339932  45.5762213  53.3552881
  66.7642465  46.5510191  53.1526685  66.4126371  44.5456039  52.3903795
  65.6447212  43.9034867  52.8217608  65.7787532  45.3877203  51.2783812
  65.0747407  46.1121060  51.6879311  66.5404269  45.9095747  50.6990531
  65.0381842  44.4157605  50.3797975  65.7112572  43.6370828  50.0210015
  64.2514127  43.9648797  50.9846084  64.4188801  45.1303328  49.1984817
  63.2211726  45.4573723  49.1326345  65.2152907  45.4111685  48.3040554
  67.5803843  43.6577629  51.9371389  68.6818922  44.1600163  51.6466256
  67.3086751  42.3709184  51.9892471  66.4270445  42.1390723  52.4240738
  68.1741491  41.2871939  51.5710295  69.0336293  41.1861047  52.2337315
  67.3503211  39.9975228  51.6376609  66.7056949  40.0313115  52.5159630
  66.7367926  39.9196950  50.7400944  68.2064965  38.8712283  51.7234426
  67.6786455  38.0704256  51.7645295  68.7867126  41.5282619  50.1816155
  68.1105392  42.1182056  49.3449961  70.0804027  41.2566857  49.9223702
  70.6442241  40.9842489  50.7148240  70.7436952  41.4531055  48.6348096
  70.7333061  42.5049800  48.3492375  72.1581030  41.0095435  48.7644103
  72.1525618  40.2708256  49.5658867  72.3901036  40.5180461  47.8195790
  73.1719671  42.0276067  49.0464454  72.5996910  42.6395685  49.7436567
  74.0590762  41.6401495  49.5474608  73.6244600  42.9223962  47.8542231
  73.4222643  42.6130667  46.6528122  74.3856935  43.8995533  48.1066699
  74.6976688  44.4996616  47.3565746  74.6782359  44.0754373  49.0572409
  70.0115202  40.7989884  47.4963934  70.0054698  39.5575751  47.3449424
  69.5414572  41.6243757  46.5385148  69.5049198  42.5988946  46.8013402
  69.0363291  41.2432299  45.2245500  68.5593036  42.1201669  44.7869114
  70.0955079  40.7324555  44.2580115  70.6124047  39.9016340  44.7382746
  69.5858513  40.3743104  43.3635384  71.1133947  41.8106057  43.8686277
  70.6235427  42.6010259  43.2999611  71.5695758  42.2360753  44.7624825
  72.2040885  41.1521041  42.9987924  72.6202938  40.2848242  43.5113328
  71.7844705  40.8412883  42.0420198  73.3299268  42.2007182  42.7554910
  73.9399868  41.8227689  41.9350754  72.8389246  43.1237413  42.4471982
  74.1806741  42.4652903  43.9124878  74.6360750  41.6102101  44.1980533
  74.8786975  43.1527212  43.6669229  73.6156353  42.8159195  44.6726782
  67.9295470  40.1682452  45.3552571  68.0955164  39.1115650  44.8507553
  66.9434666  40.4245516  46.2072022  67.0845945  41.2293170  46.8009487
  65.7923613  39.4915615  46.5235219  66.3156484  38.6214902  46.9200638
  64.9195257  40.1184051  47.6703022  64.3822834  40.9854906  47.2860712
  64.2043662  39.3782407  48.0291949  65.5656956  40.4268613  48.4921407
  64.9972294  38.9591894  45.2960406  65.0457999  39.5779381  44.2950726
  64.2650500  37.8196262  45.4015199  64.2918916  37.3972230  46.3185556
  63.4662995  37.1593266  44.3497899  64.0082931  37.0863132  43.4069160
  63.1831248  35.7012254  44.8828967  64.1454091  35.2968402  45.1968727
  62.5352828  35.8126389  45.7523723  62.5257124  34.7377820  43.8719631
  61.4581642  34.9564705  43.8471203  62.9593366  34.9348256  42.8915316
  62.7386895  33.2497797  44.2402417  63.8023911  33.0745526  44.4012802
  62.1920258  33.0312433  45.1575748  62.2681108  32.3460542  43.1864955
  61.8243270  32.8591965  42.4382707  62.2647911  31.0303930  43.1342503
  62.7416225  30.2719324  44.0645972  63.1467495  30.6864515  44.8917285
  62.7071179  29.2678955  43.9605836  61.8707520  30.3953534  42.0934103
  61.5513368  30.9077557  41.2837697  61.8814538  29.3854275  42.0876006
  62.1467046  37.8762739  44.0683470  61.4503422  37.5626626  43.0984397
  61.7245624  38.7702841  44.9852504  62.1384758  38.6505033  45.8987205
  60.7337153  39.8320624  44.8064354  60.7693520  40.1968791  43.7799180
  59.2976943  39.3050205  45.0976337  59.2903030  38.3378490  44.5950167
  58.9799698  39.1784944  46.1325938  58.2319863  40.1606417  44.4147423
  57.8352127  40.2092801  42.9967683  56.7655159  40.9586309  42.9363459
  56.3719566  41.1464958  41.9373880  56.3378979  41.3692284  44.1470080
  55.5030151  41.8895949  44.3756764  57.2897451  40.9323861  45.0736491
  57.2007739  41.2175266  46.1219240  60.9777341  41.0503760  45.6863426
  61.4392809  40.7888316  46.7961017  60.7263104  42.3591548  45.3098894
  60.4183705  42.8937370  44.0786055  59.3331054  42.8912172  43.9771489
  60.8554699  42.2480343  43.3169552  61.0172364  44.3289872  44.0541615
  60.5059574  44.9749282  43.3404018  62.0855510  44.3233683  43.8378892
  60.7582968  44.7633461  45.4723278  59.7353951  45.1046055  45.6314287
  61.4538334  45.5233473  45.8283149  60.9871080  43.4727769  46.2096246
  62.0364345  43.4435202  46.5031483  60.0975533  43.3967384  47.4714802
  58.9895350  42.9025745  47.4228341  60.7182634  43.7160144  48.5956848
  61.6493175  44.1056743  48.5582315  60.0857421  43.5134186  49.9405951
  59.1106042  43.0359301  49.8446263  60.9820703  42.6172757  50.7501613
  61.9722259  43.0722947  50.7756344  60.5787185  42.5692508  51.7616458
  61.0831071  41.2376675  50.1891062  61.7034972  41.1685553  49.2955512
  61.5914292  40.7521466  51.0221609  59.7584594  40.5021950  49.9257536
  58.6973315  40.8049117  50.4726742  59.7437966  39.6529986  48.9429177
  58.8968405  39.1452624  48.7308545  60.5794197  39.5044454  48.3954076
  59.9145645  44.8838181  50.6501679  58.7752664  45.2681960  50.9303866
  60.9804661  45.6836408  50.8918525  61.8861045  45.4198888  50.5308075
  60.8873293  46.8978596  51.7374335  60.2221096  46.7824424  52.5931558
  62.3852410  47.0675359  52.2735188  62.8291592  46.0949219  52.4857873
  62.9288289  47.5442163  51.4578056  62.4680814  47.9776843  53.5647176
  62.0254021  48.9386396  53.3026093  61.7697344  47.4172920  54.7741228
  62.2122035  46.4564874  55.0371332  61.8791370  48.1081221  55.6101167
  60.7112918  47.2807657  54.5524021  63.9321467  48.0857690  53.9711269
  64.5033854  48.5335491  53.1579364  64.0176585  48.7094673  54.8609524
  64.3245249  47.0917424  54.1857184  60.3381937  48.0767438  50.9151147
  59.8789379  49.0506106  51.5335025  60.1367223  47.9034443  49.6191928
  60.5433076  47.0610649  49.2381619  59.4454209  48.7919790  48.7243618
  59.9168973  49.7735397  48.6759091  59.5307850  48.1377227  47.3380189
  60.5960484  48.2102788  47.1188186  59.2475350  47.0882306  47.4182413
  58.7182538  48.8081393  46.1909165  57.6462128  48.7923018  46.3873296
  59.2300442  50.3109089  46.1705948  60.3019948  50.3275813  45.9737629
  58.7088393  50.8622338  45.3879793  59.0311665  50.7760995  47.1360718
  58.8029957  48.1317968  44.8021629  58.4323834  47.1091389  44.8722822
  58.1966047  48.6893170  44.0883264  59.8397915  48.1197171  44.4659970
  57.9509855  49.0536633  49.1264688  57.5931152  50.2085909  49.2354463
  57.1311842  47.9522452  49.2639067  57.5600269  47.1319170  48.8598587
  55.7674359  47.8713096  49.6696861  55.1773383  48.6146483  49.1336529
  55.2119606  46.5114163  49.3695987  55.5676448  45.6761315  49.9728294
  54.1474673  46.6615834  49.5496096  55.4414733  46.2016928  47.8782540
  54.8577357  46.9418330  46.8695717  54.1453513  47.7126489  47.1635967
  55.1384410  46.7421254  45.5558946  54.6603136  47.3099795  44.7577481
  56.0355883  45.7187330  45.2437800  56.3693106  45.4751654  43.9208566
  55.9271939  46.0666651  43.3074558  56.6876912  44.9294869  46.2317306
  57.3549416  44.1014920  45.9923526  56.4340821  45.2647123  47.5794473
  57.0103359  44.7938628  48.3758971  55.5254489  48.3834679  51.0680063
  54.4782003  48.9738804  51.3059924  56.4634117  48.0987245  51.9607778
  57.2177338  47.4954350  51.6655840  56.4655410  48.5919380  53.3510116
  55.5517366  48.2655365  53.8475222  57.6808009  48.0573950  54.1494407
  58.4822602  47.7345849  53.4849440  58.0632427  48.8078673  54.8412714
  57.1695005  46.8814443  54.9220298  56.2398533  47.1496771  55.4239342
  56.9969090  46.0226132  54.2734001  58.2264834  46.5267919  55.9649478
  58.4129285  47.2804139  56.9846939  58.8503597  45.4940446  55.6941778
  56.5076040  50.0877524  53.3563766  55.5994006  50.7970248  53.8583131
  57.5949691  50.6569655  52.7489084  58.3038233  50.0237409  52.4073655
  57.8617266  52.0559168  52.7063683  57.9379821  52.4556730  53.7175455
  59.1472666  52.2986967  52.0015656  59.8548570  51.5197759  52.2856388
  58.9711269  52.2544323  50.9268027  59.6926218  53.5964821  52.3485379
  60.5210036  53.7305160  51.8822565  56.6938017  52.8942077  52.1410242
  56.2454288  53.8108866  52.8147032  56.2203565  52.5148198  50.9612350
  56.8079458  51.9045569  50.4113102  54.9924070  53.0291529  50.3528967
  55.0916081  54.0852745  50.1021668  54.7375042  52.2319868  49.0478938
  54.9064931  51.1772777  49.2649901  53.6953897  52.3818870  48.7657109
  55.7002722  52.6933366  47.8255987  55.3281190  53.6606108  47.4879844
  56.6977038  52.8156202  48.2478297  55.7624479  51.7488757  46.6632370
  56.3787442  52.2400054  45.9101968  56.2750704  50.8584584  47.0272076
  54.4331987  51.3509797  46.0477368  54.5991175  50.6064973  45.2690729
  53.7845568  50.9326380  46.8173816  53.7827935  52.5610605  45.4506651
  54.3834867  52.9486080  44.7371707  52.8978045  52.2995680  45.0401579
  53.6285725  53.2508690  46.1721076  53.7970373  53.0540159  51.2819775
  53.1571235  54.0890793  51.2631349  53.5428711  51.9054396  51.9630532
  54.0181608  51.0240968  51.8310161  52.3914977  51.9516048  52.9029752
  51.5143569  52.3800044  52.4180042  52.0523714  50.4896823  53.3494748
  52.0376622  49.9158077  52.4228947  52.8716491  50.1418700  53.9786891
  50.7287000  50.2994525  54.0866734  50.9168196  50.5965149  55.1184029
  49.5330136  51.0712223  53.5468294  49.3439800  50.7743373  52.5152168
  48.6546004  50.8526415  54.1540471  49.7429815  52.1401594  53.5840773
  50.3235940  48.8551635  54.1040894  51.0909960  48.2680824  54.6085986
  49.3777549  48.7489487  54.6353220  50.2072613  48.4975395  53.0810201
  52.5900198  52.8521061  54.1137334  51.6994332  53.7024528  54.3092198
  53.7262428  52.8470307  54.7148121  54.4186439  52.1958755  54.3732322
  54.0471053  53.6413049  55.8923947  53.3154327  53.3769321  56.6558483
  55.4481213  53.4669291  56.4774736  56.2051067  53.7320878  55.7393928
  55.4146645  54.2314888  57.2536367  55.8050310  52.0987446  57.1150124
  56.9723333  51.4893517  56.7121358  57.6812305  51.9759020  56.0421859
  57.2374640  50.1879865  57.1979881  58.0837802  49.6509500  56.7696861
  56.4687773  49.5925499  58.2289270  56.6924022  48.3329490  58.7045808
  57.4248523  47.8917400  58.2681738  55.3822640  50.3272750  58.7789023
  54.8330548  49.9340449  59.6343786  55.0181239  51.5596100  58.2184779
  54.1566071  52.1020981  58.6078306  53.8219033  55.1348181  55.6033006
  53.1409019  55.8410477  56.3075909  54.2314900  55.6836544  54.4747526
  54.9360931  55.1295976  54.0092907  53.9332014  56.9820907  53.9504558
  54.2165893  57.7536118  54.6663788  54.7166783  57.2014165  52.6630216
  55.7386016  56.8500370  52.8055157  54.2462821  56.6333573  51.8604406
  54.7358548  58.7504470  52.2775896  53.7409235  59.0052491  51.9125029
  54.9410482  59.3085389  53.1911164  55.7398791  59.0984945  51.2526407
  56.7362974  58.7544828  51.5299592  55.4758106  58.6951425  50.2750547
  55.7272493  60.5504764  51.1966673  54.7304416  60.8076686  50.8384395
  55.8342760  60.8710281  52.2329545  56.7292268  61.2235739  50.3729654
  56.6299465  60.9270073  49.4126054  56.5972542  62.2231721  50.4320139
  57.6529554  60.9857255  50.7050086  52.4442274  57.3733891  53.7800829
  52.0863576  58.4789035  54.1011766  51.5176080  56.4414323  53.3491047
  51.8860782  55.5373493  53.0903329  50.0545816  56.6339226  53.3242379
  49.7320539  57.5740419  52.8767440  49.3770776  55.4344504  52.5677877
  49.6139711  54.5210710  53.1134248  47.8541061  55.5825614  52.4560068
  47.6164249  56.4955440  51.9100480  47.4431390  54.7244112  51.9242314
  47.4192155  55.6331060  53.4542125  49.9924881  55.1562741  51.1594476
  49.6675527  55.9724549  50.5141828  51.0747430  55.1993332  51.2817984
  49.6040222  53.8190095  50.5247234  48.5218742  53.7754013  50.4016216
  50.0840528  53.7255355  49.5505918  49.9290628  53.0022792  51.1692388
  49.4892534  56.5888700  54.7702186  48.4563182  57.1998701  55.0174935
  50.1445139  55.8951797  55.6924493  51.0322333  55.4849881  55.4398694
  49.6302657  55.6472181  57.0101305  48.5451250  55.7497961  57.0169546
  49.9850265  54.2420097  57.4365518  51.0729799  54.1838840  57.4037192
  49.6504700  54.1982415  58.4730152  49.4012774  53.0934286  56.6753997
  49.9961826  52.9776148  55.7694329  49.3788729  51.7646151  57.4462977
  48.7837293  51.8795223  58.3522222  48.9400056  50.9879584  56.8199586
  50.3969671  51.4822973  57.7144046  47.9275296  53.2732853  56.2700234
  47.8296765  54.1538330  55.6350747  47.5904305  52.3925554  55.7234154
  47.3172321  53.4010307  57.1640687  50.1634043  56.6758829  58.0276353
  49.7286566  56.8247199  59.1730622  51.1268359  57.4913939  57.6434759
  51.3446000  57.3875093  56.6627179  51.9562809  58.4255164  58.4563486
  52.3863462  57.8982178  59.3078762  53.1220024  59.0044666  57.5855489
  53.5614096  58.1506449  57.0697882  52.6508432  59.6649012  56.8575825
  54.2228090  59.7715352  58.3356692  53.9085594  60.8150030  58.3585410
  54.4358875  59.4344773  59.3501108  55.4849668  59.6663455  57.5179884
  56.2749201  58.8322176  57.7267023  55.7324137  60.5578688  56.6753466
  56.5735572  60.5030956  56.1189483  55.0897696  61.3278132  56.5557832
  51.0857639  59.5482456  59.0934525  50.4190267  60.2815192  58.3582605
  51.2426664  59.7111051  60.4102458  52.0380829  59.2190701  60.7914457
  50.4277418  60.4842362  61.3048273  51.0996761  61.0305220  61.9667754
  49.8608587  61.1913657  60.6992607  49.4309939  59.6419674  62.1721265
  49.2352799  59.9457451  63.3317390  49.0410361  58.5011371  61.6545619
  49.1499271  58.4954118  60.6504656  48.5049557  57.3145710  62.2951878
  47.4214931  57.4335430  62.3025174  48.7732901  56.4736177  61.6557400
  48.9897602  57.0260856  63.7366127  50.1881562  56.9599773  63.9242444
  48.1846042  56.8594143  64.7894910  47.2404957  57.1848388  64.6383049
  48.5525140  56.3468986  66.1561362  49.3653453  57.0005277  66.4726379
  47.3953907  56.4779147  67.1630674  46.5500294  55.9194874  66.7610445
  47.7367004  55.9499658  68.5726108  48.5817353  56.5082619  68.9755035
  46.8739535  56.0753192  69.2268698  47.9958044  54.8929248  68.5123521
  47.1430440  58.0174233  67.3949931  46.8799857  58.4896555  66.4484736
  46.3269934  58.1493906  68.1054477  48.0475110  58.4786924  67.7915675
  49.0350196  54.9244012  66.0289255  48.2875686  54.0890669  65.5545906
  50.3037949  54.6411171  66.4549906  50.8734112  55.4052885  66.7891742
  50.8921232  53.2663762  66.4532146  51.6347391  53.1928714  67.2477068
  50.1008784  52.5372474  66.6275767  51.5600978  52.9625664  65.1222110
  51.7262536  51.8041036  64.7524729  51.8770760  53.9625107  64.3186110
  51.6780384  54.9115703  64.6010454  52.5638251  53.7368459  62.9765681
  52.8161076  52.7007108  62.7510094  51.6786275  54.3027841  61.8575703
  51.4476809  55.3457411  62.0743764  52.4281531  54.2085373  60.4837559
  52.6590405  53.1657588  60.2660298  51.7936358  54.6120491  59.6946636
  53.3536225  54.7821853  60.5340895  50.2890746  53.6797158  61.8069373
  49.8362818  53.8668619  62.7806189  49.7390205  54.2252100  61.0401414
  50.2372323  52.1196750  61.4886373  50.7867214  51.5734437  62.2553139
  49.1999935  51.7848401  61.4776593  50.6894624  51.9317916  60.5148367
  53.9282929  54.5063589  63.0065441  53.8679827  55.7315114  63.1498795
  55.1026216  53.8236637  63.0042114  55.1868916  52.4068684  63.0204785
  55.1351393  51.9990418  62.0109740  54.3923403  51.9736030  63.6279885
  56.6162746  52.2251878  63.6771881  57.0331252  51.2445159  63.4478036
  56.5717795  52.3566570  64.7583159  57.4363375  53.3541710  63.0183386
  57.6909272  53.0616370  61.9996595  58.3403330  53.6611145  63.5443400
  56.4233888  54.5152239  62.9922393  56.4818424  55.1671545  63.8638286
  56.6020121  55.3344179  61.7403032  56.1936297  54.9426562  60.6388321
  57.1510398  56.5851951  61.8686462  57.2499871  56.7950112  62.8516447
  57.4458699  57.6387181  60.9034485  56.7412845  57.6346033  60.0717986
  57.3075807  58.9592761  61.6525711  56.2734362  59.2054304  61.8935119
  57.8913023  58.9055323  62.5715274  57.8601614  60.1329188  60.8531379
  59.1715954  60.3568875  60.6616077  59.2723401  61.4872483  59.9103394
  60.2566145  61.8755310  59.6485391  58.0651192  61.9278572  59.6224009
  57.8417983  62.7139397  59.0288506  57.1524802  61.1474765  60.2585583
  56.0936350  61.4028575  60.2169815  58.7407475  57.3949961  60.2028670
  59.7876577  57.1573536  60.7815908  58.7926999  57.5942756  58.9000724
  57.9181838  57.6831242  58.4026523  59.9977249  57.5208707  58.1411076
  60.6973126  56.7753915  58.5191778  59.6752873  57.2194370  56.6495079
  59.1380643  58.0607626  56.2117144  60.9804040  57.0023165  55.8942133
  61.5180059  56.1607977  56.3311697  60.7639171  56.7902923  54.8471794
  61.5943974  57.9002931  55.9631280  58.7281598  56.0715414  56.3454779
  59.2476787  55.1332321  56.5398394  57.8642750  56.1513831  57.0053475
  58.2575072  56.1037022  54.8764416  59.1208617  56.0234320  54.2159300
  57.5812355  55.2688447  54.6926786  57.7374597  57.0415848  54.6814375
  60.9621527  58.7070106  58.2848377  60.7671315  59.7888781  57.7808344
  62.0787164  58.4643772  58.9589212  62.0276235  57.6739749  59.5856213
  63.2630641  59.3029444  59.0038054  62.9647190  60.3475652  59.0924438
  64.1810063  58.9325429  60.2389333  64.5487991  57.9268921  60.0352321
  65.0121248  59.6368870  60.2036998  63.5177489  58.9705947  61.6768171
  62.7939899  58.1595311  61.7571265  64.2938761  58.8402761  62.4309695
  62.7933101  60.3410479  61.9048331  63.4017382  61.1982647  61.6165735
  61.8251497  60.3996446  61.4075089  62.5850559  60.3817890  63.3196759
  63.3989371  60.4107920  63.9170499  61.4194125  60.4379867  63.8656478
  60.3227550  60.7099817  63.2393203  60.3446621  60.8976642  62.2471533
  59.4486554  60.7336636  63.7447793  61.3371827  60.1514266  65.1060294
  62.1688312  59.8934596  65.6178045  60.4408258  60.1838894  65.5703453
  64.0675359  59.3582175  57.6571518  64.3387473  60.4749748  57.2316657
  64.3013773  58.2295837  56.9547609  64.1055921  57.3955843  57.4897492
  64.8678614  58.0767753  55.6138455  64.4943962  58.8576672  54.9514024
  66.4052689  58.1932570  55.6962432  66.8207313  58.9661830  56.3428309
  66.7311003  57.2137277  56.0461808  66.9933898  58.3828548  54.3984993
  67.1165381  59.6457814  53.8522246  66.7409879  60.5168418  54.3891749
  67.7560992  59.4888457  52.6206878  68.0189633  60.2993667  52.0784170
  68.0996904  58.2063529  52.3384498  68.7943668  57.6019901  51.3502755
  69.0072842  58.3449623  50.5816682  69.2009355  56.2439197  51.2758736
  69.7563972  55.7433933  50.4827559  68.8051805  55.5040477  52.4005430
  69.1278546  54.4723044  52.5401378  67.9774902  56.0756630  53.3833425
  67.4918573  55.3222470  54.0035245  67.6987116  57.4369704  53.4851156
  64.4782926  56.7813949  54.8379281  64.4728383  55.7360861  55.4814379
  64.1776343  56.8453364  53.5063178  63.8621326  57.7285745  53.1315530
  64.2260953  55.7011666  52.6195395  64.7913934  54.8580229  53.0165860
  62.7824209  55.3138150  52.5392838  62.3551070  54.9458960  53.4720956
  62.3081939  56.2576878  52.2703735  62.5414086  54.2842426  51.4248181
  62.7707965  52.9103046  51.6896170  63.1677352  52.6051066  52.6578077
  62.4904041  51.9502354  50.7163728  62.5991099  50.8900202  50.9449083
  61.9111836  52.3475211  49.5137849  61.7245318  51.3684134  48.5953606
  62.0223227  50.5077106  48.8988586  61.6973774  53.7347099  49.2077716
  61.3543779  54.0687782  48.2285626  61.9437378  54.6645276  50.2130887
  61.6715378  55.7098684  50.0672469  64.8570559  55.9821279  51.2709674
  64.5633718  57.0214888  50.7147836  65.6524614  55.0720903  50.7791273
  65.9673736  54.4354220  51.4971685  66.1055130  54.8684260  49.4597005
  65.2813549  55.1346406  48.7978906  66.9354482  55.5569154  49.3006747
  66.5647639  53.4567935  49.1344187  66.1663765  52.4737816  49.8055619
  67.4327833  53.3702251  48.1723801  67.7282803  54.2267488  47.7261201
  67.9924636  52.1190232  47.6978470  67.6838055  51.2772933  48.3177826
  67.4280074  51.9016269  46.2292850  66.4367213  51.4777166  46.3897563
  67.3305727  52.9126558  45.8337762  68.2109444  51.0197000  45.2118325
  69.2260975  51.3967838  45.0878454  68.2453692  50.0226583  45.6509507
  67.5323307  50.9215743  43.7904787  66.4992236  51.5053467  43.3991303
  68.1839117  50.1643979  42.9030605  67.8126692  50.0521246  41.9704967
  69.0446956  49.7077970  43.1688953  69.4794644  52.2324563  47.7083568
  70.0518978  53.2664306  47.3305391  70.1884812  51.2094437  48.0506891
  69.6730685  50.3935939  48.3487465  71.6567898  51.1728813  48.1269329
  72.0819026  52.1298125  47.8241771  72.0745746  50.8862440  49.6031564
  71.5471138  51.6456070  50.1804364  71.6458438  49.9067171  49.8148563
  73.5500253  50.8889981  49.9885219  73.4704119  51.1031116  51.0543164
  74.0373309  49.9242191  49.8476886  74.3837294  51.9898537  49.3046772
  74.0622749  53.1644748  49.4001248  75.2716750  51.5722070  48.5392069
  72.2940705  50.1486532  47.1424741  72.7571725  49.0361854  47.4071361
  72.2401751  50.6902520  45.9435196  71.5926741  51.4625681  45.8774164
  72.7725572  50.1061750  44.6827943  72.6139528  50.8164755  43.8713653
  74.2837545  49.7873172  44.7723744  74.7815975  50.7015746  45.0954610
  74.4006531  49.0204908  45.5381498  74.8983539  49.3101380  43.4891949
  74.2226052  48.5628566  43.0732201  74.9439014  50.1701074  42.8210033
  76.3322616  48.6907007  43.6425581  76.9957439  49.5353675  43.8281064
  76.2847757  48.0641544  44.5332232  76.8583093  47.8859017  42.4937733
  76.9260384  48.5793386  41.6555260  77.8602480  47.5734323  42.7880196
  76.0800547  46.7139117  42.0947781  75.1517352  47.0032850  41.8216743
  76.5334013  46.2579985  41.3158557  76.0175373  46.0710348  42.8712444
  71.7879094  49.0267777  44.1757046  71.2212763  49.0839321  43.1093344
  71.6249953  48.0159571  44.9952086  71.9719411  48.2001827  45.9256864
  71.0663453  46.7026034  44.7150710  70.6748186  46.6351645  43.7000548
  72.2152035  45.7137663  44.8601506  72.5731236  45.6570362  45.8881459
  71.6673476  44.8036385  44.6159757  73.4428552  45.8649306  43.8846664
  74.5706212  45.4518883  44.2027213  73.2173410  46.2516325  42.7171905
  69.8850879  46.2967603  45.6254377  69.1125753  45.4567227  45.2678623
  69.6658377  46.9736968  46.7862853  70.2695878  47.7662042  46.9521684
  68.6507365  46.6217436  47.8328686  67.7604145  46.1790914  47.3862313
  69.2895704  45.5954534  48.7688284  68.5896254  45.0975422  49.4398431
  69.6619596  44.8791968  48.0364332  70.4712658  46.1576042  49.5842917
  71.8094955  46.1279232  49.0100909  71.9741588  45.6683079  48.0355453
  72.8518192  46.6726815  49.6886088  73.8598322  46.5800458  49.2843437
  72.6383683  47.3521902  50.9293423  73.6322078  47.9411839  51.6062754
  74.4840085  47.8559839  51.1717916  71.3097372  47.4070016  51.4462951
  71.1411695  47.8950483  52.4062409  70.2097919  46.8371808  50.7306071
  69.1942172  46.9542912  51.1087519  68.1751118  47.8694686  48.6278399
  68.8833036  48.8867081  48.6005941  66.9838051  47.8487341  49.1858879
  66.5276960  46.9476982  49.1999631  66.3107503  48.9711586  49.8158770
  66.5026479  49.8944870  49.2693066  64.8216561  48.7031233  49.8044885
  64.7791139  47.6430212  50.0544341  64.3139111  49.2789768  50.5782377
  64.0957079  48.9215066  48.4776995  64.1916719  49.9630656  47.8265131
  63.2433771  48.0223389  48.0515261  62.7615741  48.1630612  47.1750771
  63.0721107  47.1926581  48.6014336  66.7258335  49.1217032  51.2970722
  67.1075448  48.2463282  51.9820110  66.4994626  50.3548304  51.8304207
  65.9599756  50.9913356  51.2612861  67.0013043  50.8257495  53.0860166
  67.0748970  50.0097517  53.8049260  68.3877564  51.4998963  52.9598548
  68.3200891  52.2385564  52.1611673  68.8515212  52.1774630  54.2376986
  68.9198790  51.4392971  55.0367851  69.8305052  52.6285205  54.0757179
  68.1374596  52.9515024  54.5189114  69.5530630  50.5127531  52.5139695
  69.3151431  50.0854843  51.5398352  70.4915110  51.0634086  52.4492121
  69.6520371  49.7120947  53.2469437  66.0672243  51.7782424  53.7208109
  65.8814719  52.8623448  53.1918658  65.5419550  51.4749901  54.8804558
  65.8694161  50.6354430  55.3365581  64.5366669  52.2911283  55.5662190
  64.3488251  53.2159906  55.0208343  63.2444196  51.4968992  55.6341170
  62.9409492  51.4557482  54.5880235  63.5009225  50.4945937  55.9771766
  62.0866707  52.0474714  56.4817517  62.3700065  52.0181007  57.5338729
  61.7718893  53.4922879  56.0778659  61.4880033  53.5223995  55.0259149
  60.9499451  53.8693524  56.6864141  62.6535667  54.1139570  56.2336635
  60.8829549  51.1719930  56.3436503  61.1248795  50.1646594  56.6825467
  60.0700114  51.5729949  56.9489779  60.5749904  51.1390278  55.2985808
  64.9554078  52.6025074  56.9472350  65.6499117  51.7717766  57.5970508
  64.7952931  53.8042532  57.4714013  64.3078260  54.4480192  56.8647379
  65.1671187  54.2651845  58.8354732  65.4764895  53.4800762  59.5253963
  66.2936793  55.3670782  58.7882988  65.8893767  56.1417939  58.1367973
  66.7712166  55.9976093  60.0911421  67.1761071  55.2235188  60.7430228
  67.5463649  56.7332934  59.8766323  65.9331754  56.4875855  60.5868355
  67.5297303  54.9560146  58.0257236  67.2618625  54.7286671  56.9938990
  68.2544822  55.7700082  58.0414955  67.9667135  54.0720983  58.4903077
  63.9755279  54.9518531  59.4919628  63.2115983  55.7593913  58.8352782
  63.5956072  54.5237625  60.7062629  64.2697821  53.9694254  61.2144930
  62.3213274  54.8280516  61.3522885  61.7648592  55.5640395  60.7719746
  61.4834603  53.5375988  61.4442239  61.9955389  52.8964026  62.1616793
  60.5160375  53.8347436  61.8490673  61.2720513  52.7617226  60.1158752
  61.1813694  53.5534462  59.3722010  62.2178705  52.2384984  59.9752885
  59.8937494  51.5788417  59.9055980  59.9638657  50.5373286  61.3775519
  59.8371521  51.1549802  62.2666802  59.1676862  49.7940650  61.3356236
  60.9291747  50.0329324  61.4207305  62.5035389  55.3187195  62.7363659
  63.5163171  55.1085875  63.4178135  61.5808594  56.0984780  63.1927705
  61.0234162  56.5128630  62.4595301  61.2858024  56.4751204  64.6014848
  61.9963214  57.1986065  65.0012719  59.8856700  57.1378277  64.5399254
  59.7984513  58.0546994  63.9569688  59.3409652  56.3368703  64.0400615
  59.2999353  57.3608363  65.9254430  60.0358075  57.6731444  66.8825724
  58.0588611  57.4363155  66.0354785  61.3173578  55.2886385  65.5672854
  60.6629331  54.2406968  65.2247807  62.1213466  55.3911244  66.7035286
  62.1568926  56.2995363  67.1435554  62.7887296  54.2930752  67.3508267
  63.4959978  53.8146549  66.6733424  63.5787659  54.8549344  68.5861530
  64.3760998  55.4000241  68.0809450  62.9559499  55.5557309  69.1421067
  64.1969233  53.8259218  69.5644220  63.4262576  53.1095504  69.8490047
  65.3464162  53.0983694  68.9316451  66.1177391  53.8140841  68.6471941
  65.7597663  52.3828646  69.6424863  64.9980301  52.5688460  68.0448912
  64.5359610  54.5451009  70.8271480  63.6307956  54.9767173  71.2543277
  64.9745399  53.8449297  71.5381404  65.2505554  55.3397408  70.6126690
  61.8007991  53.2878498  67.9802742  60.8278543  53.6096667  68.5766712
  61.9926752  52.0300171  67.6025302  62.7189560  51.9266991  66.9083106
  61.1834967  50.8847610  67.9177611  60.1460204  51.2164230  67.9595040
  61.2910315  49.6883552  66.8865989  62.3561941  49.4752459  66.7965303
  60.7789702  48.8144602  67.2893404  60.6991440  50.0351741  65.4573159
  61.1256521  50.9845730  65.1335361  61.0161583  48.9691332  64.4395833
  60.5895483  48.0194759  64.7624668  60.5912882  49.2486411  63.4754974
  62.0971746  48.8674109  64.3438931  59.1757687  50.2618089  65.3840946
  58.9001966  51.0941311  66.0317050  58.8909966  50.4913175  64.3572880
  58.6576632  49.3604208  65.7114557  61.3862130  50.4523339  69.3412125
  62.5737719  50.1884604  69.6274165  60.4334120  50.1433948  70.2074393
  59.5335671  50.4659907  69.8813864  60.4942092  49.4651386  71.4520023
  61.4330757  49.7360366  71.9349548  59.6595376  49.8103812  72.0621091
  60.4203139  47.9231954  71.3228640  60.7573000  47.3770427  70.2906975
  60.0510244  47.2116763  72.3510156  59.9162203  47.7471429  73.6732203
  58.9360405  48.2234806  73.6944399  60.6915413  48.5085323  73.7584406
  60.0569372  46.6625039  74.7156550  59.3940670  46.8382678  75.5628913
  61.0849527  46.5842176  75.0694299  59.6403886  45.3797401  73.9202976
  58.6031682  45.0633608  74.0306469  60.3014152  44.5737172  74.2388421
  59.9262544  45.7449600  72.4372413  60.9150280  45.3524585  72.1998228
  58.8808665  45.0780009  71.5321763  57.7006286  45.4615330  71.5249925
  59.3036597  44.0932192  70.7257769  60.3003991  44.0406972  70.5713379
  58.4290669  43.1401876  70.0015615  57.7776163  43.6530396  69.2939641
  59.3663969  42.1759256  69.2082713  60.2357406  41.9134533  69.8111388
  58.8288304  41.2686957  68.9324886  59.8043961  42.8693345  67.9981114
  60.3836722  42.2949004  67.4920833  57.5127219  42.4246145  71.0330178
  57.9974940  41.8323649  72.0223041  56.1572561  42.6168353  70.8107057
  55.7977566  43.2137815  70.0796005  55.2081656  41.9416624  71.6766882
  55.2091464  42.3764079  72.6762354  53.7809799  42.1222837  71.0531758
  53.5927716  43.1883668  70.9261181  53.7479208  41.6296757  70.0814019
  52.7101394  41.5208252  71.9663190  52.8914984  40.4471812  72.0163011
  52.7094845  42.1027893  73.3779441  52.5277124  43.1764014  73.3288039
  51.9243251  41.6284474  73.9666930  53.6759489  41.9195591  73.8474903
  51.2867328  41.7467986  71.3900919  51.2116966  41.2750222  70.4103491
  50.5485399  41.3081676  72.0614899  51.0989544  42.8161215  71.2932056
  55.5365422  40.3956735  71.8234120  55.3748831  39.8660139  72.9101360
  56.0013997  39.6814916  70.7889877  56.0940466  40.1099984  69.8790988
  56.3000928  38.2176465  70.9192112  55.4437485  37.6782074  71.3239075
  56.6103446  37.6649540  69.5058617  55.8914256  38.1167165  68.8223668
  57.6155118  37.9979323  69.2472803  56.5305716  36.0870347  69.3884353
  55.6897234  35.7729831  70.0068582  56.2707020  35.9702710  68.3363263
  57.7148764  35.2484502  69.7012787  57.6073256  33.9985992  69.6135103
  58.7875569  35.7578239  69.9689726  57.4574279  37.9573876  71.9387987
  57.3558268  37.0568614  72.8196368  58.4622933  38.8394626  72.0818977
  58.6094478  39.5079638  71.3392329  59.4216764  38.7920433  73.1605387
  59.8033441  37.7785052  73.2837030  60.5831773  39.7114493  72.8423746
  60.0805702  40.6609392  72.6581077  61.2952172  39.8303501  73.6590518
  61.3232988  39.2757545  71.5826955  61.6371466  38.0558672  71.5272743
  61.6741648  40.1457563  70.8080706  58.8506670  39.0632236  74.5605356
  59.3808706  38.5905187  75.5305074  57.8605305  39.9875756  74.6388170
  57.5474715  40.4344270  73.7888656  57.2668229  40.3671854  75.8431565
  58.0442495  40.4177828  76.6054864  56.5594266  41.7189048  75.7771323
  55.7961348  41.7133226  74.9990233  56.0808811  41.7833255  76.7543448
  57.5074254  42.9616828  75.5737872  57.8770391  42.9599775  74.5483684
  56.7603508  44.2521053  75.8385822  56.3908072  44.2547461  76.8640232
  57.4321976  45.0979706  75.6928620  55.9195714  44.3337066  75.1497196
  58.6948717  43.0195132  76.6248470  59.3055263  42.1212406  76.5337054
  59.3103370  43.8978864  76.4305171  58.2855623  43.0791917  77.6333128
  56.2222900  39.3586968  76.3337640  56.2483989  39.0516974  77.5231264
  55.4915467  38.6898402  75.3976316  55.2034510  39.2035456  74.5771396
  54.8950143  37.3200329  75.6320393  54.2426883  37.3064555  76.5051863
  54.0665173  36.9984866  74.4030712  53.2518832  37.7164416  74.3081437
  54.6974358  37.0461860  73.5155090  53.4552226  35.6711511  74.4106349
  52.3377441  35.3991524  75.2650824  52.0265771  36.1286871  76.0127816
  51.6388015  34.1796178  75.1351878  50.7323798  33.9672124  75.7020954
  52.1303062  33.2561476  74.2699271  51.5574704  32.3343802  74.1684188
  53.2650408  33.4300352  73.5532672  53.6549912  32.6142165  72.9445975
  53.9438341  34.6676404  73.5937389  54.8369300  34.8194717  72.9875814
  55.9903562  36.3158737  76.1001394  55.6508278  35.5127439  76.9904950
  57.2269154  36.3055912  75.5723264  57.3439111  36.7893645  74.6934779
  58.3331857  35.4442766  76.0529970  57.9744159  34.4315295  76.2366451
  59.4176273  35.3894990  74.9977018  58.9553291  35.2347135  74.0228064
  59.9466184  36.3425237  75.0011910  60.3979252  34.3025496  75.2352121
  59.9792076  33.1654282  75.4423219  61.6641503  34.4725489  75.2308114
  62.2765911  33.6874757  75.4001512  62.0466654  35.3912020  75.0580123
  58.7693606  35.7715551  77.4618026  58.7960105  34.8290633  78.3227520
  58.8889195  37.0207975  77.7930550  59.0536183  37.7033149  77.0670084
  59.1233232  37.4240409  79.2075781  59.9213764  36.8194186  79.6384401
  59.5288306  38.8821984  79.2778747  60.4579949  38.9868192  78.7176894
  58.7595688  39.5074371  78.8246498  59.7890898  39.4477107  80.6579696
  60.8695796  38.9660643  81.3189217  61.5549273  38.2380971  80.8847994
  61.0898997  39.4514421  82.6325310  61.9553746  39.1007519  83.1947324
  60.2033082  40.3776398  83.2114110  60.3658229  40.7115522  84.2361995
  59.1339129  40.8625708  82.4901255  58.4636569  41.6097546  82.9150646
  58.9159790  40.3852625  81.2031843  58.0645651  40.7449401  80.6254073
  58.0087935  36.9122360  80.1933469  58.3273588  36.4667916  81.3311613
  56.6992873  37.0162125  79.8260085  56.4984494  37.4011448  78.9140926
  55.5592538  36.6386402  80.6965334  55.7427322  36.9423743  81.7271548
  54.3205785  37.3448953  80.1984718  54.1071500  37.1771588  79.1428146
  53.4256691  37.1410242  80.7864121  54.6461013  39.1475806  80.3730757
  53.4714151  39.5479361  79.8948227  55.3276889  35.0611794  80.7177938
  54.2805982  34.5861667  81.1740229  56.3593948  34.2767737  80.2389029
  57.0699799  34.7687935  79.7163279  56.3556965  32.8160902  80.1975384
  57.2780142  32.4754596  79.7270068  56.2617881  32.2143529  81.5409347
  55.2433426  32.3180069  81.9152660  56.5218600  31.1573263  81.4847448
  57.1456633  32.8663872  82.4078960  57.0840744  32.4743136  83.2820155
  55.3982483  32.1811827  79.1486878  55.1276972  31.0012671  79.2840178
  54.9829980  32.8849176  78.1031720  55.1102046  33.8699971  78.2863010
  54.2221358  32.4993430  76.9451608  53.9973982  33.3845300  76.3501514
  55.0026287  31.4963806  76.0636585  55.3537408  30.6571363  76.6640654
  54.3684712  31.1260400  75.2581821  56.2069985  32.2371879  75.4666937
  55.8388099  33.0944986  74.9031723  56.8374303  32.5846550  76.2851829
  57.0283228  31.3284224  74.5379605  57.5427576  30.5744963  75.1338223
  56.3600562  30.8377163  73.8303400  58.0367218  32.1027173  73.7793573
  58.9416997  32.1064000  74.2277999  57.8856238  32.7897940  72.6353376
  56.7331414  32.8413718  72.0338668  55.9385229  32.3594492  72.4293816
  56.6384835  33.3630908  71.1742456  58.8578133  33.3756902  72.1005485
  59.7694700  33.3327928  72.5331476  58.7239702  33.8873430  71.2400857
  52.7117144  32.1000852  77.2898829  52.0600155  31.2856414  76.6537793
  52.1093280  32.8654522  78.1849700  52.7861216  33.4425047  78.6635724
  50.7221553  32.9058535  78.6375005  50.0731019  32.9586555  77.7634062
  50.3374203  31.7059385  79.4476386  50.3170266  30.8732719  78.7445386
  51.1507820  31.5606459  80.1585766  49.0272138  31.7685739  80.1897254
  49.1526471  32.3852060  81.0797435  48.2734421  32.2158401  79.5417415
  48.5668503  30.3312293  80.6111753  48.3422743  29.7511535  79.7160906
  49.3707396  29.8466833  81.1653202  47.3510626  30.3716181  81.4713137
  47.5317390  30.0734144  82.4192219  46.1320253  30.5323652  81.1014255
  45.8897614  31.1844241  79.9877464  46.6577587  31.5476940  79.4415639
  44.9365456  31.3196779  79.6824831  45.0869351  30.2888251  81.8701757
  45.2245455  29.9541783  82.8131364  44.1545346  30.4382579  81.5118493
  50.5162749  34.2348727  79.3597374  50.7672261  34.3188707  80.5198249
  50.0138531  35.2164130  78.6330387  50.0146961  35.1462041  77.6254826
  49.4946791  36.4210226  79.2344396  50.2220275  36.7778662  79.9636351
  49.2258260  37.5177365  78.2505139  48.7218214  36.9384415  77.4768888
  48.5581224  38.3004208  78.6106214  50.3859738  38.2138332  77.5817901
  51.5767003  38.5222691  78.2640912  51.8263648  38.0520080  79.2152073
  52.4632501  39.4709111  77.6859979  53.2491737  39.9111227  78.2997068
  52.3326977  39.8463360  76.3235475  53.1214833  40.4287746  75.8474357
  51.2422411  39.4871659  75.6193151  51.1304560  39.7276695  74.5620724
  50.2451020  38.7915031  76.2797338  49.2723619  38.6536573  75.8076371
  48.1896768  36.2026802  80.0128224  47.3800182  35.3427363  79.6738188
  48.0028259  37.0664451  81.0440420  48.6700644  37.7532453  81.3652860
  46.6551022  37.0494537  81.6666632  46.4335220  36.0526059  82.0478401
  46.6691268  38.0813010  82.9022584  45.6580198  38.2129915  83.2875123
  47.5417043  37.5263369  83.9766546  48.5531567  37.3947968  83.5922577
  47.5613029  38.2148917  84.8214074  47.1493724  36.5630917  84.3027451
  47.1930265  39.3225110  82.5170354  47.1905295  39.9184014  83.2697032
  45.5694368  37.5474002  80.7892659  45.8476624  38.3010713  79.9111495
  44.3281508  37.1494802  81.0427172  44.1748789  36.5392415  81.8327905
  43.1755165  37.5238607  80.2208142  43.3523058  37.2561963  79.1790846
  41.9185605  36.7730882  80.7173181  42.1650579  35.7113423  80.7231445
  41.7317260  37.1077810  81.7376973  40.6511695  37.0035145  79.8588353
  39.9092220  36.4241644  80.4083516  40.4720503  38.0668002  80.0183408
  40.5024418  36.6251896  78.0507887  41.1741130  34.9475593  78.0841973
  40.5608793  34.3229786  78.7337682  41.1713983  34.5343903  77.0755424
  42.1957088  34.9721323  78.4634590  42.8615950  39.0558258  80.2241450
  42.5755681  39.5572855  79.1521148  43.0367106  39.7427254  81.3624018
  43.0341794  39.2137809  82.2228148  43.0687073  41.1964101  81.4456497
  42.1397249  41.6174516  81.0611825  43.2237885  41.6040630  82.8468873
  42.3676923  41.2327533  83.4102058  44.1371799  41.1550187  83.2369840
  43.3069129  43.1761282  82.9905339  44.1942748  43.5673528  82.4929065
  42.4186982  43.6535776  82.5767481  43.3943554  43.4782826  84.5316288
  42.4332831  43.2464053  84.9906189  44.1675529  42.8476156  84.9704046
  43.7413095  44.9743927  84.7828704  44.6697818  45.1276371  84.2328196
  42.9349384  45.5199017  84.2926820  43.8997485  45.4657425  86.1548068
  44.6471895  44.9606865  86.6090645  44.1218405  46.4508431  86.1360450
  43.0393767  45.3242263  86.6645447  44.0812180  41.8081919  80.5235027
  43.6968835  42.6720415  79.7536035  45.3144701  41.3537822  80.6022118
  45.5875427  40.7796333  81.3869944  46.3440872  41.7886013  79.6766596
  46.3988035  42.8772157  79.6815738  47.6958153  41.2388264  80.0281230
  47.6001741  40.1640110  80.1821519  48.6975608  41.5003859  78.9474281
  48.7940940  42.5750841  78.7931401  49.6633256  41.0874898  79.2388287
  48.3658884  41.0293543  78.0221047  48.1565052  41.7867960  81.1641917
  49.0201963  41.4209508  81.3686304  45.9183135  41.4870641  78.1911129
  45.8803690  42.3752658  77.3302029  45.4702957  40.2341849  77.8278048
  45.5866461  39.4281478  78.4251875  45.0452092  40.0165888  76.4424899
  45.8509817  40.3580445  75.7926916  44.7830521  38.5624201  76.1596826
  43.9413119  38.2483652  76.7768878  44.4628514  38.2949047  74.6857054
  45.3043763  38.6082990  74.0678697  44.2825917  37.2298308  74.5400187
  43.5734263  38.8559685  74.3989441  46.0276880  37.7113414  76.4751831
  46.2876514  37.8231619  77.5278071  45.8151977  36.6634658  76.2632770
  46.8621558  38.0443323  75.8580272  43.9285586  40.9351036  75.9407151
  43.9155115  41.3512296  74.8030711  42.8876867  41.1319060  76.6824506
  42.8426235  40.6294080  77.5574160  41.6997827  41.9173375  76.2593447
  41.4339908  41.7311901  75.2187665  40.5594368  41.4460290  77.1429247
  40.9437999  41.5179475  78.1603685  39.7144322  42.1244676  77.0255017
  40.0965317  39.9917249  76.8671344  40.9056977  39.2720208  76.9911399
  39.0139792  39.7364681  77.9350038  38.2042042  40.4555439  77.8113374
  38.6221199  38.7256932  77.8215086  39.4492413  39.8474641  78.9281438
  39.5728509  39.7313163  75.4593863  40.3563106  39.9493424  74.7336074
  39.2753677  38.6865719  75.3693076  38.7118928  40.3715696  75.2672250
  41.9229545  43.4107138  76.2440297  41.2338549  44.1174309  75.5003129
  42.9176931  43.9134685  77.0027370  43.2134885  43.3251832  77.7685861
  43.4294205  45.2388914  76.9338652  42.6198874  45.9634563  76.8457683
  44.2419014  45.5384787  78.2885046  44.7599649  44.6382756  78.6191768
  44.9680665  46.3335883  78.1194335  43.2372206  45.9817666  79.3739319
  42.3864684  46.4653312  78.8938416  42.8943330  45.1031001  79.9202608
  44.0189602  47.1630294  80.5548669  45.1178339  46.1145379  81.4821415
  45.8385649  45.6544975  80.8061173  45.6470406  46.7097563  82.2262893
  44.5419386  45.3362180  81.9828050  44.1663069  45.5158356  75.6437019
  43.8270707  46.4693108  74.9287426  45.1275472  44.6810708  75.2946861
  45.3802392  44.0082923  76.0043445  45.8701142  44.6617761  74.0116834
  46.4389790  45.5857261  73.9077201  46.8714627  43.4432830  73.9497824
  46.2505607  42.5650422  74.1266245  47.2925284  43.3936937  72.9456188
  47.9809107  43.4802466  74.9545514  47.5589251  43.7573416  75.9205987
  48.6852550  42.1255546  75.0751452  49.1079246  41.8479875  74.1095336
  49.4834809  42.1949919  75.8141408  47.9663313  41.3682203  75.3877055
  48.9795802  44.5960879  74.5197465  48.4631592  45.5555593  74.4910499
  49.8012460  44.6475278  75.2341138  49.3734177  44.3662819  73.5297061
  44.9658406  44.5821533  72.7881003  45.1456079  45.3952529  71.8932742
  43.9465032  43.7208198  72.8129606  43.9028504  43.1594238  73.6514284
  42.9408208  43.5012996  71.7814008  43.4424735  42.9911552  70.9590891
  41.7879478  42.6224224  72.2715067  41.2701873  43.1239980  73.0890922
  41.0898836  42.4480014  71.4527369  42.1814242  41.6683629  72.6222857
  42.3159429  44.8044461  71.2576034  42.3313260  45.0081416  70.0490648
  41.7306764  45.6776877  72.1248162  41.6779663  45.4342952  73.1036324
  41.1117338  46.9525632  71.6822008  40.2284057  46.7256421  71.0852607
  40.6836641  47.8592493  72.8843833  40.2724344  47.1484532  73.6011526
  41.5763329  48.3227317  73.3044148  39.6517236  48.9295818  72.5855385
  39.7567451  49.9604979  73.2424415  38.7529862  48.6837147  71.7706572
  42.0273197  47.8142266  70.7448617  41.7125130  48.1749618  69.5960829
  43.3054521  47.9617345  71.2085138  43.5613264  47.6636300  72.1389768
  44.3182698  48.6142526  70.3892816  43.9196206  49.5581104  70.0173805
  45.6538010  48.9128328  71.2099497  46.2571690  48.0077964  71.1395550
  46.1544062  49.7245895  70.6821756  45.4768588  49.2938286  72.6797863
  44.5304568  49.7331570  72.9950874  45.5810162  48.3021211  73.1199790
  46.6285270  50.1839795  73.1917725  46.9890944  51.1299678  72.5161675
  47.0067971  50.0375681  74.4545850  47.7575770  50.6041440  74.8225834
  46.5423208  49.3601784  75.0423828  44.7256647  47.8902241  69.1620644
  44.8391548  48.5628083  68.1098987  44.9079097  46.5766824  69.1847810
  45.0465226  46.0913286  70.0596052  45.1050927  45.8365330  67.9454785
  45.8372103  46.3977721  67.3648635  45.5814007  44.3939352  68.0658291
  44.7420157  43.8139129  68.4493733  45.8260654  44.0558344  67.0588896
  46.7776198  44.2018668  68.9650086  47.6274446  44.8125469  68.6601013
  46.5454202  44.3998766  70.0114203  47.1932418  42.4862764  68.7738913
  48.0238066  42.1629101  70.3813347  47.3270302  42.3577361  71.1965920
  48.3470500  41.1227018  70.4210980  48.8905947  42.8162545  70.4809370
  43.9496043  45.8652015  66.9959156  44.2285859  45.8820530  65.7984289
  42.6886919  45.8029846  67.3695801  42.4538706  45.6176961  68.3342699
  41.5717809  46.0193173  66.3960402  41.6312120  45.3339630  65.5505482
  40.2454469  45.7542006  67.1915727  40.2758290  46.3573231  68.0989980
  38.9345267  46.1186927  66.3538645  38.9032061  45.5155942  65.4464551
  38.0493290  45.9142372  66.9561300  38.9555058  47.1752445  66.0867366
  40.2163415  44.2547125  67.5649643  40.1218950  43.6720961  66.6485917
  41.1545767  44.0034097  68.0595967  39.0356137  43.9290903  68.5055689
  38.0969457  44.1797124  68.0114121  39.0457036  42.8663764  68.7477187
  39.1296264  44.5110282  69.4224167  41.5689409  47.4709695  65.8490046
  41.4052492  47.6403530  64.6559227  41.9667205  48.5126452  66.5499518
  42.1106582  48.3259301  67.5320510  42.1525556  49.8935384  66.0661291
  41.2812226  50.1683407  65.4716868  42.3188749  50.9186199  67.1949743
  43.1735533  50.6693723  67.8238619  42.4455649  51.9235356  66.7922409
  41.1463014  50.8666926  67.9592990  41.2070434  51.4961050  68.6816219
  43.2813827  50.1151112  65.1493162  43.2260654  51.0632740  64.3159895
  44.3235645  49.3280149  65.2610826  44.6005374  48.9483123  66.1550687
  45.2530729  49.2395712  64.1638790  45.4473091  50.2515730  63.8085991
  46.6108620  48.5698464  64.5242473  46.3710993  47.5437213  64.8029596
  47.1949444  48.5688021  63.6039502  47.4205756  49.2229191  65.6389424
  46.8482408  48.9703016  66.5315330  48.3483921  48.6509416  65.6289304
  47.7417518  50.7087618  65.6470234  48.6063688  50.8488304  66.2958047
  48.0047255  50.9879582  64.6267324  46.6429422  51.5984640  66.1172684
  45.8792058  51.6363726  65.4574433  46.5360498  52.2616024  67.2257775
  47.2863884  52.0725325  68.2453551  48.0125797  51.3714126  68.2110440
  47.1486966  52.6253605  69.0793346  45.6737304  53.1991804  67.3469291
  45.0680542  53.4273518  66.5715619  45.6028786  53.7065829  68.2173436
  44.6347309  48.7132660  62.8384972  44.7674790  49.4196876  61.8766263
  43.9917657  47.5401748  62.7763856  43.9817388  46.9399942  63.5886553
  43.4934950  47.0130038  61.5312293  44.1922772  47.2612639  60.7323742
  43.2152819  45.4798342  61.5196380  42.8526850  45.2078226  60.5283592
  44.4417534  44.6818276  61.8385161  44.8046941  44.9529726  62.8299065
  44.1997559  43.6192126  61.8188306  45.2147606  44.8916475  61.0992363
  42.0748266  45.1803717  62.5129948  42.4590554  45.4260989  63.5029883
  41.2621037  45.8612213  62.2599636  41.5463052  43.7211107  62.5111113
  42.3584128  43.0396708  62.7645296  40.7473283  43.6225589  63.2459736
  41.1614630  43.4747924  61.5215035  42.2998715  47.9076537  61.1053600
  42.1419305  48.0424117  59.8646441  41.4757037  48.4560390  61.9516313
  41.5230608  48.2463431  62.9384870  40.4327625  49.4125482  61.4813740
  39.6855512  48.8893101  60.8847196  39.7290302  50.0612511  62.6970036
  39.3696986  49.2645838  63.3483877  40.4611998  50.6654337  63.2327191
  38.5168207  50.9697434  62.2606968  38.7431080  51.8231148  61.6214377
  37.9368441  50.2384229  61.6977610  37.6728817  51.4598798  63.5221163
  37.4837541  50.7392310  64.5301600  37.3365127  52.7166042  63.6162910
  41.1111813  50.5198470  60.6176350  40.5782706  50.9303615  59.5992274
  42.1930530  51.1592969  61.1057573  42.6464275  50.8810642  61.9643244
  42.7478119  52.2949152  60.3633451  41.9936685  53.0595201  60.1769418
  43.8485120  52.8971106  61.2352104  43.3989397  53.2063754  62.1787883
  44.5343277  52.0690420  61.4142612  44.6215708  54.0803712  60.6230147
  43.9915087  55.2411909  60.1878581  42.9196285  55.3776724  60.3311941
  44.7470970  56.2401590  59.5603951  44.2093023  57.0635111  59.0903205
  46.1436144  56.1369014  59.4141827  46.8656001  57.0623616  58.8047321
  46.3384331  57.7963872  58.4808480  46.7743213  55.0608924  60.0697927
  47.8559995  55.0524677  60.2039635  46.0051908  54.0030936  60.5478283
  46.4882172  53.0826082  60.8756884  43.3465542  51.8875320  59.0330164
  43.0037261  52.5378033  58.0238964  44.1152750  50.7960126  58.9455601
  44.5029705  50.3979644  59.7889753  44.4982237  50.1959879  57.6442723
  45.1034066  50.8302143  56.9964994  45.2308364  48.8738296  57.8548242
  44.5410156  48.2026778  58.3664900  45.7206890  48.2116684  56.5542982
  46.4109609  48.8820813  56.0422707  46.2304571  47.2777754  56.7911124
  44.8679881  48.0056295  55.9073433  46.4524339  48.9127306  58.9070562
  46.0800873  49.2151523  59.8858316  46.9015785  47.9222456  58.9799132
  47.2024383  49.6271268  58.5675972  43.2718906  49.9947944  56.6838702
  43.3372767  50.4205013  55.5468833  42.2512138  49.2522316  57.1395735
  42.3758256  48.7442858  58.0036119  41.0548257  49.0118666  56.3718600
  41.3075054  48.5225328  55.4312195  40.0876551  48.0924389  57.1652154
  39.8888283  48.4848592  58.1624984  39.1605864  48.0708203  56.5923486
  40.5119144  46.6784110  57.3413125  39.6741700  45.6778249  57.8733096
  40.3803049  44.5644674  57.8498462  39.9336293  43.6177721  58.1537342
  41.6273016  44.8583038  57.4127404  42.3549565  44.1611811  57.3446365
  41.7700131  46.1571825  57.0903735  42.7306671  46.5275254  56.7324750
  40.4347544  50.2712944  55.8935221  39.9764074  50.4021569  54.7428119
  40.3154261  51.3030818  56.7119410  40.6171618  51.1419184  57.6622469
  39.7066691  52.6819261  56.3590850  38.7058068  52.5239846  55.9573037
  39.6123894  53.6198802  57.5250509  40.6519513  53.8275859  57.7785655
  38.8308519  54.9655890  57.3901213  37.7910259  54.7586612  57.1370555
  38.8734051  55.5073789  58.3349769  39.2819840  55.5711110  56.6040402
  38.9967065  52.9967786  58.6114919  38.9457406  53.6121370  59.3465680
  40.5558443  53.3268153  55.2234845  40.0459909  53.8492354  54.2254365
  41.9082887  53.2964283  55.3916977  42.2485034  53.0642810  56.3139021
  42.8861844  53.7159303  54.3709390  42.5469511  54.6280495  53.8799619
  44.2844729  53.9979435  55.0492623  44.5543570  53.0626006  55.5395636
  44.9680054  54.1836900  54.2207808  44.3790630  55.1452806  56.0542750
  43.4675279  55.1598917  56.6517624  45.2360441  54.9682063  56.7041443
  44.5471150  56.5008621  55.3411029  45.2958511  56.3585167  54.5618526
  43.5872839  56.7391898  54.8828196  44.9832591  57.6729437  56.2726678
  44.2106106  57.8542870  57.0198154  45.9175709  57.4161591  56.7718894
  45.1771858  58.8860870  55.4640135  44.3114313  59.1244467  55.0016786
  45.4598861  59.6484359  56.0631835  45.8934017  58.7183991  54.7719047
  43.0590996  52.8153549  53.1657775  43.7969208  53.2058281  52.2331814
  42.2669545  51.7183291  53.0699990  42.0103829  51.2951317  53.9504389
  41.9522436  50.9453562  51.7637020  40.9322352  50.5846281  51.8962054
  42.0519509  51.6472339  50.3985972  43.1098658  51.8320207  50.2121320
  41.6543629  50.9969988  49.6193551  41.3020936  52.9897475  50.3486450
  40.1576783  53.1236869  50.7518247  41.9055652  54.0182432  49.8217783
  41.4326892  54.9096423  49.7782383  42.8431425  53.9188322  49.4596083
  42.6272162  49.6063343  51.6553946  42.6716925  49.0402800  50.5915274
  43.2947978  49.1546005  52.6802616  43.1409207  49.6250498  53.5606585
  44.2739671  48.0261128  52.6415577  44.3696345  47.6300368  51.6305826
  45.6391835  48.5559520  53.0909212  45.6992184  49.2647718  53.9167962
  46.1599834  47.6376897  53.3623286  46.4300720  49.1829461  51.9082417
  46.1787828  50.4935150  51.4987616  45.3731170  51.0521617  51.9751190
  46.9691607  51.1106989  50.4591887  46.7424619  52.1136330  50.0974823
  48.0603235  50.3850799  49.9063045  48.6786229  50.8214688  49.1218490
  48.3363307  49.0984442  50.3796770  49.1726397  48.5580695  49.9361878
  47.5813593  48.5065448  51.3837946  47.8636140  47.5283716  51.7731653
  43.8186814  46.8982460  53.5448766  43.0958460  47.1220513  54.5432549
  44.1630517  45.7120021  53.0385303  44.3166409  45.5952646  52.0471262
  44.2196248  44.5082164  53.9062713  44.0594065  44.6049434  54.9800837
  43.2533582  43.4598000  53.3375025  43.3536353  42.5155105  53.8726309
  41.7981407  44.0165780  53.5276764  41.6969513  44.9606925  52.9924110
  41.0792616  43.2977404  53.1345020  41.6062403  44.1784901  54.5883638
  43.6416921  42.9157745  51.9100439  43.7835604  43.8149966  51.3105660
  44.6034677  42.4261668  52.0629217  42.6938425  41.9609966  51.1805001
  41.7319375  42.4501055  51.0268405  43.1217146  41.6906358  50.2151350
  42.5518430  41.0612761  51.7791979  45.5824075  43.9551324  54.0852561
  46.4041568  44.1815365  53.2183823  45.9120449  43.3295801  55.2218319
  45.1735525  43.1497132  55.8869456  47.2841096  42.9565747  55.5874702
  48.0026293  43.6279917  55.1173342  47.4383780  43.0637386  57.1206914
  47.0273055  43.8167933  57.7930211  46.9662760  42.1019428  57.3211126
  48.9047953  42.9117528  57.4833420  49.3863981  41.6563910  57.6262460
  50.5487287  41.8459468  58.3148867  51.1422664  40.9651323  58.5597904
  50.7588040  43.1746707  58.5806911  51.5296607  43.6078248  59.0688072
  49.7065508  43.8365204  58.0518241  49.6439672  44.9210283  58.1414180
  47.6654879  41.5791552  55.1069747  48.7091163  41.4691017  54.5366948
  46.8623384  40.5528675  55.3693931  46.2135893  40.7121661  56.1269206
  46.9447623  39.1771128  54.7824013  46.0442987  38.6241650  55.0498211
  47.0686012  39.2046406  53.2380231  48.1304891  39.3650717  53.0515957
  46.7930526  38.1980233  52.9235482  46.2688250  40.2062872  52.4623639
  45.2513054  40.1053543  52.8399447  46.6709991  41.1753372  52.7578297
  46.2584632  40.1010380  50.9117868  45.9972852  39.0729692  50.6608692
  45.4798623  40.7720547  50.5489969  47.5233322  40.4422503  50.2438454
  48.0416401  41.1485852  50.7463862  47.9602099  40.0651129  49.0623153
  47.2117333  39.3313803  48.3186163  46.2982426  39.0517822  48.6464267
  47.5405662  39.0378355  47.4098809  49.2073572  40.2931126  48.7119016
  49.8317604  40.7600947  49.3538895  49.5347883  40.0001440  47.8024749
  48.0051773  38.3122808  55.4187187  48.1098847  37.1162023  55.0946222
  48.7779129  38.7900341  56.3356115  48.5852988  39.7612853  56.5347854
  49.9451602  38.1078067  57.0803930  49.7985005  37.0293688  57.1400753
  51.2622077  38.3923389  56.2641048  51.1521372  38.2360599  55.1909969
  51.4467514  39.4486145  56.4598737  52.4659885  37.5467277  56.7926826
  52.3146037  36.2871305  56.9536099  53.5617737  38.0723434  56.9267637
  50.0527527  38.6109389  58.5636704  51.1316441  38.5760739  59.0675243
  48.9868738  38.8397961  59.2753702  48.0542000  38.8153786  58.8885593
  49.1484083  39.1936221  60.7429027  49.9103765  39.8936143  61.0857068
  47.7397860  39.6859079  61.2119953  46.9684716  39.0647886  60.7565995
  47.6420243  39.5855751  62.7293103  48.4127841  40.2068371  63.1854502
  46.6598676  39.9290222  63.0541379  47.7833912  38.5489933  63.0352724
  47.3881752  41.0334442  60.5200085  48.0397029  41.7944244  60.9495682
  47.6143626  40.9184921  59.4599496  45.9184947  41.4623992  60.6874206
  45.6916755  41.5780109  61.7472728  45.7558500  42.4111248  60.1759857
  45.2663349  40.7020769  60.2576560  49.6293721  37.9908180  61.5501735
  49.0645984  36.9457717  61.6590957  50.7872226  38.3028291  62.2268723
  51.2687830  39.1397686  61.9306777  51.4806501  37.3875587  63.1603515
  50.8108903  36.5610081  63.3977019  52.8148676  36.7992784  62.5657600
  53.5700617  37.5672856  62.7329304  53.0440768  35.9260287  63.1764958
  52.8110504  36.3977227  61.0754213  52.2952997  35.4392554  61.0167478
  52.2271921  37.1564036  60.5542546  54.1648878  36.2781912  60.4322546
  54.7109642  35.5324363  61.0099649  53.9904051  35.9003165  59.4248491
  54.9656234  37.5347735  60.3598904  55.1604524  37.8764028  61.3764688
  55.9106612  37.3112939  59.8648552  54.2429785  38.6142307  59.5976947
  53.3674542  38.8217644  60.0564830  54.8141746  39.4467360  59.5699483
  54.0627284  38.2980335  58.6555544  51.6295635  37.9735860  64.6205853
  51.4519959  39.1739509  64.8375229  52.0884079  37.2197046  65.6131777
  52.1250213  35.7415488  65.7173352  52.9529411  35.3921436  65.1004356
  51.1862563  35.3631253  65.3128419  52.2962174  35.4112038  67.1167302
  52.8070411  34.4542990  67.2239281  51.3300711  35.3650225  67.6192538
  53.1880581  36.6223565  67.6950755  54.2362049  36.4654300  67.4403967
  53.1015739  36.8357428  68.7604799  52.6257108  37.7861118  66.8836915
  51.8237140  38.2756164  67.4362172  53.6781822  38.7743961  66.5649408
  53.6765366  39.8153948  67.2121758  54.5486421  38.5146421  65.5844422
  54.5348262  37.6000720  65.1561084  55.6671128  39.4500829  65.2287909
  56.2495195  39.6982331  66.1161032  56.6278741  38.7496226  64.1687899
  56.0857561  38.7424965  63.2231913  57.5642733  39.2938606  64.0460639
  56.9247752  37.3201451  64.5931454  56.9123312  36.4415881  63.6883289
  57.1148347  36.9756611  65.8007038  55.3070079  40.8237009  64.8173190
  56.0716543  41.7976540  64.7547720  54.0612285  41.0025909  64.3951365
  53.5390378  40.1469839  64.2712298  53.5209022  42.2297249  63.8266274
  54.2988910  42.7447546  63.2630877  52.3620236  41.9304684  62.8918874
  51.6474673  41.2990770  63.4199530  51.8833716  42.8713201  62.6202435
  52.7727952  41.2495277  61.6743162  52.6817100  40.0592502  61.4401174
  53.2999642  41.9606120  60.7118523  53.5927491  41.5094712  59.8569554
  53.4118957  42.9576663  60.8278474  53.2733477  43.4834335  64.7439351
  53.3325659  44.5997429  64.2752320  53.0001981  43.1620868  66.0113263
  52.9916386  42.1881233  66.2785737  52.5591778  44.1754490  67.0152224
  52.4777817  45.1343363  66.5033543  51.2599017  43.8756097  67.6713985
  51.3936329  42.9442016  68.2215750  50.8955817  44.6479940  68.3487414
  50.1343659  43.6234458  66.6417293  49.5465730  44.7385891  65.9939864
  49.9514950  45.7367285  66.1608870  48.4419321  44.5603385  65.1362714
  47.9191187  45.4260741  64.7297386  48.0163936  43.2662075  64.8066080
  47.2754552  43.0913592  64.0265195  48.5651569  42.1859653  65.5043170
  48.1262949  41.2099880  65.2970281  49.5942706  42.2981958  66.4052289
  49.9746030  41.4109801  66.9114852  53.5980082  44.4627918  68.0594041
  54.4414161  43.5711164  68.3057594  53.7485677  45.7446803  68.3780791
  53.1097838  46.4367739  68.0133040  54.9813275  46.2133843  69.0537957
  55.3602156  45.4522337  69.7358461  56.0439501  46.4907886  67.9934948
  56.2735228  45.5291409  67.5345511  55.5939541  47.1492083  67.2504692
  57.3451341  47.1301231  68.5268621  57.4863220  46.8665493  69.5750489
  58.5276155  46.5968745  67.7007957  58.3873583  46.8604810  66.6524930
  59.4548242  47.0391355  68.0651995  58.5799737  45.5125131  67.7983625
  57.3503642  48.7018378  68.4465971  56.5254759  49.0991143  69.0380616
  58.2937242  49.0829935  68.8376131  57.2355193  49.0135294  67.4084459
  54.7141049  47.3309797  70.0787341  53.7062418  47.9898181  69.9534343
  55.4801688  47.5857720  71.0983006  56.3133527  47.0180240  71.1580173
  55.2389930  48.6061951  72.1659485  54.2737213  49.0867757  72.0065999
  55.2343393  47.9501747  73.5360454  56.2341569  47.5506881  73.7059704
  55.0266891  48.7314295  74.2672241  54.1887140  46.8097272  73.6857385
  54.5386526  45.9748869  73.0785437  54.1839339  46.5176492  74.7358669
  52.5002844  47.2490377  73.1804905  52.2024154  48.6133772  74.2475022
  52.9382786  49.3939115  74.0541871  51.2016129  49.0053386  74.0662253
  52.2823499  48.2882659  75.2848133  56.4002851  49.7278602  72.1103586
  57.5120415  49.4582513  71.6971191  56.0293205  50.9600606  72.4547366
  55.1363142  51.1282719  72.8955814  56.8592946  52.0441488  72.2170881
  57.3893987  51.8008641  71.2962724  56.1875051  52.8836334  72.0380240
  57.8623368  52.4350393  73.2717624  58.2936797  51.6223164  74.0829565
  58.3858559  53.6433903  73.2619340  58.1510442  54.1855424  72.4427674
  59.3700644  54.1987395  74.2093579  59.5208381  53.5728180  75.0888969
  60.7513916  54.4243935  73.4820049  60.5910581  55.0156089  72.5804186
  61.7255572  55.1722659  74.4220188  61.8867545  54.5814094  75.3236865
  62.6773383  55.3246078  73.9130930  61.3001253  56.1386132  74.6927212
  61.4246679  53.1287246  72.9288294  60.6156510  52.5493782  72.4839135
  62.1025227  53.4667050  72.1450044  62.2032608  52.2399434  73.9390301
  61.5259104  51.9011802  74.7229534  62.6177893  51.3760752  73.4194177
  63.0127811  52.8185083  74.3840462  58.8374914  55.4585132  74.9513696
  57.9315676  56.1519815  74.4559385  59.3241154  55.7471704  76.1579963
  59.9783384  55.0984166  76.5717717  58.9626097  56.9547728  76.9190115
  59.4766973  56.9164260  77.8793982  59.3060048  57.8240159  76.3581232
  57.4516083  57.0838547  77.1655609  56.8374769  56.1099729  77.7332526
  56.9375790  58.2359411  76.6647300  57.5892673  58.9621650  76.4039608
  55.4711504  58.5523447  76.6362706  55.0480715  58.5984467  77.6397536
  55.3407911  59.8962029  76.0017577  56.0601902  60.5292959  76.5211394
  55.6591843  59.7573470  74.9685854  53.9222848  60.5838117  76.0262524
  53.2654003  60.0469619  75.3418578  53.5232075  60.5183700  77.0384563
  54.0034275  62.0044630  75.6191877  54.6128810  62.5969979  76.3015130
  54.3772752  62.1235600  74.6022544  52.6798292  62.4772842  75.6709721
  52.2162780  62.2660358  74.7988518  51.9743801  62.9951500  76.6434234
  52.5010913  63.2533868  77.7546111  53.4813124  63.0600168  77.9025118
  51.9416818  63.6530709  78.4944849  50.7552682  63.3809754  76.4186860
  50.3587408  63.2792759  75.4953642  50.2091436  63.7810077  77.1682331
  54.5769747  57.4812316  76.0174843  53.3820657  57.4926045  76.3578004
  55.1223004  56.5300342  75.2683291  56.1300258  56.5655521  75.3260120
  54.5000280  55.5230289  74.3566404  53.4145563  55.5691977  74.4444976
  54.8886105  55.8020349  72.8881932  55.9222297  55.4699314  72.7910439
  54.2745446  55.3004454  72.1402420  54.8731893  57.2681490  72.5454211
  53.7566139  58.1121473  72.5093761  54.2349395  59.3689834  72.3171424
  53.5544678  60.2191414  72.2693038  55.5885937  59.3034458  72.2143113
  56.2116558  60.0856357  72.0726342  55.9793344  58.0070139  72.3330004
  57.0344176  57.7460615  72.2505099  54.7842848  54.0586892  74.6162484
  54.3489087  53.1954294  73.9052884  55.3517878  53.7954306  75.8446133
  55.6369818  54.5674413  76.4300731  55.5251235  52.4376240  76.3556456
  56.1494062  51.8880835  75.6511064  56.1925272  52.3727267  77.7726599
  55.6257046  52.9387210  78.5118905  56.3116065  51.3450388  78.1158475
  57.8993988  53.1116966  77.7551411  58.1550739  52.9016116  79.0433154
  54.1914937  51.6009434  76.5734347  54.2033312  50.3716897  76.5536087
  53.0217142  52.2174224  76.6390819  53.0407486  53.2116939  76.8156078
  51.7256732  51.5312092  76.6653726  51.9054238  50.4562457  76.6498070
  50.8790724  51.8719900  77.9111774  50.5578925  52.8974367  77.7284156
  50.0136484  51.2099795  77.8814561  51.5061613  51.7965123  79.3090145
  52.2521067  50.8834605  79.5722840  51.2154542  52.6828469  80.2208294
  51.6374186  52.6182861  81.1361860  50.5697604  53.4295379  80.0072110
  50.9158286  51.6737080  75.3801521  49.8093040  51.1253964  75.3613687
  51.4584478  52.2838669  74.3220516  52.4527736  52.4542874  74.3707579
  50.7422107  52.6601015  73.0834593  49.6807162  52.8378902  73.2558532
  51.4037477  53.9981112  72.6179318  51.2597569  54.7378624  73.4054178
  52.4698455  53.8176616  72.4801878  50.8090606  54.5147588  71.3263129
  51.2916266  53.9918995  70.5005714  49.7439917  54.2829837  71.3295663
  51.0065953  56.0597894  71.1525820  52.0545933  56.2944903  71.3389007
  50.7523958  56.3246230  70.1262559  50.1551918  56.8307939  72.0860193
  49.1292925  56.7966789  71.7193215  50.2062676  56.3558439  73.0657708
  50.5929536  58.2432959  72.1983306  50.5452896  58.6836987  71.2906560
  49.9882779  58.7329519  72.8423060  51.5434067  58.2751430  72.5385123
  51.1165211  51.4438533  72.1254002  52.3126196  51.1590168  72.0144926
  50.1772376  50.7388708  71.5280301  49.2154523  50.8744594  71.8049491
  50.4818038  49.6735599  70.5366890  51.4076202  49.1386639  70.7484660
  49.2866190  48.6853826  70.7008989  49.2459894  48.5526146  71.7820192
  48.3364064  49.0868135  70.3486927  49.5470194  47.3455049  70.0362785
  50.6095463  47.3290750  69.7936522  49.1937292  46.1073408  70.8618515
  48.1311910  46.1228323  71.1044857  49.4215937  45.2096406  70.2871229
  49.7762754  46.1059278  71.7831215  48.8637789  47.3304168  68.6625833
  49.2694169  48.1322450  68.0456321  49.0448895  46.3716869  68.1766437
  47.7909517  47.4765850  68.7881844  50.6925479  50.1204162  69.1447711
  49.9515536  50.9152647  68.5926185  51.7229275  49.4978079  68.5652182
  52.2770701  48.8236343  69.0736621  52.1323787  49.8428086  67.1620795
  51.5548089  50.6986901  66.8128242  53.6202705  50.1978508  67.0984257
  54.2805498  49.4402226  67.5204802  53.8652344  50.3475492  66.0469110
  53.9430098  51.4999590  67.8092159  54.0505042  51.4926694  69.2407877
  54.0240254  50.5999657  69.8656708  54.1975636  52.7421378  69.8229597
  54.2432527  52.8326126  70.9082373  54.2903466  53.9242180  68.9939823
  54.2525334  54.8855533  69.5063342  54.4191369  53.8794041  67.6394544
  54.6664317  54.7473578  67.0282245  54.2082018  52.5892609  67.0141841
  54.2610060  52.4941043  65.9296303  51.7724685  48.6417106  66.2742461
  51.6454041  47.5226376  66.7853669  51.5989553  48.8734666  64.9362015
  51.4025214  49.8201935  64.6442745  51.5326107  47.8195977  63.9420015
  51.9015118  46.8832640  64.3606785  50.0256865  47.6115684  63.4825244
  49.6116998  47.0310262  64.3069545  49.4750841  48.5472340  63.3852253
  49.9033933  46.8062639  62.1759553  50.4205620  47.4011672  61.4231422
  50.4730240  45.3344859  62.1653922  49.9559821  44.7388136  62.9176826
  50.3175138  44.8911964  61.1818213  51.5395575  45.3555045  62.3893678
  48.4715815  46.7156114  61.5583712  48.1095643  47.7181195  61.3302915
  48.5070317  46.1255773  60.6425631  47.7975487  46.2397867  62.2706699
  52.4821842  48.0471842  62.7936094  52.4641281  49.1382178  62.2230003
  53.4381857  47.0701086  62.4634133  53.3553154  46.2507966  63.0481865
  54.5128116  47.1220904  61.5131470  54.3487260  47.9614376  60.8373724
  55.8945383  47.2919763  62.2299560  56.7163260  47.2435722  61.5155174
  55.8675996  48.7058135  62.8979917  55.0462991  48.7548305  63.6129486
  56.8104584  48.8815459  63.4159069  55.7272382  49.4678464  62.1313734
  56.1746669  46.1978778  63.3243126  55.3511133  46.2804103  64.0335718
  56.1096989  45.2431647  62.8023916  57.5301899  46.2797535  64.0905338
  57.5956864  47.2340682  64.6131173  57.5895476  45.4656866  64.8129402
  58.3542725  46.1968249  63.3819362  54.4785299  45.8480510  60.5960116
  53.7259604  44.9434029  60.9123419  55.4959019  45.6698890  59.6908097
  56.0793030  46.4853893  59.5695588  55.6747036  44.5129575  58.7358958
  56.4176553  44.7601655  57.9776015  56.1657449  43.2547564  59.5254293
  57.1798377  43.5811294  59.7560713  55.6443297  43.0093475  60.4506324
  56.2197862  42.0325426  58.6387434  55.8973797  40.9044811  59.0150841
  56.8374833  42.1271663  57.4904222  54.5040052  44.2621684  57.7961346
  53.5684648  43.4777133  58.1055169  54.5417322  44.9312469  56.6160289
  55.4094583  45.4012758  56.4010321  53.4831628  44.9715804  55.6399397
  52.6272599  44.3584545  55.9220854  53.0402030  46.4564673  55.6097030
  53.9508486  47.0461830  55.5045400  52.4045081  46.6120666  54.7380489
  52.2909034  47.0238236  56.8000278  52.9532537  47.8136206  57.7720184
  54.0220258  48.0266705  57.7511395  52.1289606  48.3487617  58.8354844
  52.6846023  48.8312435  59.6395829  50.7517714  48.2874233  58.8888929
  50.1431158  48.8303820  59.6119656  50.1395269  47.4645604  57.9364485
  49.0518069  47.3959418  57.9524727  50.8855606  46.7312378  56.9687142
  50.3953314  45.9636630  56.3698785  53.9856957  44.5767971  54.1928762
  53.5742190  45.1545097  53.2195417  54.8605686  43.5979881  54.0297554
  55.2148936  43.0863618  54.8252375  55.3410764  43.2270423  52.6939559
  55.6023856  44.1644554  52.2029636  56.2442012  42.6390458  52.8574337
  54.3925759  42.4406102  51.7911368  54.6417131  42.3055641  50.6029482
  53.3303306  41.8694335  52.3507915  53.3449797  41.8639532  53.3606700
  52.2481771  41.1826792  51.6759817  52.4623566  41.0050704  50.6220930
  52.1253328  39.8003873  52.4015154  52.1885595  40.1476106  53.4327951
  51.1808790  39.2771399  52.2521191  53.2885319  38.8464905  52.1120246
  54.2557570  39.3173055  52.2878360  53.0903542  37.6802763  53.1181975
  52.1234742  37.2086426  52.9426880  53.8829236  36.9443261  52.9828759
  53.1253689  38.0681524  54.1362478  53.5032641  38.4791860  50.6708492
  53.7031442  39.3805880  50.0915204  54.3526442  37.8007549  50.5909384
  52.6099868  37.9894027  50.2832064  50.8935198  42.0487676  51.6458565
  49.9905235  41.8286507  50.8786490  50.8531684  43.0998475  52.4745446
  51.6091334  43.1762606  53.1399597  49.7481751  44.0847659  52.5502511
  48.8336864  43.6114365  52.9076990  50.1258196  45.2111132  53.5160385
  51.0348065  45.7006527  53.1664761  49.3157982  45.9391141  53.5605397
  50.2960992  44.7966103  54.5096639  49.4381353  44.5650471  51.1225977
  50.3195251  44.7435022  50.2672961  48.1503184  44.7694887  50.9139707
  47.5321332  44.7505888  51.7124625  47.5656795  45.0627189  49.5743131
  48.2805495  45.5819140  48.9359584  47.1992152  43.6765869  48.9008474
  48.0578901  43.0074467  48.9558755  46.3559466  43.2287055  49.4265853
  46.8228407  43.9044220  47.4328993  45.8894170  44.4619674  47.3556725
  47.6125890  44.4450347  46.9112312  46.6368611  42.4551441  46.7670411
  47.4915620  41.8230085  47.0078523  45.7246018  41.9892239  47.1396008
  46.5367648  42.6293937  45.2047534  45.5998666  43.1227820  44.9461218
  47.3734889  43.2277122  44.8441887  46.5797292  41.2899611  44.5735162
  45.8042373  40.7355319  44.9071631  46.5162527  41.3883836  43.5703294
  47.4479892  40.8327776  44.8126957  46.2931407  45.8722397  49.5550817
  45.4329142  45.5963583  50.4035844  46.2335639  46.8735014  48.6872824
  47.0577268  47.1322164  48.1639075  45.0785690  47.6960592  48.5763426
  44.7038589  48.0514089  49.5362479  45.5878163  48.8791498  47.7894775
  46.4493087  49.2677941  48.3325112  45.9118106  48.4947476  46.8223359
  44.5749025  49.9971249  47.5777083  43.6663400  49.5722599  47.1509708
  44.3451956  50.4507808  48.5418313  45.1495079  51.0977398  46.6020626
  45.9793258  51.5731177  47.1250512  45.5272759  50.5695000  45.7266465
  44.1184560  52.1961402  46.1470532  43.4529870  51.7973271  45.3814164
  43.5290081  52.5382334  46.9977132  44.9028680  53.3578399  45.5776388
  45.4488027  53.0411534  44.7891182  44.2641556  54.0800197  45.2766359
  45.5192592  53.7278072  46.2870647  43.8529740  46.9208330  47.9962233
  43.9168050  46.3458951  46.8639786  42.6900855  46.9633286  48.6749003
  42.5293057  47.5798053  49.4586130  41.5743441  45.9992499  48.2701146
  41.9825182  45.1780965  47.6808777  40.9101445  45.4192243  49.5248904
  40.2038858  44.7086271  49.0955310  41.7081250  44.8764789  50.0315999
  40.2002757  46.2948038  50.5086270  38.8470322  46.6188011  50.2424168
  38.2903208  46.1233186  49.4470118  38.2325334  47.5875581  51.0177967
  37.1874936  47.8057314  50.7978102  38.8635453  48.1799666  52.1619637
  38.4005077  49.2071931  52.8615885  37.5658210  49.5431930  52.5269216
  40.1580666  47.7152407  52.4678746  40.6489283  48.0628896  53.3768826
  40.8107115  46.8204084  51.6222023  41.8358967  46.5177874  51.8355469
  40.5800916  46.7506191  47.4142734  39.5656315  46.1744088  46.9943157
  40.6412803  48.1305788  47.3494893  41.3654826  48.6164756  47.8589348
  39.6431835  48.9402354  46.5957108  39.2471830  48.3778104  45.7501572
  38.5128234  49.2764891  47.5181951  37.7109191  49.5859837  46.8479252
  38.2550009  48.3212908  47.9756048  38.6948972  50.3066479  48.5856725
  39.2339901  49.8380809  49.4090343  39.2989702  51.1122608  48.1683169
  37.3585077  50.8820647  49.1066174  36.8218375  51.3496694  48.2811297
  36.7553330  50.0736954  49.5199199  37.5780744  51.8831494  50.1495392
  38.0014640  52.7263233  49.7891248  37.1476905  51.8797711  51.3833825
  36.1899619  51.1389726  51.8328069  35.7144211  50.5011782  51.2105695
  35.9210631  51.2009487  52.8043788  37.8790240  52.5371443  52.2491034
  38.7193353  53.0062493  51.9426437  37.5990963  52.5717481  53.2189188
  40.1877544  50.2591908  45.9636875  41.1706108  50.7966047  46.4543845
  39.5046490  50.7120361  44.9645844  38.8272456  50.1008367  44.5313878
  39.6871558  52.0599134  44.4037170  40.7297967  52.1884044  44.1130467
  38.8185810  52.2835733  43.1927504  38.9868919  51.4183568  42.5515241
  37.7909573  52.2715382  43.5559924  39.0622812  53.5688862  42.3911776
  40.1062603  54.2842277  42.6554750  38.2689356  53.8942958  41.5282075
  39.3758374  53.1458194  45.4167663  38.3392273  53.2118402  45.9800556
  40.2894245  54.0340402  45.6030338  41.2165018  53.7973172  45.2796312
  40.1163558  55.2629256  46.3585216  39.7033620  55.0061107  47.3340120
  41.4362752  56.0608112  46.5714633  41.3590646  56.9724879  47.1639017
  42.0051897  55.3147069  47.1262288  42.1944763  56.3861860  45.2572759
  42.8685071  55.5631675  44.7503401  41.9372781  57.5119402  44.5588916
  42.4447173  57.7006370  43.7062494  41.2385121  58.1606732  44.8920166
  39.0005199  56.1641691  45.7434815  38.3546965  56.9007671  46.4993688
  38.8998358  56.2070614  44.3830227  39.6593056  55.7791301  43.8729446
  37.9416238  57.0203294  43.6431066  37.8237626  57.9931735  44.1203719
  38.4563294  57.2381292  42.1901439  39.4003130  57.7830768  42.1952726
  38.5918904  56.2823698  41.6839353  37.4033642  58.0553287  41.4565042
  36.5052967  57.4584754  41.2973132  37.1496188  58.9466884  42.0302578
  37.9972505  58.4761796  40.0799070  38.6318293  57.6647825  39.7234754
  37.1699179  58.6216502  39.3853147  38.8002899  59.7203978  40.1289340
  38.8509031  60.1402518  41.0461365  39.4651993  60.3223949  39.0991088
  39.7119314  59.7859323  37.9574923  39.4043595  58.8425023  37.7692386
  40.2122179  60.3103501  37.2540728  39.9207025  61.5421443  39.1554765
  39.7869486  62.0896662  39.9935873  40.4053282  61.9341948  38.3607860
  36.5366119  56.4308084  43.8893517  35.7734260  56.8969573  44.7643873
  36.1079287  55.4258205  43.1311334  36.7803212  54.9559953  42.5418526
  34.7055059  54.9801955  43.0825562  34.0021839  55.8030042  43.2107093
  34.3509672  54.2295776  41.7970197  33.3050984  53.9358235  41.8862786
  34.5485977  55.0249684  40.5043880  35.5943943  55.3186937  40.4141962
  34.2704115  54.4069197  39.6507327  33.9219326  55.9165448  40.5263666
  35.0870864  53.0146807  41.7751997  34.8779613  52.5281697  40.9744663
  34.3384545  54.0456285  44.2620704  33.1531261  53.8794492  44.5988582
  35.3398847  53.3430169  44.8925271  36.2003888  53.2839135  44.3670381
  35.1787061  52.4916087  46.0202822  36.1680336  52.4013993  46.4688272
  34.1924779  52.9076602  47.0991006  33.1939246  52.7665690  46.6854777
  34.3369903  52.2273582  47.9383891  34.3464508  54.3652905  47.5859426
  35.3999040  54.5463549  47.7993741  34.0185973  55.0303850  46.7870287
  33.5097213  54.6358470  48.8569882  32.4708682  54.3919974  48.6346806
  33.8753322  53.9798351  49.6469734  33.5752146  56.0042630  49.3232834
  34.3312134  56.1546828  49.9759235  32.8199496  56.9776293  49.0403848
  31.7869098  56.8906136  48.3317586  31.5153420  55.9967306  47.9479303
  31.2326289  57.7149327  48.1490834  33.0998365  58.1593593  49.4626151
  33.9268540  58.3095174  50.0226105  32.4913527  58.9318872  49.2322963
  35.0532106  51.0160730  45.6490664  35.0743147  50.1483123  46.5236721
  34.9143514  50.7404812  44.3457966  34.6488121  51.5518817  43.8061510
  34.8777438  49.4398785  43.6979305  33.9730695  48.9162893  44.0069904
  34.8802318  49.5510713  42.1936540  35.6978473  50.1955208  41.8707159
  34.9995880  48.5631211  41.7488972  33.5149445  50.1694014  41.7336394
  32.6705807  49.5565872  42.0492492  33.4412077  51.1540702  42.1952587
  33.4584012  50.3319604  40.2535251  34.0034226  51.2576799  39.5762104
  32.8176831  49.3702649  39.6350100  32.7269384  49.3934026  38.6293602
  32.4176918  48.6105462  40.1669272  35.9213162  48.5076757  44.3136931
  37.0803328  48.8621680  44.5453065  35.4674799  47.2453761  44.5052764
  34.5414077  47.0179426  44.1724647  36.2607060  46.1590383  45.2583637
  36.9214926  46.6188408  45.9932391  35.2851607  45.2124852  45.9950174
  34.4100566  45.7555359  46.3519318  34.9752326  44.4643409  45.2654116
  35.8445535  44.4481504  47.1943144  36.2461844  45.0427818  48.3868697
  36.6851012  43.9053675  49.0958083  37.0816212  44.1127927  50.0897126
  36.5444502  42.7678470  48.4387655  36.7317523  41.8172867  48.7241654
  36.0734859  43.1316147  47.2365581  35.9290310  42.3822593  46.4582905
  37.1746598  45.3545691  44.3167063  36.9588282  45.4606845  43.1048741
  38.2285597  44.6418109  44.7125634  38.5133753  44.7769777  45.6720994
  39.0035029  43.6500111  43.8650404  39.4167949  44.1444918  42.9859626
  40.1748483  42.9657704  44.6856978  40.5279791  42.0681127  44.1781451
  41.3070953  43.9772803  44.7723832  40.9548309  44.8750936  45.2802628
  42.1378117  43.5465286  45.3313679  41.6413430  44.2362584  43.7677400
  39.6536439  42.5462553  46.0478876  39.5009448  43.4505576  46.6369726
  38.6971602  42.0458402  45.8968142  40.6305828  41.5861530  46.8091102
  41.5871977  42.0860790  46.9609713  40.2016354  41.3222475  47.7757834
  40.7834149  40.6813620  46.2208113  38.1299731  42.4796788  43.3364887
  37.0961477  42.1571123  43.9494284  38.4970677  41.8421254  42.2254909
  39.6128966  42.0417049  41.3637810  40.4911042  42.0401247  42.0094197
  39.4818004  43.0339168  40.9320077  39.6646154  40.9426837  40.2973086
  40.4855209  40.2504337  40.4843999  39.7688282  41.3677456  39.2990283
  38.2941661  40.2497626  40.4610925  38.2735125  39.1692473  40.3191092
  37.6165542  40.7221676  39.7499138  37.8672586  40.5994729  41.9116530
  36.8015066  40.8105626  41.8238342  38.0814002  39.4711515  42.9230126
  39.2042534  39.3278173  43.4195317  37.0980521  38.5236078  43.0775709
  36.2451994  38.7292826  42.5771316  37.1558914  37.2875382  43.8844337
  37.7041984  37.4426933  44.8136192  35.7046011  36.9038464  44.2276667
  35.0868093  37.6880581  44.6652105  35.3784498  36.7130679  43.2052534
  35.5653522  35.6290902  45.0511595  35.7124350  35.5700074  46.4388766
  35.9345955  36.4519525  47.0396404  35.5576452  34.2645737  47.0840904
  35.6594086  34.1837543  48.1663170  34.9999391  33.1722298  46.3298772
  34.8938941  31.9506852  46.7697047  35.2291856  31.8431396  47.6627966
  34.7564620  33.2773230  44.8960277  34.4173963  32.4423762  44.2828403
  34.9776092  34.5154549  44.3180758  34.7092197  34.6860027  43.2754922
  37.8684883  36.1786443  43.0306738  37.4086575  35.9497339  41.8820165
  38.9769924  35.5475281  43.5558947  39.2269310  35.8874452  44.4735473
  39.8835526  34.5976091  42.8934230  39.4990570  34.3142164  41.9136522
  41.2435768  35.2754979  42.7078595  41.5502496  35.6525952  43.6834868
  41.9433685  34.5069714  42.3795933  41.2367134  36.4014553  41.7165034
  40.4697703  37.0836030  42.0833461  42.2169150  36.8659385  41.8240314
  40.9777996  36.0895570  40.2338605  41.6663251  35.3037219  39.9232245
  39.9522797  35.7345715  40.1319115  41.1658390  37.2697884  39.3416469
  41.8343656  37.9336488  39.7055987  40.5683936  37.5403977  38.1864081
  39.7511384  36.7611813  37.6166680  39.5216955  35.8750184  38.0434833
  39.3319105  37.0288628  36.7376378  40.7372407  38.6374039  37.4443885
  41.3724117  39.3594117  37.7531967  40.2290272  38.7402509  36.5776473
  39.8682109  33.2969955  43.6580058  39.8471782  33.3163379  44.8912055
  39.9747710  32.1844685  42.9263572  39.9047085  32.3048567  41.9260086
  40.0069658  30.8257962  43.4593553  40.1532916  30.8629433  44.5388496
  38.7527495  30.1156114  43.1800988  38.4887891  30.2540156  42.1316388
  38.8901099  29.0534105  43.3824879  37.6153559  30.6692599  44.0764285
  38.0344167  30.9835157  45.0323219  37.2334116  31.5402093  43.5438266
  36.4785443  29.6843763  44.3198390  35.6495734  29.9050576  45.2580884
  36.3872841  28.7186612  43.5411433  41.2691951  30.0459355  43.0166212
  41.9051068  30.3645396  42.0378701  41.5791369  28.9696056  43.7144171
  41.2060092  29.0006258  44.6524538  42.5941480  27.9547554  43.4018831
  42.6947284  27.2707020  44.2445299  42.2001856  27.1342942  42.1396208
  42.6449354  27.8095664  41.4086596  42.6640562  26.1515598  42.0550209
  40.7261827  27.0157286  41.8790896  40.0826184  26.3063255  42.6545954
  40.2461400  27.4019121  40.8401400  43.9847365  28.4554571  43.4877631
  44.9626523  27.8278462  42.9551412  44.1887516  29.6093556  44.1405924
  43.3586417  29.9956554  44.5669602  45.4184844  30.2951452  44.3194774
  45.9214043  30.4256712  43.3612844  45.1430737  31.7137626  44.9398286
  44.7548825  31.5275031  45.9411848  46.1168810  32.1980356  45.0124862
  44.1865589  32.6148059  44.1875997  44.3713990  32.5322269  43.1165648
  43.1596032  32.3192903  44.4023897  44.4033019  34.0587934  44.6309931
  45.3077152  34.3934536  44.1229201  43.5470769  34.6176802  44.2533375
  44.5477988  34.3031138  46.1616466  43.5841109  34.1357794  46.6426927
  45.2814845  33.6063219  46.5669680  44.9877208  35.6771773  46.4152512
  44.3077955  36.3229977  46.0401282  45.0777816  35.8235502  47.4105220
  45.8808818  35.8323095  45.9699463  46.3754821  29.6202118  45.2752919
  45.9567760  29.0024918  46.2839822  47.6670731  29.8527620  45.0778783
  47.8720836  30.3673587  44.2333310  48.7719836  29.4622679  45.9294764
  48.8227364  28.3837654  46.0789944  50.0746417  29.9284143  45.1475285
  50.0840218  29.4777534  44.1550991  50.0741476  31.0142996  45.0529093
  51.3498966  29.5006184  45.8937019  51.4778540  28.5159311  46.5878510
  52.3950019  30.2926477  45.7546139  53.2622161  30.0657582  46.2199744
  52.3234125  31.1224981  45.1833662  48.5725433  30.2123223  47.2511791
  48.3998894  31.4101827  47.2529340  48.5754408  29.4403387  48.3576559
  48.4957920  28.4497308  48.1775131  48.5709245  29.8946876  49.7472701
  47.7173322  30.5522734  49.9117709  48.4687902  28.6825842  50.7392358
  47.4242344  28.3729834  50.7053295  49.0970735  27.8832059  50.3463562
  48.8761162  28.9857482  52.2237661  49.8657965  29.4397486  52.2739384
  47.8742466  29.9343180  52.7406826  46.8842996  29.4808196  52.6912570
  48.1083279  30.1825564  53.7759045  47.8878583  30.8423437  52.1378523
  48.8835775  27.6621565  52.9391144  49.6041417  26.9961085  52.4644917
  49.1618497  27.8137846  53.9820308  47.8901542  27.2163115  52.8898046
  49.8421846  30.7484190  49.8406856  50.9948889  30.3647597  49.4442312
  49.7532616  31.9769331  50.4496765  48.7986535  32.2908743  50.5509866
  50.8531291  32.9369604  50.7720631  51.7761101  32.3590834  50.8196399
  50.9999721  33.9899608  49.7096464  51.1967111  33.4992808  48.7564270
  49.7304667  34.8367437  49.5946480  49.5333245  35.3281376  50.5474158
  49.8648285  35.5903617  48.8186931  48.8877359  34.1957222  49.3358109
  52.0369332  34.8677095  50.0720082  52.1353407  35.5428435  49.3966488
  50.6262743  33.4100452  52.2365745  49.5268315  33.3060425  52.7925123
  51.6678853  33.8208854  52.8770080  52.4811590  34.0090366  52.3084270
  51.7690136  34.0350958  54.3437823  52.4496938  34.8746086  54.4851753
  50.7716808  34.3156213  54.6825037  52.2594376  32.8549281  55.1710305
  52.6427529  31.7980258  54.6862957  52.2508248  33.0700690  56.4862891
  51.9284445  33.9615533  56.8347516  52.7815000  32.0417076  57.4969377
  53.5684199  31.4071903  57.0892074  53.3495334  32.8176078  58.7043858
  52.6034717  33.5216933  59.0728364  53.7016528  31.8351138  59.8021778
  54.4480599  31.1309423  59.4345930  54.1037707  32.3756759  60.6590283
  52.8068713  31.2907161  60.1040019  54.4705143  33.5679531  58.3099483
  54.8171891  34.0469403  59.0662474  51.6101654  31.1249821  57.8266825
  50.6044427  31.5489044  58.4514006  51.7367378  29.8532991  57.4864963
  52.5996178  29.5363845  57.0680437  50.6566403  28.8725737  57.6871257
  49.8635054  29.1640031  56.9985728  51.1481218  27.4259946  57.3053380
  51.9362684  27.1165177  57.9917410  50.3133528  26.7283840  57.3731644
  51.5354146  27.4303882  56.2864738  50.0978467  28.7502218  59.0875531
  48.8715462  28.4573432  59.2135338  50.8902828  28.9500274  60.1228983
  51.8784689  28.7837614  59.9966316  50.3591720  29.0840902  61.5355796
  49.9145117  28.1443048  61.8629629  51.4720741  29.4261275  62.4523765
  52.0324079  30.2488962  62.0083304  51.0399415  29.7506467  63.3989750
  52.4071010  28.2503713  62.6984235  51.8060056  27.4642915  63.1554396
  52.7550328  27.9186524  61.7201556  53.6394841  28.5622261  63.6120123
  54.4092070  27.8320110  63.3621893  53.9855529  29.5603942  63.3436912
  53.4076783  28.5206183  65.0332568  52.5235221  28.1441658  65.3441437
  54.2768202  28.8642594  65.9219577  55.4998038  29.3137927  65.7035362
  55.8351300  29.4165050  64.7563791  56.0937631  29.5526567  66.4847250
  53.9895395  28.8674692  67.2057616  53.0671238  28.5954430  67.5143896
  54.6927327  29.1419462  67.8767909  49.0403091  29.8846982  61.7427034
  48.0090198  29.3725386  62.1419376  49.1226025  31.0986176  61.2967341
  49.9226973  31.3849328  60.7508667  48.0537445  32.0975376  61.5575601
  47.3214859  31.7372265  62.2801058  48.7767541  33.3371995  62.1584724
  49.3254199  33.7646710  61.3192268  48.0414938  34.0580043  62.5161495
  49.7487883  33.0033368  63.2829839  49.2989743  32.8556971  64.6326768
  48.2532719  33.0453818  64.8748045  50.1828825  32.4742259  65.6295629
  49.8157461  32.3885920  66.6522943  51.5396059  32.3618494  65.3685146
  52.3956896  31.8832690  66.3057048  51.9586519  31.6467016  67.1270656
  52.0419828  32.5719987  64.1290337  53.1088964  32.5022808  63.9170545
  51.1338680  32.8909690  63.0916917  51.5009596  33.0639095  62.0800419
  47.2745664  32.5415650  60.3085484  46.3767324  33.3647122  60.3382106
  47.6748740  32.0631083  59.1347004  48.5913123  31.6386803  59.1246453
  47.0119963  32.3029279  57.8623778  47.0789941  33.3824994  57.7277079
  47.7317752  31.6427480  56.7523171  47.6658422  30.5609439  56.8683027
  47.2822072  31.9339319  55.8030011  48.7786528  31.9459894  56.7661452
  45.5258089  32.0213241  57.9575418  45.0922093  31.1233116  58.6521632
  44.6266478  32.8483520  57.3189847  44.9531811  33.6472015  56.7942801
  43.1718402  32.5986932  57.3817631  42.8565278  32.5018327  58.4206545
  42.3910629  33.7826816  56.7321813  41.3214801  33.6443449  56.8901526
  42.7067242  34.7211872  57.1878841  42.6637354  33.8186403  55.3334756
  42.1837467  34.5469566  54.9325191  42.7374185  31.3169315  56.6506983
  43.3531058  30.8652718  55.6660580  41.5999861  30.6681910  57.0281999
  41.2088951  30.9713428  57.9086805  41.0146165  29.4674173  56.3723060
  41.6915897  28.6541984  56.1106161  39.7882276  28.8944731  57.1377852
  39.1209148  29.7423789  57.2922187  38.9809069  27.7005029  56.4440833
  39.6474929  26.8520092  56.2897384  38.1532451  27.3995370  57.0863420
  38.5910582  28.0351810  55.4827781  40.0331431  28.6000934  58.6183956
  40.3803982  27.5699046  58.6972986  40.8165680  29.2745235  58.9640673
  38.7791921  28.7851919  59.4858582  37.9954262  28.1107120  59.1410572
  39.0194115  28.5610777  60.5251689  38.4315946  29.8153310  59.4078239
  40.7571430  29.7668081  54.8718416  41.0873537  28.9153487  54.0505208
  40.2088234  30.9814146  54.6487325  39.6764107  31.4747710  55.3510397
  40.1423720  31.4419519  53.3059017  39.6342292  30.6697564  52.7283169
  39.3894318  32.8212484  53.0815290  39.8170678  33.5172449  53.8032046
  39.6273321  33.1543629  52.0713121  37.9223424  32.8162674  53.2432971
  37.1548568  31.9470485  52.8481295  37.4213595  33.8447098  53.8523919
  36.4236168  33.9055973  53.9969670  38.0310454  34.5804455  54.1796180
  41.4323461  31.3969476  52.5302919  41.4290446  30.8786957  51.4046005
  42.5448886  31.8291700  53.0942368  42.5306469  32.2489006  54.0127806
  43.7921470  31.7574156  52.4017522  43.7061639  32.2213173  51.4191529
  44.8550194  32.4900028  53.1909368  44.9591347  32.0312032  54.1741778
  45.8059071  32.4325152  52.6612123  44.5668192  33.5348098  53.3067735
  44.2013485  30.2633412  52.1760163  44.4493738  29.9770717  51.0001255
  44.0362680  29.3532282  53.1979908  43.8432433  29.6906132  54.1301990
  44.2902088  27.9532687  53.0207783  45.3225782  27.7350797  52.7474541
  44.0075140  27.3458916  54.4542073  43.0413500  27.6135874  54.8819518
  44.0997043  26.2604274  54.4172166  45.0474547  27.8307655  55.4106949
  46.3853404  27.6504561  55.2293351  47.0258608  28.0585948  56.3821748
  48.1100522  27.9546076  56.4247752  46.1867631  28.5123831  57.2456944
  46.3820081  28.8375000  58.1817917  44.9173540  28.4802454  56.6548942
  44.0637060  28.9167982  57.1733610  43.5534267  27.2116015  51.8278207
  44.1648112  26.3778838  51.1322636  42.2864158  27.5782142  51.6014835
  41.9113120  28.2511608  52.2545834  41.4239372  27.0852576  50.5575039
  41.4689725  25.9976795  50.5005411  39.9749768  27.5021681  50.8805231
  40.1640832  28.5325754  51.1815194  39.3477523  27.4938772  49.9891082
  39.2462508  26.7489415  52.0355405  39.9470304  26.6111683  52.8589646
  38.0209122  27.5438033  52.5312560  37.3194194  27.6815840  51.7084418
  37.5325048  26.9948261  53.3363541  38.3436444  28.5175223  52.8997878
  38.9562489  25.3337705  51.6436422  39.8909967  24.8187360  51.4220900
  38.4477549  24.8261491  52.4633102  38.3185093  25.3244009  50.7597309
  41.8257670  27.6148993  49.1828717  41.2490762  27.1931265  48.1247784
  42.7679931  28.5558322  49.1206513  43.2851556  28.7956733  49.9543890
  43.0877039  29.2657004  47.8740226  44.0403404  29.7629148  48.0566720
  43.2223492  28.4888377  47.1213910  42.0568307  30.3187136  47.3411609
  42.1410162  30.7447429  46.1743833  41.0794170  30.6915496  48.2262534
  41.0345064  30.1794252  49.0956273  40.1083733  31.7873433  48.0061252
  39.7603862  31.8106934  46.9734302  38.9004699  31.5287361  48.9549443
  39.2976325  31.3090761  49.9459599  37.9306715  32.7376635  49.0428279
  37.5327171  32.9576451  48.0522013  37.1097751  32.4972356  49.7184196
  38.4675905  33.6081900  49.4196580  38.1161014  30.3120297  48.4615454
  37.7298576  30.5669515  47.4746657  38.8305392  29.4937801  48.3712919
  36.9670597  29.8841692  49.3599800  36.2519277  30.7018002  49.4503436
  36.4715131  29.0148306  48.9277959  37.3526094  29.6286309  50.3469711
  40.7747535  33.1050016  48.3488541  41.6077715  33.1064617  49.2097483
  40.4064277  34.1224865  47.5461078  39.8233445  33.8910304  46.7545642
  40.8864545  35.4655084  47.6655744  41.9744020  35.5160162  47.6217738
  40.2911093  36.2537940  46.4212243  40.5705834  35.7440910  45.4991634
  39.2046088  36.2919080  46.4997355  40.8524808  37.6805319  46.4064609
  40.3621868  38.2936261  45.6502677  40.6803866  38.1133533  47.3919295
  42.3632271  37.6314740  46.1253702  43.1637652  37.4863582  47.0499475
  42.7897193  37.6998480  44.8831950  40.5537341  36.0521394  49.0471536
  39.4175684  36.0899753  49.5442592  41.6249062  36.6336514  49.6544469
  42.4897861  36.4593868  49.1628028  41.6900221  37.3293239  50.9929314
  41.0242612  36.8258072  51.6938825  43.1087894  37.3091935  51.5656715
  43.6707231  37.9750506  50.9107181  43.0065151  37.7686233  52.5488115
  43.8912353  35.9099203  51.7066035  44.5963960  35.8982937  52.5376956
  43.0857334  35.2026877  51.9043177  44.6153611  35.4786629  50.4531252
  44.2084729  35.4530352  49.3104025  45.8820414  35.2003974  50.5691008
  46.4079588  34.9076674  49.7580389  46.3327368  35.2785860  51.4695793
  41.0972035  38.7436201  51.0391620  41.2094511  39.4524889  50.0597486
  40.3714147  39.1268831  52.1043353  40.2893177  38.4224068  52.8234130
  39.5809566  40.3519694  52.2393032  40.0622174  41.1789839  51.7172550
  38.1886858  40.1176285  51.6146375  38.2599963  39.6526859  50.6313560
  37.5540858  39.5088505  52.2586656  37.6197189  41.4273134  51.4835870
  36.7435260  41.3583647  51.0974109  39.5809804  40.8552214  53.6857846
  40.4041422  40.3553266  54.4957277  38.7929325  41.8396612  54.0864316
  38.1257314  42.1995544  53.4190346  38.8381591  42.4404159  55.4057323
  39.8230997  42.8568657  55.6168263  37.8070078  43.5806105  55.4306585
  36.8479880  43.2249099  55.0540192  37.6827387  43.9493366  56.4488424
  38.3188004  44.7167671  54.5342866  39.3549580  44.9404121  54.7881788
  38.2592412  44.4098554  53.4900836  37.4844238  45.9308556  54.7423587
  37.0146517  45.8422549  55.7219316  38.1518194  46.7926270  54.7366520
  36.4384662  46.1402693  53.7371525  36.4623385  45.4816748  52.9717881
  35.5422647  47.1150663  53.7044316  35.5251771  48.0622265  54.6076683
  36.2079848  48.0584902  55.3518859  34.8292632  48.7924011  54.5562040
  34.5654833  47.1514406  52.7999179  34.4931657  46.4178444  52.1094783
  33.9014953  47.9124561  52.8085252  38.5288055  41.4691488  56.5398917
  39.1094594  41.5654401  57.6308345  37.5659839  40.5514343  56.3204568
  37.1221450  40.7562062  55.4366159  36.9958897  39.4942056  57.1538025
  36.7071207  39.9232291  58.1133079  35.8221517  38.8712413  56.5491434
  35.3635609  38.2835211  57.3443659  35.1619352  39.6959203  56.2805942
  36.0506645  37.9822946  55.3255513  36.9324174  38.4116785  54.8499021
  36.3042401  37.0109714  55.7502075  34.9576044  37.8121028  54.2980955
  34.0307580  37.5110649  54.7863894  34.7987372  38.7490804  53.7643037
  35.3298451  36.7942801  53.3449388  36.2877891  36.5160606  53.5031685
  34.5950836  36.0851139  52.4900220  33.3161133  36.1257963  52.2404604
  32.7276775  36.7771030  52.7401031  32.9197227  35.5058146  51.5486535
  35.2955598  35.3931098  51.6400047  36.3043439  35.4297471  51.6733567
  34.8273694  34.8224195  50.9506506  38.1043736  38.5317947  57.5446474
  38.0511438  37.9614789  58.5660251  39.2340915  38.4687366  56.8152763
  39.3565163  39.1085355  56.0434157  40.3422688  37.4592699  57.1009563
  39.9818217  36.5720079  57.6214785  40.8387125  37.0456124  55.7184582
  41.1670021  37.9648876  55.2334238  41.6949289  36.3873551  55.8657363
  39.8484813  36.3759166  54.8744199  39.2886960  35.3775084  55.3727866
  39.5977158  36.7834900  53.7047628  41.4533494  38.0818394  57.9311545
  42.0434352  37.3661825  58.7595197  41.5933662  39.4240816  57.8825418
  41.2750418  39.9641804  57.0906693  42.2558767  40.0968227  58.9259738
  43.2508139  39.6797715  59.0817541  42.3975710  41.5676723  58.5490361
  41.4682624  42.0554589  58.2548440  42.7328870  41.9718309  59.5041901
  43.4948995  41.8295806  57.4558206  44.1488662  40.8256864  56.9133540
  43.6113265  42.9696818  56.9825238  41.5941203  40.0108798  60.3703447
  42.2897706  39.7513324  61.3665319  40.3063587  40.1448630  60.5280517
  39.7957315  40.4299269  59.7045848  39.5879724  40.0027972  61.7553852
  39.9837971  40.6564210  62.5326869  38.1163886  40.4174072  61.4582086
  37.6989544  39.6807731  60.7717553  37.5689520  40.3866061  62.4002619
  37.9923352  41.8421281  60.8307988  38.6625170  41.8663424  59.9715137
  36.9621274  41.9468290  60.4904875  38.3922342  43.2044642  61.9297629
  37.0262157  42.9991581  63.0532921  37.0737699  42.0091403  63.5068365
  37.0794418  43.7585575  63.8334076  36.0880230  43.1039179  62.5083875
  39.7839908  38.5433935  62.2273340  40.2863019  38.3226893  63.3788344
  39.6287636  37.5845694  61.3377206  39.2834248  37.7948842  60.4121893
  39.7996344  36.1581635  61.7187643  39.2434837  35.8903105  62.6171241
  39.2169143  35.3806730  60.5313356  38.1290813  35.3595622  60.5967037
  39.5150223  35.8514158  59.5945149  39.7635455  33.9360461  60.5782863
  40.8485408  33.9981988  60.4944826  39.4982755  33.5066529  61.5443880
  39.2086128  33.0370464  59.4437004  38.0972195  33.2324442  58.9720622
  39.9485869  32.0868399  59.0317841  41.2744288  35.7794426  62.1351367
  41.4211907  34.9223233  63.0345389  42.2951128  36.2866642  61.4088886
  42.0739867  36.7945650  60.5643536  43.6727702  36.0765462  61.7330251
  43.8507453  35.0062029  61.8368963  44.6073133  36.6226444  60.6686892
  44.5545988  37.7104442  60.7135429  45.6166258  36.2975976  60.9211431
  44.2783579  36.1788404  59.3311843  44.9021375  36.5559312  58.7064433
  44.1877361  36.5887996  62.9956382  44.6688502  35.8159445  63.8468620
  43.7498121  37.8003282  63.3002907  43.3195681  38.3466716  62.5678302
  43.9457308  38.4054033  64.5577027  44.9982652  38.4249361  64.8403494
  43.4560428  39.8291105  64.4197418  44.1732944  40.2485110  63.7142260
  42.4563794  39.8678028  63.9869876  43.4831155  40.6778923  65.7748475
  42.8266529  40.1667505  66.4790434  44.8439399  40.8426765  66.3886513
  45.5008798  41.3541904  65.6851726  44.7620931  41.4313072  67.3023886
  45.2578566  39.8622915  66.6244875  42.7961325  42.0764696  65.5687747
  41.7593634  41.9313821  65.2651981  42.8255602  42.6374624  66.5028638
  43.3263802  42.6318432  64.7951491  43.3060183  37.6765924  65.7103790
  43.8873830  37.7424510  66.8223537  42.1656427  36.9676047  65.4762208
  41.6894301  37.1367329  64.6017401  41.5887141  35.9807571  66.4065499
  41.2783354  36.5147979  67.3046393  40.7146077  35.5431255  65.9243508
  42.5758091  34.8331672  66.8112681  42.8455336  34.6715616  67.9754096
  43.3080212  34.2333415  65.8299117  43.2821216  34.4958646  64.8549706
  44.2117939  33.1068107  66.2399131  43.6898054  32.4263113  66.9126298
  44.6348278  32.3454602  65.0233023  45.4072187  32.9562089  64.5558650
  45.0832467  31.4348018  65.4204442  43.5883615  31.9842347  63.9955230
  42.4349141  31.3092860  64.4052992  42.2846888  31.1048710  65.4653682
  41.4455674  30.8828971  63.4387741  40.7048500  30.1664812  63.7940032
  41.4824575  31.2350697  62.0972129  40.4557012  30.8506105  61.3809086
  39.8022840  30.3668129  61.8913843  42.5567937  32.0848847  61.7384971
  42.5303761  32.5865671  60.7711723  43.6785580  32.2931044  62.6324840
  44.6147410  32.6971906  62.2472883  45.4345828  33.6343167  66.9349144
  45.9084180  33.0090574  67.8573596  45.9247951  34.7850222  66.5243323
  45.6356718  35.1627983  65.6333820  46.9314594  35.5278417  67.3052131
  47.8545086  34.9651128  67.4445525  47.2629664  36.8452638  66.5787999
  46.3385918  37.3917173  66.3916654  48.2274507  37.7300698  67.4630959
  49.1522956  37.1844269  67.6502767  48.4536179  38.6580179  66.9378709
  47.7429322  37.9591974  68.4122240  47.9244173  36.5643201  65.1391290
  47.2285440  35.9937018  64.5241029  48.1475635  37.5124864  64.6499603
  48.8458564  35.9961828  65.2666869  46.4732939  35.8297634  68.7428827
  47.2432307  35.6482775  69.7140516  45.3259806  36.4418316  68.9426970
  44.7383816  36.7310077  68.1737992  44.9070042  36.8214133  70.3502482
  45.7222976  37.2995748  70.8931640  43.7433345  37.8258704  70.2235163
  43.0697585  37.3399358  69.5176394  43.2656051  37.8809800  71.2016970
  44.0640573  39.2422424  69.7311749  44.6087898  39.2372964  68.7870653
  42.6781248  39.8819945  69.5207618  42.1329395  39.8877180  70.4646045
  42.7998725  40.9053894  69.1658799  42.1197862  39.3060666  68.7827473
  44.9656776  40.1549200  70.6696216  45.9328297  39.6760096  70.8224648
  45.1125476  41.1271721  70.1992426  44.4708129  40.2883282  71.6316040
  44.5395236  35.5068300  71.1989023  44.7409985  35.4220199  72.3984477
  44.1887528  34.3705577  70.5303225  43.7464515  34.4520681  69.6259857
  44.2865973  33.0438693  71.1370508  43.7644028  32.9985479  72.0927485
  43.6032919  32.0485656  70.1475993  44.0321609  32.1990048  69.1568730
  43.8115821  31.0324643  70.4826419  42.0851454  32.2654268  70.0858296
  41.6690854  32.1765991  71.0893755  41.8809034  33.2623695  69.6953266
  41.3250225  31.0585017  69.0303065  39.7690882  30.8062404  69.6905894
  39.2163773  31.7457118  69.6887979  39.2344182  30.0695889  69.0909451
  39.8626596  30.4422946  70.7137654  45.6707408  32.5985864  71.5652517
  45.8989597  32.4650706  72.7602679  46.6228797  32.5926835  70.6144376
  46.3710143  32.7336756  69.6465614  48.0184847  32.3293344  70.9329766
  48.1957033  31.2862845  71.1951591  48.7904148  32.6495666  69.6407908
  48.5577089  31.7793283  69.0270868  48.4283116  33.5503281  69.1452002
  50.2804906  32.7458381  69.8297215  51.0809315  31.6095619  69.8288658
  50.6395423  30.6170397  69.7384520  52.4919416  31.7527343  69.9478329
  53.1603678  30.8917460  69.9451213  53.0321509  33.0891168  70.0997339
  54.4420054  33.1586974  70.0569577  54.8562264  32.3017731  69.9316528
  52.2689448  34.2272610  70.2522342  52.6609311  35.2295216  70.4252109
  50.8434443  34.0144256  70.1667051  50.1567277  34.8379357  70.3625404
  48.4703429  33.1538637  72.1131565  49.2558716  32.5937723  72.9450569
  48.1426226  34.4638388  72.3008756  47.7264069  34.9486181  71.5186653
  48.5569706  35.2562338  73.4748616  49.5895957  34.9869221  73.6967979
  48.4747693  36.7252501  73.3177020  47.4636487  36.9873706  73.0062103
  48.6741026  37.1530381  74.3002312  49.4111270  37.4033702  72.3549972
  50.7623172  37.4208303  72.6874848  51.1122572  36.9522739  73.6073200
  51.6908610  38.0578157  71.8145345  52.7278025  38.1593933  72.1347454
  51.2937815  38.5476060  70.5690450  52.0181223  38.8565120  69.8153823
  49.9493362  38.6349075  70.3054234  49.6165286  39.2126512  69.4431291
  48.9913585  37.9827810  71.1413413  47.9453869  37.9365489  70.8381814
  47.9477551  34.8702392  74.8824434  48.5577156  35.1417225  75.8773294
  46.7271850  34.2879797  74.8092163  46.1867753  34.5357471  73.9927189
  46.0688332  33.5477489  75.8726335  46.2547578  34.0347129  76.8299199
  44.5450049  33.4940316  75.6343985  44.1756623  34.5170261  75.5625128
  44.4009152  32.9883383  74.6796145  43.7434385  32.7620625  76.6972563
  43.9204637  33.0667206  77.8757844  42.8595651  31.8370944  76.3733199
  42.3389803  31.3644517  77.0983717  42.7078153  31.6061449  75.4018596
  46.7148438  32.1732571  76.2017151  46.9677238  31.8354396  77.3954479
  47.1020996  31.4221766  75.1491392  46.7096353  31.6269371  74.2413153
  47.9579337  30.2227197  75.2893005  48.9159816  30.6031037  75.6436331
  47.5225020  29.0726384  76.1981274  48.3273551  28.3406236  76.1313064
  47.5018732  29.4986363  77.2012227  46.1495156  28.3695582  75.8997876
  45.3488902  29.0495798  76.1907695  46.0912906  28.1779278  74.8283448
  46.0008355  27.0515918  76.6619784  44.9770366  26.6875477  76.5759158
  46.6856976  26.3084126  76.2536305  46.3138897  27.2486324  78.0898989
  47.2819782  27.1887697  78.3715377  45.4192471  27.4572410  78.9984924
  44.1184685  27.5911043  78.8885400  43.6829421  27.5326036  77.9791476
  43.5588924  27.7520129  79.7138174  45.8477011  27.5899753  80.2026081
  46.8377621  27.5287935  80.3927033  45.1923789  27.7548565  80.9532517
  48.2907397  29.6478010  73.9032697  47.5520114  29.7675880  72.9280663
  49.4384688  28.9580626  73.8549386  49.8533334  28.8145492  74.7645487
  50.1412364  28.4426931  72.6852575  50.0100131  29.1333146  71.8522379
  51.6321932  28.3265821  72.9924841  52.1329222  28.1129338  72.0481722
  52.2439728  29.5526191  73.6187590  51.7440347  29.7666402  74.5634052
  53.3042896  29.3775723  73.8009293  52.1268518  30.4019606  72.9457047
  51.8192111  27.2823712  73.9027114  52.7538088  27.1979108  74.1051807
  49.6822386  27.0740029  72.1587861  50.2666292  26.5206182  71.1700794
  48.6534530  26.4747557  72.6919549  48.3241886  26.8893164  73.5520850
  48.0906553  25.2006861  72.2823703  48.7971029  24.6660155  71.6474227
  47.7989571  24.3582364  73.4911645  47.3335072  23.4373366  73.1398824
  48.7539616  24.1253282  73.9621423  46.9416705  24.9921099  74.4417618
  46.7969112  24.4023551  75.1852898  46.9556766  25.3916311  71.3245788
  45.8013743  24.9172124  71.4844631  47.3389887  25.9819293  70.1253516
  48.1947540  26.5154623  70.0696065  46.4297682  25.9814488  68.9470347
  45.4202707  26.2053590  69.2918219  46.8146458  26.9906833  67.8960233
  47.7915362  26.5985382  67.6131690  46.0954968  26.7782533  67.1049491
  46.9131238  28.5045440  68.1027056  47.1647616  28.9681148  67.1488286
  45.5653946  29.0991614  68.6319421  45.3133171  28.6363764  69.5860835
  45.6709193  30.1755492  68.7674211  44.7720926  28.9002206  67.9113903
  48.0304200  28.8507823  69.0881468  48.9825515  28.4882152  68.7007322
  48.0793973  29.9319764  69.2174599  47.8266940  28.3792553  70.0495297
  46.2141567  24.6093458  68.2852990  47.2593510  23.8972381  68.1220061
  45.0686327  24.2285543  67.6880063  43.7108665  24.8560806  67.6905984
  43.7828941  25.7460017  67.0653362  43.5109432  25.1515373  68.7205669
  42.6885861  23.8506061  67.1643202  42.5479962  23.9109631  66.0851119
  41.7214765  23.9281938  67.6610904  43.4078318  22.5543168  67.5644298
  43.0938099  21.6216661  67.0957594  43.2714938  22.4820263  68.6434505
  44.9128755  22.8361186  67.2336063  45.4122947  22.2268439  67.9869077
  45.4560311  22.4873676  65.8608114  44.7884819  21.9035255  65.0570157
  46.7051912  22.8042636  65.6358225  47.0592919  23.4099466  66.3623623
  47.5990424  22.4861362  64.4797295  47.4756054  21.4564036  64.1442994
  47.1812182  23.4345919  63.3295327  47.8451096  23.3145129  62.4734203
  46.1737844  23.1227561  63.0539684  47.1095532  24.9559720  63.6257350
  48.1684342  25.7771736  63.4958236  49.0961079  25.4212921  63.0476388
  47.7781698  27.0045673  64.0194735  48.4218399  27.7810747  64.0726195
  46.4263674  27.0570087  64.3235285  45.5518102  28.0850938  64.7349088
  45.9822499  29.0752927  64.8843291  44.1664725  27.7757116  64.9307738
  43.4966330  28.5082302  65.3811420  43.6472786  26.5186509  64.5440890
  42.5903955  26.2523520  64.5305746  44.5842580  25.5375073  64.1453173
  44.1382522  24.5539614  63.9976115  45.9714720  25.7843545  64.0042050
  49.0716517  22.5727037  64.7674669  49.8659604  22.3119512  63.9062034
  49.4688540  22.9421139  65.9770464  48.8815429  23.5467332  66.5334638
  50.8283829  22.6578734  66.4564769  51.5489301  23.0146970  65.7205504
  51.1097026  23.3328816  67.7712564  50.4032620  22.8740743  68.4630199
  52.1217459  23.0156044  68.0226597  51.0097014  24.8869689  67.8804820
  49.9728704  25.0212890  67.5721958  51.1424785  25.2805935  68.8882181
  51.9225147  25.6853813  66.9119080  51.5919937  26.1880718  65.8977462
  53.2314505  25.6466334  67.1480409  53.8654834  26.1506628  66.5446686
  53.5849416  25.1133726  67.9295639  51.2591140  21.1296383  66.4995746
  50.4569212  20.2066166  66.6639511  52.5811906  20.9222032  66.4397313
  53.1382469  21.7415182  66.2434905  53.2379617  19.7025391  66.6206184
  54.3021858  19.9380833  66.6273410  52.9383737  19.3490136  67.6072116
  52.9774959  18.5886046  65.5884302  53.0801383  17.3858355  65.8853344
  52.6598934  18.8841585  64.3053957  52.6950930  19.8644197  64.0646712
  52.2439722  17.9144881  63.2559888  51.6329636  17.1217579  63.6876676
  51.4117560  18.6537514  62.1946222  51.9964670  19.4177851  61.6823091
  51.1236325  17.8797007  61.4833344  50.1481063  19.2930214  62.7962311
  50.3877947  19.8572705  63.6974932  49.5874524  20.2526244  61.7218130
  49.3470812  19.6889872  60.8203511  48.6857878  20.7347851  62.0994673
  50.3335933  21.0117080  61.4869382  48.9909766  18.2364824  63.0733414
  49.3472274  17.4823992  63.7751557  48.1261381  18.7468509  63.4972277
  48.7057980  17.7554330  62.1377327  53.4578120  17.2516336  62.6037267
  54.4889644  17.8062403  62.2532698  53.2289316  15.9524461  62.4687351
  52.3272988  15.5916706  62.7462215  54.1987623  15.0194594  61.8538252
  55.1796562  15.0609254  62.3273514  53.5998130  13.6308896  62.0902644
  53.2603065  13.5558459  63.1233196  52.7538625  13.4840534  61.4187683
  54.6621482  12.5509477  61.8201155  54.8908042  12.5901741  60.7550903
  55.5480829  12.8273056  62.3918218  54.2321014  11.1238063  62.1995797
  54.0248691  11.0432634  63.2666630  53.3536470  10.8116305  61.6348111
  55.4480941  10.1978077  61.8308517  56.3549665  10.6224425  62.2613958
  55.2751637   9.2078432  62.2529472  55.6039230  10.0876257  60.3630413
  55.7646025  11.0047894  59.9717710  56.3896262   9.4891362  60.1518997
  54.7638648   9.6937731  59.9639406  54.2630963  15.2726811  60.3319738
  53.3996916  14.8526459  59.6045058  55.3394930  16.0391899  59.9619084
  55.9261113  16.3574150  60.7200055  55.7530817  16.3679646  58.5541224
  55.4962742  15.6097162  57.8143870  55.1038821  17.6782660  58.1506672
  55.3593853  18.4497504  58.8770487  55.4636274  17.9743178  57.1652551
  54.0214888  17.5535854  58.1193840  57.3203603  16.5981777  58.5321992
  57.9054767  17.1680592  59.4383029  58.0206528  16.1743775  57.4733240
  57.5768726  15.8220134  56.6372630  59.4734336  16.0051386  57.6151027
  59.5932009  15.6651151  58.6437616  59.8358607  14.8612442  56.6795985
  59.7295935  15.1892615  55.6455714  60.8669025  14.5568079  56.8595197
  59.1710945  14.0170235  56.8625642  60.3772990  17.2617067  57.4930169
  61.5629910  17.3287566  57.8764175  59.7996810  18.4105578  56.9959300
  58.8382659  18.3142951  56.7017977  60.4940756  19.7288334  56.7524970
  61.3637654  19.8284120  57.4019761  60.9686342  19.8204047  55.2634017
  61.5283852  20.7533167  55.1966618  61.8030365  18.7004221  54.7332425
  61.2437386  17.7671852  54.7992305  62.0578607  18.8978400  53.6919981
  62.7171953  18.6178855  55.3211217  59.8041802  19.8942255  54.4425707
  60.0656649  19.9514479  53.5206424  59.5161417  20.8738804  57.1966825
  58.2994473  20.7469439  57.1836958  60.1589830  22.0158037  57.4236654
  61.1640285  22.1069483  57.4645994  59.3237210  23.2151673  57.7482038
  58.7199944  23.0396600  58.6386029  60.2874816  24.4243277  58.0254951
  60.9904193  24.1324808  58.8057535  60.8342584  24.6460591  57.1089961
  59.5108688  25.6780576  58.4764517  60.2036388  26.5001400  58.2965875
  58.6796216  25.7439061  57.7744587  58.9806696  25.7645443  59.8987603
  58.4999986  26.7293419  60.0606866  58.2610559  24.9659049  60.0788452
  60.1943451  25.6102996  60.8899270  60.5792437  24.5924657  60.8269380
  60.9780602  26.3127568  60.6063009  59.7697361  25.8832651  62.2507102
  59.0438302  25.2321837  62.5138703  60.5564736  25.7810433  62.8757661
  59.4134418  26.8265097  62.3093885  58.2733715  23.5229015  56.6219571
  57.1293537  23.7130990  56.9426815  58.6025794  23.3914276  55.3144163
  59.5852937  23.3583440  55.0835973  57.6611008  23.4840537  54.2488051
  57.0351183  24.3703682  54.3522062  58.4439050  23.5907645  52.9487849
  59.1933155  24.3660717  53.1081019  58.9395487  22.6295499  52.8127558
  57.6399749  23.9166031  51.7237267  58.3439637  24.0735364  50.9064920
  57.0172804  23.0492132  51.5046642  56.7504368  25.1590378  51.8783975
  56.0517311  25.0305658  52.7050801  57.3580825  26.0472150  52.0516245
  55.9704191  25.3220063  50.5725772  56.5629066  25.9273397  49.8865520
  55.8084352  24.3353570  50.1385456  54.6039370  26.0084196  50.8177664
  54.7538273  26.9228609  51.2195497  54.1122842  26.1025679  49.9405472
  54.0546010  25.4474488  51.4530936  56.5957550  22.4012790  54.2800670
  55.4265800  22.8184259  54.1180295  56.8341922  21.1093927  54.3624114
  57.7926388  20.8604534  54.1636437  55.8602429  20.0310505  54.5443453
  55.1060062  20.0710239  53.7584520  56.5637276  18.6792005  54.4765163
  57.4001901  18.7027047  55.1749985  55.8511774  17.9159696  54.7893273
  57.0794520  18.3507240  53.0752174  56.2061612  17.9146395  52.5901459
  57.3978889  19.2346223  52.5225657  58.1712153  17.3639371  53.0536447
  58.1768310  16.3231965  53.6727703  59.2966883  17.6606566  52.4124270
  60.0531665  16.9918070  52.3904629  59.3904453  18.5536610  51.9499834
  54.9903737  20.2078435  55.7965185  53.7800133  19.9295022  55.8532276
  55.4340041  20.7585027  56.8903647  56.4281694  20.9322665  56.8511101
  54.7288409  21.0937243  58.1024721  54.0387590  20.2908499  58.3618535
  55.7032253  21.2849531  59.2494876  56.3944787  20.4458659  59.1707431
  56.2288884  22.2111171  59.0171119  55.1574140  21.3558861  60.6528135
  54.7417351  22.3471704  60.8335544  54.3762639  20.6062985  60.7794030
  56.2833170  21.0886452  61.6453405  56.6341489  20.0628913  61.5320047
  57.1072902  21.7768371  61.4567682  55.7435909  21.3024426  63.1216234
  55.4084938  22.3342243  63.2276279  54.9032380  20.6289444  63.2898683
  56.8168517  21.0211116  64.1261617  57.5954583  21.6453756  63.9707071
  56.4521080  21.1631626  65.0572275  57.1272006  20.0649615  64.0283886
  53.9007793  22.3534240  57.8931118  52.7217523  22.2318876  58.1751794
  54.3694552  23.3848393  57.2909154  55.3718073  23.5043936  57.2578036
  53.4862260  24.5027689  56.7304116  52.9865958  25.0753675  57.5118204
  54.4523697  25.4210540  55.9971531  55.0899608  25.8149787  56.7886076
  55.0463221  24.7965668  55.3298179  53.8616219  26.5544035  55.2236095
  53.0283707  26.3071228  54.0758266  52.9017071  25.2792422  53.7359484
  52.3972564  27.3362575  53.4096506  51.7036975  27.1525469  52.5890847
  52.7728335  28.6632155  53.7364387  52.2679891  29.7815814  53.1605440
  51.6100289  29.5926167  52.4875058  53.6628423  28.9429811  54.8249907
  53.9712284  29.9564639  55.0816053  54.1241876  27.8897291  55.5468784
  54.7356167  28.0620994  56.4326228  52.3327418  23.9682146  55.8858870
  51.1344703  24.3628112  56.1076188  52.6175159  22.9883395  54.9399110
  53.5647480  22.6566286  54.8266922  51.5712495  22.3762125  54.1346141
  51.0643953  23.1697816  53.5855730  52.0807619  21.3214814  53.1220331
  52.6855099  20.6399875  53.7203185  51.1793654  20.8080815  52.7873620
  52.8824363  21.7811535  51.9106481  53.8128182  22.1053882  52.3768692
  53.0933194  20.9883983  51.1928969  52.2231290  22.9864095  51.1742405
  51.0090594  22.9747779  50.8711799  52.9831747  23.8660534  50.7805869
  50.6115576  21.6169378  55.0603670  49.3955435  21.7581376  54.8916001
  51.0580199  20.8030176  55.9927014  52.0530392  20.6301392  55.9804990
  50.2247513  20.0386451  56.9474574  49.4227669  19.5336750  56.4090100
  51.0799814  18.9596879  57.7007128  51.7290564  18.4556086  56.9846787
  51.6892486  19.4527614  58.4581902  50.1821159  17.9503532  58.3594929
  49.7976209  18.4417861  59.2532256  49.3654399  17.7843580  57.6569347
  50.7956575  16.6252758  58.7391115  51.7968384  16.8406759  59.1123925
  50.1866955  16.2196621  59.5470361  50.8860128  15.5772735  57.5764606
  49.9151519  15.5896778  57.0811065  51.6476668  15.9495675  56.8913478
  51.2291092  14.1437957  57.9902809  50.5232355  13.7984794  58.6247875
  51.2615364  13.5552512  57.1701200  52.1288899  14.1320172  58.4489257
  49.4373050  20.9378718  57.9465418  48.2813793  20.6640857  58.2602374
  50.0069433  22.1388272  58.3530394  50.9644121  22.3243156  58.0904618
  49.2967005  23.1446467  59.2234165  48.9310185  22.6415586  60.1185580
  50.2448133  24.2682410  59.6241444  50.7721572  24.6073742  58.7325181
  49.4911450  25.4496718  60.2532790  48.9638929  25.1113928  61.1452841
  50.2011157  26.2305768  60.5257301  48.7728694  25.8465686  59.5358862
  51.3607062  23.9419659  60.6664786  50.8705861  23.9710458  61.6396371
  51.6756179  22.9213182  60.4492040  52.5933597  24.8666141  60.6847054
  52.2792724  25.8874283  60.9023919  53.2896287  24.5296694  61.4526747
  53.0843030  24.8377022  59.7119574  48.0982950  23.6437492  58.4578644
  46.9841051  23.6666346  58.9178546  48.2969969  24.0230492  57.1508001
  49.2540071  24.1287383  56.8457417  47.1879154  24.3659681  56.1728288
  46.7165462  25.3122068  56.4384276  47.7991686  24.4989383  54.7719189
  48.7208101  25.0782939  54.8269041  48.0162764  23.5090559  54.3705500
  46.8764587  25.1596151  53.9245945  47.2537386  25.2457202  53.0460471
  45.9952107  23.3381862  56.1558362  44.8118846  23.7463017  56.2440470
  46.4092230  22.0819750  55.8535696  47.3325449  21.9591398  55.4630730
  45.4964845  20.8334538  55.9921635  44.6998153  20.8461783  55.2483520
  46.3824738  19.5581754  55.7568534  47.0241045  19.7150302  54.8897861
  46.9995907  19.3756818  56.6366050  45.4777172  18.3494891  55.5093496
  45.8939171  17.4537365  55.9703331  44.5686550  18.6396908  56.0361209
  45.1482316  18.0624364  54.0466897  46.0339488  17.5712562  53.2984197
  43.9583374  18.2148907  53.6245435  44.7101188  20.6615560  57.2859413
  43.4720741  20.4455956  57.2661049  45.4610953  20.7267824  58.3566069
  46.4688263  20.6624998  58.3355043  44.7811088  20.6520506  59.6677113
  44.0000904  19.8922823  59.6383596  45.7715204  20.2856002  60.7508669
  46.2973356  19.3791808  60.4508311  46.4868656  21.1007555  60.8599688
  45.0681826  20.0474764  62.0786662  45.8317516  20.0314983  62.8563603
  44.3946996  20.8874905  62.2486631  44.2785366  18.7495688  62.1177703
  43.7735407  18.5964965  61.1640161  44.9517869  17.9141793  62.3100146
  43.2584053  18.8327003  63.2161032  42.5522537  19.6205277  62.9538470
  42.7365651  17.8766108  63.2570301  43.8575568  19.1268429  64.5437814
  44.3407894  20.0129428  64.5061919  43.1274777  19.1707741  65.2403117
  44.5116070  18.3967215  64.7871742  43.8909657  21.9115431  59.9806908
  42.8264563  21.7146705  60.5272563  44.3192631  23.1291136  59.5907391
  45.2888950  23.2937386  59.3609304  43.4064167  24.3193415  59.7307070
  42.9699217  24.3544236  60.7288756  44.2246016  25.5946389  59.5093386
  44.8301693  25.4820076  58.6100604  43.5473416  26.4399162  59.3871697
  45.1543751  25.8475520  60.7324258  44.5518110  26.1370890  61.5933472
  45.7050430  24.9360888  60.9650233  46.1570655  26.9865917  60.3955733
  46.8956169  26.9412549  61.1959390  46.6174394  26.6724178  59.4588503
  45.6359601  28.4458978  60.2531765  46.4736432  29.1163410  60.0610995
  44.9287040  28.5026584  59.4257309  44.9415076  28.8588697  61.5429059
  45.5968116  28.8067568  62.3096918  44.6018735  29.8058926  61.4540450
  44.1649983  28.2380083  61.7208481  42.1293929  24.2417878  58.9456920
  41.0489257  24.6264234  59.3647482  42.3242054  23.8662179  57.6895028
  43.2493084  23.6604827  57.3402794  41.1383229  23.7213007  56.7323761
  40.6062959  24.6685128  56.6438560  41.6567417  23.3053319  55.3172627
  42.4354426  24.0126713  55.0319644  42.0872859  22.3078658  55.4055417
  40.5360440  23.2947006  54.2243118  39.9639477  24.2061498  54.3977101
  41.0663972  23.3742357  53.2753641  39.3866065  21.8645125  54.1553468
  40.5049308  20.5061632  53.6965088  41.2772439  20.3977199  54.4580017
  39.9380949  19.5782985  53.6199267  40.9707920  20.7270463  52.7361519
  40.1493826  22.6096114  57.2510744  38.9280257  22.7420974  57.1987786
  40.6784721  21.4264434  57.7436511  41.6596335  21.2244610  57.6147145
  39.8085269  20.3584067  58.2602041  38.8531835  20.3670316  57.7354720
  40.4742676  18.9916645  58.0448670  39.9061220  18.2334428  58.5837638
  40.4688410  18.7602672  56.9797258  41.8294039  19.0059424  58.5249564
  42.2285729  18.1446314  58.3821029  39.2650386  20.5315152  59.6983261
  38.5414891  19.7078514  60.1271969  39.5803983  21.5915736  60.4271844
  40.1324329  22.2962442  59.9594276  39.1496936  21.8473627  61.8042100
  38.8344330  20.8825589  62.2015306  40.3719118  22.3331038  62.6040701
  40.6970374  23.2640613  62.1396225  40.1200420  22.5706671  64.1180880
  39.7953093  21.6399757  64.5833425  41.0412487  22.9106886  64.5912293
  39.3465466  23.3283006  64.2437738  41.2663346  21.1976936  62.5399083
  42.0745804  21.3996940  63.0169145  38.1014898  22.9969391  61.7463400
  38.3976258  24.1387825  61.3828414  36.8070086  22.7521662  62.0651918
  36.2508810  21.4766101  62.2051054  36.6063532  21.0849410  63.1581715
  36.6514258  20.8712240  61.3919815  34.7287028  21.5926574  62.1496032
  34.2407237  20.8638497  62.7967623  34.3496627  21.4865001  61.1331581
  34.5181188  23.0677351  62.6793855  34.3436395  23.1548022  63.7518011
  33.6685875  23.4847371  62.1385477  35.8670557  23.8560251  62.2775175
  35.7732520  24.3203343  61.2958270  36.1790753  24.9133660  63.3046684
  36.8335852  24.6123130  64.3258706  35.5845531  26.1242453  63.1782414
  35.2498550  26.4709281  62.2906111  35.6462923  27.0850569  64.3471415
  36.6414186  27.3177017  64.7262181  34.9839193  28.3849755  63.8808479
  34.1576477  28.0385457  63.2600735  34.4612879  29.4293079  64.9004117
  35.2871378  29.7765701  65.5212836  34.0287947  30.2749838  64.3657322
  33.6999398  28.9716953  65.5321089  35.9499762  29.0811128  62.9333201
  36.1544885  28.4328709  62.0812290  35.5070662  30.0130925  62.5821160
  36.8813356  29.2967163  63.4569473  35.1486882  26.4654806  65.6632495
  35.8121956  26.4871624  66.7090956  34.0580637  25.6379152  65.5385910
  33.4875024  25.8059791  64.7223107  33.5143990  24.7884152  66.6044862
  33.1968663  25.4125240  67.4398067  32.2760827  23.9604449  66.0960622
  31.6170486  24.6865982  65.6201686  32.6716335  23.2803982  65.3416246
  31.4795419  23.1543535  67.1497757  30.7489570  22.4620686  66.7313402
  32.2565516  22.5923841  67.6679894  30.8158846  24.0505900  68.0932783
  29.8849076  24.7909883  67.6455851  31.0308713  24.0296623  69.3387307
  34.5397167  24.0268469  67.4134239  34.4992013  24.0107849  68.6425059
  35.4873810  23.3482579  66.7973149  35.4757918  23.4560447  65.7931501
  36.4760851  22.4309530  67.3898929  36.0794602  21.8192874  68.2002343
  37.0444153  21.4784786  66.2723356  37.3399629  22.1106820  65.4350366
  38.2561920  20.6135740  66.7213281  37.9612656  19.9807214  67.5583567
  38.5840269  19.9878047  65.8912452  39.0739010  21.2650705  67.0295582
  35.9629092  20.6237098  65.7694261  35.1718664  21.2460893  65.3510996
  36.3519377  19.9623730  64.9952232  35.5604120  20.0268247  66.5878545
  37.6130175  23.2371519  68.0998915  37.9172872  22.8962282  69.2374688
  38.1220670  24.3029352  67.3669518  37.8144101  24.3853988  66.4084914
  39.0735196  25.2928342  67.8787446  39.9920332  24.8076560  68.2089477
  39.4263487  26.3060064  66.7211153  40.0733745  25.7143195  66.0735325
  38.4857824  26.5071161  66.2082898  40.1137013  27.6252466  67.0576266
  39.5037860  28.1567203  67.7881332  41.4923527  27.3993671  67.6238058
  42.1030361  26.8683134  66.8936369  41.9536656  28.3600887  67.8525087
  41.4186752  26.8061323  68.5352577  40.2394894  28.5672762  65.8317835
  39.2461701  28.7984251  65.4470934  40.7362815  29.4900326  66.1314825
  40.8245361  28.0762990  65.0541199  38.5843785  26.1362564  69.0963854
  39.2514821  26.3676063  70.0800032  37.3678286  26.6453055  69.0184348
  36.8165167  26.5277189  68.1803847  36.8038227  27.4955161  70.1338886
  37.5115762  28.2499844  70.4773442  35.5513736  28.2259300  69.5093057
  34.8827306  27.5764052  68.9443869  34.9705930  28.8162108  70.2180811
  36.2263654  29.3904998  68.3291598  35.0554464  29.8809467  67.9325380
  36.4402734  26.7617463  71.4374199  36.2461961  27.4285362  72.4321069
  36.6167311  25.4685506  71.4403236  36.8363334  25.0044624  70.5705556
  36.4237003  24.6640270  72.6092765  35.4692563  24.8890236  73.0852097
  36.4213429  23.1850238  72.1758194  35.7605662  23.1131398  71.3119293
  37.4409364  22.9458426  71.8736251  35.9407383  22.1483308  73.3048269
  36.6870841  22.0950768  74.0974383  34.9891607  22.4754159  73.7238943
  35.7669597  20.7376963  72.6584319  35.2947829  20.0836157  73.3914575
  35.1158105  20.8393904  71.7902370  37.1237062  20.1264031  72.2182550
  37.4881638  20.5924000  71.3027672  37.8751473  20.2282742  73.0012350
  36.8686962  18.7300700  71.9770044  36.1727332  18.6354484  71.2512069
  37.7230983  18.2773127  71.6852720  36.5313783  18.2979852  72.8253077
  37.4652578  24.9687019  73.6474447  38.6613796  25.0024125  73.3907229
  37.0253766  25.2690446  74.8766672  36.0356930  25.1647393  75.0491379
  37.9042912  25.7488294  76.0105321  37.2909888  25.8088525  76.9096186
  38.6943231  25.0126339  76.1587382  38.5310005  27.0961145  75.7531656
  39.5639269  27.4194303  76.2714309  37.8316444  27.9246450  75.0206418
  37.2818547  27.5424885  74.2644758  37.8774901  29.3742316  75.1785115
  38.4918544  29.6845783  76.0236983  38.5157547  29.8761467  73.9093442
  37.9277523  29.7290736  73.0034072  38.5889362  30.9420228  74.1253362
  39.8574267  29.4209190  73.6108194  41.0039424  29.8448956  74.3792583
  40.8676608  30.5734042  75.1785095  42.2936806  29.3265176  74.1056517
  43.1835215  29.6613746  74.6387133  42.4029859  28.3313755  73.0909762
  43.3753037  27.8922289  72.8677085  41.2956372  27.9273959  72.3992644
  41.4680612  27.2080976  71.5986521  40.0224698  28.3725626  72.6602807
  39.1723590  27.9250280  72.1453785  36.5062473  30.0663887  75.4760108
  35.4543930  29.3734557  75.2527724  36.4267288  31.1960750  76.0808039
  37.5662046  32.2062093  76.2682407  37.7301729  32.7703741  75.3501269
  38.4867274  31.6943565  76.5488533  37.0143011  33.0720371  77.3976099
  37.5163715  34.0364843  77.4741994  37.0424207  32.5705290  78.3649776
  35.5316446  33.2340570  76.8912213  35.4360354  33.9831306  76.1051891
  34.8893615  33.5038251  77.7295513  35.1442766  31.8941924  76.3642423
  34.6603935  31.3735251  77.1905963  34.1908470  31.9294996  75.1502912
  34.6716723  32.0730527  73.9631886  32.9041935  31.7245363  75.3848879
  32.6475915  31.3484653  76.2864562  31.8549304  31.7844898  74.3145839
  32.1119725  30.9620100  73.6470844  30.4988697  31.5407801  74.8673242
  30.2236122  32.3606687  75.5307367  29.7792595  31.4772950  74.0510944
  30.4966453  30.6051814  75.4265641  32.0360679  33.0940237  73.4200851
  31.6263200  33.0187112  72.2595793  32.5093532  34.2447304  73.9463665
  32.7585787  34.1733518  74.9225279  32.6753589  35.5292149  73.2844393
  31.7353641  35.8123532  72.8107921  33.0823559  36.6460207  74.2885854
  33.9375840  36.2585432  74.8422508  33.3967258  37.4968888  73.6841890
  31.9905313  37.0953045  75.2789389  32.4313360  37.8408291  75.9407434
  31.1679856  37.5449307  74.7227429  31.4435388  35.8795064  76.1416627
  32.3077622  35.3532325  76.8665934  30.2888706  35.4538769  76.1147382
  33.7597866  35.4128977  72.1997694  33.6100318  35.8946852  71.0550143
  34.8645376  34.5998827  72.4527849  35.1194212  34.3816658  73.4054208
  35.7516886  34.1506227  71.3756690  36.1531259  35.0255651  70.8643734
  36.9324550  33.2969365  71.8958128  36.5893387  33.3330902  72.9297680
  37.1332018  32.2627372  71.6161120  38.2815221  34.0337938  71.8539526
  38.7291176  34.7723495  72.9916076  38.1957243  34.6918575  73.9387678
  39.8660627  35.6091589  72.8885361  40.2805923  36.0717291  73.7842452
  40.4600811  35.8443492  71.6374027  41.3477590  36.4741096  71.5779912
  39.9428182  35.2996684  70.5160879  40.3287897  35.5808201  69.5362513
  38.8964840  34.3613593  70.6184783  38.5291746  33.8550627  69.7258152
  35.0251410  33.3772728  70.1961448  35.3712439  33.5606946  68.9797098
  34.1016557  32.4400005  70.5734135  33.9620830  32.2049776  71.5457216
  33.3759255  31.6804230  69.5703139  34.1385875  31.2161633  68.9450868
  32.4854122  30.5741160  70.1627967  31.7111102  31.0240622  70.7841700
  32.0198177  30.0099962  69.3546564  33.0936288  29.9035394  70.7698377
  32.5208271  32.6378425  68.6437593  32.5088349  32.4948459  67.4303075
  31.9192672  33.6542185  69.3018404  31.8570563  33.5850478  70.3075464
  31.1633185  34.7341999  68.6234992  30.5080866  34.3319317  67.8508734
  30.2841073  35.4462039  69.7035335  30.9837386  35.8592343  70.4301841
  29.7777607  36.2599091  69.1843063  29.2206535  34.5569016  70.4469287
  28.4686464  34.2466278  69.7214521  29.7283470  33.6770183  70.8420930
  28.3843044  35.4637938  71.8480228  27.8673594  34.0710862  72.9880770
  28.7497622  33.5185903  73.3108968  27.3588653  34.4838445  73.8593777
  27.1921169  33.3989995  72.4585034  31.9214801  35.7066835  67.7219852
  31.3955958  36.1792734  66.7403373  33.2305225  35.9364737  68.0140937
  33.4918603  35.6466428  68.9456515  34.2357601  36.6439282  67.1921158
  33.8960453  37.6454379  66.9281624  35.5130740  36.7649097  68.0275980
  35.2488252  37.2357512  68.9744771  35.8438724  35.7425724  68.2106247
  36.6222041  37.5406131  67.3752739  37.4744420  36.9642221  66.4174466
  37.3931301  35.9066340  66.1664583  38.3885524  37.7240406  65.8141531
  39.0802630  37.1949252  65.1586570  38.5482384  39.1109243  66.0388191
  39.3436767  39.8653579  65.3159684  39.7993534  39.3770853  64.6263683
  37.7136388  39.6783853  67.0577295  37.8216623  40.7350567  67.3024273
  36.7710960  38.8964269  67.7343131  36.1650028  39.3368382  68.5260131
  34.3974942  35.9234927  65.8485504  34.2379558  36.4345896  64.7472492
  34.7752783  34.6158019  65.9521944  34.8989692  34.2317201  66.8780891
  35.1573193  33.8113404  64.8242178  35.7822072  34.3796381  64.1352678
  35.9640964  32.6081427  65.3410930  35.4744159  32.2958871  66.2634860
  35.8485521  31.8292864  64.5873474  37.5243176  32.8535076  65.6210500
  37.6863702  33.7116900  66.2732485  37.9908110  31.6211113  66.3012149
  37.8294988  30.7624989  65.6494005  39.0533369  31.7103441  66.5274381
  37.4329744  31.4833435  67.2274647  38.3610217  33.0853049  64.3910381
  37.9958830  33.9663846  63.8633340  39.3999236  33.2411117  64.6817413
  38.2938763  32.2164738  63.7362687  33.9776228  33.4453693  63.9381889
  34.2395407  33.6172846  62.7082823  32.8132311  33.0640009  64.4478242
  32.8161134  32.9123615  65.4463714  31.5579651  32.8361830  63.7101933
  31.7137980  31.9841730  63.0484575  30.3453551  32.5561777  64.5862253
  30.2767890  33.0650717  65.5476955  29.4635675  32.7884740  63.9890745
  30.3829923  31.1066217  64.8238295  29.9692591  30.2844567  63.9983409
  30.9938050  30.7125751  65.8911051  31.0492791  29.7265266  66.1026014
  31.4131952  31.3922812  66.5093384  31.1531136  34.0552335  62.8186374
  30.7289476  33.8477914  61.6532431  31.2453214  35.2613983  63.3628739
  31.3827898  35.3257444  64.3614036  31.0991306  36.5227610  62.5885115
  30.1076101  36.5832223  62.1398126  31.2825955  37.7204039  63.5406886
  30.4166312  37.5535775  64.1812931  32.1907039  37.6889041  64.1427243
  31.1617337  39.1106033  62.8591301  29.8946805  39.7726380  62.6341495
  28.9921089  39.3811258  63.1033852  29.8236614  40.9087738  61.8199697
  28.8477050  41.3659788  61.6569524  30.8986860  41.4002984  61.2098151
  30.8437576  42.4998445  60.3264090  29.9561725  42.8487059  60.2164639
  32.1720471  40.8367188  61.4955971  33.0659866  41.3359692  61.1218035
  32.2900394  39.6492871  62.2507493  33.2599574  39.1625639  62.3530212
  32.0953722  36.6685528  61.3751985  31.6628651  36.9170330  60.2585821
  33.3850091  36.5652392  61.6300080  33.7057364  36.3418922  62.5613240
  34.3934157  36.8253854  60.5875051  34.2277753  37.8137291  60.1587405
  35.8205058  36.7744847  61.1724487  36.0858406  35.8181395  61.6231154
  36.6015504  37.0757412  60.4743700  35.8521136  37.9912964  62.5187552
  37.1202849  37.7853131  62.8625730  34.3046067  35.8219035  59.3851166
  34.5618896  36.1656621  58.2329944  33.8003855  34.5764092  59.6601560
  33.6043467  34.3844751  60.6321794  33.5866690  33.5227020  58.6983679
  34.4295210  33.4077001  58.0168444  33.4498237  32.2617137  59.5120798
  32.6765739  32.4460594  60.2578684  33.1178942  31.4777044  58.8314534
  34.7643521  31.8091648  60.2260060  35.3187656  32.7386205  60.3557698
  34.4195413  31.4537904  61.1970449  35.6575107  30.7774079  59.6049461
  36.4625830  30.5434226  60.3015152  35.0736930  29.8778663  59.4098018
  36.2448532  31.2365639  58.3474242  36.9649380  31.9198782  58.5335931
  35.9358190  30.9904317  57.1280506  34.9211243  30.1756409  56.9306358
  34.4324274  29.7816764  57.7218800  34.6359151  29.9481634  55.9888241
  36.6033597  31.3894191  56.1053095  37.4396803  31.9405053  56.2355857
  36.2886127  31.1500785  55.1759284  32.3753039  33.6849494  57.7469456
  32.4438392  33.1903564  56.6165919  31.2959939  34.2509826  58.3231724
  31.3420524  34.6121964  59.2652459  30.0189396  34.3586848  57.5951596
  29.9114556  33.4722188  56.9700801  29.2136086  34.3848287  58.3292289
  29.9273940  35.6150785  56.7045422  29.1697055  35.5843956  55.7244067
  30.6496190  36.6890491  56.9935062  31.2809041  36.5536815  57.7702006
  30.6024938  38.0580475  56.3328388  29.6275300  38.5322426  56.4454613
  31.6718075  38.9308677  57.0721515  31.5576071  38.8069122  58.1490417
  32.6367187  38.5304575  56.7611565  31.6001816  40.4068829  56.7224506
  31.7712425  40.5069345  55.6506163  30.2467418  41.0313382  57.0843278
  30.0751745  40.9320766  58.1561537  30.2491214  42.0871592  56.8135192
  29.4527660  40.5191656  56.5408373  32.5769511  41.2636580  57.4530379
  33.5908678  40.9336672  57.2268114  32.4550885  42.3011099  57.1416790
  32.4001733  41.1836019  58.5256234  30.8918668  37.9298201  54.8050672
  31.7738081  37.1171400  54.4135668  30.1442195  38.6803699  53.9702304
  29.3916614  39.1713946  54.4313708  30.2885932  38.8341869  52.5071441
  30.2235854  37.8523915  52.0381547  29.1763695  39.7517425  51.9018440
  28.2912728  39.1245155  51.7955923  28.9852845  40.5260225  52.6448628
  29.5089756  40.4180383  50.5304910  30.2817482  41.1681955  50.6983823
  29.8921159  39.6453404  49.8639750  28.2600117  41.0941626  49.8797261
  27.4275533  40.3947920  49.9571393  28.0336741  41.9925908  50.4539191
  28.4323830  41.4699994  48.4606096  29.3393001  41.8451790  48.2221959
  27.4979880  41.4273695  47.5202247  26.2526908  41.5334533  47.8798510
  26.0199912  41.6451077  48.8563161  25.5241289  41.5036843  47.1809870
  27.7457696  41.2085263  46.2638438  28.6967935  41.0589419  45.9584290
  26.9862151  41.1890056  45.5984157  31.7048741  39.4500856  52.1930371
  32.2526060  40.3227552  52.9518054  32.3710309  39.0122916  51.1272390
  31.8680919  38.3233609  50.5863820  33.7435789  39.3835837  50.6939343
  34.4986967  39.1192840  51.4342329  33.9990340  38.5569191  49.4096375
  34.0208474  37.5087358  49.7078577  33.1452004  38.7300704  48.7545903
  35.2623010  38.8002681  48.5610135  36.5528532  38.4665497  49.0345141
  36.6957361  38.0530396  50.0328596  37.6524174  38.6743414  48.2017355
  38.6323523  38.3381330  48.5405454  37.5174289  39.3052485  46.9430404
  38.4133276  39.5461731  46.3708334  36.2207226  39.6284574  46.4168362
  36.0240539  40.0495152  45.4308686  35.1512059  39.3570693  47.2931309
  34.1289326  39.5873919  46.9931164  34.0062354  40.8708439  50.4224757
  35.0856355  41.3176628  50.6845357  33.0417866  41.6929338  49.9239975
  32.1542650  41.2980633  49.6474436  33.2417526  43.1725432  49.7686826
  34.2447147  43.3739940  49.3924065  32.1701397  43.7748694  48.7265631
  31.1861388  43.5942073  49.1592323  32.3552792  44.8480949  48.6817273
  32.2213403  43.1858087  47.3051005  32.0786176  44.0010334  46.5957771
  33.2585330  42.8524146  47.2707658  31.2843621  42.0029081  46.9300589
  31.1877963  41.0619694  47.6804077  30.5508867  42.0550928  45.9087325
  33.0780728  43.9611038  51.0755713  33.6568901  45.0692421  51.2436601
  32.2166456  43.5015887  52.0238450  32.0078596  42.5134948  52.0104959
  31.5446304  44.3532987  53.0497401  31.1944512  45.3025508  52.6442846
  30.3293786  43.5323459  53.4935896  29.8131902  43.2158115  52.5872481
  30.7131256  42.6567316  54.0171714  29.3390945  44.2912132  54.4135406
  30.0056810  44.5800781  55.2261416  28.9175534  45.1855841  53.9547345
  28.1964505  43.4115474  54.9725286  27.9988042  42.2694611  54.6047395
  27.3945549  44.0224511  55.7094316  32.4347293  44.6809963  54.1956639
  33.3609482  43.9104946  54.5910202  32.3121977  45.9089549  54.7093229
  31.7512657  46.6373033  54.2910369  32.9950262  46.1973308  55.9612126
  34.0659144  46.1647882  55.7606170  32.6104201  47.6588921  56.4067119
  31.5424774  47.7051183  56.6199290  33.1711346  47.9256185  57.3025671
  32.8512003  48.3584781  55.6062723  32.6513076  45.2989773  57.2061269
  31.4842466  44.9095778  57.3814370  33.6196846  45.0035575  58.0453354
  35.0799941  45.0601679  57.7665569  35.4572213  46.0687769  57.9353994
  35.2786381  44.7663184  56.7358814  35.6333633  44.0423057  58.7854971
  36.6667776  44.2428123  59.0682533  35.5439123  43.0105915  58.4454005
  34.6775304  44.3194669  59.9384209  35.0210439  45.2501426  60.3900183
  34.6713279  43.5314297  60.6914537  33.3052978  44.5021870  59.3814647
  32.6798904  43.6170898  59.2649880  32.5585944  45.5554842  60.2713737
  32.5326488  46.7718459  60.0051914  31.8936423  45.0382507  61.3608994
  31.7507652  44.0415648  61.4402890  31.3647260  45.9158388  62.4421304
  31.2781293  46.9563246  62.1290979  29.9421042  45.3681135  62.7443131
  29.3203596  45.1280372  61.8818190  30.1884217  44.4515702  63.2803879
  29.1587363  46.3396044  63.7004297  29.7520285  47.3520866  64.1807402
  27.8893153  46.1468776  63.7815523  32.3583168  45.7413371  63.5977123
  32.1840006  45.0124232  64.5440851  33.4037187  46.5750966  63.5574146
  33.5184382  47.1362258  62.7255055  34.4447002  46.6813418  64.6386910
  34.9930456  45.7455958  64.7473007  35.3979448  47.7461602  64.2520758
  34.8797367  48.6980962  64.3677365  36.1608207  47.6521141  65.0249120
  36.0574413  47.6902963  62.8775528  37.2963202  46.9490889  62.7591314
  37.8045890  46.4762101  63.5994575  37.8558954  46.8560261  61.4326288
  38.8181656  46.3596302  61.3072137  37.1989856  47.4375322  60.3037173
  37.6653328  47.2849521  59.0234777  38.4644916  46.7551480  58.9760177
  36.0134493  48.1486811  60.5136813  35.5364214  48.6195308  59.6541202
  35.4276999  48.2672794  61.8071256  34.4916322  48.8112039  61.9337097
  33.8444127  46.9726992  66.0828997  34.4125013  46.4113138  67.0379551
  32.8210374  47.7718714  66.2256573  32.5471569  48.3800535  65.4672357
  32.0537304  47.8500089  67.5127174  32.6726493  48.2190879  68.3305311
  30.8771654  48.8719478  67.2702180  31.3171276  49.7572314  66.8110826
  30.1901682  48.4017476  66.5666225  30.1244294  49.2730129  68.5164933
  30.8846478  49.4443451  69.2786049  29.6339337  50.2159537  68.2748763
  28.9005818  48.1148097  69.1511314  29.3294580  48.3744707  70.9560677
  29.1770738  49.4211676  71.2193238  28.6888071  47.7474212  71.5761291
  30.3724007  48.1061262  71.1244810  31.5230649  46.4839606  67.9507950
  31.5626104  46.1726278  69.1274420  30.9456801  45.6559727  67.0363050
  30.7772020  46.0691844  66.1302308  30.3298422  44.3479915  67.3343903
  29.7589805  44.4327693  68.2590680  29.3816282  43.8653902  66.2102034
  28.5329336  44.5099461  65.9813709  30.1056103  43.9163988  65.3969703
  28.8938649  42.4129284  66.3727813  27.6072502  42.1632979  66.7457212
  26.9248668  42.9908810  66.9395214  27.1508254  40.8096210  66.8832905
  26.1897805  40.6023371  67.3539580  28.0189368  39.7852871  66.6204813
  27.5602766  38.5054978  66.7358554  26.6385463  38.4597764  67.0002838
  29.2820389  40.0432791  66.0285021  29.9118304  39.2165778  65.6998258
  29.7190397  41.3632747  65.8668645  30.6656865  41.5665274  65.3662166
  31.3586997  43.3184681  67.8292762  31.0055361  42.5691170  68.7108035
  32.5951117  43.3589814  67.3027926  32.7369358  43.9109588  66.4689423
  33.7579565  42.5874742  67.8507830  33.4896970  41.5622355  68.1057766
  34.7976836  42.5561639  66.7197918  34.9055303  43.5851753  66.3768575
  35.6719496  42.2760506  67.3074104  34.6800165  41.6510417  65.5433573
  35.6850418  41.3567931  65.2409621  33.8464514  40.3882208  65.8572341
  32.8410872  40.6816679  66.1592781  33.7893653  39.7597519  64.9684884
  34.3201118  39.8312476  66.6656442  33.9064898  42.3486350  64.4972603
  34.4231989  43.2653233  64.2130181  33.8083918  41.7021138  63.6252004
  32.9159254  42.5942759  64.8800678  34.3513154  43.2126996  69.1818786
  34.5191826  42.4460600  70.1204852  34.4832497  44.5667721  69.3106996
  34.1761473  45.2087165  68.5939745  34.9958015  45.1354356  70.6050942
  35.9618457  44.7090557  70.8753865  35.1692073  46.6492989  70.3904563
  34.2069458  46.9840918  70.0030731  35.3178250  47.0537256  71.3916814
  36.3039036  47.1487316  69.4576614  37.2734930  46.9915895  69.9302114
  36.2716391  46.6131322  68.5088757  36.0997060  48.6145317  69.2112967
  35.0286732  48.7660490  69.0770198  36.4298484  49.1349217  70.1103515
  36.7969261  49.1760333  68.0654406  36.2715256  49.5724209  67.2993267
  38.0868232  49.2910576  68.0550079  38.9005563  48.8775998  68.9461712
  38.5489310  48.4039482  69.7659966  39.8925585  49.0258772  68.8276591
  38.6898861  49.7710198  67.0039344  38.1482607  50.0523296  66.1991941
  39.6960010  49.8593843  66.9991171  33.9488497  44.9936828  71.7555012
  34.3277643  44.6545328  72.9027741  32.6272128  45.0124024  71.4738430
  32.3420161  45.4075427  70.5891813  31.5748486  44.5271120  72.3989288
  31.4966422  45.1526745  73.2881163  30.2295266  44.6075307  71.6128717
  30.2507911  45.5673082  71.0966603  30.2712396  43.8009038  70.8809475
  28.9532100  44.4949512  72.4137566  28.1327418  44.3340588  71.7144381
  29.1006325  43.5964731  73.0130110  28.5812278  45.6493967  73.3467357
  29.4049480  46.4765367  73.6574342  27.3749007  45.8488346  73.8174940
  27.1982933  46.6322206  74.4300441  26.6272033  45.2182623  73.5656440
  31.7442298  43.0987897  72.9613508  31.6778002  42.8632257  74.1776130
  32.0746203  42.0917356  72.1592722  32.0508079  42.2802111  71.1672997
  32.3305539  40.6754436  72.6123646  31.4688038  40.3515261  73.1959427
  32.5608953  39.6457410  71.4392250  33.3093500  40.2137784  70.8867321
  32.9651060  38.6665207  71.6958205  31.2840463  39.4665863  70.5533576
  30.7140547  40.3950504  70.5192278  31.7455872  39.0936270  69.1276569
  32.3152915  38.1649562  69.1609176  30.8743902  38.9620429  68.4859388
  32.3733184  39.8902584  68.7283672  30.2806008  38.6261609  71.2283712
  29.9880241  39.0932162  72.1687740  29.4048653  38.5199503  70.5881307
  30.7051724  37.6424038  71.4285208  33.4501505  40.6124671  73.6133933
  33.2513316  40.1270910  74.7370650  34.6234567  41.0854783  73.2814688
  34.7550234  41.3407829  72.3131666  35.7714258  41.2086359  74.1992624
  36.0759563  40.2501527  74.6195841  36.9070876  41.7433353  73.3309681
  36.3923789  42.4611290  72.6922614  37.7617510  42.2265366  73.8044310
  37.4926807  40.6218677  72.3733961  37.2430816  39.2369335  72.4614566
  36.5304333  38.9187278  73.2223623  37.8502499  38.2960473  71.6433510
  37.5869382  37.2385885  71.6667709  38.8497104  38.7577207  70.7512567
  39.4457650  38.0553134  70.1686394  39.0666860  40.1314725  70.6234890
  39.6944536  40.4765851  69.8019628  38.5064363  41.0545243  71.5099143
  38.8600002  42.0855508  71.5186771  35.4761169  42.1126016  75.4215494
  36.0334491  41.8173743  76.4094865  34.5688687  43.0302861  75.4034614
  34.0977087  43.1964226  74.5256766  34.2468357  43.9380991  76.5758283
  35.1354620  44.1575853  77.1676631  33.6986026  45.2808366  75.9777333
  34.4866323  45.7037717  75.3546487  32.8388435  45.0315178  75.3558375
  33.2682464  46.3376341  77.0720763  32.3480750  45.9728797  77.5285188
  34.0588424  46.3657221  77.8219237  33.0316137  47.7952840  76.5001605
  32.8412807  48.4743166  77.3312965  33.9271699  48.1155989  75.9677351
  31.8880307  47.8500620  75.5750424  31.4726288  46.9648553  75.3221595
  31.3574665  48.9775844  75.0654249  31.9922875  50.1213489  75.1241275
  32.9020906  50.1686564  75.5601553  31.5691712  50.9509118  74.7331061
  30.1973623  48.9476348  74.4836060  29.6930765  48.0753046  74.4140650
  29.8045295  49.7968034  74.1032196  33.2893167  43.2492683  77.5512797
  33.3625862  43.4693209  78.7518685  32.3286081  42.4917462  77.0205845
  32.1777333  42.5316674  76.0227156  31.4127080  41.6665481  77.8350612
  30.8406818  42.3823824  78.4253717  30.4374183  40.7853344  77.0011173
  30.9812427  40.2353490  76.2330864  29.7863191  39.8120148  77.9494389
  29.2418815  40.3612928  78.7175417  29.0936712  39.1755370  77.3987705
  30.5517524  39.1941493  78.4189635  29.3613071  41.6531319  76.4084672
  28.7609901  42.0320940  77.2355755  29.8571763  42.4853938  75.9089142
  28.4120350  40.8925266  75.3642220  27.9154315  40.0603582  75.8632014
  27.6627170  41.5856832  74.9819187  29.0116186  40.5136558  74.5365408
  32.2592506  40.8555215  78.7379955  32.1280177  40.9375542  79.9662111
  33.1928537  40.1405522  78.1240661  33.1049111  40.1304746  77.1179528
  34.1114457  39.2144940  78.7394406  33.5491507  38.5014247  79.3423134
  34.9342804  38.4313865  77.6853288  34.1911788  37.9427237  77.0551638
  35.4765317  39.1728144  77.0985169  35.8803767  37.4246577  78.1997342
  36.6267528  37.9542728  78.7917912  35.2235491  36.3413582  79.0582915
  34.4773267  35.8109664  78.4667381  35.9827450  35.6377976  79.3999415
  34.7420908  36.8026459  79.9205630  36.5574086  36.7690932  77.0327051
  37.0929124  37.5211328  76.4532471  37.2620066  36.0202398  77.3944531
  35.8099729  36.2888629  76.4011850  34.8972722  39.8771103  79.8877709
  34.8057273  39.4366609  81.0292721  35.5118826  41.0135333  79.5439879
  35.5551111  41.2435085  78.5614696  36.3012311  41.8133526  80.4780708
  37.1680195  41.2692736  80.8532445  36.8019894  43.0483989  79.6608322
  37.1533117  42.7836766  78.6635389  36.0150875  43.7984157  79.5810817
  37.9354063  43.6969612  80.3495862  39.2051408  43.2256110  80.1069994
  39.3611490  42.2951919  79.5610309  40.3078667  43.9597295  80.5727843
  41.3105385  43.5854047  80.3663120  40.1402496  45.1417869  81.2842448
  40.9818960  45.7854801  81.5399599  38.8366137  45.4990425  81.6761705
  38.7335382  46.3415879  82.3599782  37.6759868  44.8074948  81.2156968
  36.6851844  45.1377108  81.5277350  35.6085996  42.0988704  81.8200031
  36.0861279  41.8405333  82.9203119  34.3739141  42.5775531  81.6802303
  34.2116358  42.9236141  80.7453469  33.4113265  42.9479307  82.7428928
  33.9535229  43.2549006  83.6372595  32.5354490  44.0851922  82.2983124
  32.4393881  44.7539757  83.1536487  33.0725401  44.5944222  81.4981137
  31.1604856  43.6912260  81.8104319  31.3167621  42.8820082  81.0970981
  30.6317566  43.3083501  82.6833315  30.3349437  44.7871237  81.1593754
  30.9386226  45.2551537  80.3818031  29.4534955  44.3307598  80.7089527
  29.9037123  45.8094667  82.0904942  30.2651204  45.7384770  83.0309431
  29.1959236  46.7817750  81.8021302  28.8134752  47.0530877  80.6596138
  29.0801201  46.4598545  79.8869077  28.2359527  47.8668625  80.5036069
  28.7258378  47.5769851  82.7600817  28.9486129  47.3847649  83.7262715
  28.1484507  48.3690734  82.5165270  32.8149802  41.7110195  83.3853589
  32.6415680  41.8050601  84.5758422  32.5930614  40.6323591  82.7194272
  32.8084167  40.6677718  81.7332896  32.0710025  39.3990407  83.2629263
  31.1678334  39.6980656  83.7948746  31.6783960  38.5156182  82.1055022
  32.6086938  38.2244723  81.6177725  30.8565109  37.2344693  82.4673024
  29.9257935  37.5248538  82.9546848  30.6313699  36.6776924  81.5576815
  31.4389497  36.6070194  83.1419670  30.7304594  39.2440378  81.3305692
  30.4545423  38.7125597  80.5802352  33.1554982  38.6663241  84.1419465
  32.8279859  37.7687187  84.9207720  34.4148018  39.0335839  84.0141667
  34.5138983  39.7103826  83.2710498  35.6337586  38.6235983  84.7618633
  35.4408148  37.7062791  85.3180984  36.7796179  38.3714105  83.7890431
  36.8943075  39.3140042  83.2538210  37.6881891  38.1618534  84.3535643
  36.5254571  37.2178938  82.7640307  35.5887413  37.3603293  82.2251648
  37.6620660  37.2855634  81.8079335  38.5991626  37.1427429  82.3460330
  37.5524160  36.5036953  81.0564284  37.6690725  38.2599335  81.3194111
  36.4090242  35.8833184  83.4377667  35.5768570  35.9023637  84.1414957
  36.2329119  35.1115760  82.6884341  37.3325481  35.6645358  83.9738046
  36.0667874  39.6845448  85.7255730  37.1384713  39.5996545  86.3490410
  35.2196154  40.7734240  85.8533213  34.6269209  40.8640895  85.0405529
  35.2157628  41.8707275  86.8530714  34.4031512  42.5446674  86.5818400
  35.0362016  41.4515990  88.3097797  35.8021425  40.7071824  88.5272139
  35.1756695  42.3159764  88.9590105  33.7000689  40.8558965  88.5907299
  33.4890377  39.6984649  88.3429257  32.8047804  41.6632617  89.0762654
  31.8793864  41.3180915  89.2874603  33.0386343  42.6320589  89.2401102
  36.4597593  42.8262922  86.6066919  36.7957642  43.6456572  87.5102541
  37.0866494  42.7836802  85.4398277  36.8648944  42.0228838  84.8136385
  38.2912382  43.5609747  85.1825962  38.8560225  43.6015099  86.1139794
  39.2000485  43.0159986  84.0845452  38.7408858  42.8773747  83.1057438
  40.0558920  43.6846836  83.9923924  39.7713907  41.6073483  84.5197769
  40.6008506  41.3744671  85.5424193  40.9364527  40.0811860  85.5158095
  41.5769486  39.7235690  86.3220191  40.4008740  39.4363653  84.4584208
  40.5259380  38.4891008  84.1310850  39.5871357  40.3825994  83.8592822
  38.9516569  40.1016799  83.0194298  38.1131148  45.0442916  85.1265872
  37.0134969  45.5024973  84.8047968  39.1831376  45.7958763  85.4366466
  40.0143919  45.3011968  85.7271768  39.2076912  47.1928658  85.4422461
  38.2795058  47.5894208  85.0307670  39.3601563  47.6993506  86.8956702
  40.1503473  47.0926108  87.3378966  39.6985511  48.7322612  86.8139105
  38.1350497  47.6406560  87.7683252  37.2186928  47.9695717  87.2782176
  38.0157019  46.6117959  88.1078911  38.3758185  48.4996473  88.9427912
  39.0339129  48.1620466  89.8955360  37.9100041  49.7399935  88.9300612
  38.0653236  50.3426874  89.7255092  37.4017585  50.0770582  88.1249680
  40.3547348  47.6991049  84.5343353  41.4981008  47.5438314  84.8657281
  39.9305138  48.4391212  83.4735815  38.9352345  48.5617268  83.3532218
  40.8295570  49.0307086  82.4770282  41.4145281  48.2624885  81.9713149
  39.9497474  49.7686188  81.4154549  39.2629919  50.4335955  81.9391649
  40.6512463  50.3610153  80.8280320  39.1701824  48.8619158  80.5006894
  37.7702617  48.6185796  80.6950484  37.2741208  49.1034628  81.5357813
  37.0424983  47.7845097  79.8398397  35.9752831  47.6060812  79.9714338
  37.7206848  47.2435602  78.7113343  37.0706549  46.5060904  77.8159274
  36.1399258  46.3970368  78.0243744  39.0853089  47.3944661  78.5748008
  39.5795892  46.8052852  77.8023674  39.8564231  48.2876513  79.4048678
  40.9025797  48.4833992  79.1696250  41.8767085  50.0276167  83.0753692
  41.5477137  51.0655254  83.6201250  43.1378960  49.6901699  83.0389033
  43.4053929  48.8285435  82.5848718  44.1411310  50.4211845  83.7529420
  43.9687161  51.4922249  83.6469014  44.0925431  50.0585419  85.2585720
  44.6424755  50.8523973  85.7640096  43.0504747  50.0791487  85.5775840
  44.7237056  48.6706809  85.6252008  45.1629653  48.0053216  84.6789757
  44.7145990  48.3096083  86.8299890  45.5533358  50.3421603  83.2466745
  46.3838699  51.0431035  83.7531534  45.8444485  49.5700368  82.1856327
  45.1289317  48.8799274  82.0070712  47.1079339  49.4947494  81.4035200
  46.9441631  48.7974941  80.5818671  47.5928239  50.8319605  80.8233227
  48.1565320  51.4529516  81.5195285  48.2775928  50.3730841  80.1101438
  46.5964194  51.6847826  80.0843047  46.2841079  51.3577947  78.7458109
  46.8725631  50.6244765  78.1943907  45.2073095  51.9875377  78.1328982
  44.9729811  51.7369215  77.0983048  44.4016643  52.9244133  78.8377968
  43.4174007  53.4967266  78.1555361  43.3699233  53.1986391  77.2442241
  44.7055669  53.2065593  80.1902367  44.1027582  53.9007669  80.7757262
  45.8053014  52.5735518  80.7732115  46.0638758  52.7774466  81.8122814
  48.2078058  48.7625266  82.1931572  49.3760761  48.9061171  81.8051467
  47.8824438  47.9395314  83.1979753  46.9162786  47.9365459  83.4922802
  48.8302681  47.1202263  83.9357355  49.8116179  47.5928409  83.8946591
  48.4112036  46.9726475  85.4279256  49.1223374  46.3059918  85.9157362
  48.3900911  48.3361812  86.1674709  47.6787919  49.0032588  85.6804795
  48.0922155  48.1829514  87.2047220  49.3844111  48.7817531  86.1375728
  47.1411995  46.4417146  85.5883026  46.9383691  46.3743853  86.5242123
  49.0091498  45.7521490  83.3045289  48.9322637  44.7595831  84.0656639
  49.2956316  45.7490322  81.9960197  48.8134069  46.4476572  81.4487705
  50.0083199  44.7109470  81.3011532  49.3235120  43.8771895  81.1462801
  50.5645352  45.1381100  79.9552652  51.4914729  45.6778381  80.1491193
  50.7776425  44.2565553  79.3506608  49.7004246  46.0508570  79.1030689
  48.4917339  45.5603365  78.5144081  48.2028051  44.5402381  78.7674285
  47.7021764  46.3117646  77.6624317  46.7749943  45.9112284  77.2525477
  48.1123041  47.6069816  77.3290563  47.5580864  48.2038874  76.6047317
  49.2875510  48.1491947  77.9600774  49.5614631  49.1812324  77.7410558
  50.0741055  47.3848718  78.8380482  50.9569996  47.8246076  79.3019774
  51.0697811  43.8966391  82.1351147  51.9430975  44.4931212  82.7683316
  51.0124085  42.5512556  82.0285660  50.3757111  42.0867972  81.3969062
  51.8843068  41.6978154  82.9248539  51.5147736  41.7400896  83.9494306
  51.8647903  40.2174343  82.4503765  52.3308419  40.0617871  81.4774073
  52.5279657  39.8496272  83.2333301  50.5899475  39.4870271  82.5052422
  50.3643814  38.4006518  81.8636452  49.7224444  39.7411057  83.3403514
  53.3854933  42.1710557  83.0176593  53.9097880  42.2648066  84.1219509
  54.1322319  42.3816106  81.9304058  53.6488885  42.3234692  81.0454776
  55.5644532  42.8001299  81.9280092  56.2133322  41.9697575  82.2064636
  55.9287237  43.2520496  80.5085598  57.0009064  43.4129050  80.3960922
  55.6268655  42.3898234  79.9139611  55.2623593  44.4253375  79.9179372
  55.6847296  45.7455745  80.0320583  56.5047117  45.9749734  80.7125767
  54.9466059  46.4875194  79.2329462  55.0624510  47.4895423  79.1816678
  54.0701366  45.7364265  78.4606555  53.2885147  46.0530988  77.3453439
  53.3252329  47.0650739  76.9420366  52.5030482  45.0339061  76.8180758
  51.8719553  45.2721248  75.9618786  52.4868347  43.7195360  77.3364127
  51.8275329  42.9609827  76.9144913  53.3403494  43.3393987  78.4384342
  53.5289407  42.2852614  78.6417286  54.1460133  44.4197769  79.0138522
  55.8211419  44.0551276  82.7999947  56.8469539  44.1172053  83.4444426
  54.9188789  45.0786198  82.8233901  54.1489277  45.0694524  82.1697920
  55.0615546  46.2503805  83.7287019  56.0534845  46.6850002  83.6050893
  54.0031784  47.3367215  83.4177790  54.2686940  48.2028119  84.0239878
  53.8861297  47.7685244  81.9103176  53.6201650  46.9029934  81.3035074
  53.1155851  48.5328580  81.8095499  54.8413886  48.1694658  81.5714564
  52.6159742  46.9955613  83.7580070  52.0405839  47.7289399  83.5284811
  54.9868164  45.9727840  85.2803463  55.4993138  46.7617701  86.0350411
  54.3045551  44.8547029  85.6672678  53.7636934  44.4278465  84.9287818
  54.2964666  44.2251263  86.9826479  54.4373706  44.9751077  87.7609622
  52.9525587  43.5312056  87.2101309  52.8135422  42.7871840  86.4257804
  52.9826914  43.0346659  88.1799971  51.7631345  44.5470965  87.1815008
  51.5550863  44.9090973  88.1883633  52.0062901  45.3907984  86.5356336
  50.2960837  43.7076708  86.5363314  49.9634260  42.5579133  87.8864771
  49.7830785  43.1171608  88.8045273  49.0839260  41.9602131  87.6470304
  50.8220276  41.9007936  88.0246740  55.3679390  43.1409342  87.1813172
  56.0224677  43.0015405  88.2720195  55.6838386  42.3934731  86.1683417
  55.0176622  42.4437251  85.4108569  56.6985880  41.3249671  86.1367275
  56.6616602  40.7503329  87.0622172  56.4313653  40.3631957  84.9433818
  55.3670993  40.1290441  84.9680851  56.6569994  40.9313760  84.0409626
  57.2494534  39.0473604  84.9428580  58.3036265  39.3243488  84.9329897
  56.9611147  38.1028962  86.1910700  55.9071607  37.8250936  86.2013502
  57.5726135  37.2037185  86.1159079  57.2058205  38.6321445  87.1120019
  56.9518353  38.2171246  83.7187302  57.2073078  38.7841699  82.8235806
  57.5414591  37.3008459  83.7483694  55.8914195  37.9657034  83.6986143
  58.1417576  41.8675633  86.3329437  59.0801306  41.0669093  86.6089932
  58.4151037  43.1275927  85.9681579  57.5910649  43.6321205  85.6740300
  59.7012271  43.8360409  85.9705247  60.4932389  43.1362366  86.2371523
  60.0223462  44.4392489  84.6043652  59.8988890  43.6907393  83.8216834
  59.3681476  45.2872532  84.4018485  61.4487647  44.9036824  84.6312298
  61.5730779  45.6538197  85.4122171  62.1040122  44.0565936  84.8341910
  61.8203626  45.5313663  83.2381106  61.4392265  44.9288801  82.4135837
  61.4456434  46.5507836  83.1460598  63.3713503  45.5448950  83.1945669
  63.7552950  46.1339130  84.0274803  63.7479993  44.5246521  83.2676363
  63.8241856  46.1522158  81.9039846  63.4756391  47.0977477  81.8362750
  64.8336471  46.1624413  81.8726332  63.4688757  45.6063227  81.1320685
  59.6392847  45.0296510  87.0059904  58.5552844  45.5949171  87.1092696
  60.6148753  45.3401738  87.8006177  61.3712458  44.6785201  87.6995361
  60.7043466  46.3462447  88.8770703  59.8796637  47.0530352  88.7851765
  60.6305485  45.6935298  90.2343175  59.8228654  44.9615921  90.2381345
  61.5753990  45.1922982  90.4443753  60.3589665  46.7752275  91.3320799
  61.1243154  47.5316076  91.1582094  59.3725194  47.2219213  91.2076255
  60.4914709  46.2597602  92.7989780  60.0853738  45.1608550  93.1156381
  60.9898719  47.0470537  93.8304190  61.0562365  46.6678978  94.7641952
  61.2834653  47.9948096  93.6415724  61.8985676  47.2602026  88.6804328
  63.0611514  46.8211782  88.4568138  61.7517113  48.5000112  88.8537011
  74.2198066  67.5304025  70.3051116  73.1795585  67.2543177  71.3234883
  72.8931627  68.5386049  72.0482413  74.1412449  69.0359798  72.7140988
  75.3816957  68.8423271  72.1035438  75.5032581  68.3312642  70.8403485
  75.1345102  64.5227509  68.3009081  75.5894436  64.1091531  69.5195157
  75.2001145  65.1355294  70.5584210  74.6290651  66.2678914  69.7307665
  74.6232240  65.9565668  68.3625476  75.8704814  62.4421078  67.3329595
  76.3147919  62.0429288  68.5470671  76.0978791  62.8154313  69.7003870
  75.3183728  63.7244110  67.1472644  74.3326112  66.7309673  67.4741237
  76.3532999  62.3366568  71.0238027  76.5005374  68.4244631  70.1969644
  74.2155902  69.4495213  73.8565681  73.8013021  68.0492537  69.4339874
  76.1948736  69.0555640  72.6678441  75.9140254  61.7420846  66.5044781
  76.6783399  61.0247916  68.6543260  75.0994125  64.0905497  66.1486529
  76.0101144  65.5213665  71.1890468  74.4487018  64.7245319  71.2424452
  76.2508373  62.9850533  71.7941697  76.9449961  61.5183401  71.0840810
  73.5159579  66.4837403  72.0265181  72.2339620  66.8442527  70.9506639
  72.1007484  68.5423228  72.8061091  72.6877468  69.1981446  71.1966618
  60.9901815  23.9902752  69.7777032  56.0802613  67.9155096  82.9497579
  48.1751778  48.7171893  42.7324376  49.0354866  64.5656261  70.9034832
  62.3571027  16.9080418  72.4987746  50.0629117  36.3731858  41.5332341
  68.6772972  55.7676350 132.4386266  68.0034671  56.0708047 133.0471224
  69.0638794  56.5705431 132.0891723  70.7680442  47.5584563 130.9733706
  70.1509613  46.8331392 130.8766759  70.2996931  48.3193924 130.6300781
  72.6429713  53.3461834 133.7126089  73.3380618  53.9668527 133.9313404
  72.9852863  52.4957185 133.9878467  66.7344582  53.4523586 132.6201183
  66.1618549  54.0713773 132.1671655  67.3077375  54.0022947 133.1541105
  69.9541841  53.7360736 133.7509765  70.8872514  53.6706297 133.9542641
  69.8665054  54.5717003 133.2924298  72.5829858  53.0526606 130.7113713
  72.5043490  52.7186470 131.6049471  73.4039525  53.5448374 130.7105185
  70.1533810  50.3694601 130.3323691  70.8569660  50.5744604 130.9481347
  69.4296459  50.9371363 130.5972775  72.0620507  50.8077131 132.3822151
  72.8966111  50.3758329 132.1999626  71.9004850  50.6359144 133.3099046
  73.5234362  57.2614678 132.8957104  72.6871675  57.5989364 133.2166379
  73.3839132  57.1263658 131.9584241  73.3972743  57.1061905 130.0955011
  72.5202209  56.9850706 129.7317257  73.8730496  56.3147984 129.8433899
  71.0991211  58.0460908 133.6536666  70.4060456  58.1205263 132.9976702
  70.8542963  57.2821252 134.1758183  76.1428052  58.0426292 129.8972121
  75.2359507  57.7459405 129.9734834  76.4204033  57.7456110 129.0306407
  74.9126836  54.9013228 130.0384100  75.7746000  55.2268126 130.2979917
  75.0977180  54.1144723 129.5257166  75.8656279  52.1409271 133.3263809
  75.8534949  53.0851111 133.4832080  76.7579701  51.9579416 133.0323270
  68.6772974  32.7738473 119.1631573  68.0034672  33.0770170 119.7716531
  69.0638796  33.5767553 118.8137030  70.7680444  24.5646686 117.6979013
  70.1509614  23.8393514 117.6012066  70.2996932  25.3256046 117.3546087
  72.6429714  30.3523956 120.4371396  73.3380619  30.9730649 120.6558711
  72.9852864  29.5019308 120.7123774  66.7344583  30.4585708 119.3446490
  66.1618550  31.0775895 118.8916962  67.3077376  31.0085070 119.8786412
  69.9541843  30.7422858 120.4755072  70.8872516  30.6768420 120.6787947
  69.8665055  31.5779125 120.0169605  72.5829859  30.0588729 117.4359020
  72.5043491  29.7248592 118.3294777  73.4039526  30.5510497 117.4350492
  70.1533811  27.3756724 117.0568998  70.8569661  27.5806726 117.6726653
  69.4296460  27.9433486 117.3218081  72.0620508  27.8139253 119.1067458
  72.8966112  27.3820452 118.9244933  71.9004851  27.6421267 120.0344352
  80.6904784  38.3308904 129.2022635  81.3283193  38.2115652 128.4985975
  80.5725626  39.2789748 129.2610587  77.4994490  38.2836332 129.1384159
  77.1613001  38.1677397 128.2504694  78.3684258  37.8827498 129.1185165
  73.3581305  40.1371809 125.1281050  72.7946171  40.0461746 124.3597338
  73.2433701  39.3171713 125.6083543  78.9380864  43.8042777 120.4395515
  78.2868844  44.3896857 120.0529529  79.7325227  44.3348971 120.4990553
  72.8636491  40.8931914 120.8382650  73.6367367  40.3460901 120.6995525
  73.2161890  41.7576163 121.0497111  75.2002769  37.0524580 118.4701099
  75.4528290  36.5306101 117.7084562  74.2627328  36.8890725 118.5727783
  80.2446052  36.0560358 126.2775843  81.0309141  35.6379781 125.9266260
  80.5084756  36.9606450 126.4457491  80.4156129  41.4933208 120.9764499
  79.7801962  41.5667835 121.6885404  80.0853536  42.0826807 120.2983579
  74.9199058  38.9552686 120.6725474  74.8035316  38.2797589 121.3406559
  75.0301318  38.4685060 119.8557627  77.2630599  38.4162833 124.3772164
  76.8988806  37.8893454 125.0885085  78.1197715  38.0261302 124.2038649
  76.9036086  33.4452733 119.3733512  77.0710488  34.3132969 119.7403983
  76.7133255  33.6080014 118.4494801  79.6611419  41.9069711 131.0399343
  79.3612142  42.8094750 130.9315150  79.3162479  41.6401895 131.8920495
  76.8825307  35.9010390 120.3580179  76.7624932  36.3467441 121.1965659
  76.1877895  36.2495708 119.7993717  74.6432199  48.6714032 124.0070310
  74.5656229  49.6221857 124.0858791  74.0393842  48.3259904 124.6645237
  82.5810373  36.3731863 121.1860513  83.4928229  36.6059250 121.0108211
  82.0720020  36.9568907 120.6235592  81.1879955  41.3557682 128.5774094
  80.5588818  41.5203396 127.8750162  80.8005617  41.7699291 129.3485059
  85.0669187  42.2912120 125.9318458  84.3820225  42.6711021 125.3815492
  85.1513036  42.9007446 126.6650406  76.7407917  41.0932090 125.8424180
  77.2046263  41.3719793 125.0528802  76.4764715  40.1915534 125.6597270
  75.6776803  37.2155242 122.6513745  76.3800846  37.6676286 123.1187671
  75.3457432  36.5739061 123.2793638  83.4365947  42.8144034 130.7036159
  84.2583390  42.4124221 130.4218841  83.4328349  42.7112268 131.6552275
  76.9170568  44.0296185 122.7275850  76.7816243  44.8747720 123.1560698
  77.4580380  44.2315462 121.9641784  70.3699965  41.5471623 123.3003775
  70.8824486  42.3414873 123.4509340  71.0222678  40.8497913 123.2337376
  72.1794850  44.6637379 125.3826528  72.3561478  45.5855344 125.1947512
  72.9751683  44.3495798 125.8120908  73.3026165  46.1815553 131.3836871
  73.8533590  46.0532616 130.6113864  72.4637641  46.4810442 131.0331763
  68.3348882  39.8760277 124.0763346  69.1724104  40.2857285 123.8597053
  68.5127150  38.9359719 124.0463539  80.2313314  37.5435358 119.7647179
  79.7159937  38.3139962 120.0035566  79.9590622  36.8700494 120.3880240
  77.8160425  32.3885059 124.8232417  76.9602021  31.9991909 124.6438056
  78.2287377  32.4677019 123.9632202  85.2047588  40.2967712 121.7000352
  84.4277031  39.9578872 121.2555514  85.8839069  40.3020336 121.0255317
  80.0199617  35.4162450 121.5906960  79.7149753  35.7308599 122.4417103
  80.9730059  35.4943870 121.6334293  78.4646049  41.5752673 123.2399914
  77.9367411  40.8405433 122.9273151  77.9633552  42.3527350 122.9939882
  83.4438895  39.7701694 128.3566960  82.7862569  40.4600955 128.4447089
  84.2479294  40.1598126 128.7000946  82.2544354  38.1246066 126.4070902
  82.7676236  38.7576058 126.9092611  82.9045578  37.5247262 126.0414262
  73.5234364  34.2676800 119.6202410  72.6871676  34.6051487 119.9411685
  73.3839133  34.1325780 118.6829547  76.6098649  39.3932883 116.2434887
  75.7025711  39.1622137 116.4426036  77.1069681  38.5970503 116.4308868
  79.5166728  48.1030391 119.1631573  78.8428427  48.4062087 119.7716531
  79.9032550  48.9059471 118.8137030  79.5160232  36.9986938 123.7831923
  80.2632051  37.5108335 123.4739045  79.7851822  36.6770990 124.6436316
  77.7886883  39.4945478 120.7658877  76.8798102  39.2104511 120.8631347
  77.8181966  39.9144557 119.9062184  83.0206150  43.1052068 124.5350044
  82.5668477  42.2642978 124.5915235  82.3900117  43.7413466 124.8724825
  81.9639070  34.0344054 125.7650712  81.2261826  33.5221440 126.0960954
  82.2165843  33.5944435 124.9533989  81.4639089  44.9428564 125.4699863
  81.7562064  45.5033622 124.7512228  81.9737710  45.2357125 126.2253022
  76.3371777  37.1074099 126.8668672  76.3920386  36.1547935 126.7911149
  75.5262979  37.2633538 127.3509971  77.4862970  41.0354222 118.1046955
  77.0482400  40.3190081 117.6452593  78.2273411  41.2630337 117.5432047
  74.2764137  35.7251159 124.6259051  73.4632002  36.0245329 125.0324243
  74.7723131  35.3306847 125.3433533  76.4272715  45.7208916 126.5593316
  76.3848893  45.9469762 125.6301848  77.3435413  45.4872290 126.7079117
  85.6036085  39.3111419 124.1623274  85.4653984  39.5013015 123.2344463
  85.2472304  40.0730802 124.6191325  74.5438515  42.5971945 126.3555278
  75.3379114  42.1022265 126.1537853  73.8330208  42.0689808 125.9922984
  79.3633360  44.9790040 130.7067646  79.4170382  45.5480976 131.4745362
  78.4948141  45.1491925 130.3421683  70.8521279  36.7415026 122.4315031
  69.9218867  36.6799482 122.6484993  70.9478751  36.2190979 121.6351672
  77.1209791  43.1700967 130.0353116  76.9820877  42.8019751 130.9079054
  76.3324388  43.6848606 129.8637073  77.7157943  48.2710063 121.3778652
  77.8909699  47.7998106 122.1924275  77.0290731  48.8975829 121.6059913
  78.6715006  42.5482569 127.4241953  78.3364839  42.5083339 128.3199603
  78.1718952  41.8827285 126.9512364  81.6074198  39.8938604 117.6979013
  80.9903369  39.1685432 117.6012066  81.1390687  40.6547964 117.3546087
  72.2819029  51.4199426 128.1518512  72.5215627  52.0517950 128.8297531
  71.4388225  51.0687466 128.4383871  73.3972744  34.1124028 116.8200317
  72.5202210  33.9912829 116.4562564  73.8730497  33.3210106 116.5679206
  76.7946890  47.2278548 130.5560016  76.7217062  48.0333520 131.0679321
  76.3524284  47.4270514 129.7308038  76.5836670  46.4650318 124.0662838
  75.8004192  47.0071998 124.1601062  77.2829415  46.9824298 124.4657079
  79.8933320  32.2744948 126.7097043  80.3902020  31.5214910 126.3898113
  79.1220302  32.3109264 126.1440252  79.2545574  47.1265382 132.7118175
  79.9673546  47.7612847 132.6394076  78.7635603  47.2229248 131.8958177
  80.9763101  41.0316635 124.2835467  80.0419380  41.1518097 124.1140171
  81.1539769  40.1289102 124.0195476  84.3635652  36.8733954 124.8185501
  84.8296104  37.7061946 124.7445803  84.8143153  36.4078936 125.5230759
  82.4311883  43.2177776 121.8171653  82.7071727  43.1034370 122.7265527
  81.5616382  42.8195260 121.7783826  79.0665947  47.4664126 125.4604466
  79.2488342  46.6485782 125.9232219  79.8898933  47.6831819 125.0229356
  79.4008113  46.3932312 122.7219515  79.9295879  45.8824766 122.1089677
  79.6636332  46.0774842 123.5865048  72.7563861  47.4447428 125.4817291
  72.0874236  47.9293556 124.9981331  72.6176730  47.6916649 126.3960669
  76.8969129  49.4791172 132.0799949  77.4487437  49.6422793 132.8449034
  77.2375323  50.0695610 131.4079974  68.1251438  35.7065883 122.2613223
  68.4204879  34.7976562 122.2080277  67.2239474  35.6853623 121.9394225
  80.0337517  47.4273147 129.0663631  79.9088656  46.6262887 128.5574577
  80.6916608  47.9219341 128.5777601  82.0972425  45.2282167 130.6943181
  81.1502761  45.1087519 130.6221508  82.4455198  44.3404665 130.7769443
  69.8539279  33.3879981 122.3852548  69.5251986  32.5077360 122.2027654
  70.2078650  33.3327650 123.2728937  79.1018858  45.0234884 126.8947534
  78.9543821  44.0951591 127.0755104  79.9272352  45.0454974 126.4104609
  72.9681103  33.6752951 122.7528026  73.3077175  34.2038872 122.0306634
  73.4153223  34.0133357 123.5286592  82.7052980  45.8463442 127.9812406
  83.6299528  45.6406304 127.8436857  82.5368283  45.5979843 128.8901748
  74.9549250  32.1727572 120.9521318  75.6757612  32.5508825 120.4485035
  74.3314554  32.8916449 121.0556296  79.0980373  32.8772721 121.8879651
  79.3143987  33.7597359 121.5868479  78.6174440  32.4858935 121.1585293
  82.4948296  46.3649110 123.3374498  82.6685174  45.7995532 122.5848350
  82.9877188  47.1650005 123.1553988  75.1012873  31.7075363 123.7818855
  75.2228784  30.7792009 123.9809743  74.8114915  31.7214049 122.8697171
  88.3487688  39.1285533 124.9564798  88.7918834  38.3792858 124.5583921
  87.4714198  39.1195669 124.5738530  83.4823469  45.6815874 120.4371396
  84.1774373  46.3022567 120.6558711  83.8246619  44.8311225 120.7123774
  85.3814892  43.1315580 121.9658727  85.9066216  43.4702852 121.2408047
  85.2937245  42.1962595 121.7821861  77.0655553  49.1987563 126.3253980
  76.6260543  48.7063942 127.0186837  77.8163670  48.6560531 126.0846055
  69.5447892  45.3899104 126.3278608  70.3705912  45.0902876 125.9477252
  69.1941944  44.6206726 126.7768397  74.5129425  44.7425572 128.3976282
  73.8909434  44.0796277 128.0978510  75.1834292  44.7686704 127.7149929
  67.7456497  43.3085430 127.2867542  66.9088405  42.8807605 127.1051543
  67.7180142  43.5017874 128.2238333  74.0742932  43.2929495 121.8734742
  74.2231052  43.9764960 121.2201415  74.8809375  43.2734585 122.3884198
  71.8295565  39.3194673 122.8795811  71.5841607  38.4157003 123.0776021
  71.9991479  39.3211823 121.9375289  71.0991212  35.0523031 120.3781973
  70.4060457  35.1267386 119.7222009  70.8542964  34.2883374 120.9003490
  77.5738337  45.7877626 119.3446490  77.0012304  46.4067813 118.8916962
  78.1471131  46.3376987 119.8786412  80.7935597  46.0714776 120.4755072
  81.7266270  46.0060338 120.6787947  80.7058810  46.9071043 120.0169605
  83.4223614  45.3880646 117.4359020  83.3437245  45.0540510 118.3294777
  84.2433281  45.8802414 117.4350492  77.9585136  37.1238439 116.6862542
  78.9044241  36.9944647 116.7550960  77.5799381  36.3853100 117.1631970
  76.1428053  35.0488415 116.6217427  75.2359508  34.7521528 116.6980141
  76.4204034  34.7518233 115.7551714  77.7590119  29.5925305 122.7761669
  76.9490847  29.2472390 123.1516915  78.4474536  29.2832848 123.3649280
  74.9126838  31.9075350 116.7629407  75.7746002  32.2330248 117.0225224
  75.0977182  31.1206846 116.2502472  83.0659474  30.7803877 123.9064630
  82.4858143  31.4388681 123.5242682  82.7995407  29.9581221 123.4952047
  81.8484352  32.9403967 122.9620978  80.9610207  33.2253618 122.7441173
  82.2638341  32.7797730 122.1148255  69.8568603  47.5211718 128.0492423
  69.7223070  46.7612119 127.4830421  69.4400665  48.2452618 127.5821211
  80.9927566  42.7048642 117.0568998  81.6963416  42.9098644 117.6726653
  80.2690214  43.2725404 117.3218081  81.8225376  38.4558503 123.1771268
  81.7660577  38.9127054 122.3378900  82.3753718  37.6949188 122.9994111
  85.6330182  34.2448235 124.0021387  85.3767116  33.8444870 124.8329595
  85.0083050  34.9592029 123.8771527  73.0137728  48.4181035 128.2610865
  72.8970113  49.3626468 128.1589555  72.1930175  48.1154597 128.6496664
  82.9014263  43.1431171 119.1067458  83.7359867  42.7112369 118.9244933
  82.7398606  42.9713185 120.0344352  82.5560155  39.6463284 120.4723797
  82.5008959  39.4807556 119.5312241  81.9306210  40.3539317 120.6285987
  75.8656281  29.1471393 120.0509116  75.8534950  30.0913233 120.2077386
  76.7579702  28.9641539 119.7568577  74.0392243  49.0709297 131.4766794
  74.9419489  49.1032907 131.7933289  73.8129613  48.1409748 131.4913129
  75.7945845  47.8240284 128.1376872  74.8441476  47.8242145 128.0241245
  76.0978331  47.0773018 127.6212907  88.3388244  53.6128250 129.1384159
  88.0006756  53.4969315 128.2504694  89.2078012  53.2119415 129.1185165
  84.1975060  55.4663727 125.1281050  83.6339925  55.3753663 124.3597338
  84.0827455  54.6463631 125.6083543  81.7439492  56.9614918 127.9665271
  82.5360784  56.6205743 127.5511570  81.9836142  57.0709893 128.8867424
  89.7774619  59.1334694 120.4395515  89.1262598  59.7188775 120.0529529
  90.5718982  59.6640889 120.4990553  83.7030246  56.2223831 120.8382650
  84.4761122  55.6752818 120.6995525  84.0555645  57.0868081 121.0497111
  86.0396524  52.3816497 118.4701099  86.2922044  51.8598019 117.7084562
  85.1021083  52.2182643 118.5727783  91.0839806  51.3852276 126.2775843
  91.8702896  50.9671699 125.9266260  91.3478511  52.2898368 126.4457491
  91.2549884  56.8225126 120.9764499  90.6195717  56.8959753 121.6885404
  90.9247290  57.4118725 120.2983579  85.7592812  54.2844603 120.6725474
  85.6429071  53.6089507 121.3406559  85.8695072  53.7976977 119.8557627
  88.1024353  53.7454751 124.3772164  87.7382561  53.2185372 125.0885085
  88.9591469  53.3553220 124.2038649  87.7429840  48.7744650 119.3733512
  87.9104243  49.6424887 119.7403983  87.5527009  48.9371932 118.4494801
  83.9517655  53.6875426 127.0736047  83.0268151  53.5551640 127.2813739
  84.2002068  54.4669645 127.5705989  87.7219061  51.2302308 120.3580179
  87.6018686  51.6759358 121.1965659  87.0271650  51.5787625 119.7993717
  81.3126466  53.3308700 127.9079836  81.4418847  53.5843178 128.8219248
  80.6323917  53.9236408 127.5884491  85.4825953  64.0005949 124.0070310
  85.4049983  64.9513775 124.0858791  84.8787597  63.6551822 124.6645237
  93.4204127  51.7023781 121.1860513  94.3321983  51.9351168 121.0108211
  92.9113774  52.2860825 120.6235592  87.5801672  56.4224007 125.8424180
  88.0440017  56.7011710 125.0528802  87.3158470  55.5207452 125.6597270
  84.4725753  55.9695489 128.7803943  85.0427110  56.3982757 128.1421427
  85.0633864  55.6878074 129.4788128  86.5170558  52.5447160 122.6513745
  87.2194601  52.9968203 123.1187671  86.1851186  51.9030979 123.2793638
  80.2595892  50.8030712 127.9530878  79.4694946  51.0588241 127.4770989
  80.7507139  51.6179050 128.0582919  82.2110637  51.1675292 124.9114355
  81.4141800  51.2793986 125.4297851  81.9836229  51.5061944 124.0455246
  78.5433595  51.0561203 130.3845869  78.7941633  51.9408213 130.6503445
  79.0793143  50.8765804 129.6120961  87.7564322  59.3588102 122.7275850
  87.6209997  60.2039638 123.1560698  88.2974135  59.5607380 121.9641784
  81.2093720  56.8763540 123.3003775  81.7218240  57.6706791 123.4509340
  81.8616432  56.1789831 123.2337376  83.0188604  59.9929297 125.3826528
  83.1955233  60.9147261 125.1947512  83.8145438  59.6787716 125.8120908
  79.1742636  55.2052195 124.0763346  80.0117858  55.6149203 123.8597053
  79.3520904  54.2651637 124.0463539  91.0707069  52.8727275 119.7647179
  90.5553692  53.6431880 120.0035566  90.7984377  52.1992412 120.3880240
  88.6554180  47.7176976 124.8232417  87.7995776  47.3283827 124.6438056
  89.0681131  47.7968937 123.9632202  86.4296212  45.3362049 128.2290158
  87.2949209  45.1404858 127.8696048  86.4973721  45.1072401 129.1559515
  96.0441343  55.6259630 121.7000352  95.2670785  55.2870790 121.2555514
  96.7232824  55.6312253 121.0255317  90.8593372  50.7454368 121.5906960
  90.5543507  51.0600517 122.4417103  91.8123814  50.8235787 121.6334293
  89.3039804  56.9044591 123.2399914  88.7761165  56.1697350 122.9273151
  88.8027306  57.6819267 122.9939882  84.0358531  47.5664257 125.6006525
  84.6102283  47.3439439 124.8679718  84.6229514  47.6352952 126.3535126
  93.0938108  53.4537984 126.4070902  93.6069990  54.0867976 126.9092611
  93.7439332  52.8539180 126.0414262  84.3628118  49.5968718 119.6202410
  83.5265431  49.9343405 119.9411685  84.2232888  49.4617698 118.6829547
  86.3381199  44.4405506 124.3281595  85.6845611  44.1254523 123.7038209
  86.2961673  43.8181246 125.0541418  87.4492404  54.7224801 116.2434887
  86.5419465  54.4914055 116.4426036  87.9463436  53.9262420 116.4308868
  90.3560483  63.4322308 119.1631573  89.6822181  63.7354005 119.7716531
  90.7426305  64.2351389 118.8137030  89.5718939  50.9287440 128.6529242
  88.6541501  51.1502387 128.4950930  89.9879083  51.0033750 127.7940950
  90.3553987  52.3278855 123.7831923  91.1025806  52.8400252 123.4739045
  90.6245577  52.0062908 124.6436316  88.6280637  54.8237396 120.7658877
  87.7191856  54.5396429 120.8631347  88.6575721  55.2436475 119.9062184
  92.8032824  49.3635972 125.7650712  92.0655581  48.8513358 126.0960954
  93.0559598  48.9236353 124.9533989  79.1968808  52.5442910 124.7474079
  78.9993207  51.9512271 124.0225146  78.6415472  52.2395120 125.4650018
  87.1765531  52.4366017 126.8668672  87.2314141  51.4839853 126.7911149
  86.3656733  52.5925456 127.3509971  88.3256725  56.3646140 118.1046955
  87.8876155  55.6481999 117.6452593  89.0667166  56.5922254 117.5432047
  85.1157891  51.0543076 124.6259051  84.3025757  51.3537247 125.0324243
  85.6116885  50.6598765 125.3433533  96.4429840  54.6403337 124.1623274
  96.3047738  54.8304933 123.2344463  96.0866059  55.4022720 124.6191325
  84.6071966  48.6261432 130.2420286  85.2471345  48.4850191 129.5443249
  83.7749496  48.3395945 129.8658888  85.3832270  57.9263862 126.3555278
  86.1772868  57.4314182 126.1537853  84.6723962  57.3981725 125.9922984
  81.6915033  52.0706944 122.4315031  80.7612621  52.0091399 122.6484993
  81.7872505  51.5482897 121.6351672  81.6100582  48.5961757 125.0193273
  81.8707400  49.5107090 124.9102433  82.4317755  48.1286199 125.1689886
  83.0825508  50.0099514 132.1892097  83.7548561  49.8016876 131.5404746
  82.2555294  49.8121600 131.7497330  88.5551698  63.6001981 121.3778652
  88.7303453  63.1290024 122.1924275  87.8684486  64.2267747 121.6059913
  92.4467953  55.2230521 117.6979013  91.8297123  54.4977349 117.6012066
  91.9784441  55.9839882 117.3546087  84.2366498  49.4415946 116.8200317
  83.3595965  49.3204746 116.4562564  84.7124252  48.6502024 116.5679206
  75.7568639  54.2293105 126.9141824  76.4439678  53.9154835 126.3262840
  75.6016767  55.1334470 126.6409076  80.5603361  49.1183302 131.3426848
  80.4761549  48.5108971 130.6077258  79.7386067  49.6092320 131.3436344
  87.4230425  61.7942236 124.0662838  86.6397946  62.3363916 124.1601062
  88.1223170  62.3116216 124.4657079  90.7327075  47.6036865 126.7097043
  91.2295774  46.8506828 126.3898113  89.9614056  47.6401182 126.1440252
  91.8156855  56.3608553 124.2835467  90.8813134  56.4810015 124.1140171
  91.9933524  55.4581019 124.0195476  87.3162043  49.7454248 126.4368728
  86.9459831  49.1925289 127.1249633  87.8121136  49.1412382 125.8843728
  95.2029407  52.2025872 124.8185501  95.6689859  53.0353864 124.7445803
  95.6536907  51.7370853 125.5230759  93.2705638  58.5469693 121.8171653
  93.5465482  58.4326288 122.7265527  92.4010137  58.1487178 121.7783826
  90.2401867  61.7224229 122.7219515  90.7689634  61.2116684 122.1089677
  90.5030087  61.4066759 123.5865048  75.3336615  52.3093699 129.1859292
  75.3720714  51.7757289 129.9796410  74.8276908  51.7828904 128.5670269
  82.7127377  47.1558239 132.6821834  82.7768704  48.0173070 132.2699232
  82.6494497  46.5432241 131.9494192  78.9645192  51.0357801 122.2613223
  79.2598633  50.1268479 122.2080277  78.0633228  51.0145540 121.9394225
  82.4939439  49.1113797 128.2440772  81.7726025  49.7249765 128.1048245
  83.2832695  49.6471562 128.1657417  80.6933034  48.7171898 122.3852548
  80.3645740  47.8369277 122.2027654  81.0472405  48.6619567 123.2728937
  83.8074857  49.0044868 122.7528026  84.1470930  49.5330790 122.0306634
  84.2546978  49.3425274 123.5286592  85.7943004  47.5019490 120.9521318
  86.5151367  47.8800743 120.4485035  85.1708308  48.2208367 121.0556296
  89.9374127  48.2064639 121.8879651  90.1537741  49.0889277 121.5868479
  89.4568194  47.8150852 121.1585293  84.6773348  51.1650352 128.4650395
  84.5317929  51.4790655 129.3574677  84.1998552  51.7835252 127.9121294
  86.5369731  48.1552900 128.5131285  86.5231300  47.2593993 128.1763583
  87.2542159  48.1623564 129.1469571  88.3895862  48.5890240 130.5584412
  88.1313640  49.5107311 130.5568743  87.8580902  48.1920675 131.2484877
  79.1519011  53.7055696 131.4038057  78.6072479  54.4815504 131.5358331
  80.0298360  54.0526501 131.2457178  85.9406627  47.0367280 123.7818855
  86.0622538  46.1083927 123.9809743  85.6508670  47.0505966 122.8697171
  88.8097818  44.7222191 126.9185575  88.8319514  44.7861524 125.9637555
  89.2265877  43.8826699 127.1126081  94.3217223  61.0107792 120.4371396
  95.0168128  61.6314484 120.6558711  94.6640373  60.1603143 120.7123774
  96.2208646  58.4607497 121.9658727  96.7459971  58.7994770 121.2408047
  96.1330999  57.5254513 121.7821861  80.3841646  60.7191021 126.3278608
  81.2099666  60.4194793 125.9477252  80.0335698  59.9498644 126.7768397
  78.5850251  58.6377348 127.2867542  77.7482160  58.2099522 127.1051543
  78.5573897  58.8309791 128.2238333  84.9136686  58.6221413 121.8734742
  85.0624807  59.3056877 121.2201415  85.7203130  58.6026503 122.3884198
  82.6689319  54.6486591 122.8795811  82.4235361  53.7448921 123.0776021
  82.8385234  54.6503741 121.9375289  81.9384967  50.3814948 120.3781973
  81.2454212  50.4559303 119.7222009  81.6936719  49.6175292 120.9003490
  88.4132092  61.1169543 119.3446490  87.8406059  61.7359731 118.8916962
  88.9864885  61.6668905 119.8786412  91.6329352  61.4006694 120.4755072
  92.5660025  61.3352255 120.6787947  91.5452564  62.2362960 120.0169605
  94.2617368  60.7172564 117.4359020  94.1831000  60.3832428 118.3294777
  95.0827035  61.2094332 117.4350492  88.7978890  52.4530356 116.6862542
  89.7437995  52.3236564 116.7550960  88.4193135  51.7145018 117.1631970
  86.9821807  50.3780333 116.6217427  86.0753263  50.0813445 116.6980141
  87.2597788  50.0810151 115.7551714  77.8999748  51.6986696 127.0716474
  77.5802532  50.8452004 126.7790848  77.3533176  51.9135274 127.8274441
  81.6779655  54.4149137 130.7885980  81.8965665  55.3466245 130.8074014
  82.0905429  54.0557111 131.5740784  88.5983873  44.9217222 122.7761669
  87.7884601  44.5764307 123.1516915  89.2868290  44.6124766 123.3649280
  90.5274421  43.9995269 124.3985965  91.0805460  44.4190723 125.0575988
  90.7644508  43.0731017 124.4408921  85.7520592  47.2367268 116.7629407
  86.6139756  47.5622166 117.0225224  85.9370936  46.4498764 116.2502472
  77.7688008  55.3189608 129.0409595  77.0751479  54.9043560 128.5279550
  78.5160999  55.3610144 128.4443014  93.9053229  46.1095794 123.9064630
  93.3251898  46.7680598 123.5242682  93.6389161  45.2873139 123.4952047
  79.6824750  55.2507861 126.9175610  79.6595438  55.3495549 125.9657493
  79.9925387  56.0973012 127.2392776  92.6878107  48.2695885 122.9620978
  91.8003962  48.5545535 122.7441173  93.1032096  48.1089648 122.1148255
  91.8321320  58.0340559 117.0568998  92.5357170  58.2390562 117.6726653
  91.1083969  58.6017321 117.3218081  92.6619130  53.7850421 123.1771268
  92.6054332  54.2418972 122.3378900  93.2147473  53.0241105 122.9994111
  96.4723936  49.5740152 124.0021387  96.2160870  49.1736788 124.8329595
  95.8476804  50.2883946 123.8771527  93.7408017  58.4723089 119.1067458
  94.5753621  58.0404287 118.9244933  93.5792360  58.3005102 120.0344352
  93.3953910  54.9755202 120.4723797  93.3402713  54.8099473 119.5312241
  92.7699965  55.6831235 120.6285987  78.1846425  50.2123266 134.2985219
  78.8305288  49.7022220 134.7872445  77.9763576  50.9491948 134.8728645
  86.7050035  44.4763311 120.0509116  86.6928705  45.4205151 120.2077386
  87.5973457  44.2933456 119.7568577  90.5202155  41.0706088 124.3055052
  89.7534550  40.5164574 124.4511735  90.9312859  41.1427956 125.1669204
  95.2021873  64.9260636 119.6202410  94.3659185  65.2635322 119.9411685
  95.0626642  64.7909616 118.6829547  95.0760253  64.7707863 116.8200317
  94.1989719  64.6496664 116.4562564  95.5518006  63.9793942 116.5679206
  92.7778721  65.7106866 120.3781973  92.0847966  65.7851221 119.7222009
  92.5330473  64.9467210 120.9003490  97.8215562  65.7072250 116.6217427
  96.9147017  65.4105363 116.6980141  98.0991543  65.4102068 115.7551714
  96.5914347  62.5659186 116.7629407  97.4533511  62.8914084 117.0225224
  96.7764691  61.7790681 116.2502472  97.5443790  59.8055229 120.0509116
  97.5322459  60.7497068 120.2077386  98.4367211  59.6225374 119.7568577
  68.6772975   9.7800596 105.8876880  68.0034674  10.0832292 106.4961837
  69.0638797  10.5829676 105.5382337  70.7680445   1.5708809 104.4224320
  70.1509615   0.8455637 104.3257372  70.2996933   2.3318169 104.0791394
  72.6429716   7.3586079 107.1616703  73.3380620   7.9792772 107.3804017
  72.9852866   6.5081430 107.4369081  66.7344584   7.4647831 106.0691796
  66.1618551   8.0838018 105.6162268  67.3077378   8.0147192 106.6031718
  69.9541844   7.7484981 107.2000379  70.8872517   7.6830543 107.4033254
  69.8665057   8.5841248 106.7414911  72.5829860   7.0650851 104.1604326
  72.5043492   6.7310715 105.0540084  73.4039527   7.5572619 104.1595798
  70.1533812   4.3818847 103.7814304  70.8569662   4.5868849 104.3971960
  69.4296461   4.9495608 104.0463388  72.0620510   4.8201376 105.8312765
  72.8966114   4.3882574 105.6490239  71.9004853   4.6483389 106.7589659
  80.6904785  15.3371027 115.9267941  81.3283195  15.2177774 115.2231281
  80.5725628  16.2851871 115.9855893  77.4994491  15.2898455 115.8629466
  77.1613003  15.1739520 114.9750001  78.3684259  14.8889620 115.8430472
  73.3581307  17.1433931 111.8526357  72.7946172  17.0523868 111.0842645
  73.2433702  16.3233836 112.3328849  78.9380865  20.8104899 107.1640822
  78.2868845  21.3958980 106.7774836  79.7325228  21.3411094 107.2235859
  72.8636493  17.8994036 107.5627956  73.6367369  17.3523023 107.4240832
  73.2161891  18.7638286 107.7742418  75.2002770  14.0586702 105.1946406
  75.4528291  13.5368224 104.4329869  74.2627330  13.8952848 105.2973090
  80.2446053  13.0622481 113.0021149  81.0309142  12.6441904 112.6511566
  80.5084758  13.9668573 113.1702798  80.4156131  18.4995331 107.7009806
  79.7801964  18.5729958 108.4130711  80.0853537  19.0888930 107.0228885
  74.9199059  15.9614808 107.3970781  74.8035317  15.2859712 108.0651865
  75.0301319  15.4747182 106.5802934  77.2630600  15.4224955 111.1017470
  76.8988807  14.8955576 111.8130392  78.1197716  15.0323425 110.9283956
  76.9036087  10.4514855 106.0978819  77.0710489  11.3195092 106.4649290
  76.7133256  10.6142137 105.1740108  79.6611420  18.9131834 117.7644649
  79.3612143  19.8156873 117.6560456  79.3162480  18.6464017 118.6165802
  76.8825308  12.9072513 107.0825486  76.7624933  13.3529563 107.9210966
  76.1877896  13.2557830 106.5239024  74.6432200  25.6776154 110.7315617
  74.5656230  26.6283979 110.8104097  74.0393844  25.3322027 111.3890543
  82.5810374  13.3793986 107.9105820  83.4928230  13.6121373 107.7353517
  82.0720021  13.9631030 107.3480898  81.1879956  18.3619804 115.3019401
  80.5588819  18.5265518 114.5995469  80.8005619  18.7761414 116.0730365
  85.0669188  19.2974242 112.6563765  84.3820226  19.6773143 112.1060798
  85.1513038  19.9069569 113.3895713  76.7407918  18.0994212 112.5669486
  77.2046264  18.3781915 111.7774109  76.4764716  17.1977657 112.3842577
  75.6776804  14.2217365 109.3759051  76.3800848  14.6738408 109.8432978
  75.3457433  13.5801184 110.0038944  83.4365948  19.8206157 117.4281466
  84.2583392  19.4186344 117.1464147  83.4328351  19.7174391 118.3797582
  76.9170569  21.0358307 109.4521157  76.7816244  21.8809843 109.8806004
  77.4580381  21.2377585 108.6887090  70.3699966  18.5533745 110.0249082
  70.8824487  19.3476996 110.1754646  71.0222679  17.8560036 109.9582683
  72.1794851  21.6699502 112.1071835  72.3561479  22.5917466 111.9192819
  72.9751685  21.3557921 112.5366215  73.3026167  23.1877675 118.1082177
  73.8533592  23.0594739 117.3359171  72.4637642  23.4872564 117.7577070
  68.3348883  16.8822400 110.8008652  69.1724105  17.2919408 110.5842360
  68.5127151  15.9421842 110.7708846  80.2313315  14.5497480 106.4892485
  79.7159939  15.3202085 106.7280873  79.9590624  13.8762617 107.1125547
  77.8160426   9.3947181 111.5477724  76.9602023   9.0054032 111.3683362
  78.2287378   9.4739142 110.6877509  85.2047589  17.3029835 108.4245659
  84.4277032  16.9640994 107.9800821  85.8839070  17.3082458 107.7500624
  80.0199618  12.4224572 108.3152266  79.7149754  12.7370722 109.1662410
  80.9730061  12.5005992 108.3579599  78.4646050  18.5814796 109.9645220
  77.9367412  17.8467555 109.6518458  77.9633553  19.3589472 109.7185189
  83.4438896  16.7763816 115.0812267  82.7862571  17.4663078 115.1692395
  84.2479296  17.1660248 115.4246253  82.2544355  15.1308189 113.1316208
  82.7676237  15.7638181 113.6337918  82.9045579  14.5309384 112.7659568
  73.5234365  11.2738923 106.3447717  72.6871677  11.6113610 106.6656992
  73.3839135  11.1387903 105.4074854  76.6098650  16.3995006 102.9680193
  75.7025712  16.1684259 103.1671342  77.1069682  15.6032625 103.1554175
  79.5166729  25.1092513 105.8876880  78.8428428  25.4124210 106.4961837
  79.9032551  25.9121594 105.5382337  79.5160234  14.0049060 110.5077229
  80.2632053  14.5170457 110.1984351  79.7851823  13.6833113 111.3681623
  77.7886884  16.5007601 107.4904183  76.8798103  16.2166634 107.5876653
  77.8181968  16.9206679 106.6307490  83.0206151  20.1114190 111.2595351
  82.5668478  19.2705100 111.3160541  82.3900118  20.7475589 111.5970131
  81.9639071  11.0406176 112.4896018  81.2261828  10.5283563 112.8206261
  82.2165844  10.6006558 111.6779295  81.4639091  21.9490687 112.1945169
  81.7562065  22.5095744 111.4757535  81.9737711  22.2419248 112.9498328
  76.3371778  14.1136221 113.5913979  76.3920388  13.1610058 113.5156455
  75.5262980  14.2695661 114.0755277  77.4862972  18.0416345 104.8292262
  77.0482402  17.3252203 104.3697899  78.2273413  18.2692459 104.2677353
  74.2764138  12.7313281 111.3504358  73.4632003  13.0307452 111.7569550
  74.7723132  12.3368970 112.0678840  76.4272716  22.7271038 113.2838622
  76.3848895  22.9531884 112.3547154  77.3435415  22.4934413 113.4324423
  85.6036087  16.3173542 110.8868581  85.4653985  16.5075138 109.9589770
  85.2472305  17.0792924 111.3436632  74.5438517  19.6034067 113.0800585
  75.3379115  19.1084387 112.8783160  73.8330209  19.0751930 112.7168291
  79.3633361  21.9852163 117.4312953  79.4170383  22.5543099 118.1990669
  78.4948142  22.1554048 117.0666990  70.8521280  13.7477149 109.1560338
  69.9218868  13.6861604 109.3730300  70.9478752  13.2253102 108.3596979
  77.1209793  20.1763089 116.7598422  76.9820878  19.8081874 117.6324360
  76.3324389  20.6910729 116.5882380  77.7157945  25.2772186 108.1023959
  77.8909700  24.8060229 108.9169581  77.0290733  25.9037952 108.3305219
  78.6715008  19.5544692 114.1487260  78.3364840  19.5145462 115.0444910
  78.1718953  18.8889408 113.6757670  81.6074199  16.9000726 104.4224320
  80.9903370  16.1747554 104.3257372  81.1390688  17.6610086 104.0791394
  72.2819030  28.4261548 114.8763819  72.5215628  29.0580073 115.5542837
  71.4388226  28.0749588 115.1629178  73.3972745  11.1186151 103.5445624
  72.5202212  10.9974951 103.1807871  73.8730498  10.3272229 103.2924513
  76.7946892  24.2340671 117.2805323  76.7217063  25.0395642 117.7924627
  76.3524285  24.4332637 116.4553344  76.5836671  23.4712441 110.7908144
  75.8004193  24.0134121 110.8846369  77.2829416  23.9886421 111.1902386
  79.8933321   9.2807070 113.4342350  80.3902021   8.5277033 113.1143420
  79.1220303   9.3171387 112.8685559  79.2545575  24.1327505 119.4363481
  79.9673547  24.7674970 119.3639383  78.7635604  24.2291371 118.6203483
  80.9763102  18.0378758 111.0080773  80.0419381  18.1580220 110.8385477
  81.1539771  17.1351224 110.7440783  84.3635653  13.8796077 111.5430807
  84.8296106  14.7124068 111.4691110  84.8143154  13.4141058 112.2476066
  82.4311885  20.2239898 108.5416959  82.7071728  20.1096493 109.4510833
  81.5616383  19.8257383 108.5029132  79.0665949  24.4726249 112.1849773
  79.2488343  23.6547905 112.6477525  79.8898935  24.6893941 111.7474663
  79.4008114  23.3994434 109.4464821  79.9295880  22.8886889 108.8334984
  79.6636334  23.0836964 110.3110354  72.7563862  24.4509551 112.2062597
  72.0874237  24.9355678 111.7226637  72.6176732  24.6978771 113.1205976
  76.8969131  26.4853294 118.8045256  77.4487439  26.6484916 119.5694341
  77.2375324  27.0757732 118.1325281  68.1251439  12.7128006 108.9858530
  68.4204880  11.8038684 108.9325583  67.2239475  12.6915745 108.6639532
  80.0337518  24.4335270 115.7908938  79.9088657  23.6325010 115.2819883
  80.6916609  24.9281463 115.3022908  82.0972426  22.2344290 117.4188488
  81.1502762  22.1149641 117.3466815  82.4455199  21.3466788 117.5014749
  69.8539281  10.3942103 109.1097855  69.5251987   9.5139482 108.9272961
  70.2078651  10.3389772 109.9974244  79.1018860  22.0297006 113.6192840
  78.9543822  21.1013714 113.8000410  79.9272353  22.0517097 113.1349915
  72.9681104  10.6815073 109.4773332  73.3077176  11.2100994 108.7551941
  73.4153224  11.0195479 110.2531899  82.7052981  22.8525565 114.7057713
  83.6299529  22.6468426 114.5682164  82.5368285  22.6041966 115.6147054
  74.9549251   9.1789695 107.6766625  75.6757613   9.5570948 107.1730342
  74.3314555   9.8978572 107.7801603  79.0980374   9.8834844 108.6124957
  79.3143988  10.7659482 108.3113786  78.6174441   9.4921057 107.8830599
  82.4948298  23.3711232 110.0619804  82.6685175  22.8057655 109.3093657
  82.9877189  24.1712127 109.8799294  75.1012874   8.7137485 110.5064162
  75.2228785   7.7854131 110.7055049  74.8114916   8.7276171 109.5942477
  88.3487689  16.1347655 111.6810104  88.7918835  15.3854980 111.2829227
  87.4714199  16.1257792 111.2983836  83.4823470  22.6877997 107.1616703
  84.1774375  23.3084689 107.3804017  83.8246620  21.8373348 107.4369081
  85.3814893  20.1377702 108.6904033  85.9066217  20.4764975 107.9653353
  85.2937246  19.2024718 108.5067168  77.0655554  26.2049686 113.0499287
  76.6260544  25.7126064 113.7432143  77.8163671  25.6622653 112.8091362
  69.5447893  22.3961226 113.0523915  70.3705913  22.0964998 112.6722558
  69.1941945  21.6268849 113.5013703  74.5129426  21.7487695 115.1221588
  73.8909435  21.0858400 114.8223816  75.1834293  21.7748827 114.4395236
  67.7456498  20.3147553 114.0112848  66.9088406  19.8869727 113.8296850
  67.7180143  20.5079996 114.9483640  74.0742933  20.2991618 108.5980049
  74.2231053  20.9827082 107.9446722  74.8809376  20.2796708 109.1129505
  71.8295566  16.3256796 109.6041118  71.5841608  15.4219126 109.8021328
  71.9991481  16.3273946 108.6620596  71.0991214  12.0585153 107.1027279
  70.4060458  12.1329508 106.4467315  70.8542965  11.2945497 107.6248796
  77.5738339  22.7939748 106.0691796  77.0012306  23.4129936 105.6162268
  78.1471132  23.3439110 106.6031718  80.7935598  23.0776899 107.2000379
  81.7266271  23.0122460 107.4033254  80.7058811  23.9133165 106.7414911
  83.4223615  22.3942769 104.1604326  83.3437247  22.0602632 105.0540084
  84.2433282  22.8864537 104.1595798  77.9585137  14.1300561 103.4107849
  78.9044242  14.0006769 103.4796267  77.5799382  13.3915223 103.8877277
  76.1428054  12.0550538 103.3462734  75.2359510  11.7583650 103.4225448
  76.4204035  11.7580356 102.4797020  77.7590120   6.5987427 109.5006975
  76.9490848   6.2534512 109.8762221  78.4474537   6.2894971 110.0894587
  74.9126839   8.9137473 103.4874713  75.7746003   9.2392371 103.7470531
  75.0977183   8.1268969 102.9747779  83.0659475   7.7865999 110.6309936
  82.4858144   8.4450803 110.2487989  82.7995408   6.9643344 110.2197354
  81.8484353   9.9466090 109.6866284  80.9610208  10.2315740 109.4686479
  82.2638342   9.7859853 108.8393561  69.8568604  24.5273841 114.7737729
  69.7223072  23.7674242 114.2075727  69.4400666  25.2514741 114.3066518
  80.9927567  19.7110764 103.7814304  81.6963417  19.9160767 104.3971960
  80.2690216  20.2787526 104.0463388  81.8225377  15.4620626 109.9016575
  81.7660578  15.9189177 109.0624207  82.3753720  14.7011310 109.7239417
  85.6330183  11.2510357 110.7266694  85.3767117  10.8506993 111.5574902
  85.0083051  11.9654151 110.6016833  73.0137730  25.4243158 114.9856172
  72.8970114  26.3688590 114.8834862  72.1930176  25.1216719 115.3741971
  82.9014264  20.1493293 105.8312765  83.7359868  19.7174492 105.6490239
  82.7398607  19.9775307 106.7589659  82.5560156  16.6525407 107.1969104
  82.5008960  16.4869678 106.2557548  81.9306212  17.3601440 107.3531294
  75.8656282   6.1533516 106.7754422  75.8534952   7.0975356 106.9322693
  76.7579704   5.9703661 106.4813883  74.0392244  26.0771420 118.2012100
  74.9419490  26.1095030 118.5178595  73.8129614  25.1471871 118.2158436
  75.7945846  24.8302406 114.8622179  74.8441477  24.8304268 114.7486551
  76.0978332  24.0835141 114.3458213  91.5298539  30.6662945 115.9267941
  92.1676949  30.5469692 115.2231281  91.4119382  31.6143789 115.9855893
  88.3388246  30.6190373 115.8629466  88.0006757  30.5031437 114.9750001
  89.2078014  30.2181538 115.8430472  84.1975061  32.4725849 111.8526357
  83.6339926  32.3815786 111.0842645  84.0827456  31.6525754 112.3328849
  81.7439493  33.9677041 114.6910577  82.5360785  33.6267865 114.2756877
  81.9836143  34.0772016 115.6112731  89.7774620  36.1396817 107.1640822
  89.1262600  36.7250897 106.7774836  90.5718983  36.6703012 107.2235859
  83.7030247  33.2285954 107.5627956  84.4761123  32.6814941 107.4240832
  84.0555646  34.0930203 107.7742418  85.5415290  34.5562336 120.7694855
  85.2505156  35.4607967 120.6541522  86.1772274  34.5978864 121.4838925
  86.4671497  31.9339185 117.3596215  87.0635069  31.7095207 116.6453178
  86.5246468  31.1923930 117.9621663  86.0396525  29.3878620 105.1946406
  86.2922046  28.8660141 104.4329869  85.1021084  29.2244766 105.2973090
  91.0839808  28.3914398 113.0021149  91.8702897  27.9733822 112.6511566
  91.3478512  29.2960491 113.1702798  91.2549885  33.8287249 107.7009806
  90.6195718  33.9021875 108.4130711  90.9247292  34.4180848 107.0228885
  85.7592814  31.2906726 107.3970781  85.6429072  30.6151629 108.0651865
  85.8695074  30.8039100 106.5802934  88.1024355  30.7516873 111.1017470
  87.7382562  30.2247494 111.8130392  88.9591471  30.3615342 110.9283956
  87.7429842  25.7806773 106.0978819  87.9104244  26.6487009 106.4649290
  87.5527011  25.9434055 105.1740108  90.5005175  34.2423752 117.7644649
  90.2005898  35.1448791 117.6560456  90.1556234  33.9755935 118.6165802
  83.9517656  30.6937549 113.7981354  83.0268153  30.5613763 114.0059045
  84.2002069  31.4731768 114.2951296  87.7219062  28.2364430 107.0825486
  87.6018688  28.6821481 107.9210966  87.0271651  28.5849748 106.5239024
  81.3126467  30.3370822 114.6325143  81.4418848  30.5905301 115.5464554
  80.6323919  30.9298530 114.3129798  85.4825955  41.0068072 110.7315617
  85.4049984  41.9575897 110.8104097  84.8787598  40.6613945 111.3890543
  93.4204129  28.7085904 107.9105820  94.3321985  28.9413290 107.7353517
  92.9113776  29.2922948 107.3480898  86.2289557  30.9881391 122.9494951
  86.9704241  31.5266435 122.6729774  85.5226542  31.6147680 123.1066503
  88.0575966  28.0683138 118.9200669  88.9037162  28.4922552 119.0635318
  87.9974604  27.4116762 119.6139232  92.0273711  33.6911722 115.3019401
  91.3982573  33.8557436 114.5995469  91.6399373  34.1053332 116.0730365
  95.9062943  34.6266160 112.6563765  95.2213981  35.0065061 112.1060798
  95.9906792  35.2361486 113.3895713  87.5801673  33.4286130 112.5669486
  88.0440018  33.7073833 111.7774109  87.3158471  32.5269575 112.3842577
  84.4725754  32.9757612 115.5049249  85.0427111  33.4044880 114.8666734
  85.0633866  32.6940196 116.2033435  86.5170559  29.5509282 109.3759051
  87.2194602  30.0030326 109.8432978  86.1851187  28.9093101 110.0038944
  80.2595893  27.8092835 114.6776185  79.4694947  28.0650364 114.2016296
  80.7507140  28.6241173 114.7828225  94.2759702  35.1498074 117.4281466
  95.0977146  34.7478262 117.1464147  94.2722105  35.0466308 118.3797582
  82.2110638  28.1737414 111.6359662  81.4141801  28.2856109 112.1543157
  81.9836230  28.5124067 110.7700552  88.0416306  34.6982118 119.5842176
  88.1060738  35.1602525 120.4200348  87.3327230  34.0679482 119.7124486
  78.5433596  28.0623326 117.1091176  78.7941634  28.9470335 117.3748752
  79.0793144  27.8827927 116.3366268  87.7564323  36.3650225 109.4521157
  87.6209998  37.2101761 109.8806004  88.2974136  36.5669503 108.6887090
  81.2093721  33.8825663 110.0249082  81.7218241  34.6768913 110.1754646
  81.8616434  33.1851954 109.9582683  83.0188606  36.9991419 112.1071835
  83.1955234  37.9209384 111.9192819  83.8145439  36.6849839 112.5366215
  82.3040962  29.0456051 121.9833998  82.1894477  28.1441308 122.2841097
  81.4485480  29.2919748 121.6318815  89.3832800  36.9873792 123.5821499
  88.9396654  36.2010170 123.2642403  90.0450013  37.1752942 122.9165389
  84.1419921  38.5169593 118.1082177  84.6927346  38.3886657 117.3359171
  83.3031397  38.8164482 117.7577070  87.9387092  34.7820721 122.4526408
  88.4715429  34.0209009 122.2225716  87.4101173  34.4894373 123.1950563
  79.1742638  32.2114317 110.8008652  80.0117860  32.6211326 110.5842360
  79.3520905  31.2713760 110.7708846  91.0707070  29.8789398 106.4892485
  90.5553693  30.6494003 106.7280873  90.7984378  29.2054534 107.1125547
  88.6554181  24.7239099 111.5477724  87.7995777  24.3345949 111.3683362
  89.0681133  24.8031060 110.6877509  86.4296213  22.3424172 114.9535465
  87.2949210  22.1466980 114.5941354  86.4973722  22.1134524 115.8804822
  96.0441344  32.6321753 108.4245659  95.2670787  32.2932912 107.9800821
  96.7232825  32.6374376 107.7500624  90.8593373  27.7516490 108.3152266
  90.5543509  28.0662639 109.1662410  91.8123815  27.8297910 108.3579599
  89.3039805  33.9106713 109.9645220  88.7761166  33.1759473 109.6518458
  88.8027308  34.6881390 109.7185189  94.2832651  32.1055734 115.0812267
  93.6256325  32.7954995 115.1692395  95.0873050  32.4952166 115.4246253
  84.0358532  24.5726380 112.3251832  84.6102284  24.3501561 111.5925025
  84.6229515  24.6415074 113.0780433  93.0938110  30.4600107 113.1316208
  93.6069991  31.0930098 113.6337918  93.7439333  29.8601302 112.7659568
  84.3628120  26.6030841 106.3447717  83.5265432  26.9405527 106.6656992
  84.2232889  26.4679821 105.4074854  86.3381200  21.4467629 111.0526901
  85.6845612  21.1316646 110.4283516  86.2961674  20.8243369 111.7786724
  87.4492405  31.7286924 102.9680193  86.5419467  31.4976177 103.1671342
  87.9463437  30.9324543 103.1554175  90.3560484  40.4384431 105.8876880
  89.6822183  40.7416128 106.4961837  90.7426306  41.2413511 105.5382337
  89.5718940  27.9349562 115.3774549  88.6541502  28.1564509 115.2196237
  89.9879084  28.0095873 114.5186256  90.3553988  29.3340978 110.5077229
  91.1025807  29.8462375 110.1984351  90.6245578  29.0125031 111.3681623
  88.6280638  31.8299519 107.4904183  87.7191858  31.5458551 107.5876653
  88.6575722  32.2498597 106.6307490  93.8599906  35.4406108 111.2595351
  93.4062233  34.5997018 111.3160541  93.2293873  36.0767506 111.5970131
  92.8032825  26.3698094 112.4896018  92.0655582  25.8575480 112.8206261
  93.0559599  25.9298476 111.6779295  92.3032845  37.2782605 112.1945169
  92.5955819  37.8387662 111.4757535  92.8131466  37.5711166 112.9498328
  79.1968809  29.5505033 111.4719386  78.9993209  28.9574393 110.7470452
  78.6415473  29.2457243 112.1895324  87.1765532  29.4428139 113.5913979
  87.2314142  28.4901976 113.5156455  86.3656734  29.5987578 114.0755277
  88.3256726  33.3708262 104.8292262  87.8876156  32.6544121 104.3697899
  89.0667167  33.5984377 104.2677353  85.1157892  28.0605199 111.3504358
  84.3025758  28.3599369 111.7569550  85.6116887  27.6660888 112.0678840
  87.2666470  38.0562956 113.2838622  87.2242649  38.2823802 112.3547154
  88.1829169  37.8226330 113.4324423  96.4429841  31.6465459 110.8868581
  96.3047740  31.8367055 109.9589770  96.0866060  32.4084842 111.3436632
  84.6071967  25.6323554 116.9665593  85.2471346  25.4912314 116.2688556
  83.7749498  25.3458068 116.5904195  85.3832271  34.9325985 113.0800585
  86.1772870  34.4376305 112.8783160  84.6723963  34.4043848 112.7168291
  90.2027116  37.3144080 117.4312953  90.2564138  37.8835017 118.1990669
  89.3341897  37.4845965 117.0666990  81.6915034  29.0769067 109.1560338
  80.7612623  29.0153522 109.3730300  81.7872506  28.5545019 108.3596979
  81.6100584  25.6023879 111.7438579  81.8707401  26.5169213 111.6347740
  82.4317756  25.1348322 111.8935192  83.0825509  27.0161637 118.9137404
  83.7548562  26.8078999 118.2650053  82.2555295  26.8183723 118.4742636
  89.1615215  31.4804342 118.9899885  90.0907275  31.6315502 118.8168852
  88.7406245  31.5688363 118.1348531  87.9603547  35.5055007 116.7598422
  87.8214633  35.1373791 117.6324360  87.1718143  36.0202646 116.5882380
  88.5551699  40.6064103 108.1023959  88.7303455  40.1352147 108.9169581
  87.8684487  41.2329870 108.3305219  89.5108762  34.8836610 114.1487260
  89.1758595  34.8437380 115.0444910  89.0112708  34.2181325 113.6757670
  83.4853006  30.2904240 119.6739841  83.3472804  29.5584478 120.2751380
  84.3957930  30.2013140 119.3924029  92.4467954  32.2292644 104.4224320
  91.8297124  31.5039472 104.3257372  91.9784442  32.9902004 104.0791394
  86.1135307  30.0024199 119.1623521  86.8234925  29.3617391 119.1210139
  86.0704615  30.2537094 120.0849702  84.8264241  26.9889417 120.9819160
  84.2901598  26.5380155 121.6340757  84.2380949  27.1235326 120.2389625
  83.1212784  43.7553466 114.8763819  83.3609383  44.3871990 115.5542837
  82.2781981  43.4041506 115.1629178  84.2366500  26.4478068 103.5445624
  83.3595966  26.3266869 103.1807871  84.7124253  25.6564146 103.2924513
  75.7568640  31.2355228 113.6387131  76.4439680  30.9216958 113.0508146
  75.6016769  32.1396593 113.3654382  80.5603362  26.1245424 118.0672155
  80.4761551  25.5171094 117.3322565  79.7386068  26.6154443 118.0681651
  87.6340646  39.5632589 117.2805323  87.5610818  40.3687560 117.7924627
  87.1918039  39.7624554 116.4553344  87.4230426  38.8004359 110.7908144
  86.6397948  39.3426039 110.8846369  88.1223171  39.3178338 111.1902386
  90.7327076  24.6098988 113.4342350  91.2295775  23.8568950 113.1143420
  89.9614057  24.6463305 112.8685559  90.0939330  39.4619423 119.4363481
  90.8067302  40.0966887 119.3639383  89.6029358  39.5583289 118.6203483
  91.8156857  33.3670675 111.0080773  90.8813135  33.4872138 110.8385477
  91.9933525  32.4643142 110.7440783  87.3162045  26.7516371 113.1614034
  86.9459832  26.1987411 113.8494940  87.8121137  26.1474504 112.6089034
  95.2029408  29.2087995 111.5430807  95.6689860  30.0415986 111.4691110
  95.6536908  28.7432976 112.2476066  85.1451243  37.2113866 120.2569052
  85.8460703  37.8450349 120.4098447  84.6746358  37.5528598 119.4964692
  93.2705639  35.5531816 108.5416959  93.5465483  35.4388410 109.4510833
  92.4010138  35.1549301 108.5029132  89.9059703  39.8018167 112.1849773
  90.0882098  38.9839823 112.6477525  90.7292689  40.0185859 111.7474663
  90.2401869  38.7286352 109.4464821  90.7689635  38.2178806 108.8334984
  90.5030088  38.4128882 110.3110354  80.7418961  36.7450221 117.1900155
  81.3272398  35.9993909 117.3228059  80.5443800  37.0554178 118.0736819
  83.5957616  39.7801468 112.2062597  82.9267992  40.2647596 111.7226637
  83.4570486  40.0270689 113.1205976  75.3336616  29.3155821 115.9104598
  75.3720716  28.7819412 116.7041716  74.8276909  28.7891027 115.2915575
  87.7362885  41.8145212 118.8045256  88.2881193  41.9776833 119.5694341
  88.0769079  42.4049650 118.1325281  82.7127378  24.1620362 119.4067140
  82.7768705  25.0235193 118.9944538  82.6494499  23.5494363 118.6739499
  78.9645194  28.0419923 108.9858530  79.2598635  27.1330602 108.9325583
  78.0633229  28.0207663 108.6639532  90.8731272  39.7627188 115.7908938
  90.7482412  38.9616927 115.2819883  91.5310363  40.2573381 115.3022908
  82.4939441  26.1175920 114.9686078  81.7726026  26.7311888 114.8293551
  83.2832696  26.6533685 114.8902724  92.9366181  37.5636208 117.4188488
  91.9896516  37.4441559 117.3466815  93.2848954  36.6758706 117.5014749
  80.6933035  25.7234021 109.1097855  80.3645741  24.8431400 108.9272961
  81.0472406  25.6681690 109.9974244  89.9412614  37.3588924 113.6192840
  89.7937576  36.4305631 113.8000410  90.7666108  37.3809015 113.1349915
  83.8074858  26.0106991 109.4773332  84.1470931  26.5392912 108.7551941
  84.2546979  26.3487397 110.2531899  93.5446736  38.1817483 114.7057713
  94.4693283  37.9760344 114.5682164  93.3762039  37.9333884 115.6147054
  85.7943005  24.5081612 107.6766625  86.5151368  24.8862865 107.1730342
  85.1708310  25.2270489 107.7801603  89.9374128  25.2126761 108.6124957
  90.1537743  26.0951399 108.3113786  89.4568195  24.8212975 107.8830599
  84.6773350  28.1712475 115.1895702  84.5317930  28.4852778 116.0819984
  84.1998553  28.7897375 114.6366601  86.5369733  25.1615023 115.2376592
  86.5231301  24.2656116 114.9008890  87.2542161  25.1685686 115.8714878
  88.3895863  25.5952363 117.2829719  88.1313641  26.5169434 117.2814049
  87.8580904  25.1982797 117.9730183  93.3342052  38.7003150 110.0619804
  93.5078930  38.1349572 109.3093657  93.8270943  39.5004045 109.8799294
  79.1519012  30.7117819 118.1283363  78.6072480  31.4877627 118.2603638
  80.0298362  31.0588624 117.9702485  85.9406629  24.0429403 110.5064162
  86.0622540  23.1146049 110.7055049  85.6508671  24.0568089 109.5942477
  88.8097819  21.7284313 113.6430882  88.8319516  21.7923646 112.6882861
  89.2265878  20.8888822 113.8371388  99.1881443  31.4639573 111.6810104
  99.6312589  30.7146898 111.2829227  98.3107954  31.4549709 111.2983836
  94.3217225  38.0169914 107.1616703  95.0168129  38.6376607 107.3804017
  94.6640375  37.1665266 107.4369081  79.9385034  29.8387715 121.0213520
  79.1966770  29.9870351 121.6078151  79.6177778  30.0995981 120.1580270
  96.2208648  35.4669620 108.6904033  96.7459972  35.8056893 107.9653353
  96.1331000  34.5316635 108.5067168  87.8828696  39.3803694 120.8193910
  88.1915823  39.1352840 121.6916610  88.6804178  39.5850332 120.3312780
  87.9049308  41.5341603 113.0499287  87.4654299  41.0417982 113.7432143
  88.6557425  40.9914571 112.8091362  80.3841647  37.7253144 113.0523915
  81.2099667  37.4256916 112.6722558  80.0335699  36.9560766 113.5013703
  85.3523181  37.0779612 115.1221588  84.7303190  36.4150317 114.8223816
  86.0228047  37.1040744 114.4395236  78.5850252  35.6439471 114.0112848
  77.7482161  35.2161645 113.8296850  78.5573898  35.8371914 114.9483640
  84.9136687  35.6283536 108.5980049  85.0624808  36.3119000 107.9446722
  85.7203131  35.6088626 109.1129505  82.6689320  31.6548713 109.6041118
  82.4235362  30.7511043 109.8021328  82.8385235  31.6565864 108.6620596
  81.9384968  27.3877071 107.1027279  81.2454213  27.4621426 106.4467315
  81.6936720  26.6237414 107.6248796  88.4132093  38.1231666 106.0691796
  87.8406060  38.7421853 105.6162268  88.9864887  38.6731028 106.6031718
  91.6329353  38.4068816 107.2000379  92.5660026  38.3414378 107.4033254
  91.5452566  39.2425083 106.7414911  94.2617369  37.7234687 104.1604326
  94.1831001  37.3894550 105.0540084  95.0827036  38.2156454 104.1595798
  88.7978892  29.4592479 103.4107849  89.7437996  29.3298687 103.4796267
  88.4193136  28.7207141 103.8877277  86.9821809  27.3842455 103.3462734
  86.0753264  27.0875568 103.4225448  87.2597790  27.0872273 102.4797020
  77.8999749  28.7048819 113.7961780  77.5802533  27.8514127 113.5036154
  77.3533177  28.9197397 114.5519748  81.6779657  31.4211260 117.5131287
  81.8965666  32.3528367 117.5319321  82.0905430  31.0619234 118.2986091
  88.5983874  21.9279345 109.5006975  87.7884603  21.5826430 109.8762221
  89.2868291  21.6186889 110.0894587  90.5274423  21.0057392 111.1231272
  91.0805461  21.4252845 111.7821295  90.7644509  20.0793140 111.1654228
  85.7520593  24.2429390 103.4874713  86.6139757  24.5684289 103.7470531
  85.9370937  23.4560886 102.9747779  77.7688009  32.3251730 115.7654902
  77.0751480  31.9105683 115.2524856  78.5161000  32.3672267 115.1688321
  93.9053230  23.1157917 110.6309936  93.3251899  23.7742721 110.2487989
  93.6389162  22.2935261 110.2197354  79.6824752  32.2569984 113.6420917
  79.6595440  32.3557671 112.6902800  79.9925388  33.1035135 113.9638083
  82.3412129  34.3146139 117.7567531  83.2955383  34.2830081 117.6897463
  82.1424653  33.8536763 118.5717757  82.9311512  32.8847255 120.3238329
  83.7504401  33.3791334 120.3473166  83.2048319  31.9679223 120.2955896
  92.6878108  25.2758007 109.6866284  91.8003963  25.5607658 109.4686479
  93.1032097  25.1151771 108.8393561  80.6962358  39.8565758 114.7737729
  80.5616826  39.0966159 114.2075727  80.2794421  40.5806658 114.3066518
  91.8321321  35.0402682 103.7814304  92.5357171  35.2452684 104.3971960
  91.1083970  35.6079444 104.0463388  92.6619132  30.7912543 109.9016575
  92.6054333  31.2481095 109.0624207  93.2147474  30.0303228 109.7239417
  96.4723937  26.5802275 110.7266694  96.2160872  26.1798911 111.5574902
  95.8476805  27.2946069 110.6016833  83.8531484  40.7535075 114.9856172
  83.7363868  41.6980508 114.8834862  83.0323930  40.4508637 115.3741971
  93.7408019  35.4785211 105.8312765  94.5753623  35.0466410 105.6490239
  93.5792362  35.3067225 106.7589659  93.3953911  31.9817324 107.1969104
  93.3402715  31.8161596 106.2557548  92.7699966  32.6893357 107.3531294
  78.1846426  27.2185389 121.0230526  78.8305289  26.7084343 121.5117751
  77.9763577  27.9554070 121.5973951  86.7050036  21.4825433 106.7754422
  86.6928706  22.4267273 106.9322693  87.5973458  21.2995579 106.4813883
  84.8785998  41.4063337 118.2012100  85.7813245  41.4386948 118.5178595
  84.6523368  40.4763788 118.2158436  86.6339600  40.1594324 114.8622179
  85.6835231  40.1596185 114.7486551  86.9372086  39.4127058 114.3458213
  90.5202156  18.0768210 111.0300359  89.7534552  17.5226697 111.1757041
  90.9312861  18.1490079 111.8914511 102.3692294  45.9954862 115.9267941
 103.0070704  45.8761610 115.2231281 102.2513137  46.9435706 115.9855893
  99.1782000  45.9482290 115.8629466  98.8400512  45.8323355 114.9750001
 100.0471768  45.5473455 115.8430472  95.0368816  47.8017767 111.8526357
  94.4733681  47.7107704 111.0842645  94.9221211  46.9817671 112.3328849
  92.5833248  49.2968958 114.6910577  93.3754540  48.9559783 114.2756877
  92.8229898  49.4063933 115.6112731 100.6168374  51.4688734 107.1640822
  99.9656354  52.0542815 106.7774836 101.4112737  51.9994929 107.2235859
  94.5424002  48.5577872 107.5627956  95.3154878  48.0106859 107.4240832
  94.8949400  49.4222121 107.7742418  96.3809044  49.8854254 120.7694855
  96.0898910  50.7899885 120.6541522  97.0166029  49.9270782 121.4838925
  97.3065251  47.2631102 117.3596215  97.9028823  47.0387125 116.6453178
  97.3640223  46.5215848 117.9621663  96.8790279  44.7170538 105.1946406
  97.1315800  44.1952059 104.4329869  95.9414839  44.5536683 105.2973090
 101.9233562  43.7206316 113.0021149 102.7096651  43.3025739 112.6511566
 102.1872267  44.6252408 113.1702798 102.0943640  49.1579166 107.7009806
 101.4589473  49.2313793 108.4130711 101.7641046  49.7472765 107.0228885
  96.5986568  46.6198644 107.3970781  96.4822826  45.9443547 108.0651865
  96.7088828  46.1331018 106.5802934  98.9418109  46.0808791 111.1017470
  98.5776316  45.5539412 111.8130392  99.7985225  45.6907260 110.9283956
  98.5823596  41.1098690 106.0978819  98.7497998  41.9778927 106.4649290
  98.3920765  41.2725972 105.1740108 101.3398929  49.5715669 117.7644649
 101.0399652  50.4740708 117.6560456 100.9949989  49.3047853 118.6165802
  94.7911411  46.0229466 113.7981354  93.8661907  45.8905680 114.0059045
  95.0395824  46.8023685 114.2951296  98.5612817  43.5656348 107.0825486
  98.4412442  44.0113399 107.9210966  97.8665405  43.9141666 106.5239024
  92.1520222  45.6662740 114.6325143  92.2812603  45.9197219 115.5464554
  91.4717673  46.2590448 114.3129798  96.3219709  56.3359990 110.7315617
  96.2443739  57.2867815 110.8104097  95.7181353  55.9905862 111.3890543
 104.2597883  44.0377821 107.9105820 105.1715739  44.2705208 107.7353517
 103.7507530  44.6214865 107.3480898  97.0683311  46.3173309 122.9494951
  97.8097996  46.8558353 122.6729774  96.3620297  46.9439597 123.1066503
  98.8969721  43.3975056 118.9200669  99.7430916  43.8214469 119.0635318
  98.8368358  42.7408680 119.6139232 102.8667465  49.0203640 115.3019401
 102.2376328  49.1849354 114.5995469 102.4793128  49.4345249 116.0730365
 106.7456697  49.9558077 112.6563765 106.0607735  50.3356979 112.1060798
 106.8300547  50.5653404 113.3895713  98.4195427  48.7578048 112.5669486
  98.8833773  49.0365751 111.7774109  98.1552225  47.8561492 112.3842577
  95.3119508  48.3049529 115.5049249  95.8820865  48.7336798 114.8666734
  95.9027620  48.0232114 116.2033435  97.3564313  44.8801200 109.3759051
  98.0588357  45.3322244 109.8432978  97.0244942  44.2385019 110.0038944
  91.0989647  43.1384753 114.6776185  90.3088701  43.3942281 114.2016296
  91.5900895  43.9533091 114.7828225 105.1153457  50.4789992 117.4281466
 105.9370901  50.0770179 117.1464147 105.1115860  50.3758226 118.3797582
  93.0504393  43.5029332 111.6359662  92.2535556  43.6148026 112.1543157
  92.8229985  43.8415984 110.7700552  98.8810060  50.0274035 119.5842176
  98.9454493  50.4894442 120.4200348  98.1720984  49.3971400 119.7124486
  89.3827350  43.3915243 117.1091176  89.6335389  44.2762253 117.3748752
  89.9186899  43.2119845 116.3366268  98.5958078  51.6942143 109.4521157
  98.4603753  52.5393678 109.8806004  99.1367890  51.8961420 108.6887090
  92.0487475  49.2117581 110.0249082  92.5611996  50.0060831 110.1754646
  92.7010188  48.5143871 109.9582683  93.8582360  52.3283337 112.1071835
  94.0348988  53.2501302 111.9192819  94.6539194  52.0141756 112.5366215
  93.1434717  44.3747969 121.9833998  93.0288232  43.4733226 122.2841097
  92.2879234  44.6211666 121.6318815 100.2226554  52.3165709 123.5821499
  99.7790409  51.5302088 123.2642403 100.8843768  52.5044860 122.9165389
  94.9813676  53.8461511 118.1082177  95.5321101  53.7178574 117.3359171
  94.1425151  54.1456400 117.7577070  98.7780847  50.1112639 122.4526408
  99.3109183  49.3500927 122.2225716  98.2494928  49.8186290 123.1950563
  90.0136392  47.5406235 110.8008652  90.8511614  47.9503243 110.5842360
  90.1914660  46.6005677 110.7708846 101.9100824  45.2081316 106.4892485
 101.3947448  45.9785920 106.7280873 101.6378133  44.5346452 107.1125547
  99.4947935  40.0531016 111.5477724  98.6389532  39.6637867 111.3683362
  99.9074887  40.1322977 110.6877509  97.2689968  37.6716089 114.9535465
  98.1342965  37.4758898 114.5941354  97.3367477  37.4426441 115.8804822
 106.8835098  47.9613670 108.4245659 106.1064541  47.6224830 107.9800821
 107.5626579  47.9666294 107.7500624 101.6987127  43.0808408 108.3152266
 101.3937263  43.3954557 109.1662410 102.6517570  43.1589828 108.3579599
 100.1433559  49.2398631 109.9645220  99.6154921  48.5051391 109.6518458
  99.6421062  50.0173307 109.7185189 105.1226405  47.4347652 115.0812267
 104.4650080  48.1246913 115.1692395 105.9266805  47.8244084 115.4246253
  94.8752287  39.9018297 112.3251832  95.4496039  39.6793479 111.5925025
  95.4623269  39.9706992 113.0780433 103.9331864  45.7892024 113.1316208
 104.4463746  46.4222016 113.6337918 104.5833088  45.1893220 112.7659568
  95.2021874  41.9322758 106.3447717  94.3659186  42.2697445 106.6656992
  95.0626644  41.7971738 105.4074854  97.1774955  36.7759546 111.0526901
  96.5239367  36.4608563 110.4283516  97.1355429  36.1535287 111.7786724
  98.2886159  47.0578841 102.9680193  97.3813221  46.8268095 103.1671342
  98.7857191  46.2616461 103.1554175 101.1954238  55.7676349 105.8876880
 100.5215937  56.0708045 106.4961837 101.5820060  56.5705429 105.5382337
 100.4112695  43.2641480 115.3774549  99.4935256  43.4856427 115.2196237
 100.8272839  43.3387790 114.5186256 101.1947743  44.6632896 110.5077229
 101.9419562  45.1754293 110.1984351 101.4639332  44.3416948 111.3681623
  99.4674393  47.1591436 107.4904183  98.5585612  46.8750469 107.5876653
  99.4969477  47.5790515 106.6307490 104.6993660  50.7698026 111.2595351
 104.2455987  49.9288936 111.3160541 104.0687627  51.4059424 111.5970131
 103.6426580  41.6990012 112.4896018 102.9049337  41.1867398 112.8206261
 103.8953353  41.2590393 111.6779295 103.1426600  52.6074522 112.1945169
 103.4349574  53.1679580 111.4757535 103.6525220  52.9003083 112.9498328
  90.0362563  44.8796950 111.4719386  89.8386963  44.2866311 110.7470452
  89.4809227  44.5749161 112.1895324  98.0159287  44.7720057 113.5913979
  98.0707897  43.8193893 113.5156455  97.2050489  44.9279496 114.0755277
  99.1650481  48.7000180 104.8292262  98.7269911  47.9836039 104.3697899
  99.9060922  48.9276295 104.2677353  95.9551647  43.3897117 111.3504358
  95.1419512  43.6891287 111.7569550  96.4510641  42.9952805 112.0678840
  98.1060225  53.3854874 113.2838622  98.0636404  53.6115720 112.3547154
  99.0222924  53.1518248 113.4324423 107.2823595  46.9757377 110.8868581
 107.1441494  47.1658973 109.9589770 106.9259814  47.7376760 111.3436632
  95.4465722  40.9615472 116.9665593  96.0865101  40.8204231 116.2688556
  94.6143252  40.6749986 116.5904195  96.2226026  50.2617903 113.0800585
  97.0166624  49.7668223 112.8783160  95.5117718  49.7335766 112.7168291
 101.0420870  52.6435998 117.4312953 101.0957892  53.2126934 118.1990669
 100.1735651  52.8137883 117.0666990  92.5308789  44.4060984 109.1560338
  91.6006377  44.3445440 109.3730300  92.6266261  43.8836937 108.3596979
  92.4494338  40.9315797 111.7438579  92.7101155  41.8461130 111.6347740
  93.2711510  40.4640240 111.8935192  93.9219263  42.3453554 118.9137404
  94.5942317  42.1370916 118.2650053  93.0949050  42.1475640 118.4742636
 100.0008970  46.8096260 118.9899885 100.9301030  46.9607420 118.8168852
  99.5800000  46.8980281 118.1348531  98.7997302  50.8346925 116.7598422
  98.6608387  50.4665709 117.6324360  98.0111898  51.3494564 116.5882380
  99.3945453  55.9356021 108.1023959  99.5697209  55.4644064 108.9169581
  98.7078242  56.5621787 108.3305219 100.3502517  50.2128527 114.1487260
 100.0152349  50.1729297 115.0444910  99.8506462  49.5473243 113.6757670
  94.3246761  45.6196157 119.6739841  94.1866559  44.8876396 120.2751380
  95.2351684  45.5305057 119.3924029 103.2861708  47.5584562 104.4224320
 102.6690879  46.8331390 104.3257372 102.8178197  48.3193922 104.0791394
  96.9529061  45.3316117 119.1623521  97.6628680  44.6909309 119.1210139
  96.9098369  45.5829011 120.0849702  95.6657995  42.3181334 120.9819160
  95.1295352  41.8672073 121.6340757  95.0774704  42.4527243 120.2389625
  93.9606539  59.0845384 114.8763819  94.2003137  59.7163908 115.5542837
  93.1175735  58.7333424 115.1629178  95.0760254  41.7769986 103.5445624
  94.1989721  41.6558787 103.1807871  95.5518007  40.9856064 103.2924513
  86.5962394  46.5647146 113.6387131  87.2833434  46.2508876 113.0508146
  86.4410523  47.4688510 113.3654382  91.3997117  41.4537342 118.0672155
  91.3155305  40.8463012 117.3322565  90.5779823  41.9446360 118.0681651
  98.4734401  54.8924506 117.2805323  98.4004572  55.6979478 117.7924627
  98.0311794  55.0916472 116.4553344  98.2624180  54.1296276 110.7908144
  97.4791702  54.6717956 110.8846369  98.9616925  54.6470256 111.1902386
 101.5720830  39.9390906 113.4342350 102.0689530  39.1860868 113.1143420
 100.8007812  39.9755222 112.8685559 100.9333084  54.7911340 119.4363481
 101.6461056  55.4258805 119.3639383 100.4423113  54.8875206 118.6203483
 102.6550611  48.6962593 111.0080773 101.7206890  48.8164055 110.8385477
 102.8327280  47.7935060 110.7440783  98.1555799  42.0808289 113.1614034
  97.7853587  41.5279329 113.8494940  98.6514892  41.4766422 112.6089034
 106.0423162  44.5379912 111.5430807 106.5083615  45.3707904 111.4691110
 106.4930663  44.0724894 112.2476066  95.9844998  52.5405784 120.2569052
  96.6854457  53.1742267 120.4098447  95.5140113  52.8820515 119.4964692
 104.1099394  50.8823733 108.5416959 104.3859237  50.7680328 109.4510833
 103.2403892  50.4841218 108.5029132 100.7453458  55.1310084 112.1849773
 100.9275852  54.3131740 112.6477525 101.5686444  55.3477777 111.7474663
 101.0795623  54.0578269 109.4464821 101.6083389  53.5470724 108.8334984
 101.3423843  53.7420800 110.3110354  91.5812716  52.0742139 117.1900155
  92.1666153  51.3285827 117.3228059  91.3837554  52.3846095 118.0736819
  94.4351371  55.1093386 112.2062597  93.7661746  55.5939514 111.7226637
  94.2964241  55.3562607 113.1205976  86.1730370  44.6447739 115.9104598
  86.2114470  44.1111330 116.7041716  85.6670663  44.1182944 115.2915575
  98.5756640  57.1437130 118.8045256  99.1274948  57.3068751 119.5694341
  98.9162833  57.7341567 118.1325281  93.5521133  39.4912279 119.4067140
  93.6162459  40.3527110 118.9944538  93.4888253  38.8786281 118.6739499
  89.8038948  43.3711841 108.9858530  90.0992389  42.4622520 108.9325583
  88.9026984  43.3499581 108.6639532 101.7125027  55.0919105 115.7908938
 101.5876166  54.2908845 115.2819883 102.3704118  55.5865299 115.3022908
  93.3333195  41.4467838 114.9686078  92.6119781  42.0603805 114.8293551
  94.1226451  41.9825603 114.8902724 103.7759935  52.8928125 117.4188488
 102.8290271  52.7733476 117.3466815 104.1242708  52.0050623 117.5014749
  91.5326790  41.0525939 109.1097855  91.2039496  40.1723318 108.9272961
  91.8866160  40.9973607 109.9974244 100.7806369  52.6880841 113.6192840
 100.6331331  51.7597549 113.8000410 101.6059862  52.7100932 113.1349915
  94.6468613  41.3398909 109.4773332  94.9864685  41.8684830 108.7551941
  95.0940733  41.6779315 110.2531899 104.3840490  53.5109400 114.7057713
 105.3087038  53.3052262 114.5682164 104.2155794  53.2625801 115.6147054
  96.6336760  39.8373530 107.6766625  97.3545122  40.2154783 107.1730342
  96.0102064  40.5562407 107.7801603 100.7767883  40.5418679 108.6124957
 100.9931497  41.4243317 108.3113786 100.2961950  40.1504893 107.8830599
  95.5167104  43.5004392 115.1895702  95.3711685  43.8144695 116.0819984
  95.0392308  44.1189293 114.6366601  97.3763487  40.4906940 115.2376592
  97.3625056  39.5948034 114.9008890  98.0935915  40.4977604 115.8714878
  99.2289618  40.9244281 117.2829719  98.9707396  41.8461351 117.2814049
  98.6974658  40.5274715 117.9730183 104.1735807  54.0295068 110.0619804
 104.3472684  53.4641490 109.3093657 104.6664698  54.8295963 109.8799294
  89.9912766  46.0409737 118.1283363  89.4466234  46.8169545 118.2603638
  90.8692116  46.3880541 117.9702485  96.7800383  39.3721321 110.5064162
  96.9016294  38.4437967 110.7055049  96.4902425  39.3860007 109.5942477
  99.6491573  37.0576231 113.6430882  99.6713270  37.1215564 112.6882861
 100.0659632  36.2180740 113.8371388 110.0275198  46.7931491 111.6810104
 110.4706344  46.0438816 111.2829227 109.1501708  46.7841627 111.2983836
 105.1610979  53.3461832 107.1616703 105.8561884  53.9668525 107.3804017
 105.5034129  52.4957183 107.4369081  90.7778788  45.1679633 121.0213520
  90.0360524  45.3162268 121.6078151  90.4571533  45.4287899 120.1580270
 107.0602402  50.7961538 108.6904033 107.5853726  51.1348810 107.9653353
 106.9724755  49.8608553 108.5067168  98.7222451  54.7095611 120.8193910
  99.0309577  54.4644758 121.6916610  99.5197933  54.9142250 120.3312780
  98.7443063  56.8633521 113.0499287  98.3048053  56.3709900 113.7432143
  99.4951180  56.3206489 112.8091362  91.2235402  53.0545062 113.0523915
  92.0493422  52.7548834 112.6722558  90.8729454  52.2852684 113.5013703
  96.1916935  52.4071530 115.1221588  95.5696944  51.7442235 114.8223816
  96.8621802  52.4332662 114.4395236  89.4244007  50.9731388 114.0112848
  88.5875915  50.5453563 113.8296850  89.3967652  51.1663832 114.9483640
  95.7530442  50.9575453 108.5980049  95.9018562  51.6410918 107.9446722
  96.5596885  50.9380543 109.1129505  93.5083075  46.9840631 109.6041118
  93.2629117  46.0802961 109.8021328  93.6778990  46.9857781 108.6620596
  92.7778723  42.7168989 107.1027279  92.0847967  42.7913344 106.4467315
  92.5330474  41.9529332 107.6248796  99.2525848  53.4523584 106.0691796
  98.6799815  54.0713771 105.6162268  99.8258641  54.0022945 106.6031718
 102.4723107  53.7360734 107.2000379 103.4053780  53.6706296 107.4033254
 102.3846320  54.5717001 106.7414911 105.1011124  53.0526604 104.1604326
 105.0224755  52.7186468 105.0540084 105.9220791  53.5448372 104.1595798
  99.6372646  44.7884397 103.4107849 100.5831751  44.6590605 103.4796267
  99.2586891  44.0499058 103.8877277  97.8215563  42.7134373 103.3462734
  96.9147019  42.4167486 103.4225448  98.0991544  42.4164191 102.4797020
  88.7393504  44.0340736 113.7961780  88.4196288  43.1806044 113.5036154
  88.1926932  44.2489314 114.5519748  92.5173411  46.7503177 117.5131287
  92.7359421  47.6820285 117.5319321  92.9299185  46.3911152 118.2986091
  99.4377629  37.2571263 109.5006975  98.6278357  36.9118348 109.8762221
 100.1262046  36.9478806 110.0894587 101.3668177  36.3349309 111.1231272
 101.9199216  36.7544763 111.7821295 101.6038264  35.4085058 111.1654228
  96.5914348  39.5721308 103.4874713  97.4533512  39.8976206 103.7470531
  96.7764692  38.7852804 102.9747779  88.6081764  47.6543648 115.7654902
  87.9145235  47.2397601 115.2524856  89.3554755  47.6964184 115.1688321
 104.7446984  38.4449835 110.6309936 104.1645653  39.1034639 110.2487989
 104.4782917  37.6227179 110.2197354  90.5218506  47.5861902 113.6420917
  90.4989194  47.6849589 112.6902800  90.8319143  48.4327052 113.9638083
  93.1805884  49.6438057 117.7567531  94.1349138  49.6121999 117.6897463
  92.9818408  49.1828680 118.5717757  93.7705266  48.2139173 120.3238329
  94.5898155  48.7083251 120.3473166  94.0442074  47.2971141 120.2955896
 103.5271862  40.6049925 109.6866284 102.6397717  40.8899576 109.4686479
 103.9425851  40.4443688 108.8393561  91.5356113  55.1857676 114.7737729
  91.4010581  54.4258077 114.2075727  91.1188175  55.9098576 114.3066518
 102.6715076  50.3694600 103.7814304 103.3750926  50.5744602 104.3971960
 101.9477725  50.9371362 104.0463388 103.5012886  46.1204461 109.9016575
 103.4448087  46.5773012 109.0624207 104.0541228  45.3595145 109.7239417
 107.3117692  41.9094193 110.7266694 107.0554626  41.5090828 111.5574902
 106.6870560  42.6237987 110.6016833  94.6925239  56.0826993 114.9856172
  94.5757623  57.0272426 114.8834862  93.8717685  55.7800555 115.3741971
 104.5801773  50.8077129 105.8312765 105.4147377  50.3758327 105.6490239
 104.4186116  50.6359143 106.7589659 104.2347665  47.3109242 107.1969104
 104.1796469  47.1453514 106.2557548 103.6093721  48.0185275 107.3531294
  89.0240180  42.5477307 121.0230526  89.6699044  42.0376260 121.5117751
  88.8157331  43.2845988 121.5973951  97.5443791  36.8117351 106.7754422
  97.5322461  37.7559191 106.9322693  98.4367213  36.6287497 106.4813883
  95.7179753  56.7355255 118.2012100  96.6206999  56.7678865 118.5178595
  95.4917123  55.8055706 118.2158436  97.4733355  55.4886242 114.8622179
  96.5228986  55.4888103 114.7486551  97.7765841  54.7418976 114.3458213
 101.3595910  33.4060128 111.0300359 100.5928306  32.8518614 111.1757041
 101.7706615  33.4781997 111.8914511 110.0175755  61.2774208 115.8629466
 109.6794266  61.1615273 114.9750001 110.8865523  60.8765373 115.8430472
 105.8762570  63.1309684 111.8526357 105.3127435  63.0399621 111.0842645
 105.7614965  62.3109589 112.3328849 103.4227002  64.6260876 114.6910577
 104.2148294  64.2851701 114.2756877 103.6623652  64.7355851 115.6112731
 111.4562129  66.7980652 107.1640822 110.8050109  67.3834733 106.7774836
 112.2506492  67.3286847 107.2235859 105.3817756  63.8869789 107.5627956
 106.1548632  63.3398776 107.4240832 105.7343155  64.7514039 107.7742418
 107.7184034  60.0462455 105.1946406 107.9709555  59.5243977 104.4329869
 106.7808593  59.8828601 105.2973090 112.7627317  59.0498234 113.0021149
 113.5490406  58.6317657 112.6511566 113.0266021  59.9544326 113.1702798
 112.9337394  64.4871084 107.7009806 112.2983227  64.5605711 108.4130711
 112.6034801  65.0764683 107.0228885 107.4380323  61.9490561 107.3970781
 107.3216581  61.2735465 108.0651865 107.5482583  61.4622935 106.5802934
 109.7811864  61.4100708 111.1017470 109.4170071  60.8831329 111.8130392
 110.6378980  61.0199178 110.9283956 109.4217351  56.4390608 106.0978819
 109.5891753  57.3070845 106.4649290 109.2314520  56.6017890 105.1740108
 105.6305165  61.3521384 113.7981354 104.7055662  61.2197598 114.0059045
 105.8789578  62.1315603 114.2951296 109.4006571  58.8948266 107.0825486
 109.2806197  59.3405316 107.9210966 108.7059160  59.2433583 106.5239024
 102.9913976  60.9954657 114.6325143 103.1206357  61.2489136 115.5464554
 102.3111428  61.5882365 114.3129798 107.1613464  71.6651907 110.7315617
 107.0837493  72.6159733 110.8104097 106.5575107  71.3197780 111.3890543
 115.0991638  59.3669739 107.9105820 116.0109494  59.5997126 107.7353517
 114.5901285  59.9506783 107.3480898 109.2589182  64.0869965 112.5669486
 109.7227527  64.3657668 111.7774109 108.9945980  63.1853410 112.3842577
 106.1513263  63.6341447 115.5049249 106.7214620  64.0628715 114.8666734
 106.7421375  63.3524032 116.2033435 108.1958068  60.2093118 109.3759051
 108.8982111  60.6614161 109.8432978 107.8638696  59.5676937 110.0038944
 101.9383402  58.4676670 114.6776185 101.1482456  58.7234199 114.2016296
 102.4294649  59.2825008 114.7828225 103.8898147  58.8321250 111.6359662
 103.0929310  58.9439944 112.1543157 103.6623739  59.1707902 110.7700552
 100.2221105  58.7207161 117.1091176 100.4729143  59.6054171 117.3748752
 100.7580653  58.5411762 116.3366268 109.4351832  67.0234060 109.4521157
 109.2997507  67.8685596 109.8806004 109.9761645  67.2253338 108.6887090
 102.8881230  64.5409498 110.0249082 103.4005750  65.3352749 110.1754646
 103.5403943  63.8435789 109.9582683 104.6976115  67.6575255 112.1071835
 104.8742743  68.5793219 111.9192819 105.4932948  67.3433674 112.5366215
 100.8530147  62.8698153 110.8008652 101.6905369  63.2795161 110.5842360
 101.0308414  61.9297595 110.7708846 112.7494579  60.5373233 106.4892485
 112.2341202  61.3077838 106.7280873 112.4771887  59.8638370 107.1125547
 110.3341690  55.3822934 111.5477724 109.4783286  54.9929785 111.3683362
 110.7468642  55.4614895 110.6877509 108.1083722  53.0008007 114.9535465
 108.9736719  52.8050816 114.5941354 108.1761231  52.7718359 115.8804822
 117.7228853  63.2905588 108.4245659 116.9458296  62.9516748 107.9800821
 118.4020334  63.2958211 107.7500624 112.5380882  58.4100325 108.3152266
 112.2331017  58.7246475 109.1662410 113.4911324  58.4881745 108.3579599
 110.9827314  64.5690549 109.9645220 110.4548675  63.8343308 109.6518458
 110.4814816  65.3465225 109.7185189 105.7146041  55.2310215 112.3251832
 106.2889793  55.0085397 111.5925025 106.3017024  55.2998910 113.0780433
 114.7725619  61.1183942 113.1316208 115.2857500  61.7513934 113.6337918
 115.4226842  60.5185137 112.7659568 106.0415628  57.2614676 106.3447717
 105.2052941  57.5989363 106.6656992 105.9020398  57.1263656 105.4074854
 108.0168709  52.1051464 111.0526901 107.3633121  51.7900481 110.4283516
 107.9749183  51.4827204 111.7786724 109.1279914  62.3870759 102.9680193
 108.2206976  62.1560013 103.1671342 109.6250946  61.5908378 103.1554175
 112.0347993  71.0968266 105.8876880 111.3609692  71.3999963 106.4961837
 112.4213815  71.8997347 105.5382337 111.2506449  58.5933398 115.3774549
 110.3329011  58.8148345 115.2196237 111.6666593  58.6679708 114.5186256
 112.0341497  59.9924813 110.5077229 112.7813316  60.5046210 110.1984351
 112.3033087  59.6708866 111.3681623 110.3068147  62.4883354 107.4904183
 109.3979367  62.2042387 107.5876653 110.3363231  62.9082432 106.6307490
 114.4820334  57.0281929 112.4896018 113.7443091  56.5159316 112.8206261
 114.7347108  56.5882311 111.6779295 100.8756318  60.2088868 111.4719386
 100.6780718  59.6158229 110.7470452 100.3202982  59.9041078 112.1895324
 108.8553041  60.1011975 113.5913979 108.9101651  59.1485811 113.5156455
 108.0444243  60.2571414 114.0755277 110.0044235  64.0292098 104.8292262
 109.5663665  63.3127957 104.3697899 110.7454676  64.2568212 104.2677353
 106.7945401  58.7189034 111.3504358 105.9813267  59.0183205 111.7569550
 107.2904396  58.3244723 112.0678840 118.1217350  62.3049295 110.8868581
 117.9835249  62.4950891 109.9589770 117.7653569  63.0668677 111.3436632
 106.2859476  56.2907390 116.9665593 106.9258855  56.1496149 116.2688556
 105.4537007  56.0041903 116.5904195 107.0619780  65.5909820 113.0800585
 107.8560379  65.0960140 112.8783160 106.3511472  65.0627683 112.7168291
 103.3702543  59.7352902 109.1560338 102.4400132  59.6737357 109.3730300
 103.4660015  59.2128855 108.3596979 103.2888093  56.2607715 111.7438579
 103.5494910  57.1753048 111.6347740 104.1105265  55.7932157 111.8935192
 104.7613018  57.6745472 118.9137404 105.4336071  57.4662834 118.2650053
 103.9342804  57.4767558 118.4742636 110.2339208  71.2647939 108.1023959
 110.4090964  70.7935982 108.9169581 109.5471996  71.8913705 108.3305219
 114.1255463  62.8876479 104.4224320 113.5084633  62.1623307 104.3257372
 113.6571951  63.6485840 104.0791394 105.9154009  57.1061904 103.5445624
 105.0383475  56.9850704 103.1807871 106.3911762  56.3147982 103.2924513
  97.4356149  61.8939063 113.6387131  98.1227189  61.5800793 113.0508146
  97.2804278  62.7980428 113.3654382 102.2390871  56.7829260 118.0672155
 102.1549060  56.1754929 117.3322565 101.4173577  57.2738278 118.0681651
 109.1017935  69.4588194 110.7908144 108.3185457  70.0009874 110.8846369
 109.8010680  69.9762174 111.1902386 112.4114585  55.2682823 113.4342350
 112.9083284  54.5152786 113.1143420 111.6401566  55.3047140 112.8685559
 113.4944366  64.0254511 111.0080773 112.5600644  64.1455973 110.8385477
 113.6721034  63.1226977 110.7440783 108.9949554  57.4100206 113.1614034
 108.6247341  56.8571247 113.8494940 109.4908646  56.8058340 112.6089034
 116.8816917  59.8671830 111.5430807 117.3477369  60.6999821 111.4691110
 117.3324417  59.4016811 112.2476066 114.9493148  66.2115651 108.5416959
 115.2252992  66.0972246 109.4510833 114.0797647  65.8133136 108.5029132
 111.9189378  69.3870187 109.4464821 112.4477144  68.8762642 108.8334984
 112.1817597  69.0712717 110.3110354  97.0124125  59.9739657 115.9104598
  97.0508224  59.4403247 116.7041716  96.5064418  59.4474862 115.2915575
 104.3914887  54.8204197 119.4067140 104.4556214  55.6819028 118.9944538
 104.3282008  54.2078199 118.6739499 100.6432703  58.7003759 108.9858530
 100.9386144  57.7914437 108.9325583  99.7420738  58.6791498 108.6639532
 104.1726950  56.7759755 114.9686078 103.4513535  57.3895723 114.8293551
 104.9620205  57.3117520 114.8902724 102.3720544  56.3817856 109.1097855
 102.0433250  55.5015235 108.9272961 102.7259915  56.3265525 109.9974244
 105.4862367  56.6690826 109.4773332 105.8258440  57.1976747 108.7551941
 105.9334488  57.0071232 110.2531899 107.4730514  55.1665448 107.6766625
 108.1938877  55.5446701 107.1730342 106.8495819  55.8854325 107.7801603
 111.6161637  55.8710597 108.6124957 111.8325252  56.7535235 108.3113786
 111.1355704  55.4796810 107.8830599 106.3560859  58.8296310 115.1895702
 106.2105439  59.1436613 116.0819984 105.8786062  59.4481210 114.6366601
 108.2157242  55.8198858 115.2376592 108.2018810  54.9239951 114.9008890
 108.9329670  55.8269522 115.8714878 110.0683372  56.2536198 117.2829719
 109.8101150  57.1753269 117.2814049 109.5368413  55.8566633 117.9730183
 100.8306521  61.3701654 118.1283363 100.2859989  62.1461462 118.2603638
 101.7085871  61.7172459 117.9702485 107.6194138  54.7013238 110.5064162
 107.7410049  53.7729884 110.7055049 107.3296180  54.7151924 109.5942477
 110.4885328  52.3868149 113.6430882 110.5107025  52.4507482 112.6882861
 110.9053387  51.5472657 113.8371388 116.0004734  68.6753750 107.1616703
 116.6955638  69.2960442 107.3804017 116.3427884  67.8249101 107.4369081
 117.8996157  66.1253455 108.6904033 118.4247481  66.4640728 107.9653353
 117.8118509  65.1900471 108.5067168 102.0629156  68.3836979 113.0523915
 102.8887176  68.0840751 112.6722558 101.7123208  67.6144602 113.5013703
 100.2637761  66.3023306 114.0112848  99.4269670  65.8745480 113.8296850
 100.2361407  66.4955749 114.9483640 106.5924196  66.2867371 108.5980049
 106.7412317  66.9702835 107.9446722 107.3990640  66.2672461 109.1129505
 104.3476829  62.3132549 109.6041118 104.1022871  61.4094879 109.8021328
 104.5172744  62.3149699 108.6620596 103.6172477  58.0460906 107.1027279
 102.9241722  58.1205261 106.4467315 103.3724229  57.2821250 107.6248796
 110.0919602  68.7815501 106.0691796 109.5193569  69.4005689 105.6162268
 110.6652396  69.3314863 106.6031718 113.3116862  69.0652652 107.2000379
 114.2447535  68.9998213 107.4033254 113.2240075  69.9008918 106.7414911
 115.9404878  68.3818522 104.1604326 115.8618510  68.0478386 105.0540084
 116.7614545  68.8740290 104.1595798 110.4766400  60.1176314 103.4107849
 111.4225505  59.9882522 103.4796267 110.0980645  59.3790976 103.8877277
 108.6609318  58.0426291 103.3462734 107.7540773  57.7459403 103.4225448
 108.9385299  57.7456109 102.4797020  99.5787258  59.3632654 113.7961780
  99.2590042  58.5097962 113.5036154  99.0320686  59.5781232 114.5519748
 103.3567166  62.0795095 117.5131287 103.5753175  63.0112203 117.5319321
 103.7692939  61.7203069 118.2986091 110.2771383  52.5863180 109.5006975
 109.4672112  52.2410265 109.8762221 110.9655800  52.2770724 110.0894587
 112.2061932  51.6641227 111.1231272 112.7592970  52.0836681 111.7821295
 112.4432018  50.7376975 111.1654228 107.4308102  54.9013226 103.4874713
 108.2927266  55.2268124 103.7470531 107.6158446  54.1144722 102.9747779
  99.4475518  62.9835565 115.7654902  98.7538989  62.5689518 115.2524856
 100.1948509  63.0256102 115.1688321 115.5840739  53.7741752 110.6309936
 115.0039408  54.4326556 110.2487989 115.3176671  52.9519097 110.2197354
 101.3612261  62.9153819 113.6420917 101.3382949  63.0141507 112.6902800
 101.6712897  63.7618970 113.9638083 114.3665617  55.9341843 109.6866284
 113.4791472  56.2191493 109.4686479 114.7819606  55.7735606 108.8393561
 113.5108830  65.6986517 103.7814304 114.2144680  65.9036520 104.3971960
 112.7871479  66.2663279 104.0463388 114.3406641  61.4496379 109.9016575
 114.2841842  61.9064930 109.0624207 114.8934983  60.6887063 109.7239417
 118.1511446  57.2386110 110.7266694 117.8948381  56.8382746 111.5574902
 117.5264314  57.9529904 110.6016833 115.4195528  66.1369047 105.8312765
 116.2541132  65.7050245 105.6490239 115.2579871  65.9651060 106.7589659
 115.0741420  62.6401160 107.1969104 115.0190224  62.4745431 106.2557548
 114.4487475  63.3477193 107.3531294  99.8633935  57.8769224 121.0230526
 100.5092798  57.3668178 121.5117751  99.6551086  58.6137906 121.5973951
 108.3837545  52.1409269 106.7754422 108.3716215  53.0851109 106.9322693
 109.2760967  51.9579414 106.4813883 112.1989665  48.7352045 111.0300359
 111.4322061  48.1810532 111.1757041 112.6100370  48.8073914 111.8914511
 116.8809383  72.5906594 106.3447717 116.0446695  72.9281280 106.6656992
 116.7414153  72.4555574 105.4074854 116.7547763  72.4353821 103.5445624
 115.8777230  72.3142622 103.1807871 117.2305516  71.6439900 103.2924513
 114.4566231  73.3752824 107.1027279 113.7635476  73.4497179 106.4467315
 114.2117983  72.6113168 107.6248796 119.5003072  73.3718208 103.3462734
 118.5934528  73.0751321 103.4225448 119.7779053  73.0748026 102.4797020
 118.2701857  70.2305143 103.4874713 119.1321021  70.5560042 103.7470531
 118.4552201  69.4436639 102.9747779 119.2231300  67.4701186 106.7754422
 119.2109970  68.4143026 106.9322693 120.1154722  67.2871332 106.4813883
  74.6432201   2.6838277  97.4560923  74.5656231   3.6346102  97.5349404
  74.0393845   2.3384149  98.1135850  72.2819031   5.4323671 101.6009125
  72.5215629   6.0642195 102.2788144  71.4388228   5.0811711 101.8874485
  72.7563863   1.4571673  98.9307904  72.0874239   1.9417801  98.4471944
  72.6176733   1.7040894  99.8451283  76.8969132   3.4915417 105.5290562
  77.4487440   3.6547038 106.2939648  77.2375325   4.0819855 104.8570587
  77.0655555   3.2111808  99.7744593  76.6260545   2.7188187 100.4677450
  77.8163672   2.6684776  99.5336669  69.8568605   1.5335963 101.4983036
  69.7223073   0.7736364 100.9321034  69.4400667   2.2576863 101.0311825
  73.0137731   2.4305280 101.7101478  72.8970115   3.3750713 101.6080169
  72.1930177   2.1278842 102.0987278  74.0392245   3.0833542 104.9257407
  74.9419492   3.1157153 105.2423902  73.8129615   2.1533993 104.9403743
  88.3388247   7.6252495 102.5874773  88.0006758   7.5093560 101.6995307
  89.2078015   7.2243660 102.5675779  84.1975062   9.4787972  98.5771664
  83.6339928   9.3877909  97.8087951  84.0827458   8.6587876  99.0574156
  81.7439494  10.9739163 101.4155884  82.5360786  10.6329988 101.0002183
  81.9836145  11.0834138 102.3358037  89.7774621  13.1458939  93.8886128
  89.1262601  13.7313020  93.5020142  90.5718984  13.6765134  93.9481166
  83.7030248  10.2348077  94.2873263  84.4761124   9.6877064  94.1486139
  84.0555647  11.0992326  94.4987724  85.5415291  11.5624459 107.4940162
  85.2505157  12.4670090 107.3786828  86.1772275  11.6040986 108.2084232
  86.4671498   8.9401307 104.0841522  87.0635070   8.7157330 103.3698485
  86.5246469   8.1986053 104.6866970  86.0396526   6.3940743  91.9191713
  86.2922047   5.8722264  91.1575176  85.1021085   6.2306888  92.0218396
  91.2549886  10.8349371  94.4255113  90.6195719  10.9083998  95.1376017
  90.9247293  11.4242970  93.7474192  85.7592815   8.2968849  94.1216088
  85.6429073   7.6213752  94.7897172  85.8695075   7.8101223  93.3048241
  88.1024356   7.7578996  97.8262777  87.7382563   7.2309617  98.5375698
  88.9591472   7.3677465  97.6529262  90.5005176  11.2485874 104.4889956
  90.2005899  12.1510913 104.3805763  90.1556236  10.9818058 105.3411109
  83.9517657   7.6999671 100.5226660  83.0268154   7.5675885 100.7304352
  84.2002071   8.4793890 101.0196603  81.3126469   7.3432945 101.3570449
  81.4418850   7.5967424 102.2709861  80.6323920   7.9360653 101.0375104
  85.4825956  18.0130195  97.4560923  85.4049986  18.9638020  97.5349404
  84.8787599  17.6676067  98.1135850  86.2289558   7.9943513 109.6740257
  86.9704242   8.5328557 109.3975081  85.5226543   8.6209802 109.8311809
  92.0273712  10.6973845 102.0264708  91.3982575  10.8619559 101.3240776
  91.6399374  11.1115454 102.7975672  95.9062944  11.6328282  99.3809072
  95.2213982  12.0127184  98.8306105  95.9906793  12.2423609 100.1141019
  87.5801674  10.4348253  99.2914793  88.0440020  10.7135956  98.5019415
  87.3158472   9.5331697  99.1087884  84.4725755   9.9819734 102.2294556
  85.0427112  10.4107003 101.5912041  85.0633867   9.7002319 102.9278742
  86.5170560   6.5571405  96.1004358  87.2194603   7.0092449  96.5678284
  86.1851189   5.9155224  96.7284251  80.2595894   4.8154958 101.4021492
  79.4694948   5.0712486 100.9261602  80.7507141   5.6303296 101.5073532
  94.2759704  12.1560197 104.1526772  95.0977147  11.7540384 103.8709454
  94.2722107  12.0528431 105.1042888  82.2110639   5.1799537  98.3604968
  81.4141803   5.2918231  98.8788464  81.9836232   5.5186189  97.4945859
  88.0416307  11.7044240 106.3087483  88.1060740  12.1664647 107.1445655
  87.3327231  11.0741605 106.4369793  78.5433597   5.0685448 103.8336482
  78.7941635   5.9532458 104.0994058  79.0793145   4.8890050 103.0611574
  87.7564325  13.3712348  96.1766463  87.6210000  14.2163883  96.6051311
  88.2974137  13.5731625  95.4132397  81.2093722  10.8887786  96.7494388
  81.7218243  11.6831036  96.8999953  81.8616435  10.1914076  96.6827990
  83.0188607  14.0053542  98.8317141  83.1955235  14.9271507  98.6438125
  83.8145440  13.6911961  99.2611521  82.3040963   6.0518174 108.7079305
  82.1894479   5.1503431 109.0086404  81.4485481   6.2981871 108.3564121
  89.3832801  13.9935914 110.3066805  88.9396655  13.2072293 109.9887710
  90.0450015  14.1815065 109.6410696  84.1419922  15.5231716 104.8327484
  84.6927347  15.3948779 104.0604478  83.3031398  15.8226605 104.4822377
  87.9387093  11.7882844 109.1771715  88.4715430  11.0271132 108.9471023
  87.4101174  11.4956495 109.9195869  79.1742639   9.2176440  97.5253959
  80.0117861   9.6273448  97.3087667  79.3520907   8.2775882  97.4954153
  96.0441345   9.6383875  95.1490965  95.2670788   9.2995035  94.7046127
  96.7232826   9.6436498  94.4745930  89.3039806  10.9168836  96.6890527
  88.7761168  10.1821596  96.3763764  88.8027309  11.6943512  96.4430495
  94.2832652   9.1117857 101.8057573  93.6256327   9.8017118 101.8937702
  95.0873051   9.5014288 102.1491560  87.4492406   8.7349046  89.6925500
  86.5419468   8.5038300  89.8916649  87.9463438   7.9386666  89.8799482
  90.3560485  17.4446553  92.6122186  89.6822184  17.7478250  93.2207144
  90.7426307  18.2475634  92.2627643  88.6280640   8.8361641  94.2149490
  87.7191859   8.5520674  94.3121960  88.6575723   9.2560720  93.3552797
  93.8599907  12.4468231  97.9840658  93.4062234  11.6059141  98.0405848
  93.2293874  13.0829629  98.3215438  92.3032846  14.2844727  98.9190476
  92.5955821  14.8449784  98.2002841  92.8131467  14.5773288  99.6743635
  79.1968810   6.5567155  98.1964692  78.9993210   5.9636516  97.4715759
  78.6415474   6.2519365  98.9140631  88.3256727  10.3770385  91.5537569
  87.8876157   9.6606244  91.0943206  89.0667168  10.6046500  90.9922660
  87.2666472  15.0625078 100.0083929  87.2242650  15.2885925  99.0792461
  88.1829170  14.8288453 100.1569730  85.3832272  11.9388107  99.8045892
  86.1772871  11.4438428  99.6028467  84.6723965  11.4105971  99.4413597
  90.2027117  14.3206203 104.1558259  90.2564139  14.8897139 104.9235975
  89.3341898  14.4908088 103.7912296  81.6915036   6.0831189  95.8805644
  80.7612624   6.0215645  96.0975607  81.7872508   5.5607142  95.0842286
  89.1615216   8.4866465 105.7145191  90.0907277   8.6377625 105.5414158
  88.7406247   8.5750486 104.8593838  87.9603548  12.5117129 103.4843729
  87.8214634  12.1435914 104.3569667  87.1718145  13.0264769 103.3127687
  88.5551700  17.6126226  94.8269265  88.7303456  17.1414269  95.6414888
  87.8684488  18.2391992  95.0550526  89.5108763  11.8898732 100.8732567
  89.1758596  11.8499502 101.7690216  89.0112709  11.2243448 100.4002977
  83.4853007   7.2966362 106.3985148  83.3472805   6.5646601 106.9996687
  84.3957931   7.2075262 106.1169335  92.4467955   9.2354766  91.1469626
  91.8297126   8.5101595  91.0502679  91.9784444   9.9964127  90.8036700
  86.1135308   7.0086321 105.8868827  86.8234927   6.3679514 105.8455446
  86.0704616   7.2599216 106.8095008  83.1212786  20.7615589 101.6009125
  83.3609384  21.3934113 102.2788144  82.2781982  20.4103629 101.8874485
  75.7568641   8.2417351 100.3632438  76.4439681   7.9279081  99.7753453
  75.6016770   9.1458715 100.0899689  87.6340647  16.5694711 104.0050629
  87.5610819  17.3749683 104.5169934  87.1918041  16.7686677 103.1798651
  87.4230427  15.8066481  97.5153451  86.6397949  16.3488161  97.6091676
  88.1223172  16.3240461  97.9147692  90.0939331  16.4681545 106.1608788
  90.8067303  17.1029010 106.0884690  89.6029360  16.5645411 105.3448790
  91.8156858  10.3732798  97.7326080  90.8813137  10.4934260  97.5630784
  91.9933526   9.4705265  97.4686090  85.1451244  14.2175989 106.9814359
  85.8460704  14.8512472 107.1343753  84.6746359  14.5590720 106.2209998
  93.2705640  12.5593938  95.2662266  93.5465484  12.4450533  96.1756140
  92.4010139  12.1611423  95.2274439  89.9059704  16.8080289  98.9095080
  90.0882099  15.9901945  99.3722832  90.7292690  17.0247981  98.4719970
  90.2401870  15.7348474  96.1710128  90.7689636  15.2240929  95.5580290
  90.5030089  15.4191005  97.0355661  80.7418963  13.7512344 103.9145462
  81.3272399  13.0056032 104.0473366  80.5443801  14.0616300 104.7982126
  83.5957618  16.7863591  98.9307904  82.9267993  17.2709719  98.4471944
  83.4570487  17.0332811  99.8451283  75.3336617   6.3217944 102.6349905
  75.3720717   5.7881535 103.4287023  74.8276910   5.7953149 102.0160882
  87.7362886  18.8207335 105.5290562  88.2881194  18.9838956 106.2939648
  88.0769080  19.4111772 104.8570587  78.9645195   5.0482046  95.7103836
  79.2598636   4.1392724  95.6570890  78.0633231   5.0269785  95.3884839
  90.8731274  16.7689310 102.5154245  90.7482413  15.9679050 102.0065190
  91.5310365  17.2635503 102.0268215  92.9366182  14.5698330 104.1433795
  91.9896518  14.4503681 104.0712121  93.2848955  13.6820828 104.2260056
  89.9412615  14.3651046 100.3438147  89.7937578  13.4367754 100.5245717
  90.7666109  14.3871137  99.8595222  93.5446737  15.1879605 101.4303020
  94.4693285  14.9822466 101.2927471  93.3762041  14.9396006 102.3392361
  84.6773351   5.1774597 101.9141009  84.5317932   5.4914900 102.8065290
  84.1998555   5.7959498 101.3611907  93.3342053  15.7065273  96.7865111
  93.5078931  15.1411695  96.0338964  93.8270945  16.5066167  96.6044601
  79.1519013   7.7179942 104.8528670  78.6072481   8.4939750 104.9848944
  80.0298363   8.0650746 104.6947791  94.3217226  15.0232037  93.8862009
  95.0168130  15.6438730  94.1049324  94.6640376  14.1727388  94.1614387
  79.9385035   6.8449838 107.7458827  79.1966771   6.9932473 108.3323457
  79.6177779   7.1058104 106.8825576  96.2208649  12.4731743  95.4149340
  96.7459973  12.8119015  94.6898660  96.1331002  11.5378758  95.2312475
  87.8828698  16.3865816 107.5439217  88.1915824  16.1414963 108.4161916
  88.6804180  16.5912455 107.0558087  87.9049310  18.5403726  99.7744593
  87.4654300  18.0480104 100.4677450  88.6557427  17.9976693  99.5336669
  80.3841649  14.7315267  99.7769221  81.2099669  14.4319039  99.3967865
  80.0335701  13.9622889 100.2259010  85.3523182  14.0841735 101.8466895
  84.7303191  13.4212440 101.5469123  86.0228049  14.1102867 101.1640543
  78.5850254  12.6501593 100.7358155  77.7482162  12.2223767 100.5542156
  78.5573899  12.8434036 101.6728946  84.9136689  12.6345658  95.3225356
  85.0624809  13.3181123  94.6692028  85.7203132  12.6150748  95.8374811
  82.6689322   8.6610836  96.3286424  82.4235364   7.7573166  96.5266635
  82.8385236   8.6627986  95.3865902  88.4132094  15.1293789  92.7937103
  87.8406061  15.7483976  92.3407575  88.9864888  15.6793150  93.3277025
  91.6329354  15.4130939  93.9245685  92.5660027  15.3476500  94.1278561
  91.5452567  16.2487206  93.4660218  94.2617371  14.7296809  90.8849633
  94.1831002  14.3956673  91.7785391  95.0827038  15.2218577  90.8841105
  77.8999750   5.7110941 100.5207087  77.5802535   4.8576249 100.2281461
  77.3533179   5.9259519 101.2765054  81.6779658   8.4273382 104.2376594
  81.8965668   9.3590490 104.2564627  82.0905432   8.0681357 105.0231397
  77.7688010   9.3313853 102.4900209  77.0751482   8.9167806 101.9770163
  78.5161001   9.3734389 101.8933628  79.6824753   9.2632106 100.3666224
  79.6595441   9.3619794  99.4148107  79.9925389  10.1097257 100.6883390
  82.3412131  11.3208262 104.4812838  83.2955384  11.2892204 104.4142770
  82.1424654  10.8598885 105.2963064  82.9311513   9.8909378 107.0483636
  83.7504402  10.3853456 107.0718473  83.2048321   8.9741346 107.0201203
  80.6962360  16.8627881 101.4983036  80.5616827  16.1028282 100.9321034
  80.2794422  17.5868781 101.0311825  91.8321323  12.0464805  90.5059611
  92.5357173  12.2514807  91.1217267  91.1083971  12.6141566  90.7708695
  83.8531485  17.7597198 101.7101478  83.7363870  18.7042631 101.6080169
  83.0323932  17.4570760 102.0987278  93.7408020  12.4847334  92.5558071
  94.5753624  12.0528532  92.3735546  93.5792363  12.3129347  93.4834966
  93.3953912   8.9879447  93.9214410  93.3402716   8.8223718  92.9802855
  92.7699967   9.6955480  94.0776600  78.1846427   4.2247511 107.7475833
  78.8305291   3.7146465 108.2363058  77.9763578   4.9616193 108.3219258
  84.8786000  18.4125460 104.9257407  85.7813246  18.4449070 105.2423902
  84.6523370  17.4825911 104.9403743  86.6339602  17.1656446 101.5867486
  85.6835233  17.1658308 101.4731858  86.9372088  16.4189181 101.0703520
 102.3692295  23.0016985 102.6513248 103.0070705  22.8823732 101.9476588
 102.2513138  23.9497829 102.7101200  99.1782001  22.9544413 102.5874773
  98.8400513  22.8385478 101.6995307 100.0471769  22.5535578 102.5675779
  95.0368817  24.8079889  98.5771664  94.4733682  24.7169826  97.8087951
  94.9221212  23.9879794  99.0574156  92.5833249  26.3031081 101.4155884
  93.3754541  25.9621906 101.0002183  92.8229899  26.4126056 102.3358037
 100.6168376  28.4750857  93.8886128  99.9656355  29.0604937  93.5020142
 101.4112739  29.0057052  93.9481166  94.5424003  25.5639994  94.2873263
  95.3154879  25.0168981  94.1486139  94.8949402  26.4284244  94.4987724
  96.3809045  26.8916376 107.4940162  96.0898911  27.7962007 107.3786828
  97.0166030  26.9332904 108.2084232  97.3065252  24.2693225 104.0841522
  97.9028825  24.0449247 103.3698485  97.3640224  23.5277970 104.6866970
  96.8790281  21.7232660  91.9191713  97.1315801  21.2014182  91.1575176
  95.9414840  21.5598806  92.0218396 101.9233564  20.7268439  99.7266456
 102.7096653  20.3087862  99.3756873 102.1872268  21.6314531  99.8948104
 102.0943641  26.1641289  94.4255113 101.4589474  26.2375916  95.1376017
 101.7641047  26.7534888  93.7474192  96.5986569  23.6260766  94.1216088
  96.4822828  22.9505670  94.7897172  96.7088829  23.1393140  93.3048241
  98.9418110  23.0870913  97.8262777  98.5776318  22.5601534  98.5375698
  99.7985226  22.6969382  97.6529262  98.5823597  18.1160813  92.8224125
  98.7498000  18.9841050  93.1894596  98.3920766  18.2788095  91.8985415
 101.3398931  26.5777792 104.4889956 101.0399654  27.4802831 104.3805763
 100.9949990  26.3109975 105.3411109  94.7911412  23.0291589 100.5226660
  93.8661908  22.8967803 100.7304352  95.0395825  23.8085808 101.0196603
  98.5612818  20.5718471  93.8070792  98.4412443  21.0175521  94.6456273
  97.8665407  20.9203788  93.2484330  92.1520223  22.6724862 101.3570449
  92.2812604  22.9259341 102.2709861  91.4717674  23.2652570 101.0375104
  96.3219710  33.3422112  97.4560923  96.2443740  34.2929937  97.5349404
  95.7181354  32.9967985  98.1135850 104.2597884  21.0439944  94.6351126
 105.1715740  21.2767331  94.4598824 103.7507531  21.6276988  94.0726205
  97.0683312  23.3235431 109.6740257  97.8097997  23.8620475 109.3975081
  96.3620298  23.9501720 109.8311809  98.8969722  20.4037178 105.6445976
  99.7430917  20.8276592 105.7880625  98.8368360  19.7470803 106.3384539
 102.8667467  26.0265762 102.0264708 102.2376329  26.1911476 101.3240776
 102.4793129  26.4407372 102.7975672 106.7456699  26.9620200  99.3809072
 106.0607737  27.3419101  98.8306105 106.8300548  27.5715527 100.1141019
  98.4195429  25.7640170  99.2914793  98.8833774  26.0427873  98.5019415
  98.1552227  24.8623615  99.1087884  95.3119510  25.3111652 102.2294556
  95.8820867  25.7398920 101.5912041  95.9027621  25.0294237 102.9278742
  97.3564315  21.8863323  96.1004358  98.0588358  22.3384366  96.5678284
  97.0244943  21.2447142  96.7284251  91.0989649  20.1446875 101.4021492
  90.3088703  20.4004404 100.9261602  91.5900896  20.9595213 101.5073532
 105.1153458  27.4852115 104.1526772 105.9370902  27.0832302 103.8709454
 105.1115861  27.3820349 105.1042888  93.0504394  20.5091455  98.3604968
  92.2535557  20.6210149  98.8788464  92.8229986  20.8478107  97.4945859
  98.8810062  27.0336158 106.3087483  98.9454494  27.4956565 107.1445655
  98.1720985  26.4033523 106.4369793  89.3827352  20.3977366 103.8336482
  89.6335390  21.2824376 104.0994058  89.9186900  20.2181967 103.0611574
  98.5958079  28.7004265  96.1766463  98.4603754  29.5455801  96.6051311
  99.1367892  28.9023543  95.4132397  92.0487477  26.2179703  96.7494388
  92.5611997  27.0122954  96.8999953  92.7010189  25.5205994  96.6827990
  93.8582361  29.3345460  98.8317141  94.0348990  30.2563424  98.6438125
  94.6539195  29.0203879  99.2611521  93.1434718  21.3810092 108.7079305
  93.0288233  20.4795349 109.0086404  92.2879236  21.6273788 108.3564121
 100.2226556  29.3227832 110.3066805  99.7790410  28.5364210 109.9887710
 100.8843769  29.5106982 109.6410696  94.9813677  30.8523633 104.8327484
  95.5321102  30.7240697 104.0604478  94.1425153  31.1518522 104.4822377
  98.7780848  27.1174761 109.1771715  99.3109185  26.3563049 108.9471023
  98.2494929  26.8248413 109.9195869  90.0136393  24.5468358  97.5253959
  90.8511615  24.9565366  97.3087667  90.1914661  23.6067800  97.4954153
 101.9100826  22.2143438  93.2137792 101.3947449  22.9848043  93.4526179
 101.6378134  21.5408574  93.8370853  99.4947937  17.0593139  98.2723030
  98.6389533  16.6699989  98.0928669  99.9074888  17.1385100  97.4122816
  97.2689969  14.6778212 101.6780772  98.1342966  14.4821021 101.3186661
  97.3367478  14.4488564 102.6050128 106.8835100  24.9675793  95.1490965
 106.1064542  24.6286952  94.7046127 107.5626581  24.9728416  94.4745930
 101.6987129  20.0870530  95.0397573 101.3937264  20.4016680  95.8907716
 102.6517571  20.1651950  95.0824906 100.1433561  26.2460754  96.6890527
  99.6154922  25.5113513  96.3763764  99.6421063  27.0235430  96.4430495
 105.1226407  24.4409774 101.8057573 104.4650081  25.1309036 101.8937702
 105.9266806  24.8306206 102.1491560  94.8752288  16.9080420  99.0497138
  95.4496040  16.6855601  98.3170331  95.4623271  16.9769115  99.8025740
 103.9331865  22.7954147  99.8561515 104.4463747  23.4284139 100.3583225
 104.5833089  22.1955342  99.4904875  95.2021875  18.9384881  93.0693024
  94.3659188  19.2759568  93.3902298  95.0626645  18.8033861  92.1320161
  97.1774956  13.7821669  97.7772208  96.5239368  13.4670686  97.1528823
  97.1355430  13.1597409  98.5032031  98.2886161  24.0640964  89.6925500
  97.3813222  23.8330217  89.8916649  98.7857193  23.2678583  89.8799482
 101.1954240  32.7738471  92.6122186 100.5215938  33.0770168  93.2207144
 101.5820062  33.5767552  92.2627643 100.4112696  20.2703602 102.1019856
  99.4935258  20.4918549 101.9441544 100.8272840  20.3449913 101.2431563
 101.1947744  21.6695018  97.2322536 101.9419563  22.1816415  96.9229658
 101.4639334  21.3479071  98.0926929  99.4674394  24.1653559  94.2149490
  98.5585613  23.8812592  94.3121960  99.4969478  24.5852637  93.3552797
 104.6993662  27.7760148  97.9840658 104.2455989  26.9351058  98.0405848
 104.0687628  28.4121547  98.3215438 103.6426581  18.7052134  99.2141325
 102.9049338  18.1929521  99.5451568 103.8953355  18.2652516  98.4024602
 103.1426601  29.6136645  98.9190476 103.4349575  30.1741702  98.2002841
 103.6525221  29.9065206  99.6743635  90.0362565  21.8859073  98.1964692
  89.8386964  21.2928434  97.4715759  89.4809229  21.5811283  98.9140631
  98.0159288  21.7782179 100.3159285  98.0707898  20.8256016 100.2401762
  97.2050490  21.9341619 100.8000584  99.1650482  25.7062303  91.5537569
  98.7269912  24.9898161  91.0943206  99.9060923  25.9338417  90.9922660
  95.9551648  20.3959239  98.0749664  95.1419514  20.6953410  98.4814856
  96.4510642  20.0014928  98.7924147  98.1060226  30.3916996 100.0083929
  98.0636405  30.6177842  99.0792461  99.0222925  30.1580371 100.1569730
 107.2823597  23.9819500  97.6113887 107.1441495  24.1721096  96.6835076
 106.9259816  24.7438882  98.0681938  95.4465723  17.9677595 103.6910899
  96.0865102  17.8266354 102.9933863  94.6143253  17.6812108 103.3149501
  96.2226027  27.2680025  99.8045892  97.0166625  26.7730345  99.6028467
  95.5117719  26.7397888  99.4413597 101.0420871  29.6498121 104.1558259
 101.0957894  30.2189057 104.9235975 100.1735653  29.8200006 103.7912296
  92.5308790  21.4123107  95.8805644  91.6006378  21.3507562  96.0975607
  92.6266262  20.8899060  95.0842286  92.4494339  17.9377920  98.4683886
  92.7101157  18.8523253  98.3593047  93.2711512  17.4702362  98.6180499
  93.9219265  19.3515677 105.6382711  94.5942318  19.1433039 104.9895359
  93.0949051  19.1537763 105.1987943 100.0008971  23.8158383 105.7145191
 100.9301031  23.9669542 105.5414158  99.5800001  23.9042403 104.8593838
  98.7997303  27.8409047 103.4843729  98.6608388  27.4727832 104.3569667
  98.0111899  28.3556687 103.3127687  99.3945455  32.9418144  94.8269265
  99.5697210  32.4706187  95.6414888  98.7078243  33.5683910  95.0550526
 100.3502518  27.2190650 100.8732567 100.0152351  27.1791420 101.7690216
  99.8506464  26.5535366 100.4002977  94.3246762  22.6258280 106.3985148
  94.1866560  21.8938519 106.9996687  95.2351685  22.5367180 106.1169335
 103.2861710  24.5646684  91.1469626 102.6690880  23.8393512  91.0502679
 102.8178198  25.3256044  90.8036700  96.9529063  22.3378239 105.8868827
  97.6628681  21.6971431 105.8455446  96.9098371  22.5891134 106.8095008
  95.6657997  19.3243457 107.7064467  95.1295354  18.8734196 108.3586063
  95.0774705  19.4589366 106.9634931  93.9606540  36.0907506 101.6009125
  94.2003138  36.7226031 102.2788144  93.1175737  35.7395546 101.8874485
  95.0760255  18.7832108  90.2690931  94.1989722  18.6620909  89.9053177
  95.5518009  17.9918187  90.0169819  86.5962396  23.5709268 100.3632438
  87.2833435  23.2570998  99.7753453  86.4410524  24.4750633 100.0899689
  91.3997118  18.4599465 104.7917461  91.3155306  17.8525134 104.0567871
  90.5779824  18.9508483 104.7926958  98.4734402  31.8986629 104.0050629
  98.4004573  32.7041600 104.5169934  98.0311795  32.0978595 103.1798651
  98.2624182  31.1358399  97.5153451  97.4791703  31.6780079  97.6091676
  98.9616927  31.6532378  97.9147692 101.5720832  16.9453028 100.1587656
 102.0689531  16.1922991  99.8388727 100.8007813  16.9817345  99.5930866
 100.9333085  31.7973463 106.1608788 101.6461058  32.4320928 106.0884690
 100.4423114  31.8937329 105.3448790 102.6550612  25.7024716  97.7326080
 101.7206891  25.8226178  97.5630784 102.8327281  24.7997182  97.4686090
  98.1555800  19.0870411  99.8859341  97.7853588  18.5341452 100.5740247
  98.6514893  18.4828545  99.3334341 106.0423164  21.5442035  98.2676114
 106.5083616  22.3770026  98.1936417 106.4930664  21.0787016  98.9721372
  95.9844999  29.5467906 106.9814359  96.6854458  30.1804389 107.1343753
  95.5140114  29.8882638 106.2209998 104.1099395  27.8885856  95.2662266
 104.3859239  27.7742451  96.1756140 103.2403894  27.4903341  95.2274439
 100.7453459  32.1372207  98.9095080 100.9275853  31.3193863  99.3722832
 101.5686445  32.3539899  98.4719970 101.0795624  31.0640392  96.1710128
 101.6083391  30.5532847  95.5580290 101.3423844  30.7482922  97.0355661
  91.5812717  29.0804261 103.9145462  92.1666154  28.3347949 104.0473366
  91.3837555  29.3908218 104.7982126  94.4351372  32.1155509  98.9307904
  93.7661747  32.6001636  98.4471944  94.2964242  32.3624729  99.8451283
  86.1730372  21.6509862 102.6349905  86.2114471  21.1173452 103.4287023
  85.6670665  21.1245067 102.0160882  98.5756641  34.1499252 105.5290562
  99.1274949  34.3130874 106.2939648  98.9162834  34.7403690 104.8570587
  93.5521134  16.4974402 106.1312447  93.6162461  17.3589233 105.7189845
  93.4888254  15.8848404 105.3984806  89.8038949  20.3773964  95.7103836
  90.0992390  19.4684642  95.6570890  88.9026985  20.3561703  95.3884839
 101.7125028  32.0981228 102.5154245 101.5876168  31.2970968 102.0065190
 102.3704119  32.5927421 102.0268215  93.3333196  18.4529960 101.6931385
  92.6119782  19.0665928 101.5538858  94.1226452  18.9887725 101.6148031
 103.7759936  29.8990248 104.1433795 102.8290272  29.7795599 104.0712121
 104.1242710  29.0112746 104.2260056  91.5326791  18.0588061  95.8343161
  91.2039497  17.1785440  95.6518267  91.8866162  18.0035730  96.7219551
 100.7806370  29.6942964 100.3438147 100.6331332  28.7659671 100.5245717
 101.6059863  29.7163055  99.8595222  94.6468614  18.3461031  96.2018639
  94.9864687  18.8746952  95.4797247  95.0940735  18.6841437  96.9777206
 104.3840492  30.5171523 101.4303020 105.3087039  30.3114384 101.2927471
 104.2155795  30.2687924 102.3392361  96.6336761  16.8435653  94.4011932
  97.3545124  17.2216906  93.8975649  96.0102065  17.5624530  94.5046910
 100.7767884  17.5480802  95.3370264 100.9931498  18.4305440  95.0359092
 100.2961951  17.1567015  94.6075906  95.5167105  20.5066515 101.9141009
  95.3711686  20.8206818 102.8065290  95.0392309  21.1251415 101.3611907
  97.3763488  17.4969063 101.9621898  97.3625057  16.6010156 101.6254196
  98.0935916  17.5039727 102.5960184  99.2289619  17.9306403 104.0075026
  98.9707397  18.8523474 104.0059356  98.6974659  17.5336838 104.6975490
 104.1735808  31.0357190  96.7865111 104.3472685  30.4703613  96.0338964
 104.6664699  31.8358085  96.6044601  89.9912768  23.0471859 104.8528670
  89.4466236  23.8231667 104.9848944  90.8692117  23.3942664 104.6947791
  96.7800384  16.3783443  97.2309468  96.9016295  15.4500089  97.4300356
  96.4902427  16.3922129  96.3187784  99.6491575  14.0638354 100.3676188
  99.6713271  14.1277687  99.4128168 100.0659634  13.2242862 100.5616694
 110.0275199  23.7993613  98.4055411 110.4706345  23.0500938  98.0074534
 109.1501709  23.7903750  98.0229143 105.1610980  30.3523955  93.8862009
 105.8561885  30.9730647  94.1049324 105.5034130  29.5019306  94.1614387
  90.7778789  22.1741756 107.7458827  90.0360526  22.3224391 108.3323457
  90.4571534  22.4350021 106.8825576 107.0602403  27.8023660  95.4149340
 107.5853728  28.1410933  94.6898660 106.9724756  26.8670676  95.2312475
  98.7222452  31.7157734 107.5439217  99.0309579  31.4706881 108.4161916
  99.5197934  31.9204372 107.0558087  98.7443064  33.8695643  99.7744593
  98.3048054  33.3772022 100.4677450  99.4951181  33.3268611  99.5336669
  91.2235403  30.0607184  99.7769221  92.0493423  29.7610956  99.3967865
  90.8729455  29.2914807 100.2259010  96.1916936  29.4133653 101.8466895
  95.5696946  28.7504358 101.5469123  96.8621803  29.4394784 101.1640543
  89.4244008  27.9793511 100.7358155  88.5875917  27.5515685 100.5542156
  89.3967654  28.1725954 101.6728946  95.7530443  27.9637576  95.3225356
  95.9018564  28.6473040  94.6692028  96.5596887  27.9442666  95.8374811
  93.5083076  23.9902754  96.3286424  93.2629118  23.0865084  96.5266635
  93.6778991  23.9919904  95.3865902  92.7778724  19.7231111  93.8272586
  92.0847969  19.7975466  93.1712622  92.5330476  18.9591455  94.3494103
  99.2525849  30.4585706  92.7937103  98.6799816  31.0775893  92.3407575
  99.8258642  31.0085068  93.3277025 102.4723109  30.7422856  93.9245685
 103.4053782  30.6768418  94.1278561 102.3846321  31.5779123  93.4660218
 105.1011125  30.0588727  90.8849633 105.0224757  29.7248590  91.7785391
 105.9220792  30.5510495  90.8841105  99.6372647  21.7946519  90.1353155
 100.5831752  21.6652727  90.2041573  99.2586892  21.0561181  90.6122584
  97.8215564  19.7196495  90.0708041  96.9147020  19.4229608  90.1470754
  98.0991545  19.4226314  89.2042327  88.7393505  21.0402859 100.5207087
  88.4196289  20.1868167 100.2281461  88.1926933  21.2551437 101.2765054
  92.5173412  23.7565300 104.2376594  92.7359422  24.6882408 104.2564627
  92.9299186  23.3973274 105.0231397  99.4377630  14.2633385  96.2252282
  98.6278358  13.9180470  96.6007528 100.1262047  13.9540929  96.8139894
 101.3668178  13.3411432  97.8476579 101.9199217  13.7606885  98.5066602
 101.6038265  12.4147180  97.8899535  96.5914349  16.5783431  90.2120020
  97.4533513  16.9038329  90.4715837  96.7764693  15.7914927  89.6993086
  88.6081765  24.6605770 102.4900209  87.9145236  24.2459723 101.9770163
  89.3554756  24.7026307 101.8933628 104.7446986  15.4511957  97.3555243
 104.1645655  16.1096761  96.9733295 104.4782918  14.6289302  96.9442660
  90.5218507  24.5924024 100.3666224  90.4989195  24.6911711  99.4148107
  90.8319144  25.4389175 100.6883390  93.1805885  26.6500179 104.4812838
  94.1349139  26.6184122 104.4142770  92.9818409  26.1890803 105.2963064
  93.7705267  25.2201295 107.0483636  94.5898156  25.7145374 107.0718473
  94.0442075  24.3033263 107.0201203 103.5271864  17.6112048  96.4111591
 102.6397719  17.8961698  96.1931786 103.9425853  17.4505811  95.5638868
  91.5356114  32.1919799 101.4983036  91.4010582  31.4320200 100.9321034
  91.1188176  32.9160699 101.0311825 102.6715077  27.3756722  90.5059611
 103.3750927  27.5806725  91.1217267 101.9477726  27.9433484  90.7708695
 103.5012887  23.1266583  96.6261881 103.4448089  23.5835135  95.7869514
 104.0541230  22.3657268  96.4484724 107.3117693  18.9156315  97.4512001
 107.0554627  18.5152951  98.2820208 106.6870561  19.6300109  97.3262140
  94.6925240  33.0889116 101.7101478  94.5757624  34.0334548 101.6080169
  93.8717686  32.7862677 102.0987278 104.5801774  27.8139251  92.5558071
 105.4147378  27.3820450  92.3735546 104.4186117  27.6421265  93.4834966
 104.2347667  24.3171365  93.9214410 104.1796470  24.1515636  92.9802855
 103.6093722  25.0247398  94.0776600  89.0240182  19.5539429 107.7475833
  89.6699045  19.0438383 108.2363058  88.8157333  20.2908111 108.3219258
  97.5443792  13.8179474  93.4999729  97.5322462  14.7621314  93.6568000
  98.4367214  13.6349619  93.2059190  95.7179754  33.7417378 104.9257407
  96.6207001  33.7740988 105.2423902  95.4917124  32.8117829 104.9403743
  97.4733356  32.4948364 101.5867486  96.5228987  32.4950226 101.4731858
  97.7765842  31.7481099 101.0703520 113.2086050  38.3308903 102.6513248
 113.8464459  38.2115650 101.9476588 113.0906892  39.2789746 102.7101200
 110.0175756  38.2836331 102.5874773 109.6794267  38.1677395 101.6995307
 110.8865524  37.8827496 102.5675779 105.8762571  40.1371807  98.5771664
 105.3127437  40.0461744  97.8087951 105.7614967  39.3171712  99.0574156
 103.4227003  41.6322999 101.4155884 104.2148295  41.2913823 101.0002183
 103.6623654  41.7417974 102.3358037 111.4562130  43.8042775  93.8886128
 110.8050110  44.3896855  93.5020142 112.2506493  44.3348970  93.9481166
 105.3817757  40.8931912  94.2873263 106.1548633  40.3460899  94.1486139
 105.7343156  41.7576161  94.4987724 107.2202800  42.2208294 107.4940162
 106.9292666  43.1253925 107.3786828 107.8559784  42.2624822 108.2084232
 108.1459007  39.5985143 104.0841522 108.7422579  39.3741165 103.3698485
 108.2033978  38.8569888 104.6866970 107.7184035  37.0524578  91.9191713
 107.9709556  36.5306099  91.1575176 106.7808594  36.8890723  92.0218396
 112.7627318  36.0560356  99.7266456 113.5490407  35.6379780  99.3756873
 113.0266022  36.9606449  99.8948104 112.9337395  41.4933207  94.4255113
 112.2983228  41.5667833  95.1376017 112.6034802  42.0826806  93.7474192
 107.4380324  38.9552684  94.1216088 107.3216582  38.2797587  94.7897172
 107.5482584  38.4685058  93.3048241 109.7811865  38.4162831  97.8262777
 109.4170072  37.8893452  98.5375698 110.6378981  38.0261300  97.6529262
 109.4217352  33.4452731  92.8224125 109.5891754  34.3132967  93.1894596
 109.2314521  33.6080012  91.8985415 112.1792685  41.9069710 104.4889956
 111.8793408  42.8094748 104.3805763 111.8343745  41.6401893 105.3411109
 105.6305166  38.3583507 100.5226660 104.7055663  38.2259721 100.7304352
 105.8789580  39.1377726 101.0196603 109.4006573  35.9010388  93.8070792
 109.2806198  36.3467439  94.6456273 108.7059161  36.2495706  93.2484330
 102.9913978  38.0016780 101.3570449 103.1206359  38.2551259 102.2709861
 102.3111429  38.5944488 101.0375104 107.1613465  48.6714030  97.4560923
 107.0837494  49.6221855  97.5349404 106.5575108  48.3259903  98.1135850
 115.0991639  36.3731861  94.6351126 116.0109495  36.6059248  94.4598824
 114.5901286  36.9568906  94.0726205 107.9077067  38.6527349 109.6740257
 108.6491751  39.1912393 109.3975081 107.2014052  39.2793638 109.8311809
 109.7363477  35.7329096 105.6445976 110.5824672  36.1568510 105.7880625
 109.6762114  35.0762720 106.3384539 113.7061221  41.3557680 102.0264708
 113.0770084  41.5203394 101.3240776 113.3186883  41.7699289 102.7975672
 117.5850453  42.2912118  99.3809072 116.9001491  42.6711019  98.8306105
 117.6694302  42.9007444 100.1141019 109.2589183  41.0932088  99.2914793
 109.7227529  41.3719791  98.5019415 108.9945981  40.1915533  99.1087884
 106.1513264  40.6403570 102.2294556 106.7214621  41.0690838 101.5912041
 106.7421376  40.3586154 102.9278742 108.1958069  37.2155240  96.1004358
 108.8982112  37.6676284  96.5678284 107.8638698  36.5739059  96.7284251
 101.9383403  35.4738793 101.4021492 101.1482457  35.7296322 100.9261602
 102.4294650  36.2887131 101.5073532 115.9547213  42.8144032 104.1526772
 116.7764656  42.4124219 103.8709454 115.9509615  42.7112266 105.1042888
 103.8898148  35.8383372  98.3604968 103.0929312  35.9502067  98.8788464
 103.6623741  36.1770024  97.4945859 109.7203816  42.3628075 106.3087483
 109.7848249  42.8248483 107.1445655 109.0114740  41.7325440 106.4369793
 100.2221106  35.7269283 103.8336482 100.4729144  36.6116293 104.0994058
 100.7580654  35.5473885 103.0611574 109.4351834  44.0296183  96.1766463
 109.2997509  44.8747719  96.6051311 109.9761646  44.2315461  95.4132397
 102.8881231  41.5471621  96.7494388 103.4005752  42.3414871  96.8999953
 103.5403944  40.8497911  96.6827990 104.6976116  44.6637377  98.8317141
 104.8742744  45.5855342  98.6438125 105.4932949  44.3495797  99.2611521
 103.9828472  36.7102009 108.7079305 103.8681987  35.8087266 109.0086404
 103.1272990  36.9565706 108.3564121 111.0620310  44.6519749 110.3066805
 110.6184164  43.8656128 109.9887710 111.7237524  44.8398900 109.6410696
 105.8207431  46.1815551 104.8327484 106.3714856  46.0532614 104.0604478
 104.9818907  46.4810440 104.4822377 109.6174602  42.4466679 109.1771715
 110.1502939  41.6854967 108.9471023 109.0888683  42.1540331 109.9195869
 100.8530148  39.8760275  97.5253959 101.6905370  40.2857284  97.3087667
 101.0308416  38.9359717  97.4954153 112.7494580  37.5435356  93.2137792
 112.2341203  38.3139961  93.4526179 112.4771888  36.8700492  93.8370853
 110.3341691  32.3885057  98.2723030 109.4783287  31.9991907  98.0928669
 110.7468643  32.4677018  97.4122816 108.1083724  30.0070130 101.6780772
 108.9736720  29.8112938 101.3186661 108.1761232  29.7780482 102.6050128
 117.7228854  40.2967711  95.1490965 116.9458297  39.9578870  94.7046127
 118.4020335  40.3020334  94.4745930 112.5380883  35.4162448  95.0397573
 112.2331019  35.7308597  95.8907716 113.4911325  35.4943868  95.0824906
 110.9827315  41.5752671  96.6890527 110.4548677  40.8405431  96.3763764
 110.4814818  42.3527348  96.4430495 115.9620161  39.7701692 101.8057573
 115.3043835  40.4600953 101.8937702 116.7660560  40.1598124 102.1491560
 105.7146043  32.2372338  99.0497138 106.2889795  32.0147519  98.3170331
 106.3017025  32.3061032  99.8025740 114.7725620  38.1246065  99.8561515
 115.2857502  38.7576056 100.3583225 115.4226844  37.5247260  99.4904875
 106.0415630  34.2676799  93.0693024 105.2052942  34.6051485  93.3902298
 105.9020399  34.1325778  92.1320161 108.0168710  29.1113587  97.7772208
 107.3633123  28.7962604  97.1528823 107.9749184  28.4889327  98.5032031
 109.1279915  39.3932882  89.6925500 108.2206977  39.1622135  89.8916649
 109.6250947  38.5970501  89.8799482 112.0347994  48.1030389  92.6122186
 111.3609693  48.4062086  93.2207144 112.4213816  48.9059469  92.2627643
 111.2506451  35.5995520 102.1019856 110.3329012  35.8210467 101.9441544
 111.6666594  35.6741831 101.2431563 112.0341498  36.9986936  97.2322536
 112.7813317  37.5108333  96.9229658 112.3033088  36.6770989  98.0926929
 110.3068149  39.4945477  94.2149490 109.3979368  39.2104509  94.3121960
 110.3363232  39.9144555  93.3552797 115.5387416  43.1052066  97.9840658
 115.0849743  42.2642976  98.0405848 114.9081383  43.7413464  98.3215438
 114.4820336  34.0344052  99.2141325 113.7443092  33.5221438  99.5451568
 114.7347109  33.5944434  98.4024602 113.9820355  44.9428563  98.9190476
 114.2743330  45.5033620  98.2002841 114.4918976  45.2357124  99.6743635
 100.8756319  37.2150991  98.1964692 100.6780719  36.6220351  97.4715759
 100.3202983  36.9103201  98.9140631 108.8553043  37.1074097 100.3159285
 108.9101652  36.1547934 100.2401762 108.0444245  37.2633536 100.8000584
 110.0044236  41.0354220  91.5537569 109.5663666  40.3190079  91.0943206
 110.7454677  41.2630335  90.9922660 106.7945403  35.7251157  98.0749664
 105.9813268  36.0245327  98.4814856 107.2904397  35.3306846  98.7924147
 108.9453980  45.7208914 100.0083929 108.9030159  45.9469760  99.0792461
 109.8616679  45.4872288 100.1569730 118.1217351  39.3111417  97.6113887
 117.9835250  39.5013013  96.6835076 117.7653570  40.0730800  98.0681938
 106.2859477  33.2969512 103.6910899 106.9258857  33.1558271 102.9933863
 105.4537008  33.0104026 103.3149501 107.0619781  42.5971943  99.8045892
 107.8560380  42.1022263  99.6028467 106.3511474  42.0689806  99.4413597
 111.8814626  44.9790038 104.1558259 111.9351648  45.5480975 104.9235975
 111.0129407  45.1491923 103.7912296 103.3702545  36.7415025  95.8805644
 102.4400133  36.6799480  96.0975607 103.4660017  36.2190977  95.0842286
 103.2888094  33.2669837  98.4683886 103.5494911  34.1815171  98.3593047
 104.1105266  32.7994280  98.6180499 104.7613019  34.6807595 105.6382711
 105.4336073  34.4724957 104.9895359 103.9342806  34.4829681 105.1987943
 110.8402725  39.1450300 105.7145191 111.7694785  39.2961460 105.5414158
 110.4193755  39.2334321 104.8593838 109.6391057  43.1700965 103.4843729
 109.5002143  42.8019749 104.3569667 108.8505653  43.6848604 103.3127687
 110.2339209  48.2710061  94.8269265 110.4090965  47.7998104  95.6414888
 109.5471997  48.8975827  95.0550526 111.1896272  42.5482567 100.8732567
 110.8546105  42.5083337 101.7690216 110.6900218  41.8827283 100.4002977
 105.1640516  37.9550198 106.3985148 105.0260314  37.2230436 106.9996687
 106.0745440  37.8659098 106.1169335 114.1255464  39.8938602  91.1469626
 113.5084635  39.1685430  91.0502679 113.6571953  40.6547962  90.8036700
 107.7922817  37.6670157 105.8868827 108.5022436  37.0263349 105.8455446
 107.7492125  37.9183052 106.8095008 106.5051751  34.6535375 107.7064467
 105.9689108  34.2026113 108.3586063 105.9168459  34.7881284 106.9634931
 104.8000295  51.4199424 101.6009125 105.0396893  52.0517948 102.2788144
 103.9569491  51.0687464 101.8874485 105.9154010  34.1124026  90.2690931
 105.0383476  33.9912827  89.9053177 106.3911763  33.3210104  90.0169819
  97.4356150  38.9001186 100.3632438  98.1227190  38.5862916  99.7753453
  97.2804279  39.8042551 100.0899689 102.2390872  33.7891382 104.7917461
 102.1549061  33.1817052 104.0567871 101.4173579  34.2800401 104.7926958
 109.3128156  47.2278546 104.0050629 109.2398328  48.0333518 104.5169934
 108.8705549  47.4270512 103.1798651 109.1017936  46.4650316  97.5153451
 108.3185458  47.0071997  97.6091676 109.8010681  46.9824296  97.9147692
 112.4114586  32.2744946 100.1587656 112.9083286  31.5214908  99.8388727
 111.6401568  32.3109263  99.5930866 111.7726840  47.1265380 106.1608788
 112.4854812  47.7612845 106.0884690 111.2816869  47.2229246 105.3448790
 113.4944367  41.0316633  97.7326080 112.5600646  41.1518096  97.5630784
 113.6721035  40.1289100  97.4686090 108.9949555  34.4162329  99.8859341
 108.6247342  33.8633369 100.5740247 109.4908647  33.8120462  99.3334341
 116.8816918  36.8733952  98.2676114 117.3477370  37.7061944  98.1936417
 117.3324419  36.4078934  98.9721372 106.8238753  44.8759824 106.9814359
 107.5248213  45.5096307 107.1343753 106.3533868  45.2174556 106.2209998
 114.9493149  43.2177774  95.2662266 115.2252993  43.1034368  96.1756140
 114.0797648  42.8195259  95.2274439 111.5847213  47.4664125  98.9095080
 111.7669608  46.6485781  99.3722832 112.4080199  47.6831817  98.4719970
 111.9189379  46.3932310  96.1710128 112.4477145  45.8824764  95.5580290
 112.1817598  46.0774840  97.0355661 102.4206471  44.4096179 103.9145462
 103.0059908  43.6639867 104.0473366 102.2231310  44.7200136 104.7982126
 105.2745127  47.4447426  98.9307904 104.6055502  47.9293554  98.4471944
 105.1357996  47.6916647  99.8451283  97.0124126  36.9801779 102.6349905
  97.0508226  36.4465370 103.4287023  96.5064419  36.4536985 102.0160882
 109.4150395  49.4791170 105.5290562 109.9668703  49.6422791 106.2939648
 109.7556589  50.0695608 104.8570587 104.3914889  31.8266320 106.1312447
 104.4556215  32.6881151 105.7189845 104.3282009  31.2140321 105.3984806
 100.6432704  35.7065881  95.7103836 100.9386145  34.7976560  95.6570890
  99.7420740  35.6853621  95.3884839 112.5518783  47.4273145 102.5154245
 112.4269922  46.6262885 102.0065190 113.2097874  47.9219339 102.0268215
 104.1726951  33.7821878 101.6931385 103.4513537  34.3957846 101.5538858
 104.9620207  34.3179643 101.6148031 114.6153691  45.2282166 104.1433795
 113.6684026  45.1087517 104.0712121 114.9636464  44.3404664 104.2260056
 102.3720545  33.3879979  95.8343161 102.0433252  32.5077358  95.6518267
 102.7259916  33.3327648  96.7219551 111.6200124  45.0234882 100.3438147
 111.4725087  44.0951589 100.5245717 112.4453618  45.0454972  99.8595222
 105.4862369  33.6752949  96.2018639 105.8258441  34.2038870  95.4797247
 105.9334489  34.0133355  96.9777206 115.2234246  45.8463440 101.4303020
 116.1480794  45.6406302 101.2927471 115.0549549  45.5979842 102.3392361
 107.4730516  32.1727570  94.4011932 108.1938878  32.5508823  93.8975649
 106.8495820  32.8916447  94.5046910 111.6161639  32.8772719  95.3370264
 111.8325253  33.7597357  95.0359092 111.1355706  32.4858933  94.6075906
 106.3560860  35.8358433 101.9141009 106.2105441  36.1498736 102.8065290
 105.8786064  36.4543333 101.3611907 108.2157243  32.8260981 101.9621898
 108.2018812  31.9302074 101.6254196 108.9329671  32.8331644 102.5960184
 110.0683374  33.2598321 104.0075026 109.8101151  34.1815391 104.0059356
 109.5368414  32.8628755 104.6975490 115.0129562  46.3649108  96.7865111
 115.1866440  45.7995530  96.0338964 115.5058454  47.1650003  96.6044601
 100.8306522  38.3763777 104.8528670 100.2859990  39.1523585 104.9848944
 101.7085872  38.7234581 104.6947791 107.6194139  31.7075361  97.2309468
 107.7410050  30.7792007  97.4300356 107.3296181  31.7214047  96.3187784
 110.4885329  29.3930271 100.3676188 110.5107026  29.4569604  99.4128168
 110.9053388  28.5534780 100.5616694 120.8668953  39.1285531  98.4055411
 121.3100100  38.3792856  98.0074534 119.9895464  39.1195667  98.0229143
 116.0004735  45.6815872  93.8862009 116.6955639  46.3022565  94.1049324
 116.3427885  44.8311224  94.1614387 101.6172544  37.5033673 107.7458827
 100.8754280  37.6516309 108.3323457 101.2965288  37.7641939 106.8825576
 117.8996158  43.1315578  95.4149340 118.4247482  43.4702851  94.6898660
 117.8118510  42.1962593  95.2312475 109.5616207  47.0449652 107.5439217
 109.8703333  46.7998798 108.4161916 110.3591689  47.2496290 107.0558087
 109.5836819  49.1987561  99.7744593 109.1441809  48.7063940 100.4677450
 110.3344936  48.6560529  99.5336669 102.0629158  45.3899102  99.7769221
 102.8887178  45.0902874  99.3967865 101.7123210  44.6206724 100.2259010
 107.0310691  44.7425570 101.8466895 106.4090700  44.0796275 101.5469123
 107.7015558  44.7686702 101.1640543 100.2637763  43.3085428 100.7358155
  99.4269671  42.8807603 100.5542156 100.2361408  43.5017872 101.6728946
 106.5924198  43.2929494  95.3225356 106.7412318  43.9764958  94.6692028
 107.3990641  43.2734584  95.8374811 104.3476831  39.3194671  96.3286424
 104.1022873  38.4157001  96.5266635 104.5172745  39.3211822  95.3865902
 103.6172478  35.0523029  93.8272586 102.9241723  35.1267384  93.1712622
 103.3724230  34.2883372  94.3494103 110.0919603  45.7877624  92.7937103
 109.5193570  46.4067811  92.3407575 110.6652397  46.3376986  93.3277025
 113.3116863  46.0714774  93.9245685 114.2447536  46.0060336  94.1278561
 113.2240076  46.9071041  93.4660218 115.9404880  45.3880645  90.8849633
 115.8618511  45.0540508  91.7785391 116.7614547  45.8802412  90.8841105
 110.4766402  37.1238437  90.1353155 111.4225506  36.9944645  90.2041573
 110.0980647  36.3853099  90.6122584 108.6609319  35.0488413  90.0708041
 107.7540774  34.7521526  90.1470754 108.9385300  34.7518231  89.2042327
  99.5787259  36.3694777 100.5207087  99.2590044  35.5160085 100.2281461
  99.0320687  36.5843355 101.2765054 103.3567167  39.0857218 104.2376594
 103.5753177  40.0174325 104.2564627 103.7692941  38.7265192 105.0231397
 110.2771385  29.5925303  96.2252282 109.4672113  29.2472388  96.6007528
 110.9655802  29.2832847  96.8139894 112.2061933  28.6703350  97.8476579
 112.7592972  29.0898803  98.5066602 112.4432019  27.7439098  97.8899535
 107.4308104  31.9075348  90.2120020 108.2927268  32.2330247  90.4715837
 107.6158448  31.1206844  89.6993086  99.4475519  39.9897688 102.4900209
  98.7538991  39.5751641 101.9770163 100.1948510  40.0318225 101.8933628
 115.5840740  30.7803875  97.3555243 115.0039409  31.4388679  96.9733295
 115.3176673  29.9581219  96.9442660 101.3612262  39.9215942 100.3666224
 101.3382950  40.0203629  99.4148107 101.6712898  40.7681093 100.6883390
 104.0199640  41.9792097 104.4812838 104.9742893  41.9476039 104.4142770
 103.8212163  41.5182721 105.2963064 104.6099022  40.5493213 107.0483636
 105.4291911  41.0437292 107.0718473 104.8835830  39.6325181 107.0201203
 114.3665618  32.9403965  96.4111591 113.4791473  33.2253616  96.1931786
 114.7819607  32.7797729  95.5638868 102.3749868  47.5211716 101.4983036
 102.2404336  46.7612117 100.9321034 101.9581931  48.2452616 101.0311825
 113.5108831  42.7048640  90.5059611 114.2144682  42.9098642  91.1217267
 112.7871480  43.2725402  90.7708695 114.3406642  38.4558501  96.6261881
 114.2841843  38.9127053  95.7869514 114.8934984  37.6949186  96.4484724
 118.1511448  34.2448233  97.4512001 117.8948382  33.8444869  98.2820208
 117.5264316  34.9592027  97.3262140 105.5318994  48.4181033 101.7101478
 105.4151379  49.3626466 101.6080169 104.7111441  48.1154595 102.0987278
 115.4195529  43.1431169  92.5558071 116.2541133  42.7112368  92.3735546
 115.2579872  42.9713183  93.4834966 115.0741421  39.6463282  93.9214410
 115.0190225  39.4807554  92.9802855 114.4487476  40.3539315  94.0776600
  99.8633936  34.8831347 107.7475833 100.5092800  34.3730301 108.2363058
  99.6551087  35.6200028 108.3219258 108.3837547  29.1471391  93.4999729
 108.3716216  30.0913231  93.6568000 109.2760968  28.9641537  93.2059190
 106.5573508  49.0709295 104.9257407 107.4600755  49.1032906 105.2423902
 106.3310879  48.1409746 104.9403743 108.3127111  47.8240282 101.5867486
 107.3622742  47.8242143 101.4731858 108.6159597  47.0773016 101.0703520
 112.1989666  25.7414168  97.7545666 111.4322062  25.1872655  97.9002348
 112.6100371  25.8136037  98.6159817 120.8569510  53.6128248 102.5874773
 120.5188022  53.4969313 101.6995307 121.7259278  53.2119413 102.5675779
 116.7156326  55.4663725  98.5771664 116.1521191  55.3753662  97.8087951
 116.6008721  54.6463629  99.0574156 114.2620758  56.9614916 101.4155884
 115.0542050  56.6205741 101.0002183 114.5017408  57.0709891 102.3358037
 116.2211512  56.2223830  94.2873263 116.9942388  55.6752817  94.1486139
 116.5736911  57.0868079  94.4987724 118.0596554  57.5500212 107.4940162
 117.7686420  58.4545843 107.3786828 118.6953539  57.5916739 108.2084232
 118.9852761  54.9277060 104.0841522 119.5816334  54.7033083 103.3698485
 119.0427733  54.1861806 104.6866970 118.5577790  52.3816496  91.9191713
 118.8103310  51.8598017  91.1575176 117.6202349  52.2182641  92.0218396
 118.2774078  54.2844602  94.1216088 118.1610337  53.6089505  94.7897172
 118.3876338  53.7976976  93.3048241 120.6205619  53.7454749  97.8262777
 120.2563827  53.2185370  98.5375698 121.4772735  53.3553218  97.6529262
 120.2611106  48.7744648  92.8224125 120.4285509  49.6424885  93.1894596
 120.0708275  48.9371930  91.8985415 116.4698921  53.6875424 100.5226660
 115.5449417  53.5551638 100.7304352 116.7183334  54.4669643 101.0196603
 120.2400327  51.2302306  93.8070792 120.1199952  51.6759357  94.6456273
 119.5452916  51.5787624  93.2484330 113.8307732  53.3308698 101.3570449
 113.9600113  53.5843177 102.2709861 113.1505183  53.9236406 101.0375104
 118.0007219  64.0005948  97.4560923 117.9231249  64.9513773  97.5349404
 117.3968863  63.6551820  98.1135850 118.7470821  53.9819266 109.6740257
 119.4885506  54.5204310 109.3975081 118.0407807  54.6085555 109.8311809
 120.5757231  51.0621014 105.6445976 121.4218426  51.4860427 105.7880625
 120.5155869  50.4054638 106.3384539 120.0982938  56.4224006  99.2914793
 120.5621283  56.7011709  98.5019415 119.8339736  55.5207450  99.1087884
 116.9907019  55.9695487 102.2294556 117.5608376  56.3982756 101.5912041
 117.5815130  55.6878072 102.9278742 119.0351824  52.5447158  96.1004358
 119.7375867  52.9968202  96.5678284 118.7032452  51.9030977  96.7284251
 112.7777158  50.8030711 101.4021492 111.9876212  51.0588239 100.9261602
 113.2688405  51.6179049 101.5073532 114.7291903  51.1675290  98.3604968
 113.9323066  51.2793984  98.8788464 114.5017495  51.5061942  97.4945859
 120.5597571  57.6919993 106.3087483 120.6242003  58.1540400 107.1445655
 119.8508494  57.0617358 106.4369793 111.0614861  51.0561201 103.8336482
 111.3122899  51.9408211 104.0994058 111.5974409  50.8765803 103.0611574
 120.2745588  59.3588101  96.1766463 120.1391263  60.2039636  96.6051311
 120.8155401  59.5607378  95.4132397 113.7274986  56.8763539  96.7494388
 114.2399506  57.6706789  96.8999953 114.3797698  56.1789829  96.6827990
 115.5369870  59.9929295  98.8317141 115.7136499  60.9147260  98.6438125
 116.3326704  59.6787714  99.2611521 114.8222227  52.0393927 108.7079305
 114.7075742  51.1379184 109.0086404 113.9666745  52.2857624 108.3564121
 116.6601186  61.5107469 104.8327484 117.2108611  61.3824532 104.0604478
 115.8212662  61.8102358 104.4822377 120.4568357  57.7758597 109.1771715
 120.9896694  57.0146885 108.9471023 119.9282438  57.4832248 109.9195869
 111.6923902  55.2052193  97.5253959 112.5299124  55.6149201  97.3087667
 111.8702170  54.2651635  97.4954153 121.1735446  47.7176974  98.2723030
 120.3177042  47.3283825  98.0928669 121.5862397  47.7968935  97.4122816
 118.9477478  45.3362047 101.6780772 119.8130475  45.1404856 101.3186661
 119.0154987  45.1072399 102.6050128 121.8221070  56.9044589  96.6890527
 121.2942431  56.1697349  96.3763764 121.3208572  57.6819265  96.4430495
 116.5539797  47.5664255  99.0497138 117.1283549  47.3439437  98.3170331
 117.1410780  47.6352950  99.8025740 116.8809384  49.5968716  93.0693024
 116.0446696  49.9343403  93.3902298 116.7414154  49.4617696  92.1320161
 118.8562465  44.4405504  97.7772208 118.2026877  44.1254521  97.1528823
 118.8142939  43.8181245  98.5032031 119.9673670  54.7224799  89.6925500
 119.0600731  54.4914053  89.8916649 120.4644702  53.9262419  89.8799482
 121.1461903  54.8237394  94.2149490 120.2373122  54.5396427  94.3121960
 121.1756987  55.2436473  93.3552797 111.7150074  52.5442908  98.1964692
 111.5174473  51.9512269  97.4715759 111.1596738  52.2395119  98.9140631
 119.6946797  52.4366015 100.3159285 119.7495407  51.4839851 100.2401762
 118.8837999  52.5925454 100.8000584 120.8437991  56.3646138  91.5537569
 120.4057421  55.6481997  91.0943206 121.5848432  56.5922253  90.9922660
 117.6339157  51.0543075  98.0749664 116.8207023  51.3537245  98.4814856
 118.1298151  50.6598763  98.7924147 119.7847735  61.0500831 100.0083929
 119.7423914  61.2761678  99.0792461 120.7010434  60.8164206 100.1569730
 117.1253232  48.6261430 103.6910899 117.7652611  48.4850189 102.9933863
 116.2930762  48.3395943 103.3149501 117.9013536  57.9263860  99.8045892
 118.6954134  57.4314181  99.6028467 117.1905228  57.3981724  99.4413597
 114.2096299  52.0706942  95.8805644 113.2793887  52.0091398  96.0975607
 114.3053771  51.5482895  95.0842286 114.1281848  48.5961755  98.4683886
 114.3888666  49.5107088  98.3593047 114.9499021  48.1286198  98.6180499
 115.6006774  50.0099512 105.6382711 116.2729827  49.8016874 104.9895359
 114.7736560  49.8121598 105.1987943 120.4784812  58.4992882 103.4843729
 120.3395897  58.1311667 104.3569667 119.6899408  59.0140522 103.3127687
 121.0732964  63.6001979  94.8269265 121.2484719  63.1290022  95.6414888
 120.3865752  64.2267745  95.0550526 122.0290027  57.8774485 100.8732567
 121.6939860  57.8375255 101.7690216 121.5293973  57.2119201 100.4002977
 116.0034271  53.2842115 106.3985148 115.8654069  52.5522354 106.9996687
 116.9139194  53.1951015 106.1169335 118.6316572  52.9962075 105.8868827
 119.3416190  52.3555267 105.8455446 118.5885880  53.2474969 106.8095008
 117.3445506  49.9827292 107.7064467 116.8082863  49.5318031 108.3586063
 116.7562214  50.1173201 106.9634931 115.6394049  66.7491342 101.6009125
 115.8790647  67.3809866 102.2788144 114.7963245  66.3979382 101.8874485
 116.7547764  49.4415944  90.2690931 115.8777231  49.3204745  89.9053177
 117.2305518  48.6502022  90.0169819 108.2749905  54.2293104 100.3632438
 108.9620944  53.9154834  99.7753453 108.1198033  55.1334468 100.0899689
 113.0784627  49.1183300 104.7917461 112.9942815  48.5108970 104.0567871
 112.2567333  49.6092318 104.7926958 120.1521911  62.5570464 104.0050629
 120.0792082  63.3625436 104.5169934 119.7099304  62.7562430 103.1798651
 119.9411690  61.7942234  97.5153451 119.1579212  62.3363914  97.6091676
 120.6404436  62.3116214  97.9147692 119.8343309  49.7454247  99.8859341
 119.4641097  49.1925287 100.5740247 120.3302402  49.1412380  99.3334341
 117.6632508  60.2051742 106.9814359 118.3641967  60.8388225 107.1343753
 117.1927623  60.5466473 106.2209998 113.2600226  59.7388097 103.9145462
 113.8453663  58.9931785 104.0473366 113.0625064  60.0492053 104.7982126
 116.1138881  62.7739344  98.9307904 115.4449256  63.2585472  98.4471944
 115.9751751  63.0208565  99.8451283 107.8517881  52.3093697 102.6349905
 107.8901980  51.7757288 103.4287023 107.3458174  51.7828902 102.0160882
 120.2544150  64.8083088 105.5290562 120.8062458  64.9714709 106.2939648
 120.5950343  65.3987525 104.8570587 115.2308643  47.1558237 106.1312447
 115.2949970  48.0173068 105.7189845 115.1675763  46.5432239 105.3984806
 111.4826458  51.0357799  95.7103836 111.7779899  50.1268477  95.6570890
 110.5814494  51.0145539  95.3884839 115.0120705  49.1113796 101.6931385
 114.2907291  49.7249763 101.5538858 115.8013961  49.6471560 101.6148031
 113.2114300  48.7171897  95.8343161 112.8827006  47.8369276  95.6518267
 113.5653671  48.6619565  96.7219551 116.3256123  49.0044867  96.2018639
 116.6652196  49.5330788  95.4797247 116.7728244  49.3425273  96.9777206
 118.3124270  47.5019488  94.4011932 119.0332633  47.8800741  93.8975649
 117.6889574  48.2208365  94.5046910 117.1954614  51.1650350 101.9141009
 117.0499195  51.4790653 102.8065290 116.7179818  51.7835251 101.3611907
 119.0550997  48.1552898 101.9621898 119.0412566  47.2593992 101.6254196
 119.7723425  48.1623562 102.5960184 120.9077128  48.5890238 104.0075026
 120.6494906  49.5107309 104.0059356 120.3762168  48.1920673 104.6975490
 111.6700277  53.7055695 104.8528670 111.1253745  54.4815503 104.9848944
 112.5479626  54.0526499 104.6947791 118.4587893  47.0367279  97.2309468
 118.5803804  46.1083925  97.4300356 118.1689936  47.0505965  96.3187784
 121.3279084  44.7222189 100.3676188 121.3500780  44.7861522  99.4128168
 121.7447143  43.8826698 100.5616694 112.4566298  52.8325591 107.7458827
 111.7148035  52.9808226 108.3323457 112.1359043  53.0933857 106.8825576
 120.4009961  62.3741569 107.5439217 120.7097088  62.1290716 108.4161916
 121.1985443  62.5788208 107.0558087 120.4230573  64.5279479  99.7744593
 119.9835563  64.0355858 100.4677450 121.1738690  63.9852446  99.5336669
 112.9022912  60.7191020  99.7769221 113.7280932  60.4194792  99.3967865
 112.5516964  59.9498642 100.2259010 117.8704445  60.0717488 101.8466895
 117.2484455  59.4088193 101.5469123 118.5409312  60.0978620 101.1640543
 111.1031517  58.6377346 100.7358155 110.2663426  58.2099520 100.5542156
 111.0755163  58.8309789 101.6728946 117.4317952  58.6221411  95.3225356
 117.5806073  59.3056876  94.6692028 118.2384396  58.6026501  95.8374811
 115.1870585  54.6486589  96.3286424 114.9416627  53.7448919  96.5266635
 115.3566500  54.6503739  95.3865902 114.4566233  50.3814946  93.8272586
 113.7635478  50.4559301  93.1712622 114.2117985  49.6175290  94.3494103
 120.9313358  61.1169542  92.7937103 120.3587325  61.7359729  92.3407575
 121.5046151  61.6668903  93.3277025 121.3160156  52.4530354  90.1353155
 122.2619261  52.3236563  90.2041573 120.9374401  51.7145016  90.6122584
 119.5003073  50.3780331  90.0708041 118.5934529  50.0813444  90.1470754
 119.7779054  50.0810149  89.2042327 110.4181014  51.6986694 100.5207087
 110.0983798  50.8452002 100.2281461 109.8714442  51.9135272 101.2765054
 114.1960921  54.4149135 104.2376594 114.4146931  55.3466243 104.2564627
 114.6086695  54.0557110 105.0231397 121.1165139  44.9217221  96.2252282
 120.3065867  44.5764306  96.6007528 121.8049556  44.6124764  96.8139894
 118.2701858  47.2367266  90.2120020 119.1321022  47.5622164  90.4715837
 118.4552202  46.4498762  89.6993086 110.2869274  55.3189606 102.4900209
 109.5932745  54.9043559 101.9770163 111.0342265  55.3610142 101.8933628
 112.2006016  55.2507860 100.3666224 112.1776704  55.3495547  99.4148107
 112.5106653  56.0973010 100.6883390 114.8593394  57.3084015 104.4812838
 115.8136648  57.2767957 104.4142770 114.6605918  56.8474638 105.2963064
 115.4492776  55.8785131 107.0483636 116.2685665  56.3729209 107.0718473
 115.7229584  54.9617099 107.0201203 113.2143623  62.8503634 101.4983036
 113.0798091  62.0904035 100.9321034 112.7975685  63.5744534 101.0311825
 116.3712749  63.7472951 101.7101478 116.2545133  64.6918384 101.6080169
 115.5505195  63.4446513 102.0987278 110.7027691  50.2123264 107.7475833
 111.3486554  49.7022218 108.2363058 110.4944842  50.9491946 108.3219258
 119.2231301  44.4763309  93.4999729 119.2109971  45.4205149  93.6568000
 120.1154723  44.2933454  93.2059190 117.3967263  64.4001213 104.9257407
 118.2994510  64.4324823 105.2423902 117.1704633  63.4701664 104.9403743
 119.1520865  63.1532199 101.5867486 118.2016496  63.1534061 101.4731858
 119.4553351  62.4064934 101.0703520 121.9008615  66.3853119 103.8336482
 122.1516653  67.2700129 104.0994058 122.4368163  66.2057720 103.0611574
 119.1143659  69.5585021 100.3632438 119.8014699  69.2446751  99.7753453
 118.9591788  70.4626386 100.0899689 118.6911635  67.6385615 102.6349905
 118.7295735  67.1049205 103.4287023 118.1851928  67.1120820 102.0160882
 121.9425272  73.9669264 100.7358155 121.1057180  73.5391438 100.5542156
 121.9148917  74.1601707 101.6728946 121.2574768  67.0278612 100.5207087
 120.9377553  66.1743920 100.2281461 120.7108196  67.2427190 101.2765054
 121.1263028  70.6481523 102.4900209 120.4326500  70.2335476 101.9770163
 121.8736019  70.6902060 101.8933628 121.5421445  65.5415182 107.7475833
 122.1880309  65.0314136 108.2363058 121.3338596  66.2783864 108.3219258
  96.3219712  10.3484235  84.1806230  96.2443741  11.2992060  84.2594711
  95.7181355  10.0030107  84.8381156  93.9606541  13.0969629  88.3254432
  94.2003140  13.7288153  89.0033451  93.1175738  12.7457669  88.6119791
  94.4351373   9.1217631  85.6553211  93.7661749   9.6063759  85.1717251
  94.2964243   9.3686852  86.5696589  98.5756642  11.1561375  92.2535869
  99.1274950  11.3192996  93.0184954  98.9162836  11.7465813  91.5815894
  98.7443065  10.8757766  86.4989900  98.3048056  10.3834145  87.1922757
  99.4951182  10.3330734  86.2581975  91.5356115   9.1981921  88.2228342
  91.4010583   8.4382322  87.6566340  91.1188178   9.9222821  87.7557131
  94.6925241  10.0951238  88.4346785  94.5757625  11.0396671  88.3325475
  93.8717687   9.7924800  88.8232584  95.7179755  10.7479500  91.6502714
  96.6207002  10.7803110  91.9669208  95.4917125   9.8179951  91.6649049
 110.0175757  15.2898453  89.3120079 109.6794269  15.1739518  88.4240614
 110.8865525  14.8889618  89.2921085 105.8762573  17.1433930  85.3016970
 105.3127438  17.0523867  84.5333258 105.7614968  16.3233834  85.7819463
 103.4227005  18.6385121  88.1401191 104.2148297  18.2975946  87.7247490
 103.6623655  18.7480096  89.0603344 111.4562131  20.8104897  80.6131435
 110.8050111  21.3958978  80.2265449 112.2506494  21.3411092  80.6726473
 105.3817759  17.8994035  81.0118569 106.1548635  17.3523022  80.8731445
 105.7343157  18.7638284  81.2233031 107.2202801  19.2270417  94.2185469
 106.9292667  20.1316048  94.1032135 107.8559786  19.2686944  94.9329538
 108.1459008  16.6047265  90.8086828 108.7422580  16.3803288  90.0943791
 108.2033980  15.8632011  91.4112276 107.7184036  14.0586701  78.6437019
 107.9709557  13.5368222  77.8820482 106.7808596  13.8952846  78.7463703
 112.9337397  18.4995329  81.1500419 112.2983230  18.5729956  81.8621324
 112.6034803  19.0888928  80.4719499 107.4380325  15.9614807  80.8461394
 107.3216583  15.2859710  81.5142479 107.5482585  15.4747181  80.0293547
 109.7811866  15.4224954  84.5508084 109.4170073  14.8955575  85.2621005
 110.6378982  15.0323423  84.3774569 112.1792686  18.9131832  91.2135262
 111.8793409  19.8156871  91.1051070 111.8343746  18.6464015  92.0656415
 105.6305168  15.3645629  87.2471967 104.7055664  15.2321843  87.4549659
 105.8789581  16.1439848  87.7441909 102.9913979  15.0078903  88.0815756
 103.1206360  15.2613382  88.9955168 102.3111430  15.6006611  87.7620411
 107.1613466  25.6776153  84.1806230 107.0837496  26.6283978  84.2594711
 106.5575110  25.3322025  84.8381156 107.9077068  15.6589471  96.3985564
 108.6491753  16.1974515  96.1220388 107.2014054  16.2855760  96.5557116
 113.7061222  18.3619803  88.7510014 113.0770085  18.5265517  88.0486082
 113.3186885  18.7761412  89.5220978 117.5850454  19.2974240  86.1054378
 116.9001492  19.6773142  85.5551411 117.6694304  19.9069567  86.8386326
 109.2589184  18.0994211  86.0160100 109.7227530  18.3781914  85.2264722
 108.9945982  17.1977655  85.8333190 106.1513265  17.6465692  88.9539863
 106.7214622  18.0752961  88.3157347 106.7421377  17.3648277  89.6524048
 108.1958070  14.2217363  82.8249665 108.8982114  14.6738407  83.2923591
 107.8638699  13.5801182  83.4529558 101.9383404  12.4800916  88.1266798
 101.1482458  12.7358444  87.6506909 102.4294652  13.2949253  88.2318839
 115.9547214  19.8206155  90.8772079 116.7764658  19.4186342  90.5954761
 115.9509617  19.7174389  91.8288195 103.8898150  12.8445495  85.0850275
 103.0929313  12.9564189  85.6033771 103.6623742  13.1832147  84.2191165
 109.7203817  19.3690198  93.0332790 109.7848250  19.8310605  93.8690961
 109.0114741  18.7387563  93.1615099 100.2221107  12.7331406  90.5581789
 100.4729146  13.6178416  90.8239365 100.7580656  12.5536008  89.7856881
 109.4351835  21.0358306  82.9011770 109.2997510  21.8809841  83.3296618
 109.9761647  21.2377583  82.1377704 102.8881232  18.5533744  83.4739695
 103.4005753  19.3476994  83.6245260 103.5403945  17.8560034  83.4073296
 104.6976117  21.6699500  85.5562448 104.8742745  22.5917465  85.3683432
 105.4932951  21.3557919  85.9856828 103.9828474  13.7164132  95.4324611
 103.8681989  12.8149389  95.7331710 103.1272991  13.9627829  95.0809428
 111.0620311  21.6581872  97.0312112 110.6184166  20.8718251  96.7133016
 111.7237525  21.8461023  96.3656003 105.8207433  23.1877674  91.5572790
 106.3714858  23.0594737  90.7849784 104.9818908  23.4872563  91.2067683
 109.6174604  19.4528802  95.9017022 110.1502940  18.6917090  95.6716330
 109.0888685  19.1602453  96.6441176 100.8530149  16.8822398  84.2499265
 101.6905371  17.2919406  84.0332973 101.0308417  15.9421840  84.2199459
 117.7228855  17.3029833  81.8736272 116.9458298  16.9640993  81.4291434
 118.4020336  17.3082456  81.1991237 110.9827316  18.5814794  83.4135834
 110.4548678  17.8467554  83.1009071 110.4814819  19.3589470  83.1675802
 115.9620162  16.7763814  88.5302880 115.3043837  17.4663076  88.6183009
 116.7660562  17.1660246  88.8736866 109.1279916  16.3995004  76.4170807
 108.2206978  16.1684258  76.6161956 109.6250948  15.6032624  76.6044788
 112.0347995  25.1092511  79.3367493 111.3609694  25.4124208  79.9452451
 112.4213817  25.9121592  78.9872950 110.3068150  16.5007599  80.9394797
 109.3979369  16.2166632  81.0367266 110.3363234  16.9206678  80.0798104
 115.5387417  20.1114189  84.7085964 115.0849744  19.2705098  84.7651155
 114.9081384  20.7475587  85.0460744 113.9820357  21.9490685  85.6435782
 114.2743331  22.5095742  84.9248148 114.4918977  22.2419246  86.3988942
 100.8756320  14.2213113  84.9209999 100.6780720  13.6282474  84.1961065
 100.3202984  13.9165323  85.6385938 110.0044238  18.0416343  78.2782875
 109.5663668  17.3252202  77.8188513 110.7454679  18.2692458  77.7167967
 108.9453982  22.7271036  86.7329236 108.9030161  22.9531883  85.8037768
 109.8616681  22.4934411  86.8815037 107.0619783  19.6034065  86.5291198
 107.8560381  19.1084386  86.3273773 106.3511475  19.0751929  86.1658904
 111.8814627  21.9852161  90.8803566 111.9351649  22.5543097  91.6481282
 111.0129408  22.1554046  90.5157603 103.3702546  13.7477147  82.6050951
 102.4400134  13.6861603  82.8220913 103.4660018  13.2253100  81.8087592
 110.8402727  16.1512423  92.4390498 111.7694787  16.3023583  92.2659465
 110.4193757  16.2396444  91.5839144 109.6391059  20.1763087  90.2089035
 109.5002144  19.8081872  91.0814974 108.8505655  20.6910727  90.0372993
 110.2339210  25.2772184  81.5514572 110.4090966  24.8060227  82.3660195
 109.5471999  25.9037950  81.7795833 111.1896274  19.5544690  87.5977873
 110.8546106  19.5145460  88.4935523 110.6900219  18.8889406  87.1248283
 105.1640518  14.9612320  93.1230454 105.0260316  14.2292559  93.7241993
 106.0745441  14.8721220  92.8414642 114.1255465  16.9000724  77.8714933
 113.5084636  16.1747553  77.7747986 113.6571954  17.6610085  77.5282007
 107.7922818  14.6732279  92.6114134 108.5022437  14.0325472  92.5700752
 107.7492126  14.9245174  93.5340315 104.8000296  28.4261547  88.3254432
 105.0396894  29.0580071  89.0033451 103.9569492  28.0749587  88.6119791
  97.4356151  15.9063308  87.0877744  98.1227191  15.5925038  86.4998760
  97.2804280  16.8104673  86.8144996 109.3128158  24.2340669  90.7295936
 109.2398329  25.0395641  91.2415241 108.8705551  24.4332635  89.9043958
 109.1017937  23.4712439  84.2398758 108.3185459  24.0134119  84.3336982
 109.8010682  23.9886419  84.6392999 111.7726841  24.1327503  92.8854095
 112.4854813  24.7674968  92.8129996 111.2816870  24.2291369  92.0694097
 113.4944368  18.0378756  84.4571386 112.5600647  18.1580218  84.2876091
 113.6721037  17.1351223  84.1931396 106.8238755  21.8821947  93.7059666
 107.5248214  22.5158430  93.8589060 106.3533870  22.2236678  92.9455305
 114.9493151  20.2239896  81.9907573 115.2252994  20.1096491  82.9001447
 114.0797649  19.8257381  81.9519746 111.5847215  24.4726247  85.6340386
 111.7669609  23.6547903  86.0968139 112.4080201  24.6893939  85.1965276
 111.9189380  23.3994432  82.8955435 112.4477146  22.8886887  82.2825597
 112.1817600  23.0836963  83.7600968 102.4206473  21.4158302  90.6390768
 103.0059910  20.6701990  90.7718672 102.2231311  21.7262258  91.5227432
 105.2745128  24.4509549  85.6553211 104.6055503  24.9355677  85.1717251
 105.1357998  24.6978769  86.5696589  97.0124127  13.9863902  89.3595211
  97.0508227  13.4527493  90.1532330  96.5064420  13.4599107  88.7406189
 109.4150397  26.4853293  92.2535869 109.9668705  26.6484914  93.0184954
 109.7556590  27.0757730  91.5815894 100.6432705  12.7128004  82.4349143
 100.9386146  11.8038682  82.3816197  99.7420741  12.6915743  82.1130145
 112.5518784  24.4335268  89.2399551 112.4269923  23.6325008  88.7310497
 113.2097875  24.9281461  88.7513521 114.6153692  22.2344288  90.8679101
 113.6684028  22.1149639  90.7957428 114.9636465  21.3466786  90.9505363
 111.6200126  22.0297004  87.0683453 111.4725088  21.1013712  87.2491024
 112.4453619  22.0517095  86.5840529 115.2234247  22.8525563  88.1548326
 116.1480795  22.6468424  88.0172777 115.0549551  22.6041964  89.0637668
 106.3560861  12.8420555  88.6386315 106.2105442  13.1560858  89.5310597
 105.8786065  13.4605456  88.0857214 115.0129564  23.3711231  83.5110418
 115.1866441  22.8057653  82.7584270 115.5058455  24.1712125  83.3289908
 100.8306523  15.3825900  91.5773977 100.2859991  16.1585708  91.7094251
 101.7085873  15.7296704  91.4193098 116.0004736  22.6877995  80.6107316
 116.6955641  23.3084688  80.8294631 116.3427886  21.8373346  80.8859694
 101.6172545  14.5095796  94.4704133 100.8754281  14.6578431  95.0568764
 101.2965290  14.7704061  93.6070883 117.8996159  20.1377700  82.1394647
 118.4247483  20.4764973  81.4143967 117.8118512  19.2024716  81.9557781
 109.5616208  24.0511774  94.2684523 109.8703334  23.8060921  95.1407223
 110.3591690  24.2558413  93.7803394 109.5836820  26.2049684  86.4989900
 109.1441810  25.7126062  87.1922757 110.3344937  25.6622651  86.2581975
 102.0629159  22.3961225  86.5014528 102.8887179  22.0964996  86.1213172
 101.7123211  21.6268847  86.9504317 107.0310692  21.7487693  88.5712202
 106.4090701  21.0858398  88.2714429 107.7015559  21.7748825  87.8885849
 100.2637764  20.3147551  87.4603462  99.4269672  19.8869725  87.2787463
 100.2361409  20.5079994  88.3974253 106.5924199  20.2991616  82.0470662
 106.7412319  20.9827081  81.3937335 107.3990642  20.2796706  82.5620118
 104.3476832  16.3256794  83.0531731 104.1022874  15.4219124  83.2511941
 104.5172747  16.3273944  82.1111209 110.0919605  22.7939747  79.5182410
 109.5193572  23.4129934  79.0652881 110.6652398  23.3439108  80.0522332
 113.3116864  23.0776897  80.6490992 114.2447537  23.0122458  80.8523867
 113.2240077  23.9133164  80.1905525 115.9404881  22.3942767  77.6094939
 115.8618513  22.0602631  78.5030697 116.7614548  22.8864535  77.6086412
  99.5787261  13.3756899  87.2452394  99.2590045  12.5222207  86.9526768
  99.0320689  13.5905477  88.0010361 103.3567168  16.0919340  90.9621900
 103.5753178  17.0236448  90.9809934 103.7692942  15.7327315  91.7476704
  99.4475521  16.9959811  89.2145515  98.7538992  16.5813763  88.7015470
 100.1948512  17.0380347  88.6178934 101.3612263  16.9278064  87.0911530
 101.3382951  17.0265752  86.1393413 101.6712900  17.7743215  87.4128696
 104.0199641  18.9854219  91.2058145 104.9742895  18.9538162  91.1388076
 103.8212165  18.5244843  92.0208370 104.6099023  17.5555336  93.7728942
 105.4291912  18.0499414  93.7963780 104.8835831  16.6387304  93.7446510
 102.3749870  24.5273839  88.2228342 102.2404338  23.7674240  87.6566340
 101.9581932  25.2514739  87.7557131 113.5108833  19.7110762  77.2304918
 114.2144683  19.9160765  77.8462573 112.7871482  20.2787524  77.4954001
 105.5318996  25.4243156  88.4346785 105.4151380  26.3688588  88.3325475
 104.7111442  25.1216718  88.8232584 115.4195530  20.1493292  79.2803378
 116.2541134  19.7174490  79.0980853 115.2579873  19.9775305  80.2080272
 115.0741422  16.6525405  80.6459717 115.0190226  16.4869676  79.7048161
 114.4487478  17.3601438  80.8021907  99.8633937  11.8893469  94.4721139
 100.5092801  11.3792423  94.9608364  99.6551088  12.6262151  95.0464565
 106.5573510  26.0771418  91.6502714 107.4600756  26.1095028  91.9669208
 106.3310880  25.1471869  91.6649049 108.3127112  24.8302404  88.3112792
 107.3622743  24.8304266  88.1977164 108.6159598  24.0835139  87.7948827
 120.8569512  30.6190371  89.3120079 120.5188023  30.5031436  88.4240614
 121.7259280  30.2181536  89.2921085 116.7156327  32.4725847  85.3016970
 116.1521192  32.3815784  84.5333258 116.6008722  31.6525752  85.7819463
 114.2620759  33.9677039  88.1401191 115.0542051  33.6267864  87.7247490
 114.5017409  34.0772014  89.0603344 116.2211513  33.2285952  81.0118569
 116.9942389  32.6814939  80.8731445 116.5736912  34.0930201  81.2233031
 118.0596556  34.5562334  94.2185469 117.7686422  35.4607965  94.1032135
 118.6953540  34.5978862  94.9329538 118.9852763  31.9339183  90.8086828
 119.5816335  31.7095205  90.0943791 119.0427734  31.1923928  91.4112276
 118.5577791  29.3878618  78.6437019 118.8103312  28.8660140  77.8820482
 117.6202350  29.2244764  78.7463703 118.2774080  31.2906724  80.8461394
 118.1610338  30.6151628  81.5142479 118.3876340  30.8039098  80.0293547
 120.6205621  30.7516871  84.5508084 120.2563828  30.2247492  85.2621005
 121.4772737  30.3615340  84.3774569 120.2611108  25.7806771  79.5469432
 120.4285510  26.6487007  79.9139903 120.0708277  25.9434053  78.6230721
 116.4698922  30.6937547  87.2471967 115.5449419  30.5613761  87.4549659
 116.7183335  31.4731766  87.7441909 120.2400328  28.2364429  80.5316099
 120.1199954  28.6821479  81.3701579 119.5452917  28.5849746  79.9729637
 113.8307733  30.3370820  88.0815756 113.9600114  30.5905299  88.9955168
 113.1505185  30.9298528  87.7620411 118.0007221  41.0068070  84.1806230
 117.9231250  41.9575895  84.2594711 117.3968864  40.6613943  84.8381156
 118.7470823  30.9881389  96.3985564 119.4885507  31.5266433  96.1220388
 118.0407808  31.6147678  96.5557116 120.5757232  28.0683136  92.3691282
 121.4218428  28.4922550  92.5125931 120.5155870  27.4116761  93.0629846
 120.0982939  33.4286128  86.0160100 120.5621284  33.7073831  85.2264722
 119.8339737  32.5269573  85.8333190 116.9907020  32.9757610  88.9539863
 117.5608377  33.4044878  88.3157347 117.5815132  32.6940195  89.6524048
 119.0351825  29.5509281  82.8249665 119.7375868  30.0030324  83.2923591
 118.7032453  28.9093099  83.4529558 112.7777159  27.8092833  88.1266798
 111.9876213  28.0650362  87.6506909 113.2688406  28.6241171  88.2318839
 114.7291904  28.1737413  85.0850275 113.9323067  28.2856107  85.6033771
 114.5017496  28.5124065  84.2191165 120.5597572  34.6982116  93.0332790
 120.6242004  35.1602523  93.8690961 119.8508496  34.0679481  93.1615099
 111.0614862  28.0623324  90.5581789 111.3122900  28.9470334  90.8239365
 111.5974410  27.8827925  89.7856881 120.2745589  36.3650223  82.9011770
 120.1391264  37.2101759  83.3296618 120.8155402  36.5669501  82.1377704
 113.7274987  33.8825661  83.4739695 114.2399507  34.6768912  83.6245260
 114.3797700  33.1851952  83.4073296 115.5369872  36.9991418  85.5562448
 115.7136500  37.9209382  85.3683432 116.3326705  36.6849837  85.9856828
 114.8222228  29.0456049  95.4324611 114.7075743  28.1441307  95.7331710
 113.9666746  29.2919746  95.0809428 116.6601187  38.5169591  91.5572790
 117.2108612  38.3886655  90.7849784 115.8212663  38.8164480  91.2067683
 120.4568358  34.7820719  95.9017022 120.9896695  34.0209007  95.6716330
 119.9282439  34.4894371  96.6441176 111.6923904  32.2114316  84.2499265
 112.5299126  32.6211324  84.0332973 111.8702171  31.2713758  84.2199459
 121.1735447  24.7239097  84.9968337 120.3177043  24.3345947  84.8173976
 121.5862399  24.8031058  84.1368122 118.9477479  22.3424170  88.4026078
 119.8130476  22.1466979  88.0431968 119.0154988  22.1134522  89.3295435
 121.8221071  33.9106712  83.4135834 121.2942432  33.1759471  83.1009071
 121.3208573  34.6881388  83.1675802 116.5539798  24.5726378  85.7742445
 117.1283550  24.3501559  85.0415638 117.1410781  24.6415072  86.5271046
 116.8809385  26.6030839  79.7938330 116.0446698  26.9405526  80.1147605
 116.7414155  26.4679819  78.8565467 118.8562466  21.4467627  84.5017515
 118.2026878  21.1316644  83.8774129 118.8142940  20.8243367  85.2277337
 119.9673671  31.7286922  76.4170807 119.0600733  31.4976175  76.6161956
 120.4644703  30.9324541  76.6044788 121.1461904  31.8299517  80.9394797
 120.2373124  31.5458550  81.0367266 121.1756988  32.2498595  80.0798104
 111.7150075  29.5505031  84.9209999 111.5174475  28.9574392  84.1961065
 111.1596739  29.2457241  85.6385938 119.6946798  29.4428137  87.0404592
 119.7495408  28.4901974  86.9647069 118.8838000  29.5987576  87.5245890
 120.8437992  33.3708260  78.2782875 120.4057422  32.6544119  77.8188513
 121.5848433  33.5984375  77.7167967 117.6339158  28.0605197  84.7994971
 116.8207024  28.3599368  85.2060163 118.1298153  27.6660886  85.5169453
 119.7847736  38.0562954  86.7329236 119.7423915  38.2823800  85.8037768
 120.7010435  37.8226329  86.8815037 117.1253233  25.6323553  90.4156206
 117.7652612  25.4912312  89.7179169 116.2930764  25.3458066  90.0394808
 117.9013537  34.9325983  86.5291198 118.6954136  34.4376303  86.3273773
 117.1905229  34.4043846  86.1658904 114.2096300  29.0769065  82.6050951
 113.2793889  29.0153520  82.8220913 114.3053772  28.5545018  81.8087592
 114.1281850  25.6023878  85.1929193 114.3888667  26.5169211  85.0838353
 114.9499022  25.1348320  85.3425806 115.6006775  27.0161635  92.3628017
 116.2729828  26.8078997  91.7140666 114.7736561  26.8183721  91.9233250
 120.4784813  35.5055005  90.2089035 120.3395899  35.1373789  91.0814974
 119.6899409  36.0202644  90.0372993 121.0732965  40.6064102  81.5514572
 121.2484721  40.1352145  82.3660195 120.3865753  41.2329868  81.7795833
 122.0290028  34.8836608  87.5977873 121.6939861  34.8437378  88.4935523
 121.5293974  34.2181324  87.1248283 116.0034272  30.2904238  93.1230454
 115.8654070  29.5584477  93.7241993 116.9139196  30.2013138  92.8414642
 118.6316573  30.0024197  92.6114134 119.3416191  29.3617389  92.5700752
 118.5885881  30.2537092  93.5340315 117.3445507  26.9889415  94.4309774
 116.8082864  26.5380153  95.0831370 116.7562215  27.1235324  93.6880238
 115.6394050  43.7553464  88.3254432 115.8790648  44.3871988  89.0033451
 114.7963247  43.4041504  88.6119791 116.7547766  26.4478066  76.9936237
 115.8777232  26.3266867  76.6298484 117.2305519  25.6564145  76.7415126
 108.2749906  31.2355226  87.0877744 108.9620946  30.9216956  86.4998760
 108.1198035  32.1396591  86.8144996 113.0784628  26.1245423  91.5162768
 112.9942817  25.5171092  90.7813178 112.2567334  26.6154441  91.5172264
 120.1521912  39.5632587  90.7295936 120.0792084  40.3687558  91.2415241
 119.7099305  39.7624553  89.9043958 119.9411692  38.8004357  84.2398758
 119.1579214  39.3426037  84.3336982 120.6404437  39.3178336  84.6392999
 119.8343311  26.7516369  86.6104648 119.4641098  26.1987410  87.2985553
 120.3302403  26.1474503  86.0579648 117.6632509  37.2113864  93.7059666
 118.3641969  37.8450347  93.8589060 117.1927624  37.5528596  92.9455305
 113.2600227  36.7450219  90.6390768 113.8453664  35.9993907  90.7718672
 113.0625066  37.0554176  91.5227432 116.1138882  39.7801467  85.6553211
 115.4449258  40.2647594  85.1717251 115.9751752  40.0270687  86.5696589
 107.8517882  29.3155819  89.3595211 107.8901981  28.7819410  90.1532330
 107.3458175  28.7891025  88.7406189 120.2544151  41.8145210  92.2535869
 120.8062459  41.9776832  93.0184954 120.5950345  42.4049648  91.5815894
 115.2308644  24.1620360  92.8557754 115.2949971  25.0235191  92.4435151
 115.1675765  23.5494362  92.1230112 111.4826460  28.0419922  82.4349143
 111.7779901  27.1330600  82.3816197 110.5814495  28.0207661  82.1130145
 115.0120707  26.1175918  88.4176691 114.2907292  26.7311886  88.2784165
 115.8013962  26.6533683  88.3393337 113.2114301  25.7234019  82.5588468
 112.8827007  24.8431398  82.3763574 113.5653672  25.6681688  83.4464857
 116.3256124  26.0106989  82.9263946 116.6652197  26.5392910  82.2042554
 116.7728245  26.3487395  83.7022512 118.3124271  24.5081611  81.1257238
 119.0332634  24.8862863  80.6220955 117.6889576  25.2270488  81.2292216
 117.1954616  28.1712473  88.6386315 117.0499196  28.4852776  89.5310597
 116.7179819  28.7897373  88.0857214 119.0550999  25.1615021  88.6867205
 119.0412567  24.2656114  88.3499503 119.7723427  25.1685685  89.3205491
 120.9077129  25.5952361  90.7320332 120.6494907  26.5169432  90.7304663
 120.3762170  25.1982796  91.4220796 111.6700278  30.7117817  91.5773977
 111.1253746  31.4877625  91.7094251 112.5479628  31.0588622  91.4193098
 118.4587895  24.0429401  83.9554775 118.5803806  23.1146047  84.1545663
 118.1689937  24.0568087  83.0433090 121.3279085  21.7284312  87.0921495
 121.3500782  21.7923645  86.1373474 121.7447144  20.8888820  87.2862001
 112.4566300  29.8387714  94.4704133 111.7148036  29.9870349  95.0568764
 112.1359044  30.0995979  93.6070883 120.4009962  39.3803692  94.2684523
 120.7097089  39.1352839  95.1407223 121.1985444  39.5850330  93.7803394
 120.4230574  41.5341601  86.4989900 119.9835565  41.0417980  87.1922757
 121.1738691  40.9914569  86.2581975 112.9022913  37.7253142  86.5014528
 113.7280933  37.4256914  86.1213172 112.5516965  36.9560765  86.9504317
 117.8704447  37.0779611  88.5712202 117.2484456  36.4150316  88.2714429
 118.5409313  37.1040742  87.8885849 111.1031518  35.6439469  87.4603462
 110.2663427  35.2161643  87.2787463 111.0755164  35.8371912  88.3974253
 117.4317953  35.6283534  82.0470662 117.5806074  36.3118998  81.3937335
 118.2384397  35.6088624  82.5620118 115.1870586  31.6548711  83.0531731
 114.9416628  30.7511041  83.2511941 115.3566501  31.6565862  82.1111209
 114.4566234  27.3877069  80.5517893 113.7635479  27.4621424  79.8957928
 114.2117986  26.6237413  81.0739409 120.9313359  38.1231664  79.5182410
 120.3587326  38.7421851  79.0652881 121.5046153  38.6731026  80.0522332
 121.3160158  29.4592477  76.8598462 122.2619262  29.3298685  76.9286880
 120.9374402  28.7207139  77.3367890 119.5003075  27.3842453  76.7953347
 118.5934530  27.0875566  76.8716061 119.7779056  27.0872272  75.9287634
 110.4181015  28.7048817  87.2452394 110.0983799  27.8514125  86.9526768
 109.8714443  28.9197395  88.0010361 114.1960923  31.4211258  90.9621900
 114.4146932  32.3528366  90.9809934 114.6086696  31.0619232  91.7476704
 121.1165140  21.9279343  82.9497589 120.3065869  21.5826428  83.3252835
 121.8049557  21.6186887  83.5385200 118.2701859  24.2429389  76.9365326
 119.1321023  24.5684287  77.1961144 118.4552203  23.4560885  76.4238392
 110.2869275  32.3251728  89.2145515 109.5932746  31.9105681  88.7015470
 111.0342266  32.3672265  88.6178934 112.2006018  32.2569982  87.0911530
 112.1776706  32.3557669  86.1393413 112.5106654  33.1035133  87.4128696
 114.8593395  34.3146137  91.2058145 115.8136649  34.2830079  91.1388076
 114.6605919  33.8536761  92.0208370 115.4492778  32.8847253  93.7728942
 116.2685667  33.3791332  93.7963780 115.7229585  31.9679221  93.7446510
 113.2143624  39.8565757  88.2228342 113.0798092  39.0966158  87.6566340
 112.7975687  40.5806656  87.7557131 116.3712750  40.7535074  88.4346785
 116.2545134  41.6980506  88.3325475 115.5505196  40.4508635  88.8232584
 110.7027692  27.2185387  94.4721139 111.3486555  26.7084341  94.9608364
 110.4944843  27.9554069  95.0464565 119.2231302  21.4825432  80.2245035
 119.2109972  22.4267272  80.3813306 120.1154724  21.2995577  79.9304497
 117.3967264  41.4063336  91.6502714 118.2994511  41.4386946  91.9669208
 117.1704634  40.4763786  91.6649049 119.1520866  40.1594322  88.3112792
 118.2016497  40.1596184  88.1977164 119.4553352  39.4127057  87.7948827
 121.9008616  43.3915241  90.5581789 122.1516655  44.2762251  90.8239365
 122.4368165  43.2119843  89.7856881 119.1143660  46.5647144  87.0877744
 119.8014700  46.2508874  86.4998760 118.9591789  47.4688508  86.8144996
 118.6911636  44.6447737  89.3595211 118.7295736  44.1111328  90.1532330
 118.1851929  44.1182943  88.7406189 121.9425273  50.9731386  87.4603462
 121.1057181  50.5453561  87.2787463 121.9148918  51.1663830  88.3974253
 121.2574770  44.0340735  87.2452394 120.9377554  43.1806043  86.9526768
 120.7108198  44.2489313  88.0010361 121.1263030  47.6543646  89.2145515
 120.4326501  47.2397599  88.7015470 121.8736021  47.6964183  88.6178934
 121.5421446  42.5477305  94.4721139 122.1880310  42.0376259  94.9608364
 121.3338597  43.2845986  95.0464565 118.0007222  18.0130193  70.9051537
 117.9231252  18.9638018  70.9840017 117.3968865  17.6676065  71.5626463
 115.6394052  20.7615587  75.0499739 115.8790650  21.3934111  75.7278757
 114.7963248  20.4103627  75.3365098 116.1138884  16.7863589  72.3798517
 115.4449259  17.2709717  71.8962557 115.9751753  17.0332810  73.2941896
 120.2544152  18.8207333  78.9781176 120.8062460  18.9838954  79.7430261
 120.5950346  19.4111771  78.3061201 120.4230576  18.5403724  73.2235207
 119.9835566  18.0480103  73.9168063 121.1738693  17.9976692  72.9827282
 113.2143625  16.8627879  74.9473649 113.0798093  16.1028280  74.3811647
 112.7975688  17.5868779  74.4802438 116.3712751  17.7597196  75.1592092
 116.2545136  18.7042629  75.0570782 115.5505198  17.4570758  75.5477891
 117.3967265  18.4125458  78.3748020 118.2994512  18.4449068  78.6914515
 117.1704636  17.4825909  78.3894356 121.9008618  20.3977364  77.2827096
 122.1516656  21.2824374  77.5484672 122.4368166  20.2181966  76.5102187
 119.1143662  23.5709266  73.8123051 119.8014701  23.2570996  73.2244066
 118.9591790  24.4750631  73.5390302 118.6911638  21.6509860  76.0840518
 118.7295737  21.1173450  76.8777636 118.1851931  21.1245065  75.4651495
 121.9425274  27.9793509  74.1848768 121.1057183  27.5515683  74.0032769
 121.9148920  28.1725952  75.1219559 121.2574771  21.0402857  73.9697700
 120.9377555  20.1868165  73.6772074 120.7108199  21.2551435  74.7255668
 121.1263031  24.6605769  75.9390822 120.4326502  24.2459721  75.4260776
 121.8736022  24.7026305  75.3424241 121.5421448  19.5539427  81.1966446
 122.1880311  19.0438381  81.6853671 121.3338599  20.2908109  81.7709871
  46.9985463  71.0968268 132.4386263  46.3247162  71.3999965 133.0471221
  47.3851285  71.8997348 132.0891720  49.0892933  62.8876481 130.9733703
  48.4722104  62.1623309 130.8766756  48.6209422  63.6485841 130.6300778
  50.9642204  68.6753752 133.7126086  51.6593109  69.2960444 133.9313401
  51.3065354  67.8249103 133.9878464  45.0557073  68.7815503 132.6201180
  44.4831040  69.4005690 132.1671652  45.6289866  69.3314865 133.1541102
  48.2754332  69.0652653 133.7509762  49.2085005  68.9998215 133.9542638
  48.1877545  69.9008920 133.2924295  50.9042349  68.3818524 130.7113710
  50.8255981  68.0478387 131.6049468  51.7252016  68.8740292 130.7105182
  48.4746301  65.6986519 130.3323688  49.1782151  65.9036522 130.9481344
  47.7508950  66.2663281 130.5972772  50.3832998  66.1369048 132.3822148
  51.2178602  65.7050247 132.1999623  50.2217341  65.9651062 133.3099043
  51.8446854  72.5906596 132.8957101  51.0084166  72.9281282 133.2166375
  51.7051623  72.4555575 131.9584238  51.7185234  72.4353823 130.0955008
  50.8414700  72.3142624 129.7317254  52.1942987  71.6439901 129.8433896
  49.4203702  73.3752826 133.6536663  48.7272947  73.4497181 132.9976699
  49.1755454  72.6113169 134.1758180  54.4640543  73.3718210 129.8972118
  53.5571998  73.0751323 129.9734831  54.7416524  73.0748028 129.0306404
  53.2339327  70.2305145 130.0384097  54.0958491  70.5560044 130.2979914
  53.4189671  69.4436641 129.5257163  54.1868770  67.4701188 133.3263806
  54.1747440  68.4143028 133.4832077  55.0792192  67.2871334 133.0323267
  46.9985465  48.1030391 119.1631570  46.3247163  48.4062087 119.7716528
  47.3851287  48.9059471 118.8137027  49.0892935  39.8938604 117.6979010
  48.4722105  39.1685432 117.6012063  48.6209423  40.6547964 117.3546084
  50.9642205  45.6815874 120.4371393  51.6593110  46.3022567 120.6558708
  51.3065355  44.8311225 120.7123771  45.0557074  45.7877626 119.3446487
  44.4831041  46.4067813 118.8916958  45.6289867  46.3376987 119.8786409
  48.2754334  46.0714776 120.4755069  49.2085007  46.0060338 120.6787944
  48.1877546  46.9071043 120.0169602  50.9042350  45.3880646 117.4359016
  50.8255982  45.0540510 118.3294774  51.7252017  45.8802414 117.4350489
  48.4746302  42.7048642 117.0568995  49.1782152  42.9098644 117.6726650
  47.7508951  43.2725404 117.3218078  50.3832999  43.1431171 119.1067455
  51.2178603  42.7112369 118.9244930  50.2217342  42.9713185 120.0344349
  59.0117275  53.6600822 129.2022632  59.6495684  53.5407569 128.4985972
  58.8938117  54.6081666 129.2610584  55.8206981  53.6128250 129.1384156
  55.4825492  53.4969315 128.2504691  56.6896749  53.2119415 129.1185162
  51.6793797  55.4663727 125.1281047  51.1158662  55.3753663 124.3597335
  51.5646192  54.6463631 125.6083540  57.2593355  59.1334694 120.4395512
  56.6081335  59.7188775 120.0529526  58.0537718  59.6640889 120.4990550
  51.1848982  56.2223831 120.8382646  51.9579858  55.6752818 120.6995522
  51.5374381  57.0868081 121.0497108  53.5215260  52.3816497 118.4701096
  53.7740781  51.8598019 117.7084559  52.5839819  52.2182643 118.5727780
  58.5658543  51.3852276 126.2775840  59.3521632  50.9671699 125.9266257
  58.8297247  52.2898368 126.4457488  58.7368620  56.8225126 120.9764496
  58.1014453  56.8959753 121.6885401  58.4066027  57.4118725 120.2983576
  63.9666970  51.3227509 127.1808818  64.6992142  50.7526726 127.4146648
  63.2106326  50.9349109 127.6215324  53.2411549  54.2844603 120.6725471
  53.1247807  53.6089507 121.3406556  53.3513809  53.7976977 119.8557624
  55.5843090  53.7454751 124.3772161  55.2201297  53.2185372 125.0885082
  56.4410206  53.3553220 124.2038646  55.2248577  48.7744650 119.3733509
  55.3922979  49.6424887 119.7403980  55.0345746  48.9371932 118.4494798
  57.9823910  57.2361629 131.0399339  57.6824633  58.1386668 130.9315147
  57.6374970  56.9693812 131.8920492  61.3821054  49.7544169 128.7196777
  60.4737931  49.6859578 128.4255538  61.3308650  50.2316114 129.5478602
  55.2037798  51.2302308 120.3580176  55.0837423  51.6759358 121.1965656
  54.5090386  51.5787625 119.7993714  52.9644690  64.0005949 124.0070307
  52.8868720  64.9513775 124.0858788  52.3606333  63.6551822 124.6645233
  60.9022864  51.7023781 121.1860510  61.8140720  51.9351168 121.0108207
  60.3932511  52.2860825 120.6235589  59.5092446  56.6849599 128.5774091
  58.8801309  56.8495313 127.8750159  59.1218108  57.0991209 129.3485055
  63.3881678  57.6204037 125.9318455  62.7032716  58.0002939 125.3815488
  63.4725527  58.2299364 126.6650403  55.0620408  56.4224007 125.8424177
  55.5258754  56.7011710 125.0528799  54.7977206  55.5207452 125.6597267
  53.9989294  52.5447160 122.6513742  54.7013337  52.9968203 123.1187668
  53.6669923  51.9030979 123.2793635  61.7578438  58.1435952 130.7036156
  62.5795881  57.7416139 130.4218838  61.7540841  58.0404186 131.6552272
  69.8484431  54.4874700 127.0521128  69.0948139  53.9182098 126.8965132
  69.9831972  54.4537365 127.9991762  55.2383059  59.3588102 122.7275847
  55.1028734  60.2039638 123.1560695  55.7792871  59.5607380 121.9641781
  48.6912456  56.8763540 123.3003772  49.2036977  57.6706791 123.4509337
  49.3435169  56.1789831 123.2337373  50.5007341  59.9929297 125.3826525
  50.6773969  60.9147261 125.1947509  51.2964174  59.6787716 125.8120905
  51.6238656  61.5107471 131.3836867  52.1746081  61.3824534 130.6113861
  50.7850132  61.8102360 131.0331760  46.6561373  55.2052195 124.0763342
  47.4936595  55.6149203 123.8597050  46.8339641  54.2651637 124.0463536
  58.5525805  52.8727275 119.7647175  58.0372428  53.6431880 120.0035563
  58.2803113  52.1992412 120.3880237  56.1372916  47.7176976 124.8232414
  55.2814512  47.3283827 124.6438053  56.5499868  47.7968937 123.9632199
  63.5260079  55.6259630 121.7000349  62.7489522  55.2870790 121.2555511
  64.2051560  55.6312253 121.0255314  58.3412108  50.7454368 121.5906957
  58.0362244  51.0600517 122.4417100  59.2942550  50.8235787 121.6334290
  56.7858540  56.9044591 123.2399911  56.2579902  56.1697350 122.9273148
  56.2846043  57.6819267 122.9939879  61.7651386  55.0993611 128.3566957
  61.1075061  55.7892873 128.4447086  62.5691785  55.4890043 128.7000943
  60.5756845  53.4537984 126.4070899  61.0888727  54.0867976 126.9092608
  61.2258069  52.8539180 126.0414259  51.8446855  49.5968718 119.6202407
  51.0084167  49.9343405 119.9411682  51.7051624  49.4617698 118.6829544
  54.9311140  54.7224801 116.2434884  54.0238202  54.4914055 116.4426033
  55.4282172  53.9262420 116.4308865  57.8379219  63.4322308 119.1631570
  57.1640918  63.7354005 119.7716528  58.2245041  64.2351389 118.8137027
  57.8372724  52.3278855 123.7831919  58.5844542  52.8400252 123.4739041
  58.1064313  52.0062908 124.6436313  56.1099374  54.8237396 120.7658874
  55.2010593  54.5396429 120.8631343  56.1394457  55.2436475 119.9062181
  61.3418641  58.4343985 124.5350041  60.8880968  57.5934895 124.5915232
  60.7112608  59.0705384 124.8724821  60.2851561  49.3635972 125.7650709
  59.5474317  48.8513358 126.0960951  60.5378334  48.9236353 124.9533986
  59.7851580  60.2720482 125.4699859  60.0774555  60.8325539 124.7512225
  60.2950201  60.5649043 126.2253019  54.6584268  52.4366017 126.8668669
  54.7132877  51.4839853 126.7911146  53.8475470  52.5925456 127.3509967
  55.8075461  56.3646140 118.1046952  55.3694891  55.6481999 117.6452590
  56.5485902  56.5922254 117.5432044  52.5976628  51.0543076 124.6259048
  51.7844493  51.3537247 125.0324240  53.0935622  50.6598765 125.3433530
  54.7485206  61.0500833 126.5593313  54.7061384  61.2761680 125.6301845
  55.6647904  60.8164208 126.7079114  63.9248576  54.6403337 124.1623271
  63.7866475  54.8304933 123.2344460  63.5684795  55.4022720 124.6191322
  63.9517956  56.7079864 129.1734542  64.3854463  56.6155153 130.0217596
  64.6649537  56.6837364 128.5354558  52.8651006  57.9263862 126.3555275
  53.6591605  57.4314182 126.1537850  52.1542699  57.3981725 125.9922981
  57.6845851  60.3081958 130.7067643  57.7382873  60.8772894 131.4745359
  56.8160632  60.4783843 130.3421680  49.1733770  52.0706944 122.4315028
  48.2431358  52.0091399 122.6484990  49.2691242  51.5482897 121.6351669
  64.8133505  56.7503564 131.7067428  65.0069396  57.6549375 131.9526703
  64.7134124  56.2910983 132.5406013  55.4422282  58.4992884 130.0353112
  55.3033368  58.1311669 130.9079051  54.6536879  59.0140524 129.8637070
  56.0370434  63.6001981 121.3778649  56.2122190  63.1290024 122.1924272
  55.3503222  64.2267747 121.6059910  56.9927497  57.8774487 127.4241950
  56.6577330  57.8375257 128.3199600  56.4931443  57.2119203 126.9512360
  59.9286689  55.2230521 117.6979010  59.3115860  54.4977349 117.6012063
  59.4603178  55.9839882 117.3546084  50.6031520  66.7491343 128.1518509
  50.8428118  67.3809868 128.8297528  49.7600716  66.3979384 128.4383868
  51.7185235  49.4415946 116.8200314  50.8414701  49.3204746 116.4562561
  52.1942988  48.6502024 116.5679203  55.1159381  62.5570466 130.5560013
  55.0429553  63.3625437 131.0679318  54.6736775  62.7562432 129.7308035
  54.9049161  61.7942236 124.0662835  54.1216683  62.3363916 124.1601059
  55.6041906  62.3116216 124.4657076  58.2145811  47.6036865 126.7097040
  58.7114511  46.8506828 126.3898110  57.4432793  47.6401182 126.1440249
  66.0675569  53.3077231 128.3515332  66.0565445  54.1901946 127.9809265
  65.1992948  52.9548782 128.1569869  57.5758065  62.4557300 132.7118172
  58.2886037  63.0904765 132.6394073  57.0848094  62.5521166 131.8958174
  59.2975592  56.3608553 124.2835463  58.3631871  56.4810015 124.1140168
  59.4752260  55.4581019 124.0195473  62.6848143  52.2025872 124.8185498
  63.1508595  53.0353864 124.7445800  63.1355644  51.7370853 125.5230756
  60.7524374  58.5469693 121.8171650  61.0284218  58.4326288 122.7265524
  59.8828873  58.1487178 121.7783823  57.3878438  62.7956044 125.4604463
  57.5700833  61.9777700 125.9232216  58.2111424  63.0123736 125.0229353
  57.7220604  61.7224229 122.7219512  58.2508370  61.2116684 122.1089674
  57.9848823  61.4066759 123.5865045  51.0776352  62.7739346 125.4817288
  50.4086727  63.2585473 124.9981328  50.9389221  63.0208566 126.3960666
  55.2181620  64.8083089 132.0799946  55.7699928  64.9714711 132.8449031
  55.5587814  65.3987527 131.4079971  46.4463929  51.0357801 122.2613220
  46.7417370  50.1268479 122.2080274  45.5451965  51.0145540 121.9394222
  58.3550008  62.7565065 129.0663628  58.2301147  61.9554805 128.5574574
  59.0129099  63.2511258 128.5777598  60.4184916  60.5574085 130.6943178
  59.4715252  60.4379436 130.6221505  60.7667689  59.6696583 130.7769440
  48.1751770  48.7171898 122.3852545  47.8464477  47.8369277 122.2027651
  48.5291141  48.6619567 123.2728934  57.4231349  60.3526801 126.8947531
  57.2756312  59.4243509 127.0755101  58.2484843  60.3746892 126.4104606
  51.2893594  49.0044868 122.7528023  51.6289666  49.5330790 122.0306631
  51.7365714  49.3425274 123.5286589  61.0265471  61.1755360 127.9812403
  61.9512019  60.9698221 127.8436854  60.8580775  60.9271761 128.8901745
  53.2761741  47.5019490 120.9521315  53.9970103  47.8800743 120.4485032
  52.6527045  48.2208367 121.0556293  57.4192864  48.2064639 121.8879648
  57.6356478  49.0889277 121.5868476  56.9386931  47.8150852 121.1585290
  60.8160787  61.6941027 123.3374495  60.9897665  61.1287450 122.5848347
  61.3089679  62.4941922 123.1553985  53.4225364  47.0367280 123.7818852
  53.5441275  46.1083927 123.9809740  53.1327406  47.0505966 122.8697167
  66.6700179  54.4577450 124.9564794  67.1131325  53.7084776 124.5583918
  65.7926689  54.4487587 124.5738526  61.8035960  61.0107792 120.4371393
  62.4986864  61.6314484 120.6558708  62.1459110  60.1603143 120.7123771
  63.7027383  58.4607497 121.9658724  64.2278707  58.7994770 121.2408044
  63.6149736  57.5254513 121.7821858  55.3868044  64.5279481 126.3253977
  54.9473034  64.0355859 127.0186834  56.1376161  63.9852448 126.0846052
  47.8660383  60.7191021 126.3278605  48.6918403  60.4194793 125.9477249
  47.5154435  59.9498644 126.7768394  52.8341916  60.0717490 128.3976279
  52.2121925  59.4088195 128.0978506  53.5046783  60.0978622 127.7149926
  46.0668988  58.6377348 127.2867539  45.2300896  58.2099522 127.1051540
  46.0392633  58.8309791 128.2238330  52.3955423  58.6221413 121.8734739
  52.5443543  59.3056877 121.2201412  53.2021866  58.6026503 122.3884195
  65.0137361  58.3629809 134.8284672  64.7222169  58.7259789 135.6648133
  64.4009492  57.6496817 134.6498004  66.2133043  55.9282689 127.3487242
  67.0479935  56.3672493 127.5124802  66.3492172  55.4521342 126.5295488
  50.1508056  54.6486591 122.8795808  49.9054098  53.7448921 123.0776018
  50.3203970  54.6503741 121.9375286  49.4203703  50.3814948 120.3781970
  48.7272948  50.4559303 119.7222006  49.1755455  49.6175292 120.9003486
  55.8950828  61.1169543 119.3446487  55.3224795  61.7359731 118.8916958
  56.4683622  61.6668905 119.8786409  59.1148088  61.4006694 120.4755069
  60.0478761  61.3352255 120.6787944  59.0271301  62.2362960 120.0169602
  61.7436105  60.7172564 117.4359016  61.6649736  60.3832428 118.3294774
  62.5645772  61.2094332 117.4350489  64.4414296  53.5834303 130.6435335
  64.4090616  52.6450304 130.8295019  65.0514920  53.6618340 129.9101160
  56.2797627  52.4530356 116.6862539  57.2256732  52.3236564 116.7550957
  55.9011872  51.7145018 117.1631967  70.2590846  54.6450310 129.7841372
  70.9894234  54.3835598 130.3449075  69.6497791  53.9079032 129.8243440
  68.3406143  52.7858173 130.3815823  67.6139306  52.6514138 129.7732315
  67.9253430  53.0935001 131.1872541  54.4640544  50.3780333 116.6217424
  53.5571999  50.0813445 116.6980138  54.7416525  50.0810151 115.7551711
  56.0802610  44.9217222 122.7761666  55.2703338  44.5764307 123.1516912
  56.7687027  44.6124766 123.3649277  53.2339329  47.2367268 116.7629404
  54.0958493  47.5622166 117.0225221  53.4189673  46.4498764 116.2502469
  61.3871965  46.1095794 123.9064627  60.8070634  46.7680598 123.5242679
  61.1207898  45.2873139 123.4952044  60.1696843  48.2695885 122.9620975
  59.2822698  48.5545535 122.7441170  60.5850832  48.1089648 122.1148252
  63.5211379  48.2942406 126.6775314  64.2971769  48.7838858 126.9499931
  62.7959513  48.7200460 127.1347184  65.9583938  49.0070025 127.7349255
  66.5528429  48.7665761 127.0242563  66.0310522  48.2877155 128.3622791
  48.1781094  62.8503636 128.0492419  48.0435561  62.0904037 127.4830418
  47.7613156  63.5744536 127.5821208  59.3140057  58.0340559 117.0568995
  60.0175907  58.2390562 117.6726650  58.5902705  58.6017321 117.3218078
  60.1437867  53.7850421 123.1771265  60.0873068  54.2418972 122.3378897
  60.6966209  53.0241105 122.9994108  63.9542673  49.5740152 124.0021384
  63.6979607  49.1736788 124.8329592  63.3295541  50.2883946 123.8771524
  68.2655011  52.3136226 126.5092676  67.7054569  52.3829415 127.2824238
  67.6598514  52.1377210 125.7892172  51.3350219  63.7472953 128.2610862
  51.2182604  64.6918385 128.1589552  50.5142666  63.4446514 128.6496661
  61.2226754  58.4723089 119.1067455  62.0572358  58.0404287 118.9244930
  61.0611097  58.3005102 120.0344349  60.8772646  54.9755202 120.4723794
  60.8221450  54.8099473 119.5312238  60.2518701  55.6831235 120.6285984
  54.1868772  44.4763311 120.0509112  54.1747441  45.4205151 120.2077383
  55.0792193  44.2933456 119.7568574  52.3604734  64.4001215 131.4766791
  53.2631980  64.4324825 131.7933285  52.1342104  63.4701666 131.4913126
  54.1158336  63.1532201 128.1376869  53.1653967  63.1534063 128.0241241
  54.4190822  62.4064936 127.6212904  66.6600735  68.9420168 129.1384156
  66.3219247  68.8261232 128.2504691  67.5290504  68.5411333 129.1185162
  62.5187551  70.7955644 125.1281047  61.9552416  70.7045581 124.3597335
  62.4039946  69.9755549 125.6083540  60.0651983  72.2906836 127.9665268
  60.8573275  71.9497660 127.5511567  60.3048633  72.4001811 128.8867421
  68.0987110  74.4626612 120.4395512  67.4475089  75.0480692 120.0529526
  68.8931473  74.9932807 120.4990550  62.0242737  71.5515749 120.8382646
  62.7973613  71.0044736 120.6995522  62.3768136  72.4159998 121.0497108
  64.3609015  67.7108415 118.4701096  64.6134535  67.1889936 117.7084559
  63.4233574  67.5474561 118.5727780  69.4052298  66.7144194 126.2775840
  70.1915387  66.2963617 125.9266257  69.6691002  67.6190286 126.4457488
  69.5762375  72.1517044 120.9764496  68.9408208  72.2251670 121.6885401
  69.2459781  72.7410643 120.2983576  74.8060725  66.6519427 127.1808818
  75.5385897  66.0818644 127.4146648  74.0500080  66.2641027 127.6215324
  64.0805303  69.6136521 120.6725471  63.9641562  68.9381424 121.3406556
  64.1907563  69.1268895 119.8557624  66.4236844  69.0746668 124.3772161
  66.0595052  68.5477289 125.0885082  67.2803960  68.6845137 124.2038646
  72.3286145  60.3641001 131.6403427  71.9969470  61.2336412 131.4164642
  71.7331758  60.0477285 132.3197457  66.0642331  64.1036568 119.3733509
  66.2316734  64.9716804 119.7403980  65.8739500  64.2663850 118.4494798
  62.2730146  69.0167344 127.0736044  61.3480642  68.8843558 127.2813736
  62.5214559  69.7961563 127.5705986  66.0431552  66.5594225 120.3580176
  65.9231177  67.0051276 121.1965656  65.3484141  66.9079543 119.7993714
  59.6338957  68.6600617 127.9079833  59.7631338  68.9135096 128.8219245
  58.9536408  69.2528325 127.5884488  63.8038444  79.3297867 124.0070307
  63.7262474  80.2805692 124.0858788  63.2000088  78.9843740 124.6645233
  71.7416618  67.0315699 121.1860510  72.6534474  67.2643085 121.0108207
  71.2326265  67.6152743 120.6235589  69.0852593  63.2073735 129.4350371
  68.2237072  63.5054988 129.7267108  69.1115028  63.4244133 128.5031403
  65.9014163  71.7515925 125.8424177  66.3652508  72.0303628 125.0528799
  65.6370961  70.8499370 125.6597267  62.7938244  71.2987407 128.7803940
  63.3639601  71.7274675 128.1421424  63.3846355  71.0169991 129.4788125
  64.8383049  67.8739078 122.6513742  65.5407092  68.3260121 123.1187668
  64.5063677  67.2322896 123.2793635  58.5808383  66.1322630 127.9530875
  57.7907437  66.3880159 127.4770986  59.0719630  66.9470968 128.0582916
  60.5323128  66.4967209 124.9114352  59.7354291  66.6085904 125.4297848
  60.3048720  66.8353862 124.0455242  56.8646086  66.3853121 130.3845866
  57.1154124  67.2700131 130.6503442  57.4005634  66.2057722 129.6120958
  66.0776813  74.6880020 122.7275847  65.9422488  75.5331556 123.1560695
  66.6186626  74.8899298 121.9641781  59.5306211  72.2055458 123.3003772
  60.0430731  72.9998708 123.4509337  60.1828923  71.5081749 123.2337373
  61.3401095  75.3221214 125.3826525  61.5167724  76.2439179 125.1947509
  62.1357929  75.0079634 125.8120905  69.4269277  58.2110582 131.2574740
  69.0833546  59.1012224 131.1813851  69.7948239  58.0212240 130.3944325
  57.4955127  70.5344112 124.0763342  58.3330349  70.9441121 123.8597050
  57.6733395  69.5943555 124.0463536  69.3919560  68.2019193 119.7647175
  68.8766183  68.9723798 120.0035563  69.1196868  67.5284329 120.3880237
  66.9766671  63.0468894 124.8232414  66.1208267  62.6575744 124.6438053
  67.3893622  63.1260855 123.9632199  68.5065817  60.5815237 129.2223974
  68.0030613  60.5445372 128.4091779  68.7996424  61.4907980 129.2820630
  64.7508703  60.6653967 128.2290155  65.6161700  60.4696776 127.8696045
  64.8186212  60.4364319 129.1559512  74.3653834  70.9551548 121.7000349
  73.5883276  70.6162707 121.2555511  75.0445315  70.9604171 121.0255314
  69.1805863  66.0746285 121.5906957  68.8755998  66.3892434 122.4417100
  70.1336305  66.1527705 121.6334290  67.6252295  72.2336509 123.2399911
  67.0973656  71.4989268 122.9273148  67.1239797  73.0111185 122.9939879
  62.3571022  62.8956175 125.6006522  62.9314774  62.6731356 124.8679715
  62.9442005  62.9644869 126.3535123  71.4150599  68.7829902 126.4070899
  71.9282481  69.4159894 126.9092608  72.0651823  68.1831097 126.0414259
  62.6840609  64.9260636 119.6202407  61.8477922  65.2635322 119.9411682
  62.5445379  64.7909616 118.6829544  64.6593690  59.7697424 124.3281592
  64.0058102  59.4546441 123.7038206  64.6174164  59.1473164 125.0541414
  65.7704895  70.0516719 116.2434884  64.8631956  69.8205972 116.4426033
  66.2675927  69.2554338 116.4308865  68.6772974  78.7614226 119.1631570
  68.0034672  79.0645923 119.7716528  69.0638796  79.5643306 118.8137027
  67.8931430  66.2579357 128.6529239  66.9753992  66.4794304 128.4950927
  68.3091574  66.3325668 127.7940947  68.6766478  67.6570773 123.7831919
  69.4238297  68.1692170 123.4739041  68.9458068  67.3354826 124.6436313
  66.9493128  70.1529314 120.7658874  66.0404347  69.8688346 120.8631343
  66.9788212  70.5728392 119.9062181  71.1245315  64.6927889 125.7650709
  70.3868072  64.1805275 126.0960951  71.3772089  64.2528271 124.9533986
  71.2256942  57.4704141 126.3592478  71.5315819  56.6101505 126.0718393
  71.9509547  58.0621761 126.1591472  57.5181299  67.8734828 124.7474076
  57.3205698  67.2804188 124.0225142  56.9627963  67.5687038 125.4650015
  65.4978022  67.7657934 126.8668669  65.5526632  66.8131771 126.7911146
  64.6869224  67.9217373 127.3509967  66.6469216  71.6938057 118.1046952
  66.2088646  70.9773916 117.6452590  67.3879657  71.9214172 117.5432044
  63.4370382  66.3834994 124.6259048  62.6238248  66.6829165 125.0324240
  63.9329376  65.9890683 125.3433530  74.7642331  69.9695254 124.1623271
  74.6260229  70.1596850 123.2344460  74.4078550  70.7314637 124.6191322
  62.9284457  63.9553350 130.2420283  63.5683836  63.8142109 129.5443246
  62.0961987  63.6687863 129.8658885  63.7044761  73.2555780 126.3555275
  64.4985359  72.7606100 126.1537850  62.9936453  72.7273643 125.9922981
  60.0127524  67.3998862 122.4315028  59.0825112  67.3383317 122.6484990
  60.1084996  66.8774814 121.6351669  59.9313073  63.9253675 125.0193270
  60.1919891  64.8399008 124.9102430  60.7530246  63.4578117 125.1689883
  61.4037999  65.3391432 132.1892094  62.0761052  65.1308794 131.5404743
  60.5767785  65.1413518 131.7497327  66.8764189  78.9293898 121.3778649
  67.0515944  78.4581942 122.1924272  66.1896977  79.5559665 121.6059910
  70.7680444  70.5522439 117.6979010  70.1509614  69.8269267 117.6012063
  70.2996932  71.3131799 117.3546084  62.5578989  64.7707863 116.8200314
  61.6808456  64.6496664 116.4562561  63.0336743  63.9793942 116.5679203
  54.0781130  69.5585023 126.9141821  54.7652169  69.2446753 126.3262837
  53.9229258  70.4626388 126.6409073  58.8815852  64.4475220 131.3426845
  58.7974041  63.8400889 130.6077255  58.0598558  64.9384238 131.3436341
  65.7442916  77.1234154 124.0662835  64.9610437  77.6655834 124.1601059
  66.4435661  77.6408133 124.4657076  69.0539566  62.9328783 126.7097040
  69.5508265  62.1798745 126.3898110  68.2826547  62.9693100 126.1440249
  70.1369346  71.6900470 124.2835463  69.2025625  71.8101933 124.1140168
  70.3146015  70.7872937 124.0195473  65.6374534  65.0746166 126.4368725
  65.2672322  64.5217206 127.1249630  66.1333627  64.4704300 125.8843725
  73.5241898  67.5317790 124.8185498  73.9902350  68.3645781 124.7445800
  73.9749398  67.0662771 125.5230756  71.5918129  73.8761611 121.8171650
  71.8677973  73.7618205 122.7265524  70.7222628  73.4779096 121.7783823
  71.4958560  59.8998377 128.8576399  70.5821640  60.1302603 129.0258606
  71.9251662  59.9836821 129.7090431  68.5614358  77.0516147 122.7219512
  69.0902125  76.5408601 122.1089674  68.8242578  76.7358677 123.5865045
  53.6549106  67.6385616 129.1859288  53.6933205  67.1049207 129.9796407
  53.1489399  67.1120822 128.5670266  61.0339868  62.4850157 132.6821831
  61.0981195  63.3464988 132.2699228  60.9706988  61.8724159 131.9494189
  57.2857683  66.3649719 122.2613220  57.5811124  65.4560397 122.2080274
  56.3845719  66.3437458 121.9394222  60.8151930  64.4405715 128.2440768
  60.0938516  65.0541683 128.1048242  61.6045186  64.9763480 128.1657414
  59.0145525  64.0463816 122.3852545  58.6858231  63.1661195 122.2027651
  59.3684896  63.9911485 123.2728934  62.1287348  64.3336786 122.7528023
  62.4683421  64.8622707 122.0306631  62.5759469  64.6717192 123.5286589
  64.8230789  62.7173837 132.2031091  64.4827609  61.9181650 132.6051771
  64.1169795  63.0175548 131.6307924  65.4747261  59.8023149 130.6558414
  66.2973330  59.3283627 130.5337304  65.7185324  60.5813633 131.1557100
  64.1155495  62.8311408 120.9521315  64.8363858  63.2092660 120.4485032
  63.4920799  63.5500284 121.0556293  68.2586618  63.5356557 121.8879648
  68.4750232  64.4181194 121.5868476  67.7780685  63.1442770 121.1585290
  62.9985839  66.4942270 128.4650392  62.8530420  66.8082573 129.3574674
  62.5211043  67.1127170 127.9121291  64.8582222  63.4844818 128.5131282
  64.8443791  62.5885911 128.1763580  65.5754650  63.4915481 129.1469568
  66.7108353  63.9182158 130.5584409  66.4526131  64.8399229 130.5568740
  66.1793393  63.5212592 131.2484873  57.4731502  69.0347614 131.4038054
  56.9284970  69.8107422 131.5358328  58.3510852  69.3818419 131.2457175
  64.2619118  62.3659198 123.7818852  64.3835029  61.4375844 123.9809740
  63.9721161  62.3797884 122.8697167  67.1310309  60.0514108 126.9185572
  67.1532006  60.1153442 125.9637551  67.5478368  59.2118617 127.1126078
  72.6429714  76.3399709 120.4371393  73.3380619  76.9606402 120.6558708
  72.9852864  75.4895061 120.7123771  74.5421137  73.7899415 121.9658724
  75.0672462  74.1286688 121.2408044  74.4543490  72.8546430 121.7821858
  58.7054137  76.0482939 126.3278605  59.5312157  75.7486711 125.9477249
  58.3548189  75.2790562 126.7768394  56.9062742  73.9669266 127.2867539
  56.0694651  73.5391440 127.1051540  56.8786388  74.1601709 128.2238330
  63.2349177  73.9513331 121.8734739  63.3837298  74.6348795 121.2201412
  64.0415621  73.9318421 122.3884195  60.9901810  69.9778508 122.8795808
  60.7447852  69.0740838 123.0776018  61.1597725  69.9795659 121.9375286
  68.6798520  60.8502185 132.2620564  69.1980464  61.5863212 131.9367052
  68.3253653  61.1566178 133.0967323  60.2597458  65.7106866 120.3781970
  59.5666703  65.7851221 119.7222006  60.0149210  64.9467210 120.9003486
  68.9311114  57.2702467 127.7821460  69.2112868  56.6025656 128.4081887
  69.7161721  57.4631563 127.2696124  66.7344583  76.4461461 119.3446487
  66.1618550  77.0651648 118.8916958  67.3077376  76.9960823 119.8786409
  69.9541843  76.7298611 120.4755069  70.8872516  76.6644173 120.6787944
  69.8665055  77.5654878 120.0169602  72.5829859  76.0464482 117.4359016
  72.5043491  75.7124345 118.3294774  73.4039526  76.5386250 117.4350489
  67.1191381  67.7822274 116.6862539  68.0650486  67.6528482 116.7550957
  66.7405626  67.0436936 117.1631967  73.0913266  59.4478280 126.6489431
  72.8938087  59.1393368 127.5332763  73.7012971  60.1739919 126.7787361
  65.3034298  65.7072250 116.6217424  64.3965754  65.4105363 116.6980138
  65.5810279  65.4102068 115.7551711  56.2212239  67.0278614 127.0716471
  55.9015023  66.1743922 126.7790845  55.6745667  67.2427192 127.8274438
  59.9992146  69.7441055 130.7885977  60.2178156  70.6758163 130.8074011
  60.4117920  69.3849029 131.5740781  66.9196364  60.2509140 122.7761666
  66.1097092  59.9056225 123.1516912  67.6080781  59.9416684 123.3649277
  68.8486912  59.3287187 124.3985962  69.4017951  59.7482640 125.0575985
  69.0856999  58.4022935 124.4408918  64.0733083  62.5659186 116.7629404
  64.9352247  62.8914084 117.0225221  64.2583427  61.7790681 116.2502469
  56.0900499  70.6481525 129.0409592  55.3963970  70.2335478 128.5279547
  56.8373490  70.6902062 128.4443011  72.2265720  61.4387712 123.9064627
  71.6464389  62.0972516 123.5242679  71.9601652  60.6165057 123.4952044
  70.6769286  60.8392770 126.1085947  71.1769064  60.9509304 125.3000266
  71.3204894  60.5353823 126.7486755  58.0037241  70.5799779 126.9175607
  57.9807929  70.6787466 125.9657490  58.3137878  71.4264930 127.2392773
  71.0090598  63.5987802 122.9620975  70.1216453  63.8837453 122.7441170
  71.4244587  63.4381566 122.1148252  74.3605134  63.6234323 126.6775314
  75.1365524  64.1130776 126.9499931  73.6353268  64.0492378 127.1347184
  76.7977692  64.3361943 127.7349255  77.3922183  64.0957679 127.0242563
  76.8704276  63.6169073 128.3622791  70.1533811  73.3632477 117.0568995
  70.8569661  73.5682480 117.6726650  69.4296460  73.9309239 117.3218078
  70.9831621  69.1142338 123.1771265  70.9266823  69.5710890 122.3378897
  71.5359964  68.3533023 122.9994108  74.7936427  64.9032070 124.0021384
  74.5373361  64.5028706 124.8329592  74.1689295  65.6175864 123.8771524
  72.0620508  73.8015006 119.1067455  72.8966112  73.3696205 118.9244930
  71.9004851  73.6297020 120.0344349  71.7166401  70.3047120 120.4723794
  71.6615204  70.1391391 119.5312238  71.0912456  71.0123152 120.6285984
  56.5058916  65.5415184 134.2985216  57.1517779  65.0314138 134.7872441
  56.2976067  66.2783866 134.8728642  65.0262526  59.8055229 120.0509112
  65.0141196  60.7497068 120.2077383  65.9185948  59.6225374 119.7568574
  68.8414646  56.3998005 124.3055049  68.0747041  55.8456492 124.4511732
  69.2525350  56.4719874 125.1669201  73.5234364  80.2552554 119.6202407
  72.6871676  80.5927240 119.9411682  73.3839133  80.1201533 118.6829544
  73.3972744  80.0999781 116.8200314  72.5202210  79.9788582 116.4562561
  73.8730497  79.3085859 116.5679203  71.0991212  81.0398784 120.3781970
  70.4060457  81.1143139 119.7222006  70.8542964  80.2759127 120.9003486
  76.1428053  81.0364168 116.6217424  75.2359508  80.7397281 116.6980138
  76.4204034  80.7393986 115.7551711  74.9126838  77.8951103 116.7629404
  75.7746002  78.2206002 117.0225221  75.0977182  77.1082599 116.2502469
  75.8656281  75.1347146 120.0509112  75.8534950  76.0788986 120.2077383
  76.7579702  74.9517292 119.7568574  46.9985466  25.1092513 105.8876876
  46.3247165  25.4124210 106.4961834  47.3851288  25.9121594 105.5382333
  49.0892936  16.9000726 104.4224317  48.4722106  16.1747554 104.3257369
  48.6209424  17.6610086 104.0791391  50.9642207  22.6877997 107.1616700
  51.6593111  23.3084689 107.3804014  51.3065357  21.8373348 107.4369078
  45.0557075  22.7939748 106.0691793  44.4831042  23.4129936 105.6162265
  45.6289869  23.3439110 106.6031715  48.2754335  23.0776899 107.2000375
  49.2085008  23.0122460 107.4033251  48.1877548  23.9133165 106.7414908
  50.9042352  22.3942769 104.1604323  50.8255983  22.0602632 105.0540081
  51.7252018  22.8864537 104.1595795  48.4746303  19.7110764 103.7814301
  49.1782153  19.9160767 104.3971957  47.7508952  20.2787526 104.0463385
  50.3833001  20.1493293 105.8312761  51.2178605  19.7174492 105.6490236
  50.2217344  19.9775307 106.7589656  59.0117276  30.6662945 115.9267938
  59.6495686  30.5469692 115.2231278  58.8938119  31.6143789 115.9855890
  55.8206982  30.6190373 115.8629463  55.4825494  30.5031437 114.9749998
  56.6896750  30.2181538 115.8430469  51.6793798  32.4725849 111.8526354
  51.1158663  32.3815786 111.0842642  51.5646193  31.6525754 112.3328846
  57.2593357  36.1396817 107.1640819  56.6081336  36.7250897 106.7774833
  58.0537719  36.6703012 107.2235856  51.1848984  33.2285954 107.5627953
  51.9579860  32.6814941 107.4240829  51.5374383  34.0930203 107.7742414
  53.5215261  29.3878620 105.1946403  53.7740782  28.8660141 104.4329866
  52.5839821  29.2244766 105.2973087  58.5658544  28.3914398 113.0021146
  59.3521634  27.9733822 112.6511563  58.8297249  29.2960491 113.1702795
  58.7368622  33.8287249 107.7009803  58.1014455  33.9021875 108.4130708
  58.4066028  34.4180848 107.0228882  63.9666971  28.3289632 113.9054125
  64.6992143  27.7588848 114.1391954  63.2106327  27.9411232 114.3460630
  53.2411550  31.2906726 107.3970778  53.1247808  30.6151629 108.0651862
  53.3513810  30.8039100 106.5802931  55.5843091  30.7516873 111.1017467
  55.2201298  30.2247494 111.8130389  56.4410207  30.3615342 110.9283953
  55.2248578  25.7806773 106.0978816  55.3922980  26.6487009 106.4649287
  55.0345747  25.9434055 105.1740105  57.9823911  34.2423752 117.7644646
  57.6824634  35.1448791 117.6560453  57.6374971  33.9755935 118.6165799
  61.3821055  26.7606292 115.4442083  60.4737932  26.6921700 115.1500844
  61.3308651  27.2378237 116.2723909  55.2037799  28.2364430 107.0825483
  55.0837424  28.6821481 107.9210963  54.5090387  28.5849748 106.5239021
  52.9644691  41.0068072 110.7315614  52.8868721  41.9575897 110.8104094
  52.3606335  40.6613945 111.3890540  60.9022865  28.7085904 107.9105817
  61.8140721  28.9413290 107.7353514  60.3932512  29.2922948 107.3480895
  59.5092447  33.6911722 115.3019398  58.8801310  33.8557436 114.5995466
  59.1218110  34.1053332 116.0730362  63.3881679  34.6266160 112.6563762
  62.7032718  35.0065061 112.1060795  63.4725529  35.2361486 113.3895710
  55.0620409  33.4286130 112.5669483  55.5258755  33.7073833 111.7774106
  54.7977207  32.5269575 112.3842574  53.9989295  29.5509282 109.3759048
  54.7013339  30.0030326 109.8432975  53.6669924  28.9093101 110.0038941
  61.7578439  35.1498074 117.4281463  62.5795883  34.7478262 117.1464144
  61.7540842  35.0466308 118.3797578  69.8484432  31.4936823 113.7766434
  69.0948140  30.9244221 113.6210439  69.9831973  31.4599487 114.7237069
  55.2383060  36.3650225 109.4521153  55.1028735  37.2101761 109.8806001
  55.7792873  36.5669503 108.6887087  48.6912457  33.8825663 110.0249079
  49.2036978  34.6768913 110.1754643  49.3435170  33.1851954 109.9582680
  50.5007342  36.9991419 112.1071832  50.6773970  37.9209384 111.9192816
  51.2964176  36.6849839 112.5366212  51.6238658  38.5169593 118.1082174
  52.1746083  38.3886657 117.3359168  50.7850133  38.8164482 117.7577067
  46.6561374  32.2114317 110.8008649  47.4936596  32.6211326 110.5842357
  46.8339642  31.2713760 110.7708843  58.5525806  29.8789398 106.4892482
  58.0372430  30.6494003 106.7280869  58.2803115  29.2054534 107.1125544
  56.1372917  24.7239099 111.5477720  55.2814514  24.3345949 111.3683359
  56.5499869  24.8031060 110.6877506  63.5260080  32.6321753 108.4245656
  62.7489523  32.2932912 107.9800818  64.2051561  32.6374376 107.7500621
  58.3412109  27.7516490 108.3152263  58.0362245  28.0662639 109.1662406
  59.2942552  27.8297910 108.3579596  56.7858541  33.9106713 109.9645217
  56.2579903  33.1759473 109.6518455  56.2846044  34.6881390 109.7185186
  61.7651387  32.1055734 115.0812264  61.1075062  32.7954995 115.1692392
  62.5691787  32.4952166 115.4246250  60.5756846  30.4600107 113.1316205
  61.0888728  31.0930098 113.6337915  61.2258070  29.8601302 112.7659565
  51.8446856  26.6030841 106.3447714  51.0084168  26.9405527 106.6656989
  51.7051626  26.4679821 105.4074851  54.9311141  31.7286924 102.9680190
  54.0238203  31.4976177 103.1671339  55.4282173  30.9324543 103.1554172
  57.8379220  40.4384431 105.8876876  57.1640919  40.7416128 106.4961834
  58.2245042  41.2413511 105.5382333  57.8372725  29.3340978 110.5077226
  58.5844544  29.8462375 110.1984348  58.1064314  29.0125031 111.3681620
  56.1099375  31.8299519 107.4904180  55.2010594  31.5458551 107.5876650
  56.1394459  32.2498597 106.6307487  61.3418642  35.4406108 111.2595348
  60.8880969  34.5997018 111.3160538  60.7112609  36.0767506 111.5970128
  60.2851562  26.3698094 112.4896015  59.5474319  25.8575480 112.8206258
  60.5378335  25.9298476 111.6779292  59.7851582  37.2782605 112.1945166
  60.0774556  37.8387662 111.4757532  60.2950202  37.5711166 112.9498325
  54.6584269  29.4428139 113.5913976  54.7132879  28.4901976 113.5156452
  53.8475471  29.5987578 114.0755274  55.8075463  33.3708262 104.8292259
  55.3694893  32.6544121 104.3697896  56.5485904  33.5984377 104.2677350
  52.5976629  28.0605199 111.3504355  51.7844494  28.3599369 111.7569547
  53.0935623  27.6660888 112.0678837  54.7485207  38.0562956 113.2838619
  54.7061386  38.2823802 112.3547151  55.6647906  37.8226330 113.4324420
  63.9248578  31.6465459 110.8868577  63.7866476  31.8367055 109.9589767
  63.5684796  32.4084842 111.3436629  63.9517957  33.7141986 115.8979849
  64.3854464  33.6217275 116.7462903  64.6649538  33.6899487 115.2599865
  52.8651008  34.9325985 113.0800582  53.6591606  34.4376305 112.8783157
  52.1542700  34.4043848 112.7168288  57.6845852  37.3144080 117.4312950
  57.7382874  37.8835017 118.1990666  56.8160633  37.4845965 117.0666987
  49.1733771  29.0769067 109.1560335  48.2431359  29.0153522 109.3730297
  49.2691243  28.5545019 108.3596976  64.8133507  33.7565687 118.4312734
  65.0069397  34.6611497 118.6772009  64.7134125  33.2973106 119.2651319
  55.4422284  35.5055007 116.7598419  55.3033369  35.1373791 117.6324357
  54.6536880  36.0202646 116.5882377  56.0370436  40.6064103 108.1023956
  56.2122191  40.1352147 108.9169578  55.3503224  41.2329870 108.3305216
  56.9927499  34.8836610 114.1487257  56.6577331  34.8437380 115.0444907
  56.4931444  34.2181325 113.6757667  59.9286690  32.2292644 104.4224317
  59.3115861  31.5039472 104.3257369  59.4603179  32.9902004 104.0791391
  50.6031521  43.7553466 114.8763816  50.8428119  44.3871990 115.5542834
  49.7600717  43.4041506 115.1629175  51.7185236  26.4478068 103.5445621
  50.8414703  26.3266869 103.1807867  52.1942989  25.6564146 103.2924509
  55.1159383  39.5632589 117.2805320  55.0429554  40.3687560 117.7924624
  54.6736776  39.7624554 116.4553341  54.9049162  38.8004359 110.7908141
  54.1216684  39.3426039 110.8846366  55.6041907  39.3178338 111.1902382
  58.2145812  24.6098988 113.4342347  58.7114512  23.8568950 113.1143417
  57.4432794  24.6463305 112.8685556  66.0675570  30.3139354 115.0760638
  66.0565446  31.1964069 114.7054571  65.1992949  29.9610904 114.8815175
  57.5758066  39.4619423 119.4363478  58.2886038  40.0966887 119.3639380
  57.0848095  39.5583289 118.6203480  59.2975593  33.3670675 111.0080770
  58.3631872  33.4872138 110.8385474  59.4752262  32.4643142 110.7440780
  62.6848144  29.2087995 111.5430804  63.1508597  30.0415986 111.4691107
  63.1355645  28.7432976 112.2476063  60.7524376  35.5531816 108.5416956
  61.0284219  35.4388410 109.4510830  59.8828874  35.1549301 108.5029129
  57.3878440  39.8018167 112.1849770  57.5700834  38.9839823 112.6477522
  58.2111426  40.0185859 111.7474660  57.7220605  38.7286352 109.4464818
  58.2508371  38.2178806 108.8334980  57.9848825  38.4128882 110.3110351
  51.0776353  39.7801468 112.2062594  50.4086728  40.2647596 111.7226634
  50.9389223  40.0270689 113.1205973  55.2181622  41.8145212 118.8045253
  55.7699930  41.9776833 119.5694338  55.5587815  42.4049650 118.1325278
  46.4463930  28.0419923 108.9858526  46.7417371  27.1330602 108.9325580
  45.5451966  28.0207663 108.6639529  58.3550009  39.7627188 115.7908935
  58.2301148  38.9616927 115.2819880  59.0129100  40.2573381 115.3022905
  60.4184917  37.5636208 117.4188485  59.4715253  37.4441559 117.3466812
  60.7667690  36.6758706 117.5014746  48.1751772  25.7234021 109.1097852
  47.8464478  24.8431400 108.9272958  48.5291142  25.6681690 109.9974241
  57.4231351  37.3588924 113.6192837  57.2756313  36.4305631 113.8000407
  58.2484844  37.3809015 113.1349912  51.2893595  26.0106991 109.4773329
  51.6289667  26.5392912 108.7551938  51.7365715  26.3487397 110.2531896
  61.0265472  38.1817483 114.7057710  61.9512020  37.9760344 114.5682161
  60.8580776  37.9333884 115.6147051  53.2761742  24.5081612 107.6766622
  53.9970104  24.8862865 107.1730339  52.6527046  25.2270489 107.7801600
  57.4192865  25.2126761 108.6124954  57.6356479  26.0951399 108.3113783
  56.9386932  24.8212975 107.8830596  60.8160789  38.7003150 110.0619801
  60.9897666  38.1349572 109.3093654  61.3089680  39.5004045 109.8799291
  53.4225365  24.0429403 110.5064159  53.5441276  23.1146049 110.7055046
  53.1327407  24.0568089 109.5942474  66.6700180  31.4639573 111.6810101
  67.1131326  30.7146898 111.2829224  65.7926690  31.4549709 111.2983833
  61.8035961  38.0169914 107.1616700  62.4986866  38.6376607 107.3804014
  62.1459111  37.1665266 107.4369078  63.7027384  35.4669620 108.6904030
  64.2278708  35.8056893 107.9653350  63.6149737  34.5316635 108.5067165
  55.3868045  41.5341603 113.0499284  54.9473035  41.0417982 113.7432140
  56.1376162  40.9914571 112.8091359  47.8660384  37.7253144 113.0523912
  48.6918404  37.4256916 112.6722555  47.5154436  36.9560766 113.5013700
  52.8341917  37.0779612 115.1221585  52.2121926  36.4150317 114.8223813
  53.5046784  37.1040744 114.4395233  46.0668989  35.6439471 114.0112845
  45.2300897  35.2161645 113.8296846  46.0392634  35.8371914 114.9483636
  52.3955424  35.6283536 108.5980046  52.5443544  36.3119000 107.9446719
  53.2021867  35.6088626 109.1129502  65.0137362  35.3691931 121.5529978
  64.7222170  35.7321912 122.3893439  64.4009493  34.6558940 121.3743310
  66.2133044  32.9344811 114.0732549  67.0479936  33.3734615 114.2370109
  66.3492173  32.4583464 113.2540794  50.1508057  31.6548713 109.6041115
  49.9054099  30.7511043 109.8021325  50.3203972  31.6565864 108.6620593
  49.4203705  27.3877071 107.1027276  48.7272949  27.4621426 106.4467312
  49.1755456  26.6237414 107.6248793  55.8950830  38.1231666 106.0691793
  55.3224797  38.7421853 105.6162265  56.4683623  38.6731028 106.6031715
  59.1148089  38.4068816 107.2000375  60.0478762  38.3414378 107.4033251
  59.0271302  39.2425083 106.7414908  61.7436106  37.7234687 104.1604323
  61.6649738  37.3894550 105.0540081  62.5645773  38.2156454 104.1595795
  64.4414297  30.5896426 117.3680642  64.4090617  29.6512427 117.5540325
  65.0514921  30.6680463 116.6346467  56.2797628  29.4592479 103.4107846
  57.2256733  29.3298687 103.4796264  55.9011873  28.7207141 103.8877274
  70.2590847  31.6512433 116.5086678  70.9894236  31.3897721 117.0694382
  69.6497793  30.9141155 116.5488746  68.3406144  29.7920295 117.1061130
  67.6139308  29.6576260 116.4977621  67.9253431  30.0997124 117.9117848
  54.4640545  27.3842455 103.3462731  53.5572001  27.0875568 103.4225445
  54.7416526  27.0872273 102.4797017  56.0802611  21.9279345 109.5006972
  55.2703339  21.5826430 109.8762218  56.7687028  21.6186889 110.0894584
  53.2339330  24.2429390 103.4874710  54.0958494  24.5684289 103.7470527
  53.4189674  23.4560886 102.9747776  61.3871966  23.1157917 110.6309933
  60.8070635  23.7742721 110.2487986  61.1207899  22.2935261 110.2197351
  60.1696844  25.2758007 109.6866281  59.2822699  25.5607658 109.4686476
  60.5850833  25.1151771 108.8393558  63.5211380  25.3004528 113.4020621
  64.2971771  25.7900981 113.6745237  62.7959515  25.7262582 113.8592490
  65.9583939  26.0132147 114.4594561  66.5528430  25.7727883 113.7487869
  66.0310523  25.2939278 115.0868098  48.1781095  39.8565758 114.7737726
  48.0435563  39.0966159 114.2075724  47.7613157  40.5806658 114.3066515
  59.3140058  35.0402682 103.7814301  60.0175908  35.2452684 104.3971957
  58.5902707  35.6079444 104.0463385  60.1437868  30.7912543 109.9016572
  60.0873069  31.2481095 109.0624204  60.6966211  30.0303228 109.7239414
  63.9542674  26.5802275 110.7266691  63.6979608  26.1798911 111.5574899
  63.3295542  27.2946069 110.6016830  68.2655012  29.3198348 113.2337982
  67.7054570  29.3891538 114.0069545  67.6598515  29.1439333 112.5137479
  51.3350221  40.7535075 114.9856169  51.2182605  41.6980508 114.8834859
  50.5142667  40.4508637 115.3741968  61.2226755  35.4785211 105.8312761
  62.0572359  35.0466410 105.6490236  61.0611098  35.3067225 106.7589656
  60.8772647  31.9817324 107.1969101  60.8221451  31.8161596 106.2557545
  60.2518703  32.6893357 107.3531290  54.1868773  21.4825433 106.7754419
  54.1747443  22.4267273 106.9322690  55.0792195  21.2995579 106.4813880
  52.3604735  41.4063337 118.2012097  53.2631981  41.4386948 118.5178592
  52.1342105  40.4763788 118.2158433  54.1158337  40.1594324 114.8622176
  53.1653968  40.1596185 114.7486548  54.4190823  39.4127058 114.3458210
  69.8511030  45.9954862 115.9267938  70.4889440  45.8761610 115.2231278
  69.7331873  46.9435706 115.9855890  66.6600737  45.9482290 115.8629463
  66.3219248  45.8323355 114.9749998  67.5290505  45.5473455 115.8430469
  62.5187552  47.8017767 111.8526354  61.9552417  47.7107704 111.0842642
  62.4039947  46.9817671 112.3328846  67.1420520  47.1017142 121.8215668
  67.1309160  46.7069940 120.9496172  67.3041159  46.3683215 122.4149440
  60.0651984  49.2968958 114.6910574  60.8573276  48.9559783 114.2756874
  60.3048634  49.4063933 115.6112728  68.0987111  51.4688734 107.1640819
  67.4475091  52.0542815 106.7774833  68.8931474  51.9994929 107.2235856
  62.0242738  48.5577872 107.5627953  62.7973614  48.0106859 107.4240829
  62.3768137  49.4222121 107.7742414  63.8627781  49.8854254 120.7694852
  63.5717647  50.7899885 120.6541519  64.4984765  49.9270782 121.4838922
  64.7883988  47.2631102 117.3596212  65.3847560  47.0387125 116.6453175
  64.8458959  46.5215848 117.9621660  64.3609016  44.7170538 105.1946403
  64.6134537  44.1952059 104.4329866  63.4233575  44.5536683 105.2973087
  69.4052299  43.7206316 113.0021146  70.1915388  43.3025739 112.6511563
  69.6691003  44.6252408 113.1702795  69.5762376  49.1579166 107.7009803
  68.9408209  49.2313793 108.4130708  69.2459783  49.7472765 107.0228882
  74.8060726  43.6581549 113.9054125  75.5385898  43.0880766 114.1391954
  74.0500082  43.2703150 114.3460630  64.0805305  46.6198644 107.3970778
  63.9641563  45.9443547 108.0651862  64.1907565  46.1331018 106.5802931
  66.4236846  46.0808791 111.1017467  66.0595053  45.5539412 111.8130389
  67.2803962  45.6907260 110.9283953  72.3286146  37.3703123 118.3648733
  71.9969471  38.2398534 118.1409948  71.7331760  37.0539407 119.0442764
  66.0642333  41.1098690 106.0978816  66.2316735  41.9778927 106.4649287
  65.8739502  41.2725972 105.1740105  68.8217666  49.5715669 117.7644646
  68.5218389  50.4740708 117.6560453  68.4768725  49.3047853 118.6165799
  62.2730147  46.0229466 113.7981350  61.3480644  45.8905680 114.0059042
  62.5214560  46.8023685 114.2951293  72.2214810  42.0898210 115.4442083
  71.3131687  42.0213618 115.1500844  72.1702405  42.5670155 116.2723909
  66.0431553  43.5656348 107.0825483  65.9231179  44.0113399 107.9210963
  65.3484142  43.9141666 106.5239021  59.6338958  45.6662740 114.6325140
  59.7631339  45.9197219 115.5464551  58.9536410  46.2590448 114.3129795
  63.8038446  56.3359990 110.7315614  63.7262475  57.2867815 110.8104094
  63.2000089  55.9905862 111.3890540  66.2955675  43.5087855 123.3876981
  65.5189009  44.0681775 123.3779845  66.9346238  43.9944638 123.9091851
  74.0876456  40.2914648 117.2219957  73.4450836  40.5847181 116.5759752
  73.5831385  40.1767568 118.0273154  71.7416620  44.0377821 107.9105817
  72.6534476  44.2705208 107.7353514  71.2326267  44.6214865 107.3480895
  64.5502048  46.3173309 122.9494948  65.2916732  46.8558353 122.6729771
  63.8439033  46.9439597 123.1066499  70.0257387  48.4602449 121.5467109
  70.4340743  48.0184860 120.8021742  69.3034649  47.8855077 121.8001302
  66.3788457  43.3975056 118.9200666  67.2249653  43.8214469 119.0635315
  66.3187095  42.7408680 119.6139229  70.3486202  49.0203640 115.3019398
  69.7195064  49.1849354 114.5995466  69.9611864  49.4345249 116.0730362
  74.2275434  49.9558077 112.6563762  73.5426472  50.3356979 112.1060795
  74.3119283  50.5653404 113.3895710  69.5287903  41.0579424 120.5781840
  69.2848835  41.8121485 120.0416115  69.8047833  41.4364772 121.4129087
  71.4826365  47.6018037 119.2559105  71.6943261  48.2449796 118.5793486
  71.4356114  46.7680353 118.7881035  69.0852594  40.2135857 116.1595677
  68.2237073  40.5117111 116.4512415  69.1115029  40.4306256 115.2276710
  65.9014164  48.7578048 112.5669483  66.3652509  49.0365751 111.7774106
  65.6370962  47.8561492 112.3842574  62.7938245  48.3049529 115.5049246
  63.3639602  48.7336798 114.8666731  63.3846357  48.0232114 116.2033432
  64.8383050  44.8801200 109.3759048  65.5407093  45.3322244 109.8432975
  64.5063678  44.2385019 110.0038941  63.2863411  43.4712957 123.7510258
  62.6562072  44.1529238 123.9845654  63.1799499  43.3596038 122.8063396
  58.5808384  43.1384753 114.6776182  57.7907438  43.3942281 114.2016292
  59.0719631  43.9533091 114.7828222  72.5972193  50.4789992 117.4281463
  73.4189637  50.0770179 117.1464144  72.5934596  50.3758226 118.3797578
  60.5323129  43.5029332 111.6359659  59.7354292  43.6148026 112.1543154
  60.3048721  43.8415984 110.7700549  66.3628797  50.0274035 119.5842173
  66.4273229  50.4894442 120.4200345  65.6539721  49.3971400 119.7124483
  56.8646087  43.3915243 117.1091173  57.1154125  44.2762253 117.3748749
  57.4005635  43.2119845 116.3366264  80.6878186  46.8228740 113.7766434
  79.9341895  46.2536138 113.6210439  80.8225728  46.7891405 114.7237069
  66.0776814  51.6942143 109.4521153  65.9422489  52.5393678 109.8806001
  66.6186627  51.8961420 108.6887087  59.5306212  49.2117581 110.0249079
  60.0430732  50.0060831 110.1754643  60.1828925  48.5143871 109.9582680
  61.3401097  52.3283337 112.1071832  61.5167725  53.2501302 111.9192816
  62.1357930  52.0141756 112.5366212  65.4812115  39.1891602 123.7055765
  66.2221828  39.7898755 123.6260228  65.7130038  38.4469239 123.1473808
  60.6253453  44.3747969 121.9833995  60.5106968  43.4733226 122.2841094
  59.7697971  44.6211666 121.6318811  67.7045291  52.3165709 123.5821496
  67.2609145  51.5302088 123.2642400  68.3662504  52.5044860 122.9165386
  62.4632412  53.8461511 118.1082174  63.0139837  53.7178574 117.3359168
  61.6243888  54.1456400 117.7577067  69.8026529  52.5968509 121.6102897
  69.7845004  53.4177390 121.1183166  70.7246449  52.4722584 121.8353038
  66.2599583  50.1112639 122.4526405  66.7927920  49.3500927 122.2225713
  65.7313664  49.8186290 123.1950560  69.4269278  35.2172705 117.9820047
  69.0833547  36.1074346 117.9059158  69.7948241  35.0274362 117.1189632
  57.4955129  47.5406235 110.8008649  58.3330351  47.9503243 110.5842357
  57.6733396  46.6005677 110.7708843  69.3919561  45.2081316 106.4892482
  68.8766184  45.9785920 106.7280869  69.1196869  44.5346452 107.1125544
  66.9766672  40.0531016 111.5477720  66.1208268  39.6637867 111.3683359
  67.3893624  40.1322977 110.6877506  68.5065818  37.5877360 115.9469280
  68.0030614  37.5507495 115.1337085  68.7996425  38.4970102 116.0065937
  64.7508704  37.6716089 114.9535462  65.6161701  37.4758898 114.5941351
  64.8186213  37.4426441 115.8804819  74.3653835  47.9613670 108.4245656
  73.5883278  47.6224830 107.9800818  75.0445316  47.9666294 107.7500621
  69.1805864  43.0808408 108.3152263  68.8756000  43.3954557 109.1662406
  70.1336306  43.1589828 108.3579596  67.6252296  49.2398631 109.9645217
  67.0973657  48.5051391 109.6518455  67.1239799  50.0173307 109.7185186
  72.6045142  47.4347652 115.0812264  71.9468816  48.1246913 115.1692392
  73.4085541  47.8244084 115.4246250  62.3571023  39.9018297 112.3251829
  62.9314775  39.6793479 111.5925022  62.9442006  39.9706992 113.0780430
  71.4150601  45.7892024 113.1316205  71.9282482  46.4222016 113.6337915
  72.0651825  45.1893220 112.7659565  62.6840611  41.9322758 106.3447714
  61.8477923  42.2697445 106.6656989  62.5445380  41.7971738 105.4074851
  64.6593691  36.7759546 111.0526898  64.0058103  36.4608563 110.4283513
  64.6174165  36.1535287 111.7786721  65.7704896  47.0578841 102.9680190
  64.8631958  46.8268095 103.1671339  66.2675928  46.2616461 103.1554172
  68.6772975  55.7676349 105.8876876  68.0034674  56.0708045 106.4961834
  69.0638797  56.5705429 105.5382333  67.8931431  43.2641480 115.3774546
  66.9753993  43.4856427 115.2196234  68.3091575  43.3387790 114.5186253
  68.6766479  44.6632896 110.5077226  69.4238298  45.1754293 110.1984348
  68.9458069  44.3416948 111.3681620  66.9493129  47.1591436 107.4904180
  66.0404349  46.8750469 107.5876650  66.9788213  47.5790515 106.6307487
  72.1812397  50.7698026 111.2595348  71.7274724  49.9288936 111.3160538
  71.5506364  51.4059424 111.5970128  71.1245316  41.6990012 112.4896015
  70.3868073  41.1867398 112.8206258  71.3772090  41.2590393 111.6779292
  70.6245336  52.6074522 112.1945166  70.9168310  53.1679580 111.4757532
  71.1343957  52.9003083 112.9498325  71.2256944  34.4766264 113.0837785
  71.5315821  33.6163627 112.7963700  71.9509549  35.0683884 112.8836779
  57.5181300  44.8796950 111.4719383  57.3205700  44.2866311 110.7470449
  56.9627964  44.5749161 112.1895321  65.4978023  44.7720057 113.5913976
  65.5526633  43.8193893 113.5156452  64.6869225  44.9279496 114.0755274
  66.6469217  48.7000180 104.8292259  66.2088647  47.9836039 104.3697896
  67.3879658  48.9276295 104.2677350  63.4370383  43.3897117 111.3504355
  62.6238249  43.6891287 111.7569547  63.9329378  42.9952805 112.0678837
  65.5878961  53.3854874 113.2838619  65.5455140  53.6115720 112.3547151
  66.5041660  53.1518248 113.4324420  69.0344595  43.8538941 120.1819248
  69.3893983  44.0810414 121.0413714  69.6816726  44.1857318 119.5596504
  74.7642332  46.9757377 110.8868577  74.6260231  47.1658973 109.9589767
  74.4078551  47.7376760 111.3436629  62.9284458  40.9615472 116.9665590
  63.5683837  40.8204231 116.2688553  62.0961989  40.6749986 116.5904192
  74.7911712  49.0433904 115.8979849  75.2248218  48.9509193 116.7462903
  75.5043292  49.0191404 115.2599865  63.7044762  50.2617903 113.0800582
  64.4985361  49.7668223 112.8783157  62.9936454  49.7335766 112.7168288
  68.5239607  52.6435998 117.4312950  68.5776629  53.2126934 118.1990666
  67.6554388  52.8137883 117.0666987  60.0127526  44.4060984 109.1560335
  59.0825114  44.3445440 109.3730297  60.1084998  43.8836937 108.3596976
  59.9313075  40.9315797 111.7438576  60.1919892  41.8461130 111.6347737
  60.7530247  40.4640240 111.8935189  61.4038000  42.3453554 118.9137401
  62.0761053  42.1370916 118.2650050  60.5767786  42.1475640 118.4742633
  75.6527261  49.0857605 118.4312734  75.8463151  49.9903415 118.6772009
  75.5527879  48.6265024 119.2651319  67.3063572  38.9715495 120.9303062
  66.6591487  39.6705445 120.8367538  68.0764587  39.4051639 121.2979310
  70.7142370  49.2364347 124.0053615  70.5627876  49.0074899 123.0883699
  70.7047049  50.1934949 124.0184960  67.4827706  46.8096260 118.9899881
  68.4119766  46.9607420 118.8168849  67.0618736  46.8980281 118.1348528
  66.2816038  50.8346925 116.7598419  66.1427124  50.4665709 117.6324357
  65.4930634  51.3494564 116.5882377  66.8764190  55.9356021 108.1023956
  67.0515946  55.4644064 108.9169578  66.1896978  56.5621787 108.3305216
  67.8321253  50.2128527 114.1487257  67.4971086  50.1729297 115.0444907
  67.3325199  49.5473243 113.6757667  61.8065497  45.6196157 119.6739838
  61.6685295  44.8876396 120.2751377  62.7170421  45.5305057 119.3924026
  70.7680445  47.5584562 104.4224317  70.1509615  46.8331390 104.3257369
  70.2996933  48.3193922 104.0791391  64.4347798  45.3316117 119.1623518
  65.1447416  44.6909309 119.1210136  64.3917106  45.5829011 120.0849698
  72.4234576  52.2683470 122.0830097  72.3647123  51.5842690 121.4160680
  72.8254095  53.0102460 121.6310723  63.1476732  42.3181334 120.9819157
  62.6114089  41.8672073 121.6340753  62.5593440  42.4527243 120.2389621
  61.4425275  59.0845384 114.8763816  61.6821874  59.7163908 115.5542834
  60.5994472  58.7333424 115.1629175  62.5578991  41.7769986 103.5445621
  61.6808457  41.6558787 103.1807867  63.0336744  40.9856064 103.2924509
  72.4251984  50.2323054 120.3144077  71.5378763  49.8948976 120.4370475
  72.9950535  49.5006085 120.5512842  54.0781131  46.5647146 113.6387128
  54.7652171  46.2508876 113.0508143  53.9229260  47.4688510 113.3654379
  58.8815853  41.4537342 118.0672152  58.7974042  40.8463012 117.3322562
  58.0598559  41.9446360 118.0681648  65.9553137  54.8924506 117.2805320
  65.8823309  55.6979478 117.7924624  65.5130530  55.0916472 116.4553341
  65.7442917  54.1296276 110.7908141  64.9610439  54.6717956 110.8846366
  66.4435662  54.6470256 111.1902382  69.0539567  39.9390906 113.4342347
  69.5508266  39.1860868 113.1143417  68.2826548  39.9755222 112.8685556
  76.9069324  45.6431271 115.0760638  76.8959201  46.5255987 114.7054571
  76.0386704  45.2902822 114.8815175  68.4151821  54.7911340 119.4363478
  69.1279793  55.4258805 119.3639380  67.9241849  54.8875206 118.6203480
  70.1369348  48.6962593 111.0080770  69.2025626  48.8164055 110.8385474
  70.3146016  47.7935060 110.7440780  65.6374536  42.0808289 113.1614031
  65.2672323  41.5279329 113.8494937  66.1333628  41.4766422 112.6089031
  73.5241899  44.5379912 111.5430804  73.9902351  45.3707904 111.4691107
  73.9749399  44.0724894 112.2476063  63.4663734  52.5405784 120.2569049
  64.1673194  53.1742267 120.4098443  62.9958849  52.8820515 119.4964688
  71.5918130  50.8823733 108.5416956  71.8677974  50.7680328 109.4510830
  70.7222629  50.4841218 108.5029129  71.4958562  36.9060499 115.5821706
  70.5821641  37.1364726 115.7503912  71.9251663  36.9898943 116.4335738
  71.2665020  45.0950391 118.0821600  70.6136470  45.3426299 117.4274052
  71.6445400  44.2814529 117.7484077  68.2272194  55.1310084 112.1849770
  68.4094589  54.3131740 112.6477522  69.0505180  55.3477777 111.7474660
  68.5614360  54.0578269 109.4464818  69.0902126  53.5470724 108.8334980
  68.8242579  53.7420800 110.3110351  67.3152593  45.8370202 124.5687637
  66.6393230  45.7364332 125.2390012  68.1380227  45.6809416 125.0323634
  59.0631452  52.0742139 117.1900152  59.6484889  51.3285827 117.3228056
  58.8656291  52.3846095 118.0736816  61.9170107  55.1093386 112.2062594
  61.2480483  55.5939514 111.7226634  61.7782977  55.3562607 113.1205973
  53.6549107  44.6447739 115.9104595  53.6933207  44.1111330 116.7041713
  53.1489400  44.1182944 115.2915572  66.0575376  57.1437130 118.8045253
  66.6093684  57.3068751 119.5694338  66.3981570  57.7341567 118.1325278
  61.0339869  39.4912279 119.4067137  61.0981196  40.3527110 118.9944535
  60.9706990  38.8786281 118.6739496  60.5092142  41.5635412 123.0540172
  61.1364181  41.1812489 123.6677696  59.6520061  41.3449614 123.4195864
  70.9086250  51.9698387 124.6593907  71.4526154  52.5828345 124.1648862
  70.3273095  52.5277966 125.1760920  57.2857685  43.3711841 108.9858526
  57.5811126  42.4622520 108.9325580  56.3845720  43.3499581 108.6639529
  69.1943763  55.0919105 115.7908935  69.0694903  54.2908845 115.2819880
  69.8522854  55.5865299 115.3022905  60.8151932  41.4467838 114.9686075
  60.0938517  42.0603805 114.8293548  61.6045187  41.9825603 114.8902721
  71.2578672  52.8928125 117.4188485  70.3109007  52.7733476 117.3466812
  71.6061445  52.0050623 117.5014746  63.6178245  38.7822264 121.2426727
  64.1412647  39.0284561 122.0053036  63.3990578  39.6142299 120.8229864
  59.0145526  41.0525939 109.1097852  58.6858232  40.1723318 108.9272958
  59.3684897  40.9973607 109.9974241  68.2625105  52.6880841 113.6192837
  68.1150067  51.7597549 113.8000407  69.0878599  52.7100932 113.1349912
  62.1287349  41.3398909 109.4773329  62.4683422  41.8684830 108.7551938
  62.5759470  41.6779315 110.2531896  71.8659227  53.5109400 114.7057710
  72.7905774  53.3052262 114.5682161  71.6974530  53.2625801 115.6147051
  64.8230790  39.7235959 118.9276397  64.4827611  38.9243772 119.3297077
  64.1169796  40.0237670 118.3553231  65.4747262  36.8085272 117.3803720
  66.2973331  36.3345750 117.2582611  65.7185326  37.5875755 117.8802407
  64.1155496  39.8373530 107.6766622  64.8363859  40.2154783 107.1730339
  63.4920801  40.5562407 107.7801600  68.2586619  40.5418679 108.6124954
  68.4750234  41.4243317 108.3113783  67.7780687  40.1504893 107.8830596
  62.9985841  43.5004392 115.1895699  62.8530421  43.8144695 116.0819980
  62.5211044  44.1189293 114.6366598  64.8582224  40.4906940 115.2376589
  64.8443792  39.5948034 114.9008886  65.5754652  40.4977604 115.8714875
  66.7108354  40.9244281 117.2829716  66.4526132  41.8461351 117.2814046
  66.1793395  40.5274715 117.9730180  71.6554543  54.0295068 110.0619801
  71.8291421  53.4641490 109.3093654  72.1483434  54.8295963 109.8799291
  57.4731503  46.0409737 118.1283360  56.9284971  46.8169545 118.2603634
  58.3510853  46.3880541 117.9702482  64.2619120  39.3721321 110.5064159
  64.3835031  38.4437967 110.7055046  63.9721162  39.3860007 109.5942474
  67.1310310  37.0576231 113.6430879  67.1532007  37.1215564 112.6882858
  67.5478369  36.2180740 113.8371385  77.5093934  46.7931491 111.6810101
  77.9525080  46.0438816 111.2829224  76.6320445  46.7841627 111.2983833
  72.6429716  53.3461832 107.1616700  73.3380620  53.9668525 107.3804014
  72.9852866  52.4957183 107.4369078  58.2597525  45.1679633 121.0213517
  57.5179261  45.3162268 121.6078147  57.9390269  45.4287899 120.1580266
  74.5421139  50.7961538 108.6904030  75.0672463  51.1348810 107.9653350
  74.4543491  49.8608553 108.5067165  66.2041187  54.7095611 120.8193907
  66.5128314  54.4644758 121.6916607  67.0016669  54.9142250 120.3312777
  66.2261799  56.8633521 113.0499284  65.7866790  56.3709900 113.7432140
  66.9769916  56.3206489 112.8091359  58.7054138  53.0545062 113.0523912
  59.5312158  52.7548834 112.6722555  58.3548190  52.2852684 113.5013700
  63.6735672  52.4071530 115.1221585  63.0515681  51.7442235 114.8223813
  64.3440539  52.4332662 114.4395233  56.9062743  50.9731388 114.0112845
  56.0694652  50.5453563 113.8296846  56.8786389  51.1663832 114.9483636
  63.7460199  40.8853318 124.7154091  63.7948355  41.7615441 124.3331861
  64.2882713  40.3430711 124.1425734  74.2315045  51.4294441 123.9955228
  73.4410588  51.4118580 123.4559728  73.9948399  51.9682735 124.7504265
  74.3512920  48.2786908 121.3087957  74.4010925  48.1136915 122.2503480
  74.2426843  47.4114167 120.9185838  63.2349179  50.9575453 108.5980046
  63.3837299  51.6410918 107.9446719  64.0415622  50.9380543 109.1129502
  71.6416682  44.2617836 122.6247264  72.5426545  44.1224300 122.3331261
  71.7164657  44.4272290 123.5645441  65.9759488  41.6384690 121.4700450
  65.1062797  41.9318256 121.1983038  66.2118968  42.2225135 122.1907714
  75.8531117  50.6983849 121.5529978  75.5615925  51.0613830 122.3893439
  75.2403248  49.9850857 121.3743310  77.0526799  48.2636729 114.0732549
  77.8873690  48.7026533 114.2370109  77.1885928  47.7875382 113.2540794
  74.1018305  45.8216464 120.0210036  74.5772426  46.0144110 119.2128888
  73.1783870  45.8775650 119.7753420  60.9901811  46.9840631 109.6041115
  60.7447853  46.0802961 109.8021325  61.1597726  46.9857781 108.6620593
  68.6798521  37.8564307 118.9865870  69.1980465  38.5925334 118.6612359
  68.3253654  38.1628301 119.8212629  60.2597459  42.7168989 107.1027276
  59.5666704  42.7913344 106.4467312  60.0149211  41.9529332 107.6248793
  68.9311116  34.2764590 114.5066767  69.2112869  33.6087779 115.1327193
  69.7161722  34.4693685 113.9941431  66.7344584  53.4523584 106.0691793
  66.1618551  54.0713771 105.6162265  67.3077378  54.0022945 106.6031715
  72.8019974  42.6982224 118.2538342  73.7537397  42.7980322 118.2750566
  72.6323424  41.9060492 118.7636426  70.8234353  39.7837807 118.4397743
  70.2284285  40.0642820 117.7444232  70.5384050  40.2731708 119.2114484
  69.9541844  53.7360734 107.2000375  70.8872517  53.6706296 107.4033251
  69.8665057  54.5717001 106.7414908  72.5829860  53.0526604 104.1604323
  72.5043492  52.7186468 105.0540081  73.4039527  53.5448372 104.1595795
  75.2808052  45.9188344 117.3680642  75.2484372  44.9804344 117.5540325
  75.8908675  45.9972380 116.6346467  67.1191383  44.7884397 103.4107846
  68.0650487  44.6590605 103.4796264  66.7405627  44.0499058 103.8877274
  75.4302540  42.7099387 117.4138925  74.9141589  41.9257844 117.2268854
  76.3142489  42.3818104 117.5785444  73.0913267  36.4540403 113.3734738
  72.8938088  36.1455491 114.2578069  73.7012973  37.1802041 113.5032667
  81.0984602  46.9804350 116.5086678  81.8287990  46.7189639 117.0694382
  80.4891547  46.2433072 116.5488746  79.1799899  45.1212213 117.1061130
  78.4533062  44.9868178 116.4977621  78.7647186  45.4289042 117.9117848
  67.0030075  48.8402143 124.8708503  67.9233085  49.0180742 125.0648549
  66.9679658  47.8958188 124.7188202  65.3034300  42.7134373 103.3462731
  64.3965755  42.4167486 103.4225445  65.5810281  42.4164191 102.4797017
  56.2212240  44.0340736 113.7961777  55.9015024  43.1806044 113.5036151
  55.6745668  44.2489314 114.5519745  59.9992148  46.7503177 117.5131284
  60.2178157  47.6820285 117.5319318  60.4117921  46.3911152 118.2986088
  66.9196365  37.2571263 109.5006972  66.1097094  36.9118348 109.8762218
  67.6080782  36.9478806 110.0894584  68.8486914  36.3349309 111.1231269
  69.4017952  36.7544763 111.7821292  69.0857000  35.4085058 111.1654225
  64.0733084  39.5721308 103.4874710  64.9352248  39.8976206 103.7470527
  64.2583428  38.7852804 102.9747776  56.0900500  47.6543648 115.7654899
  55.3963972  47.2397601 115.2524853  56.8373491  47.6964184 115.1688318
  72.2265721  38.4449835 110.6309933  71.6464390  39.1034639 110.2487986
  71.9601653  37.6227179 110.2197351  70.6769287  37.8454892 112.8331253
  71.1769066  37.9571427 112.0245572  71.3204895  37.5415945 113.4732062
  64.7351283  45.7533522 125.7199094  64.2518365  46.5533882 125.9262983
  64.8212222  45.7641467 124.7666538  58.0037243  47.5861902 113.6420914
  57.9807931  47.6849589 112.6902797  58.3137879  48.4327052 113.9638080
  60.6624620  49.6438057 117.7567528  61.6167874  49.6121999 117.6897460
  60.4637144  49.1828680 118.5717754  61.2524003  48.2139173 120.3238326
  62.0716892  48.7083251 120.3473163  61.5260810  47.2971141 120.2955893
  71.0090599  40.6049925 109.6866281  70.1216454  40.8899576 109.4686476
  71.4244588  40.4443688 108.8393558  74.3605135  40.6296446 113.4020621
  75.1365525  41.1192898 113.6745237  73.6353269  41.0554500 113.8592490
  76.7977694  41.3424065 114.4594561  77.3922184  41.1019801 113.7487869
  76.8704277  40.6231196 115.0868098  59.0174849  55.1857676 114.7737726
  58.8829317  54.4258077 114.2075724  58.6006912  55.9098576 114.3066515
  70.1533812  50.3694600 103.7814301  70.8569662  50.5744602 104.3971957
  69.4296461  50.9371362 104.0463385  70.9831623  46.1204461 109.9016572
  70.9266824  46.5773012 109.0624204  71.5359965  45.3595145 109.7239414
  74.7936428  41.9094193 110.7266691  74.5373363  41.5090828 111.5574899
  74.1689297  42.6237987 110.6016830  79.1048766  44.6490266 113.2337982
  78.5448324  44.7183455 114.0069545  78.4992270  44.4731251 112.5137479
  62.1743975  56.0826993 114.9856169  62.0576359  57.0272426 114.8834859
  61.3536421  55.7800555 115.3741968  72.0620510  50.8077129 105.8312761
  72.8966114  50.3758327 105.6490236  71.9004853  50.6359143 106.7589656
  71.7166402  47.3109242 107.1969101  71.6615206  47.1453514 106.2557545
  71.0912457  48.0185275 107.3531290  56.5058917  42.5477307 121.0230523
  57.1517780  42.0376260 121.5117748  56.2976068  43.2845988 121.5973948
  69.0312309  49.6158154 126.5222664  69.9003469  49.7898806 126.1609298
  68.5519061  50.4352571 126.3998393  65.0262527  36.8117351 106.7754419
  65.0141197  37.7559191 106.9322690  65.9185949  36.6287497 106.4813880
  63.1998489  56.7355255 118.2012097  64.1025736  56.7678865 118.5178592
  62.9735859  55.8055706 118.2158433  64.9552091  55.4886242 114.8622176
  64.0047722  55.4888103 114.7486548  65.2584577  54.7418976 114.3458210
  68.8414647  33.4060128 111.0300356  68.0747043  32.8518614 111.1757038
  69.2525352  33.4781997 111.8914508  80.6904785  61.3246780 115.9267938
  81.3283195  61.2053527 115.2231278  80.5725628  62.2727624 115.9855890
  77.4994491  61.2774208 115.8629463  77.1613003  61.1615273 114.9749998
  78.3684259  60.8765373 115.8430469  73.3581307  63.1309684 111.8526354
  72.7946172  63.0399621 111.0842642  73.2433702  62.3109589 112.3328846
  77.9814274  62.4309060 121.8215668  77.9702915  62.0361858 120.9496172
  78.1434914  61.6975132 122.4149440  70.9045739  64.6260876 114.6910574
  71.6967031  64.2851701 114.2756874  71.1442389  64.7355851 115.6112728
  78.9380865  66.7980652 107.1640819  78.2868845  67.3834733 106.7774833
  79.7325228  67.3286847 107.2235856  72.8636493  63.8869789 107.5627953
  73.6367369  63.3398776 107.4240829  73.2161891  64.7514039 107.7742414
  74.7021535  65.2146172 120.7694852  74.4111401  66.1191802 120.6541519
  75.3378520  65.2562699 121.4838922  75.6277742  62.5923020 117.3596212
  76.2241314  62.3679042 116.6453175  75.6852714  61.8507766 117.9621660
  75.2002770  60.0462455 105.1946403  75.4528291  59.5243977 104.4329866
  74.2627330  59.8828601 105.2973087  80.2446053  59.0498234 113.0021146
  81.0309142  58.6317657 112.6511563  80.5084758  59.9544326 113.1702795
  80.4156131  64.4871084 107.7009803  79.7801964  64.5605711 108.4130708
  80.0853537  65.0764683 107.0228882  85.6454480  58.9873467 113.9054125
  86.3779652  58.4172684 114.1391954  84.8893836  58.5995067 114.3460630
  74.9199059  61.9490561 107.3970778  74.8035317  61.2735465 108.0651862
  75.0301319  61.4622935 106.5802931  77.2630600  61.4100708 111.1017467
  76.8988807  60.8831329 111.8130389  78.1197716  61.0199178 110.9283953
  83.1679901  52.6995041 118.3648733  82.8363226  53.5690452 118.1409948
  82.5725514  52.3831325 119.0442764  76.9036087  56.4390608 106.0978816
  77.0710489  57.3070845 106.4649287  76.7133256  56.6017890 105.1740105
  79.6611420  64.9007587 117.7644646  79.3612143  65.8032626 117.6560453
  79.3162480  64.6339770 118.6165799  73.1123902  61.3521384 113.7981350
  72.1874398  61.2197598 114.0059042  73.3608315  62.1315603 114.2951293
  83.0608564  57.4190127 115.4442083  82.1525441  57.3505536 115.1500844
  83.0096160  57.8962072 116.2723909  76.8825308  58.8948266 107.0825483
  76.7624933  59.3405316 107.9210963  76.1877896  59.2433583 106.5239021
  70.4732713  60.9954657 114.6325140  70.6025094  61.2489136 115.5464551
  69.7930164  61.5882365 114.3129795  74.6432200  71.6651907 110.7315614
  74.5656230  72.6159733 110.8104094  74.0393844  71.3197780 111.3890540
  77.1349430  58.8379773 123.3876981  76.3582764  59.3973693 123.3779845
  77.7739993  59.3236556 123.9091851  84.9270210  55.6206566 117.2219957
  84.2844591  55.9139099 116.5759752  84.4225139  55.5059486 118.0273154
  82.5810374  59.3669739 107.9105817  83.4928230  59.5997126 107.7353514
  82.0720021  59.9506783 107.3480895  75.3895802  61.6465226 122.9494948
  76.1310487  62.1850270 122.6729771  74.6832788  62.2731515 123.1066499
  80.8651142  63.7894367 121.5467109  81.2734498  63.3476777 120.8021742
  80.1428403  63.2146994 121.8001302  77.2182212  58.7266973 118.9200666
  78.0643407  59.1506387 119.0635315  77.1580850  58.0700598 119.6139229
  81.1879956  64.3495557 115.3019398  80.5588819  64.5141271 114.5995466
  80.8005619  64.7637167 116.0730362  85.0669188  65.2849995 112.6563762
  84.3820226  65.6648897 112.1060795  85.1513038  65.8945322 113.3895710
  80.3681657  56.3871342 120.5781840  80.1242589  57.1413402 120.0416115
  80.6441588  56.7656689 121.4129087  82.3220120  62.9309954 119.2559105
  82.5337015  63.5741714 118.5793486  82.2749868  62.0972271 118.7881035
  79.9246349  55.5427775 116.1595677  79.0630828  55.8409028 116.4512415
  79.9508784  55.7598174 115.2276710  76.7407918  64.0869965 112.5669483
  77.2046264  64.3657668 111.7774106  76.4764716  63.1853410 112.3842574
  73.6331999  63.6341447 115.5049246  74.2033356  64.0628715 114.8666731
  74.2240111  63.3524032 116.2033432  75.6776804  60.2093118 109.3759048
  76.3800848  60.6614161 109.8432975  75.3457433  59.5676937 110.0038941
  74.1257166  58.8004874 123.7510258  73.4955826  59.4821155 123.9845654
  74.0193254  58.6887956 122.8063396  69.4202138  58.4676670 114.6776182
  68.6301192  58.7234199 114.2016292  69.9113386  59.2825008 114.7828222
  83.4365948  65.8081910 117.4281463  84.2583392  65.4062097 117.1464144
  83.4328351  65.7050144 118.3797578  71.3716884  58.8321250 111.6359659
  70.5748047  58.9439944 112.1543154  71.1442476  59.1707902 110.7700549
  77.2022551  65.3565953 119.5842173  77.2666984  65.8186360 120.4200345
  76.4933475  64.7263318 119.7124483  67.7039841  58.7207161 117.1091173
  67.9547880  59.6054171 117.3748749  68.2399390  58.5411762 116.3366264
  91.5271941  62.1520658 113.7766434  90.7735649  61.5828056 113.6210439
  91.6619482  62.1183323 114.7237069  76.9170569  67.0234060 109.4521153
  76.7816244  67.8685596 109.8806001  77.4580381  67.2253338 108.6887087
  73.4037909  53.1025640 126.1135509  73.0104854  52.5491839 126.7883153
  74.2204049  53.4136219 126.5042026  70.3699966  64.5409498 110.0249079
  70.8824487  65.3352749 110.1754643  71.0222679  63.8435789 109.9582680
  72.1794851  67.6575255 112.1071832  72.3561479  68.5793219 111.9192816
  72.9751685  67.3433674 112.5366212  76.3205870  54.5183519 123.7055765
  77.0615583  55.1190672 123.6260228  76.5523792  53.7761157 123.1473808
  71.4647208  59.7039887 121.9833995  71.3500723  58.8025144 122.2841094
  70.6091725  59.9503583 121.6318811  78.5439045  67.6457627 123.5821496
  78.1002900  66.8594005 123.2642400  79.2056259  67.8336777 122.9165386
  73.3026167  69.1753428 118.1082174  73.8533592  69.0470492 117.3359168
  72.4637642  69.4748318 117.7577067  80.6420283  67.9260427 121.6102897
  80.6238759  68.7469308 121.1183166  81.5640203  67.8014502 121.8353038
  77.0993338  65.4404556 122.4526405  77.6321674  64.6792844 122.2225713
  76.5707419  65.1478208 123.1950560  80.2663033  50.5464622 117.9820047
  79.9227302  51.4366264 117.9059158  80.6341995  50.3566280 117.1189632
  68.3348883  62.8698153 110.8008649  69.1724105  63.2795161 110.5842357
  68.5127151  61.9297595 110.7708843  80.2313315  60.5373233 106.4892482
  79.7159939  61.3077838 106.7280869  79.9590624  59.8638370 107.1125544
  77.8160426  55.3822934 111.5477720  76.9602023  54.9929785 111.3683359
  78.2287378  55.4614895 110.6877506  79.3459573  52.9169277 115.9469280
  78.8424369  52.8799413 115.1337085  79.6390180  53.8262020 116.0065937
  75.5902459  53.0008007 114.9535462  76.4555456  52.8050816 114.5941351
  75.6579968  52.7718359 115.8804819  85.2047589  63.2905588 108.4245656
  84.4277032  62.9516748 107.9800818  85.8839070  63.2958211 107.7500621
  80.0199618  58.4100325 108.3152263  79.7149754  58.7246475 109.1662406
  80.9730061  58.4881745 108.3579596  78.4646050  64.5690549 109.9645217
  77.9367412  63.8343308 109.6518455  77.9633553  65.3465225 109.7185186
  83.4438896  62.7639569 115.0812264  82.7862571  63.4538831 115.1692392
  84.2479296  63.1536001 115.4246250  73.1964778  55.2310215 112.3251829
  73.7708530  55.0085397 111.5925022  73.7835760  55.2998910 113.0780430
  82.2544355  61.1183942 113.1316205  82.7676237  61.7513934 113.6337915
  82.9045579  60.5185137 112.7659565  73.5234365  57.2614676 106.3447714
  72.6871677  57.5989363 106.6656989  73.3839135  57.1263656 105.4074851
  75.4987446  52.1051464 111.0526898  74.8451858  51.7900481 110.4283513
  75.4567920  51.4827204 111.7786721  76.6098650  62.3870759 102.9680190
  75.7025712  62.1560013 103.1671339  77.1069682  61.5908378 103.1554172
  79.5166729  71.0968266 105.8876876  78.8428428  71.3999963 106.4961834
  79.9032551  71.8997347 105.5382333  78.7325186  58.5933398 115.3774546
  77.8147747  58.8148345 115.2196234  79.1485330  58.6679708 114.5186253
  79.5160234  59.9924813 110.5077226  80.2632053  60.5046210 110.1984348
  79.7851823  59.6708866 111.3681620  77.7886884  62.4883354 107.4904180
  76.8798103  62.2042387 107.5876650  77.8181968  62.9082432 106.6307487
  83.0206151  66.0989943 111.2595348  82.5668478  65.2580853 111.3160538
  82.3900118  66.7351342 111.5970128  81.9639071  57.0281929 112.4896015
  81.2261828  56.5159316 112.8206258  82.2165844  56.5882311 111.6779292
  81.4639091  67.9366440 112.1945166  81.7562065  68.4971497 111.4757532
  81.9737711  68.2295001 112.9498325  82.0650698  49.8058181 113.0837785
  82.3709575  48.9455545 112.7963700  82.7903303  50.3975802 112.8836779
  68.3575054  60.2088868 111.4719383  68.1599454  59.6158229 110.7470449
  67.8021718  59.9041078 112.1895321  76.3371778  60.1011975 113.5913976
  76.3920388  59.1485811 113.5156452  75.5262980  60.2571414 114.0755274
  77.4862972  64.0292098 104.8292259  77.0482402  63.3127957 104.3697896
  78.2273413  64.2568212 104.2677350  74.2764138  58.7189034 111.3504355
  73.4632003  59.0183205 111.7569547  74.7723132  58.3244723 112.0678837
  76.4272716  68.7146791 113.2838619  76.3848895  68.9407638 112.3547151
  77.3435415  68.4810166 113.4324420  79.8738350  59.1830859 120.1819248
  80.2287737  59.4102332 121.0413714  80.5210481  59.5149236 119.5596504
  85.6036087  62.3049295 110.8868577  85.4653985  62.4950891 109.9589767
  85.2472305  63.0668677 111.3436629  73.7678213  56.2907390 116.9665590
  74.4077592  56.1496149 116.2688553  72.9355743  56.0041903 116.5904192
  85.6305466  64.3725822 115.8979849  86.0641973  64.2801111 116.7462903
  86.3437047  64.3483322 115.2599865  74.5438517  65.5909820 113.0800582
  75.3379115  65.0960140 112.8783157  73.8330209  65.0627683 112.7168288
  79.3633361  67.9727916 117.4312950  79.4170383  68.5418852 118.1990666
  78.4948142  68.1429801 117.0666987  70.8521280  59.7352902 109.1560335
  69.9218868  59.6737357 109.3730297  70.9478752  59.2128855 108.3596976
  70.7706829  56.2607715 111.7438576  71.0313646  57.1753048 111.6347737
  71.5924001  55.7932157 111.8935189  72.2431754  57.6745472 118.9137401
  72.9154808  57.4662834 118.2650050  71.4161541  57.4767558 118.4742633
  86.4921016  64.4149522 118.4312734  86.6856906  65.3195333 118.6772009
  86.3921634  63.9556941 119.2651319  78.1457326  54.3007413 120.9303062
  77.4985241  54.9997363 120.8367538  78.9158342  54.7343557 121.2979310
  81.5536124  64.5656265 124.0053615  81.4021631  64.3366817 123.0883699
  81.5440804  65.5226866 124.0184960  78.3221461  62.1388178 118.9899881
  79.2513521  62.2899337 118.8168849  77.9012491  62.2272199 118.1348528
  77.1209793  66.1638842 116.7598419  76.9820878  65.7957627 117.6324357
  76.3324389  66.6786482 116.5882377  77.7157945  71.2647939 108.1023956
  77.8909700  70.7935982 108.9169578  77.0290733  71.8913705 108.3305216
  78.6715008  65.5420445 114.1487257  78.3364840  65.5021215 115.0444907
  78.1718953  64.8765161 113.6757667  72.6459252  60.9488075 119.6739838
  72.5079050  60.2168314 120.2751377  73.5564175  60.8596975 119.3924026
  81.6074199  62.8876479 104.4224317  80.9903370  62.1623307 104.3257369
  81.1390688  63.6485840 104.0791391  75.2741552  60.6608034 119.1623518
  75.9841171  60.0201226 119.1210136  75.2310860  60.9120929 120.0849698
  83.2628331  67.5975388 122.0830097  83.2040877  66.9134608 121.4160680
  83.6647849  68.3394378 121.6310723  73.9870486  57.6473252 120.9819157
  73.4507843  57.1963991 121.6340753  73.3987195  57.7819161 120.2389621
  72.2819030  74.4137301 114.8763816  72.5215628  75.0455826 115.5542834
  71.4388226  74.0625341 115.1629175  73.3972745  57.1061904 103.5445621
  72.5202212  56.9850704 103.1807867  73.8730498  56.3147982 103.2924509
  83.2645738  65.5614972 120.3144077  82.3772517  65.2240893 120.4370475
  83.8344289  64.8298003 120.5512842  64.9174885  61.8939063 113.6387128
  65.6045925  61.5800793 113.0508143  64.7623014  62.7980428 113.3654379
  69.7209608  56.7829260 118.0672152  69.6367796  56.1754929 117.3322562
  68.8992314  57.2738278 118.0681648  76.7946892  70.2216424 117.2805320
  76.7217063  71.0271395 117.7924624  76.3524285  70.4208390 116.4553341
  76.5836671  69.4588194 110.7908141  75.8004193  70.0009874 110.8846366
  77.2829416  69.9762174 111.1902382  79.8933321  55.2682823 113.4342347
  80.3902021  54.5152786 113.1143417  79.1220303  55.3047140 112.8685556
  87.7463079  60.9723189 115.0760638  87.7352955  61.8547904 114.7054571
  86.8780458  60.6194740 114.8815175  79.2545575  70.1203258 119.4363478
  79.9673547  70.7550723 119.3639380  78.7635604  70.2167124 118.6203480
  80.9763102  64.0254511 111.0080770  80.0419381  64.1455973 110.8385474
  81.1539771  63.1226977 110.7440780  76.4768290  57.4100206 113.1614031
  76.1066078  56.8571247 113.8494937  76.9727383  56.8058340 112.6089031
  84.3635653  59.8671830 111.5430804  84.8296106  60.6999821 111.4691107
  84.8143154  59.4016811 112.2476063  74.3057489  67.8697701 120.2569049
  75.0066948  68.5034184 120.4098443  73.8352604  68.2112433 119.4964688
  82.4311885  66.2115651 108.5416956  82.7071728  66.0972246 109.4510830
  81.5616383  65.8133136 108.5029129  82.3352316  52.2352417 115.5821706
  81.4215396  52.4656644 115.7503912  82.7645418  52.3190861 116.4335738
  82.1058775  60.4242309 118.0821600  81.4530225  60.6718216 117.4274052
  82.4839155  59.6106447 117.7484077  79.0665949  70.4602002 112.1849770
  79.2488343  69.6423658 112.6477522  79.8898935  70.6769694 111.7474660
  79.4008114  69.3870187 109.4464818  79.9295880  68.8762642 108.8334980
  79.6636334  69.0712717 110.3110351  78.1546348  61.1662120 124.5687637
  77.4786985  61.0656249 125.2390012  78.9773982  61.0101334 125.0323634
  69.9025207  67.4034056 117.1900152  70.4878644  66.6577744 117.3228056
  69.7050045  67.7138013 118.0736816  72.7563862  70.4385304 112.2062594
  72.0874237  70.9231431 111.7226634  72.6176732  70.6854524 113.1205973
  64.4942862  59.9739657 115.9104595  64.5326961  59.4403247 116.7041713
  63.9883154  59.4474862 115.2915572  76.8969131  72.4729047 118.8045253
  77.4487439  72.6360669 119.5694338  77.2375324  73.0633485 118.1325278
  71.8733624  54.8204197 119.4067137  71.9374950  55.6819028 118.9944535
  71.8100744  54.2078199 118.6739496  71.3485896  56.8927330 123.0540172
  71.9757935  56.5104407 123.6677696  70.4913815  56.6741532 123.4195864
  68.1251439  58.7003759 108.9858526  68.4204880  57.7914437 108.9325580
  67.2239475  58.6791498 108.6639529  80.0337518  70.4211023 115.7908935
  79.9088657  69.6200763 115.2819880  80.6916609  70.9157216 115.3022905
  71.6545686  56.7759755 114.9686075  70.9332272  57.3895723 114.8293548
  72.4438942  57.3117520 114.8902721  82.0972426  68.2220043 117.4188485
  81.1502762  68.1025394 117.3466812  82.4455199  67.3342541 117.5014746
  74.4572000  54.1114182 121.2426727  74.9806401  54.3576478 122.0053036
  74.2384333  54.9434217 120.8229864  69.8539281  56.3817856 109.1097852
  69.5251987  55.5015235 108.9272958  70.2078651  56.3265525 109.9974241
  79.1018860  68.0172759 113.6192837  78.9543822  67.0889467 113.8000407
  79.9272353  68.0392850 113.1349912  72.9681104  56.6690826 109.4773329
  73.3077176  57.1976747 108.7551938  73.4153224  57.0071232 110.2531896
  82.7052981  68.8401318 114.7057710  83.6299529  68.6344179 114.5682161
  82.5368285  68.5917719 115.6147051  75.6624545  55.0527877 118.9276397
  75.3221365  54.2535690 119.3297077  74.9563551  55.3529588 118.3553231
  76.3141016  52.1377189 117.3803720  77.1367086  51.6637668 117.2582611
  76.5579080  52.9167673 117.8802407  74.9549251  55.1665448 107.6766622
  75.6757613  55.5446701 107.1730339  74.3314555  55.8854325 107.7801600
  79.0980374  55.8710597 108.6124954  79.3143988  56.7535235 108.3113783
  78.6174441  55.4796810 107.8830596  73.8379595  58.8296310 115.1895699
  73.6924176  59.1436613 116.0819980  73.3604799  59.4481210 114.6366598
  75.6975978  55.8198858 115.2376589  75.6837547  54.9239951 114.9008886
  76.4148406  55.8269522 115.8714875  77.5502109  56.2536198 117.2829716
  77.2919887  57.1753269 117.2814046  77.0187149  55.8566633 117.9730180
  82.4948298  69.3586985 110.0619801  82.6685175  68.7933408 109.3093654
  82.9877189  70.1587880 109.8799291  68.3125257  61.3701654 118.1283360
  67.7678725  62.1461462 118.2603634  69.1904607  61.7172459 117.9702482
  75.1012874  54.7013238 110.5064159  75.2228785  53.7729884 110.7055046
  74.8114916  54.7151924 109.5942474  77.9704064  52.3868149 113.6430879
  77.9925761  52.4507482 112.6882858  78.3872123  51.5472657 113.8371385
  88.3487689  62.1223408 111.6810101  88.7918835  61.3730733 111.2829224
  87.4714199  62.1133545 111.2983833  83.4823470  68.6753750 107.1616700
  84.1774375  69.2960442 107.3804014  83.8246620  67.8249101 107.4369078
  69.0991279  60.4971551 121.0213517  68.3573015  60.6454186 121.6078147
  68.7784024  60.7579816 120.1580266  85.3814893  66.1253455 108.6904030
  85.9066217  66.4640728 107.9653350  85.2937246  65.1900471 108.5067165
  77.0434942  70.0387529 120.8193907  77.3522068  69.7936676 121.6916607
  77.8410424  70.2434167 120.3312777  77.0655554  72.1925439 113.0499284
  76.6260544  71.7001817 113.7432140  77.8163671  71.6498406 112.8091359
  69.5447893  68.3836979 113.0523912  70.3705913  68.0840751 112.6722555
  69.1941945  67.6144602 113.5013700  74.5129426  67.7363448 115.1221585
  73.8909435  67.0734153 114.8223813  75.1834293  67.7624580 114.4395233
  67.7456498  66.3023306 114.0112845  66.9088406  65.8745480 113.8296846
  67.7180143  66.4955749 114.9483636  74.5853954  56.2145236 124.7154091
  74.6342109  57.0907358 124.3331861  75.1276468  55.6722629 124.1425734
  85.1906674  63.6078825 121.3087957  85.2404679  63.4428833 122.2503480
  85.0820598  62.7406084 120.9185838  74.0742933  66.2867371 108.5980046
  74.2231053  66.9702835 107.9446719  74.8809376  66.2672461 109.1129502
  82.4810437  59.5909753 122.6247264  83.3820299  59.4516218 122.3331261
  82.5558411  59.7564208 123.5645441  76.8153242  56.9676608 121.4700450
  75.9456551  57.2610174 121.1983038  77.0512722  57.5517053 122.1907714
  86.6924871  66.0275767 121.5529978  86.4009679  66.3905747 122.3893439
  86.0797002  65.3142775 121.3743310  87.8920553  63.5928647 114.0732549
  88.7267445  64.0318451 114.2370109  88.0279682  63.1167300 113.2540794
  84.9412059  61.1508381 120.0210036  85.4166181  61.3436028 119.2128888
  84.0177625  61.2067567 119.7753420  71.8295566  62.3132549 109.6041115
  71.5841608  61.4094879 109.8021325  71.9991481  62.3149699 108.6620593
  79.5192276  53.1856225 118.9865870  80.0374220  53.9217252 118.6612359
  79.1647409  53.4920218 119.8212629  71.0991214  58.0460906 107.1027276
  70.4060458  58.1205261 106.4467312  70.8542965  57.2821250 107.6248793
  79.7704870  49.6056508 114.5066767  80.0506624  48.9379697 115.1327193
  80.5555477  49.7985603 113.9941431  77.5738339  68.7815501 106.0691793
  77.0012306  69.4005689 105.6162265  78.1471132  69.3314863 106.6031715
  83.6413728  58.0274142 118.2538342  84.5931151  58.1272239 118.2750566
  83.4717179  57.2352410 118.7636426  81.6628108  55.1129725 118.4397743
  81.0678040  55.3934737 117.7444232  81.3777805  55.6023626 119.2114484
  80.7935598  69.0652652 107.2000375  81.7266271  68.9998213 107.4033251
  80.7058811  69.9008918 106.7414908  83.4223615  68.3818522 104.1604323
  83.3437247  68.0478386 105.0540081  84.2433282  68.8740290 104.1595795
  86.1201806  61.2480261 117.3680642  86.0878126  60.3096262 117.5540325
  86.7302430  61.3264298 116.6346467  77.9585137  60.1176314 103.4107846
  78.9044242  59.9882522 103.4796264  77.5799382  59.3790976 103.8877274
  86.2696295  58.0391305 117.4138925  85.7535343  57.2549761 117.2268854
  87.1536243  57.7110021 117.5785444  83.9307022  51.7832320 113.3734738
  83.7331843  51.4747408 114.2578069  84.5406727  52.5093959 113.5032667
  91.9378356  62.3096268 116.5086678  92.6681744  62.0481556 117.0694382
  91.3285301  61.5724990 116.5488746  90.0193653  60.4504131 117.1061130
  89.2926817  60.3160096 116.4977621  89.6040940  60.7580959 117.9117848
  77.8423830  64.1694060 124.8708503  78.7626839  64.3472659 125.0648549
  77.8073413  63.2250106 124.7188202  76.1428054  58.0426291 103.3462731
  75.2359510  57.7459403 103.4225445  76.4204035  57.7456109 102.4797017
  67.0605995  59.3632654 113.7961777  66.7408779  58.5097962 113.5036151
  66.5139423  59.5781232 114.5519745  70.8385902  62.0795095 117.5131284
  71.0571912  63.0112203 117.5319318  71.2511676  61.7203069 118.2986088
  77.7590120  52.5863180 109.5006972  76.9490848  52.2410265 109.8762218
  78.4474537  52.2770724 110.0894584  79.6880668  51.6641227 111.1231269
  80.2411707  52.0836681 111.7821292  79.9250755  50.7376975 111.1654225
  75.7113767  57.6528301 126.9034033  75.6110494  58.6022658 126.8346124
  75.4935309  57.3246540 126.0310103  74.9126839  54.9013226 103.4874710
  75.7746003  55.2268124 103.7470527  75.0977183  54.1144722 102.9747776
  66.9294255  62.9835565 115.7654899  66.2357726  62.5689518 115.2524853
  67.6767246  63.0256102 115.1688318  83.0659475  53.7741752 110.6309933
  82.4858144  54.4326556 110.2487986  82.7995408  52.9519097 110.2197351
  81.5163042  53.1746810 112.8331253  82.0162820  53.2863344 112.0245572
  82.1598650  52.8707863 113.4732062  75.5745037  61.0825440 125.7199094
  75.0912119  61.8825800 125.9262983  75.6605977  61.0933384 124.7666538
  68.8430997  62.9153819 113.6420914  68.8201685  63.0141507 112.6902797
  69.1531634  63.7618970 113.9638080  71.5018375  64.9729974 117.7567528
  72.4561629  64.9413917 117.6897460  71.3030899  64.5120598 118.5717754
  72.0917757  63.5431090 120.3238326  72.9110646  64.0375169 120.3473163
  72.3654565  62.6263058 120.2955893  81.8484353  55.9341843 109.6866281
  80.9610208  56.2191493 109.4686476  82.2638342  55.7735606 108.8393558
  85.1998889  55.9588364 113.4020621  85.9759280  56.4484816 113.6745237
  84.4747024  56.3846418 113.8592490  87.6371448  56.6715983 114.4594561
  88.2315939  56.4311719 113.7487869  87.7098032  55.9523113 115.0868098
  69.8568604  70.5149594 114.7737726  69.7223072  69.7549995 114.2075724
  69.4400666  71.2390494 114.3066515  80.9927567  65.6986517 103.7814301
  81.6963417  65.9036520 104.3971957  80.2690216  66.2663279 104.0463385
  81.8225377  61.4496379 109.9016572  81.7660578  61.9064930 109.0624204
  82.3753720  60.6887063 109.7239414  85.6330183  57.2386110 110.7266691
  85.3767117  56.8382746 111.5574899  85.0083051  57.9529904 110.6016830
  89.9442521  59.9782184 113.2337982  89.3842079  60.0475373 114.0069545
  89.3386024  59.8023168 112.5137479  73.0137730  71.4118911 114.9856169
  72.8970114  72.3564343 114.8834859  72.1930176  71.1092472 115.3741968
  82.9014264  66.1369047 105.8312761  83.7359868  65.7050245 105.6490236
  82.7398607  65.9651060 106.7589656  82.5560156  62.6401160 107.1969101
  82.5008960  62.4745431 106.2557545  81.9306212  63.3477193 107.3531290
  67.3452671  57.8769224 121.0230523  67.9911535  57.3668178 121.5117748
  67.1369822  58.6137906 121.5973948  75.8656282  52.1409269 106.7754419
  75.8534952  53.0851109 106.9322690  76.7579704  51.9579414 106.4813880
  74.0392244  72.0647173 118.2012097  74.9419490  72.0970783 118.5178592
  73.8129614  71.1347624 118.2158433  75.7945846  70.8178159 114.8622176
  74.8441477  70.8180021 114.7486548  76.0978332  70.0710894 114.3458210
  79.6808401  48.7352045 111.0300356  78.9140797  48.1810532 111.1757038
  80.0919106  48.8073914 111.8914508  71.6850162  55.0236841 125.1205537
  72.5481624  54.6673646 125.3308862  71.1115573  54.6850736 125.8080941
  88.3388246  76.6066126 115.8629463  88.0006757  76.4907190 114.9749998
  89.2078014  76.2057291 115.8430469  84.1975061  78.4601602 111.8526354
  83.6339926  78.3691539 111.0842642  84.0827456  77.6401507 112.3328846
  81.7439493  79.9552794 114.6910574  82.5360785  79.6143618 114.2756874
  81.9836143  80.0647769 115.6112728  89.7774620  82.1272570 107.1640819
  89.1262600  82.7126650 106.7774833  90.5718983  82.6578765 107.2235856
  83.7030247  79.2161707 107.5627953  84.4761123  78.6690694 107.4240829
  84.0555646  80.0805956 107.7742414  86.0396525  75.3754373 105.1946403
  86.2922046  74.8535894 104.4329866  85.1021084  75.2120519 105.2973087
  91.0839808  74.3790151 113.0021146  91.8702897  73.9609575 112.6511563
  91.3478512  75.2836244 113.1702795  91.2549885  79.8163002 107.7009803
  90.6195718  79.8897628 108.4130708  90.9247292  80.4056601 107.0228882
  96.4848235  74.3165385 113.9054125  97.2173407  73.7464601 114.1391954
  95.7287591  73.9286985 114.3460630  85.7592814  77.2782479 107.3970778
  85.6429072  76.6027382 108.0651862  85.8695074  76.7914853 106.5802931
  88.1024355  76.7392626 111.1017467  87.7382562  76.2123247 111.8130389
  88.9591471  76.3491095 110.9283953  94.0073655  68.0286959 118.3648733
  93.6756980  68.8982370 118.1409948  93.4119269  67.7123243 119.0442764
  87.7429842  71.7682526 106.0978816  87.9104244  72.6362762 106.4649287
  87.5527011  71.9309808 105.1740105  83.9517656  76.6813302 113.7981350
  83.0268153  76.5489516 114.0059042  84.2002069  77.4607521 114.2951293
  87.7219062  74.2240183 107.0825483  87.6018688  74.6697234 107.9210963
  87.0271651  74.5725501 106.5239021  81.3126467  76.3246575 114.6325140
  81.4418848  76.5781054 115.5464551  80.6323919  76.9174283 114.3129795
  85.4825955  86.9943825 110.7315614  85.4049984  87.9451650 110.8104094
  84.8787598  86.6489698 111.3890540  93.4204129  74.6961657 107.9105817
  94.3321985  74.9289043 107.7353514  92.9113776  75.2798701 107.3480895
  90.7640103  70.8719693 116.1595677  89.9024582  71.1700946 116.4512415
  90.7902538  71.0890091 115.2276710  87.5801673  79.4161883 112.5669483
  88.0440018  79.6949586 111.7774106  87.3158471  78.5145328 112.3842574
  84.4725754  78.9633365 115.5049246  85.0427111  79.3920633 114.8666731
  85.0633866  78.6815949 116.2033432  86.5170559  75.5385035 109.3759048
  87.2194602  75.9906079 109.8432975  86.1851187  74.8968854 110.0038941
  80.2595893  73.7968588 114.6776182  79.4694947  74.0526117 114.2016292
  80.7507140  74.6116926 114.7828222  82.2110638  74.1613167 111.6359659
  81.4141801  74.2731862 112.1543154  81.9836230  74.4999820 110.7700549
  78.5433596  74.0499079 117.1091173  78.7941634  74.9346088 117.3748749
  79.0793144  73.8703680 116.3366264  87.7564323  82.3525978 109.4521153
  87.6209998  83.1977514 109.8806001  88.2974136  82.5545256 108.6887087
  81.2093721  79.8701416 110.0249079  81.7218241  80.6644666 110.1754643
  81.8616434  79.1727707 109.9582680  83.0188606  82.9867172 112.1071832
  83.1955234  83.9085137 111.9192816  83.8145439  82.6725592 112.5366212
  91.1056787  65.8756540 117.9820047  90.7621056  66.7658182 117.9059158
  91.4735750  65.6858198 117.1189632  79.1742638  78.1990070 110.8008649
  80.0117860  78.6087079 110.5842357  79.3520905  77.2589513 110.7708843
  91.0707070  75.8665151 106.4892482  90.5553693  76.6369756 106.7280869
  90.7984378  75.1930287 107.1125544  88.6554181  70.7114852 111.5477720
  87.7995777  70.3221702 111.3683359  89.0681133  70.7906813 110.6877506
  90.1853327  68.2461195 115.9469280  89.6818123  68.2091330 115.1337085
  90.4783934  69.1553938 116.0065937  86.4296213  68.3299925 114.9535462
  87.2949210  68.1342734 114.5941351  86.4973722  68.1010277 115.8804819
  96.0441344  78.6197506 108.4245656  95.2670787  78.2808665 107.9800818
  96.7232825  78.6250129 107.7500621  90.8593373  73.7392243 108.3152263
  90.5543509  74.0538392 109.1662406  91.8123815  73.8173663 108.3579596
  89.3039805  79.8982466 109.9645217  88.7761166  79.1635226 109.6518455
  88.8027308  80.6757143 109.7185186  84.0358532  70.5602133 112.3251829
  84.6102284  70.3377314 111.5925022  84.6229515  70.6290827 113.0780430
  93.0938110  76.4475860 113.1316205  93.6069991  77.0805851 113.6337915
  93.7439333  75.8477055 112.7659565  84.3628120  72.5906594 106.3447714
  83.5265432  72.9281280 106.6656989  84.2232889  72.4555574 105.4074851
  86.3381200  67.4343382 111.0526898  85.6845612  67.1192399 110.4283513
  86.2961674  66.8119122 111.7786721  87.4492405  77.7162677 102.9680190
  86.5419467  77.4851930 103.1671339  87.9463437  76.9200296 103.1554172
  90.3560484  86.4260184 105.8876876  89.6822183  86.7291881 106.4961834
  90.7426306  87.2289264 105.5382333  89.5718940  73.9225315 115.3774546
  88.6541502  74.1440262 115.2196234  89.9879084  73.9971626 114.5186253
  90.3553988  75.3216731 110.5077226  91.1025807  75.8338128 110.1984348
  90.6245578  75.0000784 111.3681620  88.6280638  77.8175272 107.4904180
  87.7191858  77.5334304 107.5876650  88.6575722  78.2374350 106.6307487
  92.8032825  72.3573847 112.4896015  92.0655582  71.8451233 112.8206258
  93.0559599  71.9174229 111.6779292  92.9044453  65.1350099 113.0837785
  93.2103330  64.2747463 112.7963700  93.6297058  65.7267719 112.8836779
  79.1968809  75.5380786 111.4719383  78.9993209  74.9450146 110.7470449
  78.6415473  75.2332996 112.1895321  87.1765532  75.4303892 113.5913976
  87.2314142  74.4777729 113.5156452  86.3656734  75.5863331 114.0755274
  88.3256726  79.3584015 104.8292259  87.8876156  78.6419874 104.3697896
  89.0667167  79.5860130 104.2677350  85.1157892  74.0480952 111.3504355
  84.3025758  74.3475122 111.7569547  85.6116887  73.6536641 112.0678837
  96.4429841  77.6341212 110.8868577  96.3047740  77.8242808 109.9589767
  96.0866060  78.3960595 111.3436629  84.6071967  71.6199307 116.9665590
  85.2471346  71.4788067 116.2688553  83.7749498  71.3333821 116.5904192
  85.3832271  80.9201738 113.0800582  86.1772870  80.4252058 112.8783157
  84.6723963  80.3919601 112.7168288  81.6915034  75.0644820 109.1560335
  80.7612623  75.0029275 109.3730297  81.7872506  74.5420772 108.3596976
  81.6100584  71.5899632 111.7438576  81.8707401  72.5044966 111.6347737
  82.4317756  71.1224075 111.8935189  83.0825509  73.0037390 118.9137401
  83.7548562  72.7954752 118.2650050  82.2555295  72.8059476 118.4742633
  88.5551699  86.5939856 108.1023956  88.7303455  86.1227900 108.9169578
  87.8684487  87.2205623 108.3305216  92.4467954  78.2168397 104.4224317
  91.8297124  77.4915225 104.3257369  91.9784442  78.9777757 104.0791391
  84.2366500  72.4353821 103.5445621  83.3595966  72.3142622 103.1807867
  84.7124253  71.6439900 103.2924509  75.7568640  77.2230981 113.6387128
  76.4439680  76.9092711 113.0508143  75.6016769  78.1272346 113.3654379
  80.5603362  72.1121178 118.0672152  80.4761551  71.5046847 117.3322562
  79.7386068  72.6030196 118.0681648  87.4230426  84.7880112 110.7908141
  86.6397948  85.3301792 110.8846366  88.1223171  85.3054091 111.1902382
  90.7327076  70.5974741 113.4342347  91.2295775  69.8444703 113.1143417
  89.9614057  70.6339058 112.8685556  91.8156857  79.3546428 111.0080770
  90.8813135  79.4747891 110.8385474  91.9933525  78.4518895 110.7440780
  87.3162045  72.7392124 113.1614031  86.9459832  72.1863164 113.8494937
  87.8121137  72.1350258 112.6089031  95.2029408  75.1963748 111.5430804
  95.6689860  76.0291739 111.4691107  95.6536908  74.7308729 112.2476063
  93.2705639  81.5407569 108.5416956  93.5465483  81.4264163 109.4510830
  92.4010138  81.1425054 108.5029129  93.1746071  67.5644335 115.5821706
  92.2609150  67.7948561 115.7503912  93.6039172  67.6482779 116.4335738
  90.2401869  84.7162105 109.4464818  90.7689635  84.2054559 108.8334980
  90.5030088  84.4004635 110.3110351  75.3336616  75.3031574 115.9104595
  75.3720716  74.7695165 116.7041713  74.8276909  74.7766780 115.2915572
  82.7127378  70.1496115 119.4067137  82.7768705  71.0110946 118.9944535
  82.6494499  69.5370116 118.6739496  78.9645194  74.0295676 108.9858526
  79.2598635  73.1206355 108.9325580  78.0633229  74.0083416 108.6639529
  82.4939441  72.1051673 114.9686075  81.7726026  72.7187641 114.8293548
  83.2832696  72.6409438 114.8902721  80.6933035  71.7109774 109.1097852
  80.3645741  70.8307153 108.9272958  81.0472406  71.6557443 109.9974241
  83.8074858  71.9982744 109.4773329  84.1470931  72.5268665 108.7551938
  84.2546979  72.3363150 110.2531896  86.5018299  70.3819795 118.9276397
  86.1615120  69.5827608 119.3297077  85.7957305  70.6821505 118.3553231
  87.1534771  67.4669107 117.3803720  87.9760840  66.9929585 117.2582611
  87.3972834  68.2459591 117.8802407  85.7943005  70.4957366 107.6766622
  86.5151368  70.8738618 107.1730339  85.1708310  71.2146242 107.7801600
  89.9374128  71.2002514 108.6124954  90.1537743  72.0827152 108.3113783
  89.4568195  70.8088728 107.8830596  84.6773350  74.1588228 115.1895699
  84.5317930  74.4728531 116.0819980  84.1998553  74.7773128 114.6366598
  86.5369733  71.1490776 115.2376589  86.5231301  70.2531869 114.9008886
  87.2542161  71.1561439 115.8714875  88.3895863  71.5828116 117.2829716
  88.1313641  72.5045187 117.2814046  87.8580904  71.1858550 117.9730180
  79.1519012  76.6993572 118.1283360  78.6072480  77.4753380 118.2603634
  80.0298362  77.0464377 117.9702482  85.9406629  70.0305156 110.5064159
  86.0622540  69.1021802 110.7055046  85.6508671  70.0443842 109.5942474
  88.8097819  67.7160066 113.6430879  88.8319516  67.7799399 112.6882858
  89.2265878  66.8764575 113.8371385  94.3217225  84.0045667 107.1616700
  95.0168129  84.6252360 107.3804014  94.6640375  83.1541019 107.4369078
  96.2208648  81.4545373 108.6904030  96.7459972  81.7932646 107.9653350
  96.1331000  80.5192388 108.5067165  80.3841647  83.7128897 113.0523912
  81.2099667  83.4132669 112.6722555  80.0335699  82.9436520 113.5013700
  78.5850252  81.6315224 114.0112845  77.7482161  81.2037398 113.8296846
  78.5573898  81.8247667 114.9483636  84.9136687  81.6159289 108.5980046
  85.0624808  82.2994753 107.9446719  85.7203131  81.5964379 109.1129502
  82.6689320  77.6424466 109.6041115  82.4235362  76.7386796 109.8021325
  82.8385235  77.6441617 108.6620593  90.3586030  68.5148143 118.9865870
  90.8767974  69.2509170 118.6612359  90.0041163  68.8212136 119.8212629
  81.9384968  73.3752824 107.1027276  81.2454213  73.4497179 106.4467312
  81.6936720  72.6113168 107.6248793  90.6098625  64.9348425 114.5066767
  90.8900378  64.2671614 115.1327193  91.3949231  65.1277521 113.9941431
  88.4132093  84.1107419 106.0691793  87.8406060  84.7297606 105.6162265
  88.9864887  84.6606781 106.6031715  91.6329353  84.3944569 107.2000375
  92.5660026  84.3290131 107.4033251  91.5452566  85.2300836 106.7414908
  94.2617369  83.7110440 104.1604323  94.1831001  83.3770303 105.0540081
  95.0827036  84.2032207 104.1595795  88.7978892  75.4468232 103.4107846
  89.7437996  75.3174440 103.4796264  88.4193136  74.7082894 103.8877274
  94.7700776  67.1124238 113.3734738  94.5725597  66.8039326 114.2578069
  95.3800482  67.8385877 113.5032667  86.9821809  73.3718208 103.3462731
  86.0753264  73.0751321 103.4225445  87.2597790  73.0748026 102.4797017
  77.8999749  74.6924572 113.7961777  77.5802533  73.8389880 113.5036151
  77.3533177  74.9073150 114.5519745  81.6779657  77.4087013 117.5131284
  81.8965666  78.3404120 117.5319318  82.0905430  77.0494987 118.2986088
  88.5983874  67.9155098 109.5006972  87.7884603  67.5702183 109.8762218
  89.2868291  67.6062642 110.0894584  90.5274423  66.9933145 111.1231269
  91.0805461  67.4128598 111.7821292  90.7644509  66.0668893 111.1654225
  85.7520593  70.2305143 103.4874710  86.6139757  70.5560042 103.7470527
  85.9370937  69.4436639 102.9747776  77.7688009  78.3127483 115.7654899
  77.0751480  77.8981436 115.2524853  78.5161000  78.3548020 115.1688318
  93.9053230  69.1033670 110.6309933  93.3251899  69.7618474 110.2487986
  93.6389162  68.2811015 110.2197351  92.3556796  68.5038728 112.8331253
  92.8556575  68.6155262 112.0245572  92.9992404  68.1999780 113.4732062
  79.6824752  78.2445737 113.6420914  79.6595440  78.3433424 112.6902797
  79.9925388  79.0910888 113.9638080  92.6878108  71.2633760 109.6866281
  91.8003963  71.5483411 109.4686476  93.1032097  71.1027524 108.8393558
  96.0392644  71.2880281 113.4020621  96.8153034  71.7776734 113.6745237
  95.3140778  71.7138335 113.8592490  98.4765203  72.0007901 114.4594561
  99.0709693  71.7603636 113.7487869  98.5491786  71.2815031 115.0868098
  91.8321321  81.0278435 103.7814301  92.5357171  81.2328437 104.3971957
  91.1083970  81.5955197 104.0463385  92.6619132  76.7788296 109.9016572
  92.6054333  77.2356848 109.0624204  93.2147474  76.0178981 109.7239414
  96.4723937  72.5678028 110.7266691  96.2160872  72.1674664 111.5574899
  95.8476805  73.2821822 110.6016830  93.7408019  81.4660964 105.8312761
  94.5753623  81.0342163 105.6490236  93.5792362  81.2942978 106.7589656
  93.3953911  77.9693077 107.1969101  93.3402715  77.8037349 106.2557545
  92.7699966  78.6769110 107.3531290  78.1846426  73.2061142 121.0230523
  78.8305289  72.6960096 121.5117748  77.9763577  73.9429824 121.5973948
  86.7050036  67.4701186 106.7754419  86.6928706  68.4143026 106.9322690
  87.5973458  67.2871332 106.4813880  90.5202156  64.0643963 111.0300356
  89.7534552  63.5102450 111.1757038  90.9312861  64.1365832 111.8914508
  95.2021874  87.9198511 106.3447714  94.3659186  88.2573198 106.6656989
  95.0626644  87.7847491 105.4074851  95.0760254  87.7645739 103.5445621
  94.1989721  87.6434540 103.1807867  95.5518007  86.9731817 103.2924509
  92.7778723  88.7044742 107.1027276  92.0847967  88.7789097 106.4467312
  92.5330474  87.9405085 107.6248793  97.8215563  88.7010126 103.3462731
  96.9147019  88.4043239 103.4225445  98.0991544  88.4039944 102.4797017
  96.5914348  85.5597061 103.4874710  97.4533512  85.8851959 103.7470527
  96.7764692  84.7728557 102.9747776  97.5443791  82.7993104 106.7754419
  97.5322461  83.7434944 106.9322690  98.4367213  82.6163250 106.4813880
  46.9985467   2.1154636  92.6122183  46.3247166   2.4186333  93.2207141
  47.3851289   2.9183716  92.2627640  49.0892937  -6.0937151  91.1469623
  48.4722108  -6.8190323  91.0502676  48.6209426  -5.3327791  90.8036697
  50.9642208  -0.3059881  93.8862006  51.6593112   0.3146812  94.1049321
  51.3065358  -1.1564529  94.1614384  45.0557076  -0.1998129  92.7937100
  44.4831043   0.4192058  92.3407572  45.6289870   0.3501233  93.3277022
  48.2754336   0.0839021  93.9245682  49.2085009   0.0184583  94.1278558
  48.1877549   0.9195288  93.4660215  50.9042353  -0.5995109  90.8849630
  50.8255984  -0.9335245  91.7785388  51.7252020  -0.1073341  90.8841102
  48.4746305  -3.2827113  90.5059608  49.1782155  -3.0777111  91.1217264
  47.7508953  -2.7150351  90.7708692  50.3833002  -2.8444584  92.5558068
  51.2178606  -3.2763385  92.3735543  50.2217345  -3.0162570  93.4834963
  59.0117277   7.6725067 102.6513245  59.6495687   7.5531815 101.9476585
  58.8938120   8.6205911 102.7101197  55.8206983   7.6252495 102.5874770
  55.4825495   7.5093560 101.6995304  56.6896752   7.2243660 102.5675776
  51.6793799   9.4787972  98.5771660  51.1158664   9.3877909  97.8087948
  51.5646194   8.6587876  99.0574153  57.2593358  13.1458939  93.8886125
  56.6081338  13.7313020  93.5020139  58.0537721  13.6765134  93.9481163
  51.1848985  10.2348077  94.2873260  51.9579861   9.6877064  94.1486136
  51.5374384  11.0992326  94.4987721  53.5215263   6.3940743  91.9191710
  53.7740783   5.8722264  91.1575173  52.5839822   6.2306888  92.0218393
  58.5658546   5.3976521  99.7266453  59.3521635   4.9795944  99.3756870
  58.8297250   6.3022613  99.8948101  58.7368623  10.8349371  94.4255110
  58.1014456  10.9083998  95.1376014  58.4066029  11.4242970  93.7474189
  63.9666973   5.3351754 100.6299431  64.6992145   4.7650971 100.8637261
  63.2106328   4.9473355 101.0705937  53.2411551   8.2968849  94.1216085
  53.1247810   7.6213752  94.7897169  53.3513811   7.8101223  93.3048238
  55.5843092   7.7578996  97.8262774  55.2201300   7.2309617  98.5375695
  56.4410208   7.3677465  97.6529259  55.2248579   2.7868895  92.8224122
  55.3922982   3.6549132  93.1894593  55.0345748   2.9496177  91.8985412
  57.9823913  11.2485874 104.4889953  57.6824636  12.1510913 104.3805760
  57.6374972  10.9818058 105.3411106  61.3821056   3.7668415 102.1687390
  60.4737934   3.6983823 101.8746151  61.3308652   4.2440359 102.9969216
  55.2037800   5.2426553  93.8070789  55.0837425   5.6883604  94.6456269
  54.5090389   5.5911871  93.2484327  52.9644692  18.0130195  97.4560920
  52.8868722  18.9638020  97.5349401  52.3606336  17.6676067  98.1135847
  60.9022866   5.7148026  94.6351123  61.8140723   5.9475413  94.4598821
  60.3932513   6.2985070  94.0726202  59.5092449  10.6973845 102.0264705
  58.8801311  10.8619559 101.3240773  59.1218111  11.1115454 102.7975669
  63.3881681  11.6328282  99.3809068  62.7032719  12.0127184  98.8306102
  63.4725530  12.2423609 100.1141016  55.0620411  10.4348253  99.2914790
  55.5258756  10.7135956  98.5019412  54.7977209   9.5331697  99.1087880
  53.9989297   6.5571405  96.1004355  54.7013340   7.0092449  96.5678281
  53.6669925   5.9155224  96.7284248  61.7578440  12.1560197 104.1526769
  62.5795884  11.7540384 103.8709451  61.7540843  12.0528431 105.1042885
  69.8484433   8.4998945 100.5011741  69.0948142   7.9306343 100.3455745
  69.9831974   8.4661610 101.4482375  55.2383061  13.3712348  96.1766460
  55.1028736  14.2163883  96.6051308  55.7792874  13.5731625  95.4132394
  48.6912459  10.8887786  96.7494385  49.2036979  11.6831036  96.8999950
  49.3435171  10.1914076  96.6827987  50.5007343  14.0053542  98.8317138
  50.6773972  14.9271507  98.6438122  51.2964177  13.6911961  99.2611518
  51.6238659  15.5231716 104.8327481  52.1746084  15.3948779 104.0604475
  50.7850135  15.8226605 104.4822374  46.6561375   9.2176440  97.5253956
  47.4936597   9.6273448  97.3087663  46.8339643   8.2775882  97.4954150
  58.5525808   6.8851521  93.2137789  58.0372431   7.6556125  93.4526176
  58.2803116   6.2116657  93.8370850  56.1372919   1.7301221  98.2723027
  55.2814515   1.3408072  98.0928666  56.5499870   1.8093182  97.4122813
  63.5260082   9.6383875  95.1490962  62.7489524   9.2995035  94.7046124
  64.2051563   9.6436498  94.4745927  58.3412111   4.7578613  95.0397570
  58.0362246   5.0724762  95.8907713  59.2942553   4.8360033  95.0824903
  56.7858543  10.9168836  96.6890524  56.2579904  10.1821596  96.3763761
  56.2846045  11.6943512  96.4430492  61.7651389   9.1117857 101.8057570
  61.1075063   9.8017118 101.8937699  62.5691788   9.5014288 102.1491557
  60.5756847   7.4662229  99.8561512  61.0888729   8.0992221 100.3583222
  61.2258071   6.8663425  99.4904872  51.8446857   3.6092963  93.0693021
  51.0084170   3.9467650  93.3902295  51.7051627   3.4741943  92.1320158
  54.9311143   8.7349046  89.6925497  54.0238204   8.5038300  89.8916646
  55.4282175   7.9386666  89.8799478  57.8379222  17.4446553  92.6122183
  57.1640920  17.7478250  93.2207141  58.2245044  18.2475634  92.2627640
  57.8372726   6.3403100  97.2322533  58.5844545   6.8524498  96.9229655
  58.1064316   6.0187153  98.0926926  56.1099376   8.8361641  94.2149487
  55.2010595   8.5520674  94.3121957  56.1394460   9.2560720  93.3552794
  61.3418644  12.4468231  97.9840655  60.8880971  11.6059141  98.0405845
  60.7112610  13.0829629  98.3215435  60.2851563   3.3760217  99.2141322
  59.5474320   2.8637603  99.5451565  60.5378337   2.9360598  98.4024599
  59.7851583  14.2844727  98.9190473  60.0774557  14.8449784  98.2002838
  60.2950203  14.5773288  99.6743632  54.6584270   6.4490262 100.3159282
  54.7132880   5.4964098 100.2401759  53.8475472   6.6049701 100.8000581
  55.8075464  10.3770385  91.5537566  55.3694894   9.6606244  91.0943203
  56.5485905  10.6046500  90.9922657  52.5976630   5.0667322  98.0749661
  51.7844496   5.3661492  98.4814853  53.0935624   4.6723010  98.7924143
  54.7485208  15.0625078 100.0083926  54.7061387  15.2885925  99.0792458
  55.6647907  14.8288453 100.1569727  63.9248579   8.6527582  97.6113884
  63.7866477   8.8429178  96.6835073  63.5684798   9.4146965  98.0681935
  63.9517958  10.7204109 102.6225156  64.3854465  10.6279398 103.4708210
  64.6649539  10.6961609 101.9845172  52.8651009  11.9388107  99.8045889
  53.6591607  11.4438428  99.6028464  52.1542701  11.4105971  99.4413594
  57.6845853  14.3206203 104.1558256  57.7382876  14.8897139 104.9235972
  56.8160635  14.4908088 103.7912293  49.1733772   6.0831189  95.8805641
  48.2431360   6.0215645  96.0975603  49.2691244   5.5607142  95.0842283
  64.8133508  10.7627810 105.1558041  65.0069398  11.6673620 105.4017316
  64.7134126  10.3035229 105.9896626  55.4422285  12.5117129 103.4843726
  55.3033371  12.1435914 104.3569664  54.6536881  13.0264769 103.3127684
  56.0370437  17.6126226  94.8269262  56.2122192  17.1414269  95.6414885
  55.3503225  18.2391992  95.0550523  56.9927500  11.8898732 100.8732564
  56.6577333  11.8499502 101.7690213  56.4931446  11.2243448 100.4002974
  59.9286692   9.2354766  91.1469623  59.3115862   8.5101595  91.0502676
  59.4603180   9.9964127  90.8036697  50.6031522  20.7615589 101.6009122
  50.8428120  21.3934113 102.2788141  49.7600719  20.4103629 101.8874482
  51.7185238   3.4540191  90.2690927  50.8414704   3.3328992  89.9053174
  52.1942991   2.6626269  90.0169816  55.1159384  16.5694711 104.0050626
  55.0429555  17.3749683 104.5169931  54.6736777  16.7686677 103.1798648
  54.9049164  15.8066481  97.5153448  54.1216685  16.3488161  97.6091672
  55.6041909  16.3240461  97.9147689  58.2145814   1.6161111 100.1587653
  58.7114513   0.8631073  99.8388724  57.4432795   1.6525427  99.5930863
  66.0675571   7.3201476 101.8005945  66.0565447   8.2026192 101.4299878
  65.1992951   6.9673027 101.6060482  57.5758067  16.4681545 106.1608785
  58.2886040  17.1029010 106.0884687  57.0848096  16.5645411 105.3448787
  59.2975594  10.3732798  97.7326077  58.3631873  10.4934260  97.5630781
  59.4752263   9.4705265  97.4686087  62.6848146   6.2150117  98.2676111
  63.1508598   7.0478109  98.1936414  63.1355646   5.7495099  98.9721369
  60.7524377  12.5593938  95.2662263  61.0284221  12.4450533  96.1756137
  59.8828876  12.1611423  95.2274436  57.3878441  16.8080289  98.9095077
  57.5700835  15.9901945  99.3722829  58.2111427  17.0247981  98.4719967
  57.7220606  15.7348474  96.1710125  58.2508373  15.2240929  95.5580287
  57.9848826  15.4191005  97.0355658  51.0776354  16.7863591  98.9307901
  50.4086730  17.2709719  98.4471941  50.9389224  17.0332811  99.8451279
  55.2181623  18.8207335 105.5290559  55.7699931  18.9838956 106.2939645
  55.5587816  19.4111772 104.8570584  46.4463931   5.0482046  95.7103833
  46.7417372   4.1392724  95.6570887  45.5451967   5.0269785  95.3884835
  58.3550010  16.7689310 102.5154241  58.2301150  15.9679050 102.0065187
  59.0129101  17.2635503 102.0268211  60.4184919  14.5698330 104.1433792
  59.4715254  14.4503681 104.0712118  60.7667692  13.6820828 104.2260053
  48.1751773   2.7296144  95.8343158  47.8464479   1.8493523  95.6518264
  48.5291144   2.6743812  96.7219547  57.4231352  14.3651046 100.3438144
  57.2756314  13.4367754 100.5245714  58.2484845  14.3871137  99.8595219
  51.2893596   3.0169113  96.2018636  51.6289669   3.5455035  95.4797244
  51.7365717   3.3549520  96.9777202  61.0265474  15.1879605 101.4303017
  61.9512021  14.9822466 101.2927468  60.8580777  14.9396006 102.3392358
  53.2761743   1.5143735  94.4011929  53.9970106   1.8924988  93.8975646
  52.6527047   2.2332612  94.5046907  57.4192866   2.2188884  95.3370261
  57.6356481   3.1013522  95.0359089  56.9386933   1.8275097  94.6075903
  60.8160790  15.7065273  96.7865108  60.9897667  15.1411695  96.0338960
  61.3089681  16.5066167  96.6044598  53.4225366   1.0491526  97.2309465
  53.5441278   0.1208172  97.4300353  53.1327409   1.0630212  96.3187781
  66.6700181   8.4701696  98.4055408  67.1131327   7.7209021  98.0074531
  65.7926691   8.4611832  98.0229140  61.8035962  15.0232037  93.8862006
  62.4986867  15.6438730  94.1049321  62.1459112  14.1727388  94.1614384
  63.7027385  12.4731743  95.4149337  64.2278710  12.8119015  94.6898657
  63.6149738  11.5378758  95.2312472  55.3868046  18.5403726  99.7744590
  54.9473037  18.0480104 100.4677447  56.1376163  17.9976693  99.5336665
  47.8660385  14.7315267  99.7769218  48.6918405  14.4319039  99.3967862
  47.5154437  13.9622889 100.2259007  52.8341918  14.0841735 101.8466892
  52.2121928  13.4212440 101.5469120  53.5046785  14.1102867 101.1640540
  46.0668990  12.6501593 100.7358152  45.2300899  12.2223767 100.5542153
  46.0392636  12.8434036 101.6728943  52.3955425  12.6345658  95.3225352
  52.5443546  13.3181123  94.6692025  53.2021869  12.6150748  95.8374808
  65.0137363  12.3754054 108.2775285  64.7222172  12.7384035 109.1138746
  64.4009495  11.6621062 108.0988617  66.2133046   9.9406934 100.7977855
  67.0479937  10.3796738 100.9615416  66.3492175   9.4645587  99.9786101
  50.1508058   8.6610836  96.3286421  49.9054100   7.7573166  96.5266631
  50.3203973   8.6627986  95.3865899  49.4203706   4.3939193  93.8272583
  48.7272951   4.4683548  93.1712619  49.1755458   3.6299537  94.3494100
  55.8950831  15.1293789  92.7937100  55.3224798  15.7483976  92.3407572
  56.4683624  15.6793150  93.3277022  59.1148091  15.4130939  93.9245682
  60.0478764  15.3476500  94.1278558  59.0271303  16.2487206  93.4660215
  61.7436107  14.7296809  90.8849630  61.6649739  14.3956673  91.7785388
  62.5645774  15.2218577  90.8841102  64.4414298   7.5958548 104.0925948
  64.4090619   6.6574549 104.2785632  65.0514922   7.6742585 103.3591773
  56.2797629   6.4654601  90.1353152  57.2256734   6.3360810  90.2041570
  55.9011874   5.7269263  90.6122581  70.2590848   8.6574555 103.2331985
  70.9894237   8.3959843 103.7939688  69.6497794   7.9203277 103.2734053
  68.3406145   6.7982418 103.8306436  67.6139309   6.6638383 103.2222928
  67.9253432   7.1059246 104.6363154  54.4640546   4.3904578  90.0708038
  53.5572002   4.0937691  90.1470751  54.7416527   4.0934396  89.2042324
  56.0802612  -1.0658532  96.2252279  55.2703341  -1.4111448  96.6007525
  56.7687029  -1.3750989  96.8139890  53.2339331   1.2491513  90.2120017
  54.0958495   1.5746411  90.4715834  53.4189675   0.4623009  89.6993083
  61.3871968   0.1220039  97.3555240  60.8070637   0.7804844  96.9733292
  61.1207900  -0.7002616  96.9442657  60.1696846   2.2820130  96.4111588
  59.2822701   2.5669780  96.1931783  60.5850835   2.1213893  95.5638865
  63.5211382   2.3066651 100.1265927  64.2971772   2.7963103 100.3990544
  62.7959516   2.7324705 100.5837797  65.9583940   3.0194270 101.1839868
  66.5528431   2.7790006 100.4733176  66.0310524   2.3001401 101.8113404
  48.1781096  16.8627881 101.4983033  48.0435564  16.1028282 100.9321031
  47.7613158  17.5868781 101.0311822  59.3140059  12.0464805  90.5059608
  60.0175909  12.2514807  91.1217264  58.5902708  12.6141566  90.7708692
  60.1437869   7.7974666  96.6261878  60.0873071   8.2543217  95.7869511
  60.6966212   7.0365350  96.4484721  63.9542675   3.5864398  97.4511998
  63.6979609   3.1861033  98.2820205  63.3295543   4.3008192  97.3262137
  68.2655013   6.3260471  99.9583289  67.7054571   6.3953660 100.7314851
  67.6598516   6.1501456  99.2382785  51.3350222  17.7597198 101.7101475
  51.2182606  18.7042631 101.6080166  50.5142668  17.4570760 102.0987275
  61.2226756  12.4847334  92.5558068  62.0572360  12.0528532  92.3735543
  61.0611099  12.3129347  93.4834963  60.8772649   8.9879447  93.9214407
  60.8221452   8.8223718  92.9802851  60.2518704   9.6955480  94.0776597
  54.1868774  -1.5112444  93.4999726  54.1747444  -0.5670604  93.6567997
  55.0792196  -1.6942299  93.2059187  52.3604736  18.4125460 104.9257404
  53.2631983  18.4449070 105.2423899  52.1342106  17.4825911 104.9403740
  54.1158338  17.1656446 101.5867482  53.1653969  17.1658308 101.4731855
  54.4190824  16.4189181 101.0703517  69.8511032  23.0016985 102.6513245
  70.4889442  22.8823732 101.9476585  69.7331874  23.9497829 102.7101197
  66.6600738  22.9544413 102.5874770  66.3219249  22.8385478 101.6995304
  67.5290506  22.5535578 102.5675776  62.5187554  24.8079889  98.5771660
  61.9552419  24.7169826  97.8087948  62.4039949  23.9879794  99.0574153
  67.1420521  24.1079265 108.5460975  67.1309162  23.7132063 107.6741479
  67.3041160  23.3745337 109.1394747  60.0651985  26.3031081 101.4155881
  60.8573277  25.9621906 101.0002180  60.3048636  26.4126056 102.3358034
  68.0987112  28.4750857  93.8886125  67.4475092  29.0604937  93.5020139
  68.8931475  29.0057052  93.9481163  62.0242739  25.5639994  94.2873260
  62.7973615  25.0168981  94.1486136  62.3768138  26.4284244  94.4987721
  63.8627782  26.8916376 107.4940159  63.5717648  27.7962007 107.3786825
  64.4984766  26.9332904 108.2084229  64.7883989  24.2693225 104.0841519
  65.3847561  24.0449247 103.3698482  64.8458960  23.5277970 104.6866967
  64.3609017  21.7232660  91.9191710  64.6134538  21.2014182  91.1575173
  63.4233576  21.5598806  92.0218393  69.4052300  20.7268439  99.7266453
  70.1915389  20.3087862  99.3756870  69.6691004  21.6314531  99.8948101
  69.5762377  26.1641289  94.4255110  68.9408210  26.2375916  95.1376014
  69.2459784  26.7534888  93.7474189  74.8060727  20.6643672 100.6299431
  75.5385899  20.0942889 100.8637261  74.0500083  20.2765272 101.0705937
  64.0805306  23.6260766  94.1216085  63.9641564  22.9505670  94.7897169
  64.1907566  23.1393140  93.3048238  66.4236847  23.0870913  97.8262774
  66.0595054  22.5601534  98.5375695  67.2803963  22.6969382  97.6529259
  72.3286148  14.3765246 105.0894040  71.9969472  15.2460657 104.8655255
  71.7331761  14.0601530 105.7688070  66.0642334  18.1160813  92.8224122
  66.2316736  18.9841050  93.1894593  65.8739503  18.2788095  91.8985412
  68.8217667  26.5777792 104.4889953  68.5218390  27.4802831 104.3805760
  68.4768727  26.3109975 105.3411106  62.2730149  23.0291589 100.5226657
  61.3480645  22.8967803 100.7304349  62.5214562  23.8085808 101.0196600
  72.2214811  19.0960332 102.1687390  71.3131688  19.0275741 101.8746151
  72.1702407  19.5732277 102.9969216  66.0431555  20.5718471  93.8070789
  65.9231180  21.0175521  94.6456269  65.3484143  20.9203788  93.2484327
  59.6338960  22.6724862 101.3570446  59.7631341  22.9259341 102.2709858
  58.9536411  23.2652570 101.0375101  63.8038447  33.3422112  97.4560920
  63.7262477  34.2929937  97.5349401  63.2000090  32.9967985  98.1135847
  66.2955677  20.5149978 110.1122287  65.5189011  21.0743898 110.1025152
  66.9346240  21.0006761 110.6337157  74.0876457  17.2976771 103.9465264
  73.4450837  17.5909304 103.3005059  73.5831386  17.1829691 104.7518461
  71.7416621  21.0439944  94.6351123  72.6534477  21.2767331  94.4598821
  71.2326268  21.6276988  94.0726202  64.5502049  23.3235431 109.6740254
  65.2916733  23.8620475 109.3975078  63.8439034  23.9501720 109.8311806
  70.0257389  25.4664572 108.2712416  70.4340745  25.0246982 107.5267048
  69.3034650  24.8917199 108.5246609  66.3788459  20.4037178 105.6445973
  67.2249654  20.8276592 105.7880622  66.3187096  19.7470803 106.3384536
  70.3486203  26.0265762 102.0264705  69.7195066  26.1911476 101.3240773
  69.9611865  26.4407372 102.7975669  74.2275435  26.9620200  99.3809068
  73.5426473  27.3419101  98.8306102  74.3119284  27.5715527 100.1141016
  69.5287904  18.0641547 107.3027146  69.2848836  18.8183607 106.7661422
  69.8047834  18.4426894 108.1374393  71.4826367  24.6080159 105.9804412
  71.6943262  25.2511919 105.3038793  71.4356115  23.7742476 105.5126342
  69.0852596  17.2197980 102.8840984  68.2237075  17.5179233 103.1757722
  69.1115030  17.4368379 101.9522017  65.9014165  25.7640170  99.2914790
  66.3652511  26.0427873  98.5019412  65.6370963  24.8623615  99.1087880
  62.7938246  25.3111652 102.2294553  63.3639603  25.7398920 101.5912038
  63.3846358  25.0294237 102.9278739  64.8383051  21.8863323  96.1004355
  65.5407094  22.3384366  96.5678281  64.5063680  21.2447142  96.7284248
  63.2863413  20.4775079 110.4755564  62.6562073  21.1591360 110.7090961
  63.1799501  20.3658161 109.5308703  58.5808385  20.1446875 101.4021488
  57.7907439  20.4004404 100.9261599  59.0719632  20.9595213 101.5073529
  72.5972195  27.4852115 104.1526769  73.4189638  27.0832302 103.8709451
  72.5934598  27.3820349 105.1042885  60.5323130  20.5091455  98.3604965
  59.7354294  20.6210149  98.8788461  60.3048723  20.8478107  97.4945856
  66.3628798  27.0336158 106.3087480  66.4273231  27.4956565 107.1445652
  65.6539722  26.4033523 106.4369790  56.8646088  20.3977366 103.8336479
  57.1154126  21.2824376 104.0994055  57.4005636  20.2181967 103.0611571
  80.6878188  23.8290863 100.5011741  79.9341896  23.2598261 100.3455745
  80.8225729  23.7953528 101.4482375  66.0776816  28.7004265  96.1766460
  65.9422491  29.5455801  96.6051308  66.6186628  28.9023543  95.4132394
  59.5306213  26.2179703  96.7494385  60.0430734  27.0122954  96.8999950
  60.1828926  25.5205994  96.6827987  61.3401098  29.3345460  98.8317138
  61.5167726  30.2563424  98.6438122  62.1357931  29.0203879  99.2611518
  65.4812116  16.1953724 110.4301072  66.2221830  16.7960877 110.3505534
  65.7130039  15.4531362 109.8719114  60.6253454  21.3810092 108.7079302
  60.5106970  20.4795349 109.0086401  59.7697972  21.6273788 108.3564118
  67.7045292  29.3227832 110.3066802  67.2609146  28.5364210 109.9887707
  68.3662506  29.5106982 109.6410693  62.4632413  30.8523633 104.8327481
  63.0139838  30.7240697 104.0604475  61.6243889  31.1518522 104.4822374
  69.8026530  29.6030632 108.3348203  69.7845006  30.4239513 107.8428473
  70.7246450  29.4784707 108.5598345  66.2599584  27.1174761 109.1771712
  66.7927921  26.3563049 108.9471020  65.7313665  26.8248413 109.9195866
  69.4269279  12.2234827 104.7065354  69.0833549  13.1136469 104.6304464
  69.7948242  12.0336485 103.8434939  57.4955130  24.5468358  97.5253956
  58.3330352  24.9565366  97.3087663  57.6733398  23.6067800  97.4954150
  69.3919562  22.2143438  93.2137789  68.8766185  22.9848043  93.4526176
  69.1196870  21.5408574  93.8370850  66.9766673  17.0593139  98.2723027
  66.1208269  16.6699989  98.0928666  67.3893625  17.1385100  97.4122813
  68.5065820  14.5939482 102.6714587  68.0030615  14.5569618 101.8582392
  68.7996427  15.5032225 102.7311244  64.7508706  14.6778212 101.6780769
  65.6161702  14.4821021 101.3186658  64.8186215  14.4488564 102.6050125
  74.3653836  24.9675793  95.1490962  73.5883279  24.6286952  94.7046124
  75.0445317  24.9728416  94.4745927  69.1805865  20.0870530  95.0397570
  68.8756001  20.4016680  95.8907713  70.1336307  20.1651950  95.0824903
  67.6252297  26.2460754  96.6890524  67.0973659  25.5113513  96.3763761
  67.1239800  27.0235430  96.4430492  72.6045143  24.4409774 101.8057570
  71.9468818  25.1309036 101.8937699  73.4085542  24.8306206 102.1491557
  62.3571025  16.9080420  99.0497135  62.9314777  16.6855601  98.3170328
  62.9442007  16.9769115  99.8025737  71.4150602  22.7954147  99.8561512
  71.9282484  23.4284139 100.3583222  72.0651826  22.1955342  99.4904872
  62.6840612  18.9384881  93.0693021  61.8477924  19.2759568  93.3902295
  62.5445381  18.8033861  92.1320158  64.6593692  13.7821669  97.7772205
  64.0058105  13.4670686  97.1528820  64.6174167  13.1597409  98.5032028
  65.7704897  24.0640964  89.6925497  64.8631959  23.8330217  89.8916646
  66.2675929  23.2678583  89.8799478  68.6772976  32.7738471  92.6122183
  68.0034675  33.0770168  93.2207141  69.0638798  33.5767552  92.2627640
  67.8931433  20.2703602 102.1019852  66.9753994  20.4918549 101.9441541
  68.3091576  20.3449913 101.2431560  68.6766481  21.6695018  97.2322533
  69.4238299  22.1816415  96.9229655  68.9458070  21.3479071  98.0926926
  66.9493131  24.1653559  94.2149487  66.0404350  23.8812592  94.3121957
  66.9788214  24.5852637  93.3552794  72.1812398  27.7760148  97.9840655
  71.7274725  26.9351058  98.0405845  71.5506365  28.4121547  98.3215435
  71.1245318  18.7052134  99.2141322  70.3868074  18.1929521  99.5451565
  71.3772091  18.2652516  98.4024599  70.6245337  29.6136645  98.9190473
  70.9168312  30.1741702  98.2002838  71.1343958  29.9065206  99.6743632
  71.2256945  11.4828386  99.8083091  71.5315822  10.6225750  99.5209006
  71.9509550  12.0746007  99.6082085  57.5181301  21.8859073  98.1964689
  57.3205701  21.2928434  97.4715756  56.9627965  21.5811283  98.9140628
  65.4978025  21.7782179 100.3159282  65.5526635  20.8256016 100.2401759
  64.6869227  21.9341619 100.8000581  66.6469218  25.7062303  91.5537566
  66.2088648  24.9898161  91.0943203  67.3879659  25.9338417  90.9922657
  63.4370385  20.3959239  98.0749661  62.6238250  20.6953410  98.4814853
  63.9329379  20.0014928  98.7924143  65.5878963  30.3916996 100.0083926
  65.5455141  30.6177842  99.0792458  66.5041661  30.1580371 100.1569727
  69.0344596  20.8601064 106.9064555  69.3893984  21.0872537 107.7659021
  69.6816728  21.1919440 106.2841810  74.7642333  23.9819500  97.6113884
  74.6260232  24.1721096  96.6835073  74.4078552  24.7438882  98.0681935
  62.9284459  17.9677595 103.6910896  63.5683839  17.8266354 102.9933859
  62.0961990  17.6812108 103.3149498  74.7911713  26.0496027 102.6225156
  75.2248220  25.9571316 103.4708210  75.5043294  26.0253527 101.9845172
  63.7044763  27.2680025  99.8045889  64.4985362  26.7730345  99.6028464
  62.9936456  26.7397888  99.4413594  68.5239608  29.6498121 104.1558256
  68.5776630  30.2189057 104.9235972  67.6554389  29.8200006 103.7912293
  60.0127527  21.4123107  95.8805641  59.0825115  21.3507562  96.0975603
  60.1084999  20.8899060  95.0842283  59.9313076  17.9377920  98.4683883
  60.1919893  18.8523253  98.3593043  60.7530248  17.4702362  98.6180496
  61.4038001  19.3515677 105.6382707  62.0761055  19.1433039 104.9895356
  60.5767788  19.1537763 105.1987940  75.6527262  26.0919727 105.1558041
  75.8463153  26.9965538 105.4017316  75.5527881  25.6327146 105.9896626
  67.3063573  15.9777618 107.6548368  66.6591488  16.6767567 107.5612845
  68.0764589  16.4113762 108.0224617  70.7142371  26.2426470 110.7298922
  70.5627878  26.0137022 109.8129005  70.7047051  27.1997071 110.7430267
  67.4827708  23.8158383 105.7145188  68.4119768  23.9669542 105.5414155
  67.0618738  23.9042403 104.8593835  66.2816039  27.8409047 103.4843726
  66.1427125  27.4727832 104.3569664  65.4930636  28.3556687 103.3127684
  66.8764191  32.9418144  94.8269262  67.0515947  32.4706187  95.6414885
  66.1896979  33.5683910  95.0550523  67.8321254  27.2190650 100.8732564
  67.4971087  27.1791420 101.7690213  67.3325200  26.5535366 100.4002974
  61.8065498  22.6258280 106.3985145  61.6685296  21.8938519 106.9996684
  62.7170422  22.5367180 106.1169332  70.7680446  24.5646684  91.1469623
  70.1509617  23.8393512  91.0502676  70.2996935  25.3256044  90.8036697
  64.4347799  22.3378239 105.8868824  65.1447418  21.6971431 105.8455443
  64.3917107  22.5891134 106.8095005  72.4234578  29.2745593 108.8075404
  72.3647124  28.5904813 108.1405987  72.8254096  30.0164583 108.3556030
  63.1476733  19.3243457 107.7064464  62.6114090  18.8734196 108.3586060
  62.5593442  19.4589366 106.9634928  61.4425277  36.0907506 101.6009122
  61.6821875  36.7226031 102.2788141  60.5994473  35.7395546 101.8874482
  62.5578992  18.7832108  90.2690927  61.6808458  18.6620909  89.9053174
  63.0336745  17.9918187  90.0169816  72.4251985  27.2385176 107.0389383
  71.5378764  26.9011098 107.1615782  72.9950536  26.5068208 107.2758149
  54.0781132  23.5709268 100.3632435  54.7652172  23.2570998  99.7753450
  53.9229261  24.4750633 100.0899686  58.8815854  18.4599465 104.7917458
  58.7974043  17.8525134 104.0567868  58.0598561  18.9508483 104.7926955
  65.9553138  31.8986629 104.0050626  65.8823310  32.7041600 104.5169931
  65.5130532  32.0978595 103.1798648  65.7442918  31.1358399  97.5153448
  64.9610440  31.6780079  97.6091672  66.4435663  31.6532378  97.9147689
  69.0539568  16.9453028 100.1587653  69.5508268  16.1922991  99.8388724
  68.2826550  16.9817345  99.5930863  76.9069326  22.6493394 101.8005945
  76.8959202  23.5318109 101.4299878  76.0386705  22.2964945 101.6060482
  68.4151822  31.7973463 106.1608785  69.1279794  32.4320928 106.0884687
  67.9241851  31.8937329 105.3448787  70.1369349  25.7024716  97.7326077
  69.2025628  25.8226178  97.5630781  70.3146017  24.7997182  97.4686087
  65.6374537  19.0870411  99.8859338  65.2672324  18.5341452 100.5740244
  66.1333629  18.4828545  99.3334338  73.5241900  21.5442035  98.2676111
  73.9902352  22.3770026  98.1936414  73.9749401  21.0787016  98.9721369
  63.4663735  29.5467906 106.9814356  64.1673195  30.1804389 107.1343750
  62.9958850  29.8882638 106.2209995  71.5918131  27.8885856  95.2662263
  71.8677975  27.7742451  96.1756137  70.7222630  27.4903341  95.2274436
  71.4958563  13.9122622 102.3067012  70.5821643  14.1426849 102.4749219
  71.9251664  13.9961066 103.1581045  71.2665021  22.1012514 104.8066906
  70.6136472  22.3488421 104.1519359  71.6445401  21.2876652 104.4729384
  68.2272195  32.1372207  98.9095077  68.4094590  31.3193863  99.3722829
  69.0505181  32.3539899  98.4719967  68.5614361  31.0640392  96.1710125
  69.0902127  30.5532847  95.5580287  68.8242580  30.7482922  97.0355658
  67.3152594  22.8432325 111.2932943  66.6393231  22.7426454 111.9635319
  68.1380228  22.6871539 111.7568941  59.0631454  29.0804261 103.9145459
  59.6484890  28.3347949 104.0473363  58.8656292  29.3908218 104.7982122
  61.9170109  32.1155509  98.9307901  61.2480484  32.6001636  98.4471941
  61.7782978  32.3624729  99.8451279  53.6549108  21.6509862 102.6349902
  53.6933208  21.1173452 103.4287020  53.1489401  21.1245067 102.0160879
  66.0575377  34.1499252 105.5290559  66.6093685  34.3130874 106.2939645
  66.3981571  34.7403690 104.8570584  61.0339871  16.4974402 106.1312444
  61.0981197  17.3589233 105.7189842  60.9706991  15.8848404 105.3984803
  60.5092143  18.5697535 109.7785478  61.1364182  18.1874612 110.3923003
  59.6520062  18.3511737 110.1441171  70.9086252  28.9760510 111.3839214
  71.4526156  29.5890468 110.8894169  70.3273097  29.5340088 111.9006227
  57.2857686  20.3773964  95.7103833  57.5811127  19.4684642  95.6570887
  56.3845722  20.3561703  95.3884835  69.1943765  32.0981228 102.5154241
  69.0694904  31.2970968 102.0065187  69.8522856  32.5927421 102.0268211
  60.8151933  18.4529960 101.6931382  60.0938519  19.0665928 101.5538855
  61.6045189  18.9887725 101.6148028  71.2578673  29.8990248 104.1433792
  70.3109009  29.7795599 104.0712118  71.6061446  29.0112746 104.2260053
  63.6178246  15.7884387 107.9672033  64.1412648  16.0346683 108.7298343
  63.3990580  16.6204422 107.5475171  59.0145527  18.0588061  95.8343158
  58.6858234  17.1785440  95.6518264  59.3684898  18.0035730  96.7219547
  68.2625106  29.6942964 100.3438144  68.1150069  28.7659671 100.5245714
  69.0878600  29.7163055  99.8595219  62.1287351  18.3461031  96.2018636
  62.4683423  18.8746952  95.4797244  62.5759471  18.6841437  96.9777202
  71.8659228  30.5171523 101.4303017  72.7905776  30.3114384 101.2927468
  71.6974532  30.2687924 102.3392358  64.8230791  16.7298082 105.6521704
  64.4827612  15.9305895 106.0542384  64.1169798  17.0299793 105.0798537
  65.4747263  13.8147394 104.1049027  66.2973333  13.3407873 103.9827917
  65.7185327  14.5937878 104.6047713  64.1155498  16.8435653  94.4011929
  64.8363860  17.2216906  93.8975646  63.4920802  17.5624530  94.5046907
  68.2586621  17.5480802  95.3370261  68.4750235  18.4305440  95.0359089
  67.7780688  17.1567015  94.6075903  62.9985842  20.5066515 101.9141006
  62.8530423  20.8206818 102.8065287  62.5211046  21.1251415 101.3611904
  64.8582225  17.4969063 101.9621895  64.8443794  16.6010156 101.6254193
  65.5754653  17.5039727 102.5960181  66.7108356  17.9306403 104.0075023
  66.4526133  18.8523474 104.0059353  66.1793396  17.5336838 104.6975487
  71.6554544  31.0357190  96.7865108  71.8291422  30.4703613  96.0338960
  72.1483436  31.8358085  96.6044598  57.4731504  23.0471859 104.8528667
  56.9284972  23.8231667 104.9848941  58.3510854  23.3942664 104.6947788
  64.2619121  16.3783443  97.2309465  64.3835032  15.4500089  97.4300353
  63.9721163  16.3922129  96.3187781  67.1310311  14.0638354 100.3676185
  67.1532008  14.1277687  99.4128165  67.5478370  13.2242862 100.5616691
  77.5093936  23.7993613  98.4055408  77.9525082  23.0500938  98.0074531
  76.6320446  23.7903750  98.0229140  72.6429717  30.3523955  93.8862006
  73.3380621  30.9730647  94.1049321  72.9852867  29.5019306  94.1614384
  58.2597526  22.1741756 107.7458824  57.5179262  22.3224391 108.3323454
  57.9390270  22.4350021 106.8825573  74.5421140  27.8023660  95.4149337
  75.0672464  28.1410933  94.6898657  74.4543493  26.8670676  95.2312472
  66.2041189  31.7157734 107.5439214  66.5128315  31.4706881 108.4161913
  67.0016671  31.9204372 107.0558084  66.2261801  33.8695643  99.7744590
  65.7866791  33.3772022 100.4677447  66.9769918  33.3268611  99.5336665
  58.7054140  30.0607184  99.7769218  59.5312160  29.7610956  99.3967862
  58.3548192  29.2914807 100.2259007  63.6735673  29.4133653 101.8466892
  63.0515682  28.7504358 101.5469120  64.3440540  29.4394784 101.1640540
  56.9062745  27.9793511 100.7358152  56.0694653  27.5515685 100.5542153
  56.8786390  28.1725954 101.6728943  63.7460200  17.8915441 111.4399398
  63.7948356  18.7677563 111.0577168  64.2882715  17.3492834 110.8671041
  74.2315046  28.4356564 110.7200535  73.4410590  28.4180703 110.1805034
  73.9948401  28.9744858 111.4749572  74.3512921  25.2849030 108.0333264
  74.4010926  25.1199038 108.9748786  74.2426844  24.4176289 107.6431144
  63.2349180  27.9637576  95.3225352  63.3837300  28.6473040  94.6692025
  64.0415623  27.9442666  95.8374808  71.6416683  21.2679958 109.3492570
  72.5426546  21.1286423 109.0576568  71.7164658  21.4334413 110.2890748
  65.9759489  18.6446813 108.1945757  65.1062798  18.9380379 107.9228345
  66.2118969  19.2287258 108.9153020  75.8531118  27.7045972 108.2775285
  75.5615926  28.0675952 109.1138746  75.2403249  26.9912980 108.0988617
  77.0526800  25.2698852 100.7977855  77.8873692  25.7088656 100.9615416
  77.1885929  24.7937505  99.9786101  74.1018306  22.8278586 106.7455343
  74.5772428  23.0206233 105.9374194  73.1783872  22.8837772 106.4998727
  60.9901813  23.9902754  96.3286421  60.7447855  23.0865084  96.5266631
  61.1597727  23.9919904  95.3865899  68.6798523  14.8626430 105.7111177
  69.1980467  15.5987457 105.3857666  68.3253655  15.1690423 106.5457936
  60.2597460  19.7231111  93.8272583  59.5666705  19.7975466  93.1712619
  60.0149212  18.9591455  94.3494100  68.9311117  11.2826712 101.2312074
  69.2112871  10.6149902 101.8572500  69.7161724  11.4755808 100.7186737
  66.7344585  30.4585706  92.7937100  66.1618552  31.0775893  92.3407572
  67.3077379  31.0085068  93.3277022  72.8019975  19.7044346 104.9783649
  73.7537398  19.8042444 104.9995873  72.6323426  18.9122615 105.4881733
  70.8234355  16.7899930 105.1643050  70.2284287  17.0704942 104.4689538
  70.5384051  17.2793831 105.9359791  69.9541845  30.7422856  93.9245682
  70.8872518  30.6768418  94.1278558  69.8665058  31.5779123  93.4660215
  72.5829862  30.0588727  90.8849630  72.5043493  29.7248590  91.7785388
  73.4039529  30.5510495  90.8841102  75.2808053  22.9250466 104.0925948
  75.2484373  21.9866467 104.2785632  75.8908677  23.0034503 103.3591773
  67.1191384  21.7946519  90.1353152  68.0650489  21.6652727  90.2041570
  66.7405629  21.0561181  90.6122581  75.4302541  19.7161510 104.1384232
  74.9141590  18.9319966 103.9514160  76.3142490  19.3880226 104.3030751
  73.0913268  13.4602525 100.0980044  72.8938089  13.1517613 100.9823376
  73.7012974  14.1864164 100.2277974  81.0984603  23.9866473 103.2331985
  81.8287991  23.7251761 103.7939688  80.4891548  23.2495195 103.2734053
  79.1799900  22.1274336 103.8306436  78.4533063  21.9930300 103.2222928
  78.7647187  22.4351164 104.6363154  67.0030076  25.8464265 111.5953809
  67.9233086  26.0242864 111.7893856  66.9679659  24.9020311 111.4433509
  65.3034301  19.7196495  90.0708038  64.3965756  19.4229608  90.1470751
  65.5810282  19.4226314  89.2042324  56.2212241  21.0402859 100.5207084
  55.9015026  20.1868167 100.2281458  55.6745670  21.2551437 101.2765051
  59.9992149  23.7565300 104.2376591  60.2178159  24.6882408 104.2564624
  60.4117923  23.3973274 105.0231394  66.9196367  14.2633385  96.2252279
  66.1097095  13.9180470  96.6007525  67.6080784  13.9540929  96.8139890
  68.8486915  13.3411432  97.8476576  69.4017954  13.7606885  98.5066599
  69.0857001  12.4147180  97.8899532  64.0733086  16.5783431  90.2120017
  64.9352250  16.9038329  90.4715834  64.2583430  15.7914927  89.6993083
  56.0900501  24.6605770 102.4900206  55.3963973  24.2459723 101.9770160
  56.8373492  24.7026307 101.8933624  72.2265722  15.4511957  97.3555240
  71.6464391  16.1096761  96.9733292  71.9601655  14.6289302  96.9442657
  70.6769288  14.8517015  99.5576560  71.1769067  14.9633549  98.7490879
  71.3204896  14.5478068 100.1977369  64.7351284  22.7595644 112.4444401
  64.2518366  23.5596005 112.6508290  64.8212223  22.7703589 111.4911845
  58.0037244  24.5924024 100.3666220  57.9807932  24.6911711  99.4148104
  58.3137880  25.4389175 100.6883387  60.6624622  26.6500179 104.4812835
  61.6167875  26.6184122 104.4142766  60.4637145  26.1890803 105.2963061
  61.2524004  25.2201295 107.0483633  62.0716893  25.7145374 107.0718470
  61.5260812  24.3033263 107.0201200  71.0090600  17.6112048  96.4111588
  70.1216455  17.8961698  96.1931783  71.4244589  17.4505811  95.5638865
  74.3605136  17.6358569 100.1265927  75.1365526  18.1255021 100.3990544
  73.6353270  18.0616623 100.5837797  76.7977695  18.3486188 101.1839868
  77.3922186  18.1081924 100.4733176  76.8704279  17.6293318 101.8113404
  59.0174851  32.1919799 101.4983033  58.8829318  31.4320200 100.9321031
  58.6006913  32.9160699 101.0311822  70.1533814  27.3756722  90.5059608
  70.8569664  27.5806725  91.1217264  69.4296462  27.9433484  90.7708692
  70.9831624  23.1266583  96.6261878  70.9266825  23.5835135  95.7869511
  71.5359966  22.3657268  96.4484721  74.7936430  18.9156315  97.4511998
  74.5373364  18.5152951  98.2820205  74.1689298  19.6300109  97.3262137
  79.1048768  21.6552389  99.9583289  78.5448326  21.7245578 100.7314851
  78.4992271  21.4793373  99.2382785  62.1743976  33.0889116 101.7101475
  62.0576361  34.0334548 101.6080166  61.3536423  32.7862677 102.0987275
  72.0620511  27.8139251  92.5558068  72.8966115  27.3820450  92.3735543
  71.9004854  27.6421265  93.4834963  71.7166403  24.3171365  93.9214407
  71.6615207  24.1515636  92.9802851  71.0912458  25.0247398  94.0776597
  56.5058918  19.5539429 107.7475830  57.1517782  19.0438383 108.2363055
  56.2976069  20.2908111 108.3219255  69.0312310  26.6220277 113.2467970
  69.9003470  26.7960929 112.8854605  68.5519062  27.4414693 113.1243700
  65.0262529  13.8179474  93.4999726  65.0141198  14.7621314  93.6567997
  65.9185950  13.6349619  93.2059187  63.1998491  33.7417378 104.9257404
  64.1025737  33.7740988 105.2423899  62.9735861  32.8117829 104.9403740
  64.9552093  32.4948364 101.5867482  64.0047724  32.4950226 101.4731855
  65.2584579  31.7481099 101.0703517  68.8414648  10.4122250  97.7545663
  68.0747044   9.8580737  97.9002345  69.2525353  10.4844119  98.6159814
  80.6904786  38.3308903 102.6513245  81.3283196  38.2115650 101.9476585
  80.5725629  39.2789746 102.7101197  77.4994492  38.2836331 102.5874770
  77.1613004  38.1677395 101.6995304  78.3684261  37.8827496 102.5675776
  73.3581308  40.1371807  98.5771660  72.7946173  40.0461744  97.8087948
  73.2433703  39.3171712  99.0574153  77.9814275  39.4371182 108.5460975
  77.9702916  39.0423981 107.6741479  78.1434915  38.7037255 109.1394747
  70.9045740  41.6322999 101.4155881  71.6967032  41.2913823 101.0002180
  71.1442390  41.7417974 102.3358034  78.9380867  43.8042775  93.8886125
  78.2868846  44.3896855  93.5020139  79.7325230  44.3348970  93.9481163
  72.8636494  40.8931912  94.2873260  73.6367370  40.3460899  94.1486136
  73.2161893  41.7576161  94.4987721  74.7021536  42.2208294 107.4940159
  74.4111402  43.1253925 107.3786825  75.3378521  42.2624822 108.2084229
  75.6277743  39.5985143 104.0841519  76.2241316  39.3741165 103.3698482
  75.6852715  38.8569888 104.6866967  75.2002772  37.0524578  91.9191710
  75.4528292  36.5306099  91.1575173  74.2627331  36.8890723  92.0218393
  80.2446055  36.0560356  99.7266453  81.0309144  35.6379780  99.3756870
  80.5084759  36.9606449  99.8948101  80.4156132  41.4933207  94.4255110
  79.7801965  41.5667833  95.1376014  80.0853538  42.0826806  93.7474189
  85.6454482  35.9935590 100.6299431  86.3779654  35.4234806 100.8637261
  84.8893837  35.6057190 101.0705937  74.9199060  38.9552684  94.1216085
  74.8035319  38.2797587  94.7897169  75.0301320  38.4685058  93.3048238
  77.2630601  38.4162831  97.8262774  76.8988809  37.8893452  98.5375695
  78.1197717  38.0261300  97.6529259  83.1679902  29.7057164 105.0894040
  82.8363227  30.5752575 104.8655255  82.5725515  29.3893448 105.7688070
  76.9036088  33.4452731  92.8224122  77.0710491  34.3132967  93.1894593
  76.7133257  33.6080012  91.8985412  79.6611422  41.9069710 104.4889953
  79.3612145  42.8094748 104.3805760  79.3162481  41.6401893 105.3411106
  73.1123903  38.3583507 100.5226657  72.1874399  38.2259721 100.7304349
  73.3608316  39.1377726 101.0196600  83.0608565  34.4252250 102.1687390
  82.1525443  34.3567658 101.8746151  83.0096161  34.9024195 102.9969216
  76.8825309  35.9010388  93.8070789  76.7624934  36.3467439  94.6456269
  76.1877898  36.2495706  93.2484327  70.4732714  38.0016780 101.3570446
  70.6025095  38.2551259 102.2709858  69.7930165  38.5944488 101.0375101
  74.6432201  48.6714030  97.4560920  74.5656231  49.6221855  97.5349401
  74.0393845  48.3259903  98.1135847  77.1349431  35.8441895 110.1122287
  76.3582765  36.4035816 110.1025152  77.7739994  36.3298678 110.6337157
  84.9270212  32.6268688 103.9465264  84.2844592  32.9201221 103.3005059
  84.4225140  32.5121609 104.7518461  82.5810375  36.3731861  94.6351123
  83.4928231  36.6059248  94.4598821  82.0720022  36.9568906  94.0726202
  75.3895803  38.6527349 109.6740254  76.1310488  39.1912393 109.3975078
  74.6832789  39.2793638 109.8311806  80.8651143  40.7956489 108.2712416
  81.2734499  40.3538900 107.5267048  80.1428405  40.2209117 108.5246609
  77.2182213  35.7329096 105.6445973  78.0643408  36.1568510 105.7880622
  77.1580851  35.0762720 106.3384536  81.1879958  41.3557680 102.0264705
  80.5588820  41.5203394 101.3240773  80.8005620  41.7699289 102.7975669
  85.0669190  42.2912118  99.3809068  84.3820228  42.6711019  98.8306102
  85.1513039  42.9007444 100.1141016  80.3681658  33.3933464 107.3027146
  80.1242590  34.1475525 106.7661422  80.6441589  33.7718812 108.1374393
  82.3220121  39.9372077 105.9804412  82.5337016  40.5803837 105.3038793
  82.2749869  39.1034393 105.5126342  79.9246350  32.5489897 102.8840984
  79.0630829  32.8471151 103.1757722  79.9508785  32.7660296 101.9522017
  76.7407920  41.0932088  99.2914790  77.2046265  41.3719791  98.5019412
  76.4764718  40.1915533  99.1087880  73.6332001  40.6403570 102.2294553
  74.2033358  41.0690838 101.5912038  74.2240112  40.3586154 102.9278739
  75.6776806  37.2155240  96.1004355  76.3800849  37.6676284  96.5678281
  75.3457434  36.5739059  96.7284248  74.1257167  35.8066997 110.4755564
  73.4955828  36.4883278 110.7090961  74.0193255  35.6950079 109.5308703
  69.4202140  35.4738793 101.4021488  68.6301194  35.7296322 100.9261599
  69.9113387  36.2887131 101.5073529  83.4365949  42.8144032 104.1526769
  84.2583393  42.4124219 103.8709451  83.4328352  42.7112266 105.1042885
  71.3716885  35.8383372  98.3604965  70.5748048  35.9502067  98.8788461
  71.1442477  36.1770024  97.4945856  77.2022553  42.3628075 106.3087480
  77.2666985  42.8248483 107.1445652  76.4933476  41.7325440 106.4369790
  67.7039843  35.7269283 103.8336479  67.9547881  36.6116293 104.0994055
  68.2399391  35.5473885 103.0611571  91.5271942  39.1582781 100.5011741
  90.7735651  38.5890179 100.3455745  91.6619483  39.1245445 101.4482375
  76.9170570  44.0296183  96.1766460  76.7816245  44.8747719  96.6051308
  77.4580383  44.2315461  95.4132394  73.4037910  30.1087763 112.8380815
  73.0104855  29.5553961 113.5128460  74.2204050  30.4198341 113.2287333
  70.3699968  41.5471621  96.7494385  70.8824488  42.3414871  96.8999950
  71.0222680  40.8497911  96.6827987  72.1794852  44.6637377  98.8317138
  72.3561481  45.5855342  98.6438122  72.9751686  44.3495797  99.2611518
  76.3205871  31.5245642 110.4301072  77.0615584  32.1252795 110.3505534
  76.5523794  30.7823280 109.8719114  71.4647209  36.7102009 108.7079302
  71.3500724  35.8087266 109.0086401  70.6091727  36.9565706 108.3564118
  78.5439047  44.6519749 110.3066802  78.1002901  43.8656128 109.9887707
  79.2056260  44.8398900 109.6410693  73.3026168  46.1815551 104.8327481
  73.8533593  46.0532614 104.0604475  72.4637644  46.4810440 104.4822374
  80.6420285  44.9322549 108.3348203  80.6238760  45.7531430 107.8428473
  81.5640205  44.8076625 108.5598345  77.0993339  42.4466679 109.1771712
  77.6321676  41.6854967 108.9471020  76.5707420  42.1540331 109.9195866
  80.2663034  27.5526745 104.7065354  79.9227303  28.4428387 104.6304464
  80.6341996  27.3628403 103.8434939  68.3348884  39.8760275  97.5253956
  69.1724106  40.2857284  97.3087663  68.5127152  38.9359717  97.4954150
  80.2313317  37.5435356  93.2137789  79.7159940  38.3139961  93.4526176
  79.9590625  36.8700492  93.8370850  77.8160428  32.3885057  98.2723027
  76.9602024  31.9991907  98.0928666  78.2287379  32.4677018  97.4122813
  79.3459574  29.9231400 102.6714587  78.8424370  29.8861535 101.8582392
  79.6390181  30.8324143 102.7311244  75.5902460  30.0070130 101.6780769
  76.4555457  29.8112938 101.3186658  75.6579969  29.7780482 102.6050125
  85.2047591  40.2967711  95.1490962  84.4277033  39.9578870  94.7046124
  85.8839072  40.3020334  94.4745927  80.0199620  35.4162448  95.0397570
  79.7149755  35.7308597  95.8907713  80.9730062  35.4943868  95.0824903
  78.4646052  41.5752671  96.6890524  77.9367413  40.8405431  96.3763761
  77.9633554  42.3527348  96.4430492  83.4438898  39.7701692 101.8057570
  82.7862572  40.4600953 101.8937699  84.2479297  40.1598124 102.1491557
  73.1964779  32.2372338  99.0497135  73.7708531  32.0147519  98.3170328
  73.7835762  32.3061032  99.8025737  82.2544356  38.1246065  99.8561512
  82.7676238  38.7576056 100.3583222  82.9045580  37.5247260  99.4904872
  73.5234366  34.2676799  93.0693021  72.6871679  34.6051485  93.3902295
  73.3839136  34.1325778  92.1320158  75.4987447  29.1113587  97.7772205
  74.8451859  28.7962604  97.1528820  75.4567921  28.4889327  98.5032028
  76.6098652  39.3932882  89.6925497  75.7025713  39.1622135  89.8916646
  77.1069684  38.5970501  89.8799478  79.5166731  48.1030389  92.6122183
  78.8428429  48.4062086  93.2207141  79.9032553  48.9059469  92.2627640
  78.7325187  35.5995520 102.1019852  77.8147749  35.8210467 101.9441541
  79.1485331  35.6741831 101.2431560  79.5160235  36.9986936  97.2322533
  80.2632054  37.5108333  96.9229655  79.7851825  36.6770989  98.0926926
  77.7886885  39.4945477  94.2149487  76.8798104  39.2104509  94.3121957
  77.8181969  39.9144555  93.3552794  83.0206153  43.1052066  97.9840655
  82.5668480  42.2642976  98.0405845  82.3900119  43.7413464  98.3215435
  81.9639072  34.0344052  99.2141322  81.2261829  33.5221438  99.5451565
  82.2165846  33.5944434  98.4024599  81.4639092  44.9428563  98.9190473
  81.7562066  45.5033620  98.2002838  81.9737712  45.2357124  99.6743632
  82.0650699  26.8120304  99.8083091  82.3709576  25.9517667  99.5209006
  82.7903304  27.4037924  99.6082085  68.3575056  37.2150991  98.1964689
  68.1599455  36.6220351  97.4715756  67.8021720  36.9103201  98.9140628
  76.3371779  37.1074097 100.3159282  76.3920389  36.1547934 100.2401759
  75.5262981  37.2633536 100.8000581  77.4862973  41.0354220  91.5537566
  77.0482403  40.3190079  91.0943203  78.2273414  41.2630335  90.9922657
  74.2764139  35.7251157  98.0749661  73.4632005  36.0245327  98.4814853
  74.7723133  35.3306846  98.7924143  76.4272717  45.7208914 100.0083926
  76.3848896  45.9469760  99.0792458  77.3435416  45.4872288 100.1569727
  79.8738351  36.1892981 106.9064555  80.2287739  36.4164454 107.7659021
  80.5210482  36.5211358 106.2841810  85.6036088  39.3111417  97.6113884
  85.4653986  39.5013013  96.6835073  85.2472307  40.0730800  98.0681935
  73.7678214  33.2969512 103.6910896  74.4077593  33.1558271 102.9933859
  72.9355744  33.0104026 103.3149498  85.6305467  41.3787944 102.6225156
  86.0641974  41.2863233 103.4708210  86.3437048  41.3545445 101.9845172
  74.5438518  42.5971943  99.8045889  75.3379116  42.1022263  99.6028464
  73.8330210  42.0689806  99.4413594  79.3633362  44.9790038 104.1558256
  79.4170385  45.5480975 104.9235972  78.4948144  45.1491923 103.7912293
  70.8521281  36.7415025  95.8805641  69.9218869  36.6799480  96.0975603
  70.9478753  36.2190977  95.0842283  70.7706830  33.2669837  98.4683883
  71.0313648  34.1815171  98.3593043  71.5924003  32.7994280  98.6180496
  72.2431756  34.6807595 105.6382707  72.9154809  34.4724957 104.9895356
  71.4161542  34.4829681 105.1987940  86.4921017  41.4211645 105.1558041
  86.6856907  42.3257455 105.4017316  86.3921635  40.9619064 105.9896626
  78.1457328  31.3069535 107.6548368  77.4985243  32.0059485 107.5612845
  78.9158343  31.7405679 108.0224617  81.5536126  41.5718388 110.7298922
  81.4021632  41.3428939 109.8129005  81.5440805  42.5288989 110.7430267
  78.3221462  39.1450300 105.7145188  79.2513522  39.2961460 105.5414155
  77.9012492  39.2334321 104.8593835  77.1209794  43.1700965 103.4843726
  76.9820879  42.8019749 104.3569664  76.3324390  43.6848604 103.3127684
  77.7157946  48.2710061  94.8269262  77.8909701  47.7998104  95.6414885
  77.0290734  48.8975827  95.0550523  78.6715009  42.5482567 100.8732564
  78.3364842  42.5083337 101.7690213  78.1718955  41.8827283 100.4002974
  72.6459253  37.9550198 106.3985145  72.5079051  37.2230436 106.9996684
  73.5564176  37.8659098 106.1169332  81.6074201  39.8938602  91.1469623
  80.9903371  39.1685430  91.0502676  81.1390689  40.6547962  90.8036697
  75.2741554  37.6670157 105.8868824  75.9841172  37.0263349 105.8455443
  75.2310862  37.9183052 106.8095005  83.2628332  44.6037510 108.8075404
  83.2040878  43.9196730 108.1405987  83.6647851  45.3456500 108.3556030
  73.9870488  34.6535375 107.7064464  73.4507845  34.2026113 108.3586060
  73.3987196  34.7881284 106.9634928  72.2819031  51.4199424 101.6009122
  72.5215629  52.0517948 102.2788141  71.4388228  51.0687464 101.8874482
  73.3972747  34.1124026  90.2690927  72.5202213  33.9912827  89.9053174
  73.8730500  33.3210104  90.0169816  83.2645740  42.5677094 107.0389383
  82.3772518  42.2303016 107.1615782  83.8344291  41.8360125 107.2758149
  64.9174887  38.9001186 100.3632435  65.6045926  38.5862916  99.7753450
  64.7623015  39.8042551 100.0899686  69.7209609  33.7891382 104.7917458
  69.6367798  33.1817052 104.0567868  68.8992315  34.2800401 104.7926955
  76.7946893  47.2278546 104.0050626  76.7217064  48.0333518 104.5169931
  76.3524286  47.4270512 103.1798648  76.5836673  46.4650316  97.5153448
  75.8004194  47.0071997  97.6091672  77.2829418  46.9824296  97.9147689
  79.8933323  32.2744946 100.1587653  80.3902022  31.5214908  99.8388724
  79.1220304  32.3109263  99.5930863  87.7463080  37.9785311 101.8005945
  87.7352956  38.8610027 101.4299878  86.8780459  37.6256862 101.6060482
  79.2545576  47.1265380 106.1608785  79.9673549  47.7612845 106.0884687
  78.7635605  47.2229246 105.3448787  80.9763103  41.0316633  97.7326077
  80.0419382  41.1518096  97.5630781  81.1539772  40.1289100  97.4686087
  76.4768291  34.4162329  99.8859338  76.1066079  33.8633369 100.5740244
  76.9727384  33.8120462  99.3334338  84.3635655  36.8733952  98.2676111
  84.8296107  37.7061944  98.1936414  84.8143155  36.4078934  98.9721369
  74.3057490  44.8759824 106.9814356  75.0066949  45.5096307 107.1343750
  73.8352605  45.2174556 106.2209995  82.4311886  43.2177774  95.2662263
  82.7071730  43.1034368  96.1756137  81.5616385  42.8195259  95.2274436
  82.3352317  29.2414539 102.3067012  81.4215397  29.4718766 102.4749219
  82.7645419  29.3252984 103.1581045  82.1058776  37.4304431 104.8066906
  81.4530226  37.6780339 104.1519359  82.4839156  36.6168570 104.4729384
  79.0665950  47.4664125  98.9095077  79.2488344  46.6485781  99.3722829
  79.8898936  47.6831817  98.4719967  79.4008115  46.3932310  96.1710125
  79.9295882  45.8824764  95.5580287  79.6636335  46.0774840  97.0355658
  78.1546349  38.1724242 111.2932943  77.4786986  38.0718372 111.9635319
  78.9773983  38.0163456 111.7568941  69.9025208  44.4096179 103.9145459
  70.4878645  43.6639867 104.0473363  69.7050046  44.7200136 104.7982122
  72.7563863  47.4447426  98.9307901  72.0874239  47.9293554  98.4471941
  72.6176733  47.6916647  99.8451279  64.4942863  36.9801779 102.6349902
  64.5326962  36.4465370 103.4287020  63.9883156  36.4536985 102.0160879
  76.8969132  49.4791170 105.5290559  77.4487440  49.6422791 106.2939645
  77.2375325  50.0695608 104.8570584  71.8733625  31.8266320 106.1312444
  71.9374952  32.6881151 105.7189842  71.8100745  31.2140321 105.3984803
  71.3485898  33.8989452 109.7785478  71.9757936  33.5166530 110.3923003
  70.4913816  33.6803654 110.1441171  81.7480006  44.3052427 111.3839214
  82.2919910  44.9182386 110.8894169  81.1666851  44.8632006 111.9006227
  68.1251440  35.7065881  95.7103833  68.4204881  34.7976560  95.6570887
  67.2239476  35.6853621  95.3884835  80.0337519  47.4273145 102.5154241
  79.9088659  46.6262885 102.0065187  80.6916610  47.9219339 102.0268211
  71.6545687  33.7821878 101.6931382  70.9332273  34.3957846 101.5538855
  72.4438943  34.3179643 101.6148028  82.0972427  45.2282166 104.1433792
  81.1502763  45.1087517 104.0712118  82.4455201  44.3404664 104.2260053
  74.4572001  31.1176304 107.9672033  74.9806403  31.3638601 108.7298343
  74.2384334  31.9496339 107.5475171  69.8539282  33.3879979  95.8343158
  69.5251988  32.5077358  95.6518264  70.2078653  33.3327648  96.7219547
  79.1018861  45.0234882 100.3438144  78.9543823  44.0951589 100.5245714
  79.9272354  45.0454972  99.8595219  72.9681105  33.6752949  96.2018636
  73.3077178  34.2038870  95.4797244  73.4153226  34.0133355  96.9777202
  82.7052983  45.8463440 101.4303017  83.6299530  45.6406302 101.2927468
  82.5368286  45.5979842 102.3392358  75.6624546  32.0590000 105.6521704
  75.3221366  31.2597813 106.0542384  74.9563552  32.3591710 105.0798537
  76.3141018  29.1439312 104.1049027  77.1367087  28.6699790 103.9827917
  76.5579081  29.9229796 104.6047713  74.9549252  32.1727570  94.4011929
  75.6757615  32.5508823  93.8975646  74.3314556  32.8916447  94.5046907
  79.0980375  32.8772719  95.3370261  79.3143989  33.7597357  95.0359089
  78.6174442  32.4858933  94.6075903  73.8379596  35.8358433 101.9141006
  73.6924177  36.1498736 102.8065287  73.3604800  36.4543333 101.3611904
  75.6975979  32.8260981 101.9621895  75.6837548  31.9302074 101.6254193
  76.4148407  32.8331644 102.5960181  77.5502110  33.2598321 104.0075023
  77.2919888  34.1815391 104.0059353  77.0187150  32.8628755 104.6975487
  82.4948299  46.3649108  96.7865108  82.6685176  45.7995530  96.0338960
  82.9877190  47.1650003  96.6044598  68.3125259  38.3763777 104.8528667
  67.7678727  39.1523585 104.9848941  69.1904609  38.7234581 104.6947788
  75.1012875  31.7075361  97.2309465  75.2228787  30.7792007  97.4300353
  74.8114918  31.7214047  96.3187781  77.9704066  29.3930271 100.3676185
  77.9925763  29.4569604  99.4128165  78.3872125  28.5534780 100.5616691
  88.3487690  39.1285531  98.4055408  88.7918836  38.3792856  98.0074531
  87.4714200  39.1195667  98.0229140  83.4823471  45.6815872  93.8862006
  84.1774376  46.3022565  94.1049321  83.8246621  44.8311224  94.1614384
  69.0991281  37.5033673 107.7458824  68.3573017  37.6516309 108.3323454
  68.7784025  37.7641939 106.8825573  85.3814894  43.1315578  95.4149337
  85.9066219  43.4702851  94.6898657  85.2937247  42.1962593  95.2312472
  77.0434943  47.0449652 107.5439214  77.3522070  46.7998798 108.4161913
  77.8410425  47.2496290 107.0558084  77.0655555  49.1987561  99.7744590
  76.6260545  48.7063940 100.4677447  77.8163672  48.6560529  99.5336665
  69.5447894  45.3899102  99.7769218  70.3705914  45.0902874  99.3967862
  69.1941946  44.6206724 100.2259007  74.5129427  44.7425570 101.8466892
  73.8909437  44.0796275 101.5469120  75.1834294  44.7686702 101.1640540
  67.7456499  43.3085428 100.7358152  66.9088408  42.8807603 100.5542153
  67.7180145  43.5017872 101.6728943  74.5853955  33.2207358 111.4399398
  74.6342110  34.0969481 111.0577168  75.1276469  32.6784751 110.8671041
  85.0708801  43.7648482 110.7200535  84.2804344  43.7472620 110.1805034
  84.8342155  44.3036775 111.4749572  85.1906676  40.6140948 108.0333264
  85.2404681  40.4490955 108.9748786  85.0820599  39.7468207 107.6431144
  74.0742934  43.2929494  95.3225352  74.2231055  43.9764958  94.6692025
  74.8809378  43.2734584  95.8374808  82.4810438  36.5971876 109.3492570
  83.3820301  36.4578341 109.0576568  82.5558412  36.7626331 110.2890748
  76.8153243  33.9738731 108.1945757  75.9456553  34.2672297 107.9228345
  77.0512724  34.5579176 108.9153020  86.6924872  43.0337889 108.2775285
  86.4009681  43.3967870 109.1138746  86.0797004  42.3204898 108.0988617
  87.8920555  40.5990769 100.7977855  88.7267446  41.0380573 100.9615416
  88.0279684  40.1229422  99.9786101  84.9412061  38.1570504 106.7455343
  85.4166182  38.3498150 105.9374194  84.0177626  38.2129690 106.4998727
  71.8295567  39.3194671  96.3286421  71.5841609  38.4157001  96.5266631
  71.9991482  39.3211822  95.3865899  79.5192277  30.1918348 105.7111177
  80.0374221  30.9279375 105.3857666  79.1647410  30.4982341 106.5457936
  71.0991215  35.0523029  93.8272583  70.4060460  35.1267384  93.1712619
  70.8542967  34.2883372  94.3494100  79.7704871  26.6118630 101.2312074
  80.0506625  25.9441819 101.8572500  80.5555478  26.8047726 100.7186737
  77.5738340  45.7877624  92.7937100  77.0012307  46.4067811  92.3407572
  78.1471133  46.3376986  93.3277022  83.6413730  35.0336264 104.9783649
  84.5931153  35.1334362 104.9995873  83.4717180  34.2414533 105.4881733
  81.6628109  32.1191847 105.1643050  81.0678041  32.3996860 104.4689538
  81.3777806  32.6085748 105.9359791  80.7935600  46.0714774  93.9245682
  81.7266273  46.0060336  94.1278558  80.7058812  46.9071041  93.4660215
  83.4223616  45.3880645  90.8849630  83.3437248  45.0540508  91.7785388
  84.2433283  45.8802412  90.8841102  86.1201807  38.2542384 104.0925948
  86.0878128  37.3158385 104.2785632  86.7302431  38.3326421 103.3591773
  77.9585138  37.1238437  90.1353152  78.9044243  36.9944645  90.2041570
  77.5799383  36.3853099  90.6122581  86.2696296  35.0453427 104.1384232
  85.7535345  34.2611884 103.9514160  87.1536244  34.7172144 104.3030751
  83.9307023  28.7894443 100.0980044  83.7331844  28.4809531 100.9823376
  84.5406728  29.5156082 100.2277974  91.9378357  39.3158391 103.2331985
  92.6681746  39.0543679 103.7939688  91.3285303  38.5787113 103.2734053
  90.0193654  37.4566253 103.8306436  89.2926818  37.3222218 103.2222928
  89.6040941  37.7643082 104.6363154  77.8423831  41.1756183 111.5953809
  78.7626840  41.3534782 111.7893856  77.8073414  40.2312228 111.4433509
  76.1428055  35.0488413  90.0708038  75.2359511  34.7521526  90.1470751
  76.4204036  34.7518231  89.2042324  67.0605996  36.3694777 100.5207084
  66.7408780  35.5160085 100.2281458  66.5139424  36.5843355 101.2765051
  70.8385903  39.0857218 104.2376591  71.0571913  40.0174325 104.2564624
  71.2511677  38.7265192 105.0231394  77.7590121  29.5925303  96.2252279
  76.9490849  29.2472388  96.6007525  78.4474538  29.2832847  96.8139890
  79.6880669  28.6703350  97.8476576  80.2411708  29.0898803  98.5066599
  79.9250756  27.7439098  97.8899532  75.7113769  34.6590423 113.6279339
  75.6110496  35.6084780 113.5591431  75.4935311  34.3308662 112.7555410
  74.9126840  31.9075348  90.2120017  75.7746004  32.2330247  90.4715834
  75.0977184  31.1206844  89.6993083  66.9294256  39.9897688 102.4900206
  66.2357727  39.5751641 101.9770160  67.6767247  40.0318225 101.8933624
  83.0659477  30.7803875  97.3555240  82.4858146  31.4388679  96.9733292
  82.7995409  29.9581219  96.9442657  81.5163043  30.1808933  99.5576560
  82.0162821  30.2925467  98.7490879  82.1598651  29.8769985 100.1977369
  75.5745039  38.0887562 112.4444401  75.0912120  38.8887922 112.6508290
  75.6605978  38.0995507 111.4911845  68.8430998  39.9215942 100.3666220
  68.8201686  40.0203629  99.4148104  69.1531635  40.7681093 100.6883387
  71.5018376  41.9792097 104.4812835  72.4561630  41.9476039 104.4142766
  71.3030900  41.5182721 105.2963061  72.0917758  40.5493213 107.0483633
  72.9110647  41.0437292 107.0718470  72.3654566  39.6325181 107.0201200
  81.8484355  32.9403965  96.4111588  80.9610210  33.2253616  96.1931783
  82.2638344  32.7797729  95.5638865  85.1998891  32.9650486 100.1265927
  85.9759281  33.4546939 100.3990544  84.4747025  33.3908540 100.5837797
  87.6371449  33.6778105 101.1839868  88.2315940  33.4373841 100.4733176
  87.7098033  32.9585236 101.8113404  69.8568605  47.5211716 101.4983033
  69.7223073  46.7612117 100.9321031  69.4400667  48.2452616 101.0311822
  80.9927568  42.7048640  90.5059608  81.6963418  42.9098642  91.1217264
  80.2690217  43.2725402  90.7708692  81.8225378  38.4558501  96.6261878
  81.7660580  38.9127053  95.7869511  82.3753721  37.6949186  96.4484721
  85.6330184  34.2448233  97.4511998  85.3767118  33.8444869  98.2820205
  85.0083052  34.9592027  97.3262137  89.9442522  36.9844306  99.9583289
  89.3842080  37.0537496 100.7314851  89.3386025  36.8085291  99.2382785
  73.0137731  48.4181033 101.7101475  72.8970115  49.3626466 101.6080166
  72.1930177  48.1154595 102.0987275  82.9014265  43.1431169  92.5558068
  83.7359869  42.7112368  92.3735543  82.7398608  42.9713183  93.4834963
  82.5560158  39.6463282  93.9214407  82.5008961  39.4807554  92.9802851
  81.9306213  40.3539315  94.0776597  67.3452673  34.8831347 107.7475830
  67.9911536  34.3730301 108.2363055  67.1369824  35.6200028 108.3219255
  79.8706065  41.9512194 113.2467970  80.7397224  42.1252847 112.8854605
  79.3912816  42.7706611 113.1243700  75.8656283  29.1471391  93.4999726
  75.8534953  30.0913231  93.6567997  76.7579705  28.9641537  93.2059187
  74.0392245  49.0709295 104.9257404  74.9419492  49.1032906 105.2423899
  73.8129615  48.1409746 104.9403740  75.7945847  47.8240282 101.5867482
  74.8441478  47.8242143 101.4731855  76.0978333  47.0773016 101.0703517
  79.6808403  25.7414168  97.7545663  78.9140798  25.1872655  97.9002345
  80.0919108  25.8136037  98.6159814  71.6850164  32.0298964 111.8450844
  72.5481625  31.6735769 112.0554168  71.1115574  31.6912859 112.5326248
  91.5298541  53.6600820 102.6513245  92.1676950  53.5407568 101.9476585
  91.4119383  54.6081664 102.7101197  88.3388247  53.6128248 102.5874770
  88.0006758  53.4969313 101.6995304  89.2078015  53.2119413 102.5675776
  84.1975062  55.4663725  98.5771660  83.6339928  55.3753662  97.8087948
  84.0827458  54.6463629  99.0574153  88.8208030  54.7663100 108.5460975
  88.8096671  54.3715898 107.6741479  88.9828669  54.0329173 109.1394747
  81.7439494  56.9614916 101.4155881  82.5360786  56.6205741 101.0002180
  81.9836145  57.0709891 102.3358034  89.7774621  59.1334692  93.8886125
  89.1262601  59.7188773  93.5020139  90.5718984  59.6640887  93.9481163
  83.7030248  56.2223830  94.2873260  84.4761124  55.6752817  94.1486136
  84.0555647  57.0868079  94.4987721  85.5415291  57.5500212 107.4940159
  85.2505157  58.4545843 107.3786825  86.1772275  57.5916739 108.2084229
  86.4671498  54.9277060 104.0841519  87.0635070  54.7033083 103.3698482
  86.5246469  54.1861806 104.6866967  86.0396526  52.3816496  91.9191710
  86.2922047  51.8598017  91.1575173  85.1021085  52.2182641  92.0218393
  91.0839809  51.3852274  99.7266453  91.8702898  50.9671697  99.3756870
  91.3478513  52.2898366  99.8948101  91.2549886  56.8225124  94.4255110
  90.6195719  56.8959751  95.1376014  90.9247293  57.4118723  93.7474189
  96.4848236  51.3227507 100.6299431  97.2173408  50.7526724 100.8637261
  95.7287592  50.9349108 101.0705937  85.7592815  54.2844602  94.1216085
  85.6429073  53.6089505  94.7897169  85.8695075  53.7976976  93.3048238
  88.1024356  53.7454749  97.8262774  87.7382563  53.2185370  98.5375695
  88.9591472  53.3553218  97.6529259  94.0073656  45.0349081 105.0894040
  93.6756981  45.9044492 104.8655255  93.4119270  44.7185365 105.7688070
  87.7429843  48.7744648  92.8224122  87.9104245  49.6424885  93.1894593
  87.5527012  48.9371930  91.8985412  90.5005176  57.2361627 104.4889953
  90.2005899  58.1386666 104.3805760  90.1556236  56.9693811 105.3411106
  83.9517657  53.6875424 100.5226657  83.0268154  53.5551638 100.7304349
  84.2002071  54.4669643 101.0196600  93.9002320  49.7544168 102.1687390
  92.9919197  49.6859576 101.8746151  93.8489916  50.2316112 102.9969216
  87.7219064  51.2302306  93.8070789  87.6018689  51.6759357  94.6456269
  87.0271652  51.5787624  93.2484327  81.3126469  53.3308698 101.3570446
  81.4418850  53.5843177 102.2709858  80.6323920  53.9236406 101.0375101
  85.4825956  64.0005948  97.4560920  85.4049986  64.9513773  97.5349401
  84.8787599  63.6551820  98.1135847  87.9743186  51.1733813 110.1122287
  87.1976520  51.7327733 110.1025152  88.6133749  51.6590596 110.6337157
  95.7663966  47.9560606 103.9465264  95.1238346  48.2493139 103.3005059
  95.2618895  47.8413526 104.7518461  93.4204130  51.7023779  94.6351123
  94.3321986  51.9351166  94.4598821  92.9113777  52.2860823  94.0726202
  86.2289558  53.9819266 109.6740254  86.9704242  54.5204310 109.3975078
  85.5226543  54.6085555 109.8311806  91.7044898  56.1248407 108.2712416
  92.1128254  55.6830817 107.5267048  90.9822159  55.5501034 108.5246609
  88.0575968  51.0621014 105.6445973  88.9037163  51.4860427 105.7880622
  87.9974605  50.4054638 106.3384536  92.0273712  56.6849598 102.0264705
  91.3982575  56.8495312 101.3240773  91.6399374  57.0991207 102.7975669
  95.9062944  57.6204035  99.3809068  95.2213982  58.0002937  98.8306102
  95.9906793  58.2299362 100.1141016  91.2075413  48.7225382 107.3027146
  90.9636345  49.4767443 106.7661422  91.4835343  49.1010730 108.1374393
  93.1613876  55.2663994 105.9804412  93.3730771  55.9095754 105.3038793
  93.1143624  54.4326311 105.5126342  90.7640105  47.8781815 102.8840984
  89.9024584  48.1763069 103.1757722  90.7902539  48.0952214 101.9522017
  87.5801674  56.4224006  99.2914790  88.0440020  56.7011709  98.5019412
  87.3158472  55.5207450  99.1087880  84.4725755  55.9695487 102.2294553
  85.0427112  56.3982756 101.5912038  85.0633867  55.6878072 102.9278739
  86.5170560  52.5447158  96.1004355  87.2194603  52.9968202  96.5678281
  86.1851189  51.9030977  96.7284248  84.9650922  51.1358915 110.4755564
  84.3349582  51.8175196 110.7090961  84.8587010  51.0241996 109.5308703
  80.2595894  50.8030711 101.4021488  79.4694948  51.0588239 100.9261599
  80.7507141  51.6179049 101.5073529  94.2759704  58.1435950 104.1526769
  95.0977147  57.7416137 103.8709451  94.2722107  58.0404184 105.1042885
  82.2110639  51.1675290  98.3604965  81.4141803  51.2793984  98.8788461
  81.9836232  51.5061942  97.4945856  88.0416307  57.6919993 106.3087480
  88.1060740  58.1540400 107.1445652  87.3327231  57.0617358 106.4369790
  78.5433597  51.0561201 103.8336479  78.7941635  51.9408211 104.0994055
  79.0793145  50.8765803 103.0611571 102.3665697  54.4874698 100.5011741
 101.6129405  53.9182096 100.3455745 102.5013238  54.4537363 101.4482375
  87.7564325  59.3588101  96.1766460  87.6210000  60.2039636  96.6051308
  88.2974137  59.5607378  95.4132394  84.2431664  45.4379681 112.8380815
  83.8498610  44.8845879 113.5128460  85.0597805  45.7490259 113.2287333
  81.2093722  56.8763539  96.7494385  81.7218243  57.6706789  96.8999950
  81.8616435  56.1789829  96.6827987  83.0188607  59.9929295  98.8317138
  83.1955235  60.9147260  98.6438122  83.8145440  59.6787714  99.2611518
  87.1599625  46.8537560 110.4301072  87.9009339  47.4544713 110.3505534
  87.3917548  46.1115197 109.8719114  82.3040963  52.0393927 108.7079302
  82.1894479  51.1379184 109.0086401  81.4485481  52.2857624 108.3564118
  89.3832801  59.9811667 110.3066802  88.9396655  59.1948046 109.9887707
  90.0450015  60.1690818 109.6410693  84.1419922  61.5107469 104.8327481
  84.6927347  61.3824532 104.0604475  83.3031398  61.8102358 104.4822374
  91.4814039  60.2614467 108.3348203  91.4632515  61.0823348 107.8428473
  92.4033959  60.1368542 108.5598345  87.9387093  57.7758597 109.1771712
  88.4715430  57.0146885 108.9471020  87.4101174  57.4832248 109.9195866
  91.1056788  42.8818663 104.7065354  90.7621058  43.7720304 104.6304464
  91.4735751  42.6920320 103.8434939  79.1742639  55.2052193  97.5253956
  80.0117861  55.6149201  97.3087663  79.3520907  54.2651635  97.4954150
  91.0707071  52.8727274  93.2137789  90.5553694  53.6431878  93.4526176
  90.7984379  52.1992410  93.8370850  88.6554182  47.7176974  98.2723027
  87.7995778  47.3283825  98.0928666  89.0681134  47.7968935  97.4122813
  90.1853329  45.2523318 102.6714587  89.6818124  45.2153453 101.8582392
  90.4783936  46.1616060 102.7311244  86.4296215  45.3362047 101.6780769
  87.2949211  45.1404856 101.3186658  86.4973723  45.1072399 102.6050125
  96.0441345  55.6259628  95.1490962  95.2670788  55.2870788  94.7046124
  96.7232826  55.6312251  94.4745927  90.8593374  50.7454366  95.0397570
  90.5543510  51.0600515  95.8907713  91.8123816  50.8235786  95.0824903
  89.3039806  56.9044589  96.6890524  88.7761168  56.1697349  96.3763761
  88.8027309  57.6819265  96.4430492  94.2832652  55.0993610 101.8057570
  93.6256327  55.7892871 101.8937699  95.0873051  55.4890041 102.1491557
  84.0358534  47.5664255  99.0497135  84.6102286  47.3439437  98.3170328
  84.6229516  47.6352950  99.8025737  93.0938111  53.4537982  99.8561512
  93.6069993  54.0867974 100.3583222  93.7439335  52.8539178  99.4904872
  84.3628121  49.5968716  93.0693021  83.5265433  49.9343403  93.3902295
  84.2232890  49.4617696  92.1320158  86.3381201  44.4405504  97.7772205
  85.6845614  44.1254521  97.1528820  86.2961676  43.8181245  98.5032028
  87.4492406  54.7224799  89.6925497  86.5419468  54.4914053  89.8916646
  87.9463438  53.9262419  89.8799478  90.3560485  63.4322307  92.6122183
  89.6822184  63.7354003  93.2207141  90.7426307  64.2351387  92.2627640
  89.5718942  50.9287438 102.1019852  88.6541503  51.1502385 101.9441541
  89.9879085  51.0033748 101.2431560  90.3553989  52.3278853  97.2322533
  91.1025808  52.8400251  96.9229655  90.6245579  52.0062906  98.0926926
  88.6280640  54.8237394  94.2149487  87.7191859  54.5396427  94.3121957
  88.6575723  55.2436473  93.3552794  93.8599907  58.4343984  97.9840655
  93.4062234  57.5934894  98.0405845  93.2293874  59.0705382  98.3215435
  92.8032827  49.3635970  99.2141322  92.0655583  48.8513356  99.5451565
  93.0559600  48.9236351  98.4024599  92.3032846  60.2720480  98.9190473
  92.5955821  60.8325537  98.2002838  92.8131467  60.5649041  99.6743632
  92.9044454  42.1412222  99.8083091  93.2103331  41.2809585  99.5209006
  93.6297059  42.7329842  99.6082085  79.1968810  52.5442908  98.1964689
  78.9993210  51.9512269  97.4715756  78.6415474  52.2395119  98.9140628
  87.1765534  52.4366015 100.3159282  87.2314143  51.4839851 100.2401759
  86.3656736  52.5925454 100.8000581  88.3256727  56.3646138  91.5537566
  87.8876157  55.6481997  91.0943203  89.0667168  56.5922253  90.9922657
  85.1157894  51.0543075  98.0749661  84.3025759  51.3537245  98.4814853
  85.6116888  50.6598763  98.7924143  87.2666472  61.0500831 100.0083926
  87.2242650  61.2761678  99.0792458  88.1829170  60.8164206 100.1569727
  90.7132105  51.5184899 106.9064555  91.0681493  51.7456372 107.7659021
  91.3604237  51.8503276 106.2841810  96.4429842  54.6403335  97.6113884
  96.3047741  54.8304931  96.6835073  96.0866061  55.4022718  98.0681935
  84.6071968  48.6261430 103.6910896  85.2471348  48.4850189 102.9933859
  83.7749499  48.3395943 103.3149498  96.4699222  56.7079862 102.6225156
  96.9035729  56.6155151 103.4708210  97.1830803  56.6837362 101.9845172
  85.3832272  57.9263860  99.8045889  86.1772871  57.4314181  99.6028464
  84.6723965  57.3981724  99.4413594  90.2027117  60.3081956 104.1558256
  90.2564139  60.8772892 104.9235972  89.3341898  60.4783841 103.7912293
  81.6915036  52.0706942  95.8805641  80.7612624  52.0091398  96.0975603
  81.7872508  51.5482895  95.0842283  81.6100585  48.5961755  98.4683883
  81.8707402  49.5107088  98.3593043  82.4317757  48.1286198  98.6180496
  83.0825510  50.0099512 105.6382707  83.7548564  49.8016874 104.9895356
  82.2555297  49.8121598 105.1987940  97.3314771  56.7503563 105.1558041
  97.5250661  57.6549373 105.4017316  97.2315390  56.2910982 105.9896626
  88.9851082  46.6361453 107.6548368  88.3378997  47.3351403 107.5612845
  89.7552098  47.0697597 108.0224617  92.3929880  56.9010305 110.7298922
  92.2415387  56.6720857 109.8129005  92.3834560  57.8580907 110.7430267
  89.1615216  54.4742218 105.7145188  90.0907277  54.6253378 105.5414155
  88.7406247  54.5626239 104.8593835  87.9603548  58.4992882 103.4843726
  87.8214634  58.1311667 104.3569664  87.1718145  59.0140522 103.3127684
  88.5551700  63.6001979  94.8269262  88.7303456  63.1290022  95.6414885
  87.8684488  64.2267745  95.0550523  89.5108763  57.8774485 100.8732564
  89.1758596  57.8375255 101.7690213  89.0112709  57.2119201 100.4002974
  83.4853007  53.2842115 106.3985145  83.3472805  52.5522354 106.9996684
  84.3957931  53.1951015 106.1169332  92.4467955  55.2230520  91.1469623
  91.8297126  54.4977348  91.0502676  91.9784444  55.9839880  90.8036697
  86.1135308  52.9962075 105.8868824  86.8234927  52.3555267 105.8455443
  86.0704616  53.2474969 106.8095005  94.1022087  59.9329428 108.8075404
  94.0434633  59.2488648 108.1405987  94.5041605  60.6748418 108.3556030
  84.8264242  49.9827292 107.7064464  84.2901599  49.5318031 108.3586060
  84.2380950  50.1173201 106.9634928  83.1212786  66.7491342 101.6009122
  83.3609384  67.3809866 102.2788141  82.2781982  66.3979382 101.8874482
  84.2366501  49.4415944  90.2690927  83.3595967  49.3204745  89.9053174
  84.7124254  48.6502022  90.0169816  94.1039494  57.8969012 107.0389383
  93.2166273  57.5594934 107.1615782  94.6738045  57.1652043 107.2758149
  75.7568641  54.2293104 100.3632435  76.4439681  53.9154834  99.7753450
  75.6016770  55.1334468 100.0899686  80.5603363  49.1183300 104.7917458
  80.4761552  48.5108970 104.0567868  79.7386070  49.6092318 104.7926955
  87.6340647  62.5570464 104.0050626  87.5610819  63.3625436 104.5169931
  87.1918041  62.7562430 103.1798648  87.4230427  61.7942234  97.5153448
  86.6397949  62.3363914  97.6091672  88.1223172  62.3116214  97.9147689
  90.7327077  47.6036864 100.1587653  91.2295777  46.8506826  99.8388724
  89.9614059  47.6401180  99.5930863  98.5856835  53.3077229 101.8005945
  98.5746711  54.1901945 101.4299878  97.7174214  52.9548780 101.6060482
  90.0939331  62.4557298 106.1608785  90.8067303  63.0904763 106.0884687
  89.6029360  62.5521164 105.3448787  91.8156858  56.3608551  97.7326077
  90.8813137  56.4810013  97.5630781  91.9933526  55.4581018  97.4686087
  87.3162046  49.7454247  99.8859338  86.9459833  49.1925287 100.5740244
  87.8121138  49.1412380  99.3334338  95.2029409  52.2025870  98.2676111
  95.6689861  53.0353862  98.1936414  95.6536910  51.7370852  98.9721369
  85.1451244  60.2051742 106.9814356  85.8460704  60.8388225 107.1343750
  84.6746359  60.5466473 106.2209995  93.2705640  58.5469691  95.2662263
  93.5465484  58.4326286  96.1756137  92.4010139  58.1487176  95.2274436
  93.1746072  44.5706457 102.3067012  92.2609152  44.8010684 102.4749219
  93.6039173  44.6544901 103.1581045  92.9452530  52.7596349 104.8066906
  92.2923981  53.0072257 104.1519359  93.3232910  51.9460487 104.4729384
  89.9059704  62.7956042  98.9095077  90.0882099  61.9777698  99.3722829
  90.7292690  63.0123735  98.4719967  90.2401870  61.7224227  96.1710125
  90.7689636  61.2116682  95.5580287  90.5030089  61.4066758  97.0355658
  88.9940103  53.5016160 111.2932943  88.3180740  53.4010289 111.9635319
  89.8167737  53.3455374 111.7568941  80.7418963  59.7388097 103.9145459
  81.3272399  58.9931785 104.0473363  80.5443801  60.0492053 104.7982122
  83.5957618  62.7739344  98.9307901  82.9267993  63.2585472  98.4471941
  83.4570487  63.0208565  99.8451279  75.3336617  52.3093697 102.6349902
  75.3720717  51.7757288 103.4287020  74.8276910  51.7828902 102.0160879
  87.7362886  64.8083088 105.5290559  88.2881194  64.9714709 106.2939645
  88.0769080  65.3987525 104.8570584  82.7127380  47.1558237 106.1312444
  82.7768706  48.0173068 105.7189842  82.6494500  46.5432239 105.3984803
  82.1879652  49.2281370 109.7785478  82.8151691  48.8458447 110.3923003
  81.3307571  49.0095572 110.1441171  92.5873761  59.6344345 111.3839214
  93.1313665  60.2474303 110.8894169  92.0060605  60.1923924 111.9006227
  78.9645195  51.0357799  95.7103833  79.2598636  50.1268477  95.6570887
  78.0633231  51.0145539  95.3884835  90.8731274  62.7565063 102.5154241
  90.7482413  61.9554803 102.0065187  91.5310365  63.2511256 102.0268211
  82.4939442  49.1113796 101.6931382  81.7726028  49.7249763 101.5538855
  83.2832698  49.6471560 101.6148028  92.9366182  60.5574083 104.1433792
  91.9896518  60.4379434 104.0712118  93.2848955  59.6696581 104.2260053
  85.2965755  46.4468222 107.9672033  85.8200157  46.6930519 108.7298343
  85.0778089  47.2788257 107.5475171  80.6933036  48.7171897  95.8343158
  80.3645743  47.8369276  95.6518264  81.0472407  48.6619565  96.7219547
  89.9412615  60.3526799 100.3438144  89.7937578  59.4243507 100.5245714
  90.7666109  60.3746890  99.8595219  83.8074860  49.0044867  96.2018636
  84.1470932  49.5330788  95.4797244  84.2546980  49.3425273  96.9777202
  93.5446737  61.1755358 101.4303017  94.4693285  60.9698220 101.2927468
  93.3762041  60.9271759 102.3392358  86.5018300  47.3881917 105.6521704
  86.1615121  46.5889730 106.0542384  85.7957307  47.6883628 105.0798537
  87.1534772  44.4731230 104.1049027  87.9760842  43.9991708 103.9827917
  87.3972836  45.2521713 104.6047713  85.7943007  47.5019488  94.4011929
  86.5151369  47.8800741  93.8975646  85.1708311  48.2208365  94.5046907
  89.9374130  48.2064637  95.3370261  90.1537744  49.0889275  95.0359089
  89.4568197  47.8150850  94.6075903  84.6773351  51.1650350 101.9141006
  84.5317932  51.4790653 102.8065287  84.1998555  51.7835251 101.3611904
  86.5369734  48.1552898 101.9621895  86.5231303  47.2593992 101.6254193
  87.2542162  48.1623562 102.5960181  88.3895865  48.5890238 104.0075023
  88.1313642  49.5107309 104.0059353  87.8580905  48.1920673 104.6975487
  93.3342053  61.6941026  96.7865108  93.5078931  61.1287448  96.0338960
  93.8270945  62.4941920  96.6044598  79.1519013  53.7055695 104.8528667
  78.6072481  54.4815503 104.9848941  80.0298363  54.0526499 104.6947788
  85.9406630  47.0367279  97.2309465  86.0622541  46.1083925  97.4300353
  85.6508672  47.0505965  96.3187781  88.8097820  44.7222189 100.3676185
  88.8319517  44.7861522  99.4128165  89.2265879  43.8826698 100.5616691
  99.1881445  54.4577449  98.4055408  99.6312591  53.7084774  98.0074531
  98.3107955  54.4487585  98.0229140  94.3217226  61.0107790  93.8862006
  95.0168130  61.6314483  94.1049321  94.6640376  60.1603141  94.1614384
  79.9385035  52.8325591 107.7458824  79.1966771  52.9808226 108.3323454
  79.6177779  53.0933857 106.8825573  96.2208649  58.4607496  95.4149337
  96.7459973  58.7994768  94.6898657  96.1331002  57.5254511  95.2312472
  87.8828698  62.3741569 107.5439214  88.1915824  62.1290716 108.4161913
  88.6804180  62.5788208 107.0558084  87.9049310  64.5279479  99.7744590
  87.4654300  64.0355858 100.4677447  88.6557427  63.9852446  99.5336665
  80.3841649  60.7191020  99.7769218  81.2099669  60.4194792  99.3967862
  80.0335701  59.9498642 100.2259007  85.3523182  60.0717488 101.8466892
  84.7303191  59.4088193 101.5469120  86.0228049  60.0978620 101.1640540
  78.5850254  58.6377346 100.7358152  77.7482162  58.2099520 100.5542153
  78.5573899  58.8309789 101.6728943  85.4247709  48.5499276 111.4399398
  85.4735865  49.4261399 111.0577168  85.9670224  48.0076669 110.8671041
  95.9102555  59.0940399 110.7200535  95.1198099  59.0764538 110.1805034
  95.6735910  59.6328693 111.4749572  96.0300430  55.9432866 108.0333264
  96.0798435  55.7782873 108.9748786  95.9214353  55.0760125 107.6431144
  84.9136689  58.6221411  95.3225352  85.0624809  59.3056876  94.6692025
  85.7203132  58.6026501  95.8374808  93.3204192  51.9263794 109.3492570
  94.2214055  51.7870258 109.0576568  93.3952167  52.0918248 110.2890748
  87.6546998  49.3030648 108.1945757  86.7850307  49.5964214 107.9228345
  87.8906478  49.8871093 108.9153020  97.5318627  58.3629807 108.2775285
  97.2403435  58.7259788 109.1138746  96.9190758  57.6496815 108.0988617
  98.7314309  55.9282687 100.7977855  99.5661201  56.3672491 100.9615416
  98.8673438  55.4521340  99.9786101  95.7805815  53.4862422 106.7455343
  96.2559937  53.6790068 105.9374194  94.8571381  53.5421608 106.4998727
  82.6689322  54.6486589  96.3286421  82.4235364  53.7448919  96.5266631
  82.8385236  54.6503739  95.3865899  90.3586032  45.5210265 105.7111177
  90.8767975  46.2571292 105.3857666  90.0041164  45.8274259 106.5457936
  81.9384969  50.3814946  93.8272583  81.2454214  50.4559301  93.1712619
  81.6936721  49.6175290  94.3494100  90.6098626  41.9410548 101.2312074
  90.8900380  41.2733737 101.8572500  91.3949233  42.1339643 100.7186737
  88.4132094  61.1169542  92.7937100  87.8406061  61.7359729  92.3407572
  88.9864888  61.6668903  93.3277022  94.4807484  50.3628182 104.9783649
  95.4324907  50.4626279 104.9995873  94.3110935  49.5706450 105.4881733
  92.5021864  47.4483765 105.1643050  91.9071796  47.7288778 104.4689538
  92.2171560  47.9377666 105.9359791  91.6329354  61.4006692  93.9245682
  92.5660027  61.3352254  94.1278558  91.5452567  62.2362959  93.4660215
  94.2617371  60.7172562  90.8849630  94.1831002  60.3832426  91.7785388
  95.0827038  61.2094330  90.8841102  96.9595562  53.5834301 104.0925948
  96.9271882  52.6450302 104.2785632  97.5696186  53.6618338 103.3591773
  88.7978893  52.4530354  90.1353152  89.7437998  52.3236563  90.2041570
  88.4193138  51.7145016  90.6122581  97.1090050  50.3745345 104.1384232
  96.5929099  49.5903802 103.9514160  97.9929999  50.0464062 104.3030751
  94.7700777  44.1186360 100.0980044  94.5725598  43.8101449 100.9823376
  95.3800483  44.8447999 100.2277974 102.7772112  54.6450308 103.2331985
 103.5075500  54.3835596 103.7939688 102.1679057  53.9079030 103.2734053
 100.8587409  52.7858171 103.8306436 100.1320572  52.6514136 103.2222928
 100.4434696  53.0935000 104.6363154  88.6817585  56.5048101 111.5953809
  89.6020595  56.6826700 111.7893856  88.6467168  55.5604146 111.4433509
  86.9821810  50.3780331  90.0708038  86.0753265  50.0813444  90.1470751
  87.2597791  50.0810149  89.2042324  77.8999750  51.6986694 100.5207084
  77.5802535  50.8452002 100.2281458  77.3533179  51.9135272 101.2765051
  81.6779658  54.4149135 104.2376591  81.8965668  55.3466243 104.2564624
  82.0905432  54.0557110 105.0231394  88.5983876  44.9217221  96.2252279
  87.7884604  44.5764306  96.6007525  89.2868293  44.6124764  96.8139890
  90.5274424  43.9995267  97.8476576  91.0805463  44.4190721  98.5066599
  90.7644510  43.0731015  97.8899532  86.5507523  49.9882341 113.6279339
  86.4504250  50.9376698 113.5591431  86.3329065  49.6600580 112.7555410
  85.7520595  47.2367266  90.2120017  86.6139759  47.5622164  90.4715834
  85.9370939  46.4498762  89.6993083  77.7688010  55.3189606 102.4900206
  77.0751482  54.9043559 101.9770160  78.5161001  55.3610142 101.8933624
  93.9053231  46.1095793  97.3555240  93.3251900  46.7680597  96.9733292
  93.6389164  45.2873137  96.9442657  92.3556797  45.5100850  99.5576560
  92.8556576  45.6217385  98.7490879  92.9992405  45.2061903 100.1977369
  86.4138793  53.4179480 112.4444401  85.9305875  54.2179840 112.6508290
  86.4999732  53.4287425 111.4911845  79.6824753  55.2507860 100.3666220
  79.6595441  55.3495547  99.4148104  79.9925389  56.0973010 100.6883387
  82.3412131  57.3084015 104.4812835  83.2955384  57.2767957 104.4142766
  82.1424654  56.8474638 105.2963061  82.9311513  55.8785131 107.0483633
  83.7504402  56.3729209 107.0718470  83.2048321  54.9617099 107.0201200
  92.6878109  48.2695883  96.4111588  91.8003964  48.5545534  96.1931783
  93.1032098  48.1089646  95.5638865  96.0392645  48.2942404 100.1265927
  96.8153035  48.7838856 100.3990544  95.3140779  48.7200458 100.5837797
  98.4765204  49.0070023 101.1839868  99.0709695  48.7665759 100.4733176
  98.5491788  48.2877154 101.8113404  80.6962360  62.8503634 101.4983033
  80.5616827  62.0904035 100.9321031  80.2794422  63.5744534 101.0311822
  91.8321323  58.0340558  90.5059608  92.5357173  58.2390560  91.1217264
  91.1083971  58.6017319  90.7708692  92.6619133  53.7850419  96.6261878
  92.6054334  54.2418970  95.7869511  93.2147475  53.0241103  96.4484721
  96.4723939  49.5740151  97.4511998  96.2160873  49.1736786  98.2820205
  95.8476807  50.2883945  97.3262137 100.7836277  52.3136224  99.9583289
 100.2235835  52.3829413 100.7314851 100.1779780  52.1377209  99.2382785
  83.8531485  63.7472951 101.7101475  83.7363870  64.6918384 101.6080166
  83.0323932  63.4446513 102.0987275  93.7408020  58.4723087  92.5558068
  94.5753624  58.0404285  92.3735543  93.5792363  58.3005100  93.4834963
  93.3953912  54.9755200  93.9214407  93.3402716  54.8099472  92.9802851
  92.7699967  55.6831233  94.0776597  78.1846427  50.2123264 107.7475830
  78.8305291  49.7022218 108.2363055  77.9763578  50.9491946 108.3219255
  90.7099819  57.2804112 113.2467970  91.5790979  57.4544764 112.8854605
  90.2306571  58.0998529 113.1243700  86.7050038  44.4763309  93.4999726
  86.6928707  45.4205149  93.6567997  87.5973459  44.2933454  93.2059187
  84.8786000  64.4001213 104.9257404  85.7813246  64.4324823 105.2423899
  84.6523370  63.4701664 104.9403740  86.6339602  63.1532199 101.5867482
  85.6835233  63.1534061 101.4731855  86.9372088  62.4064934 101.0703517
  90.5202157  41.0706086  97.7545663  89.7534553  40.5164572  97.9002345
  90.9312862  41.1427954  98.6159814  82.5243918  47.3590882 111.8450844
  83.3875380  47.0027686 112.0554168  81.9509329  47.0204776 112.5326248
 102.3692295  68.9892738 102.6513245 103.0070705  68.8699485 101.9476585
 102.2513138  69.9373582 102.7101197  99.1782001  68.9420166 102.5874770
  98.8400513  68.8261231 101.6995304 100.0471769  68.5411331 102.5675776
  95.0368817  70.7955642  98.5771660  94.4733682  70.7045579  97.8087948
  94.9221212  69.9755547  99.0574153  99.6601784  70.0955018 108.5460975
  99.6490425  69.7007816 107.6741479  99.8222424  69.3621090 109.1394747
  92.5833249  72.2906834 101.4155881  93.3754541  71.9497659 101.0002180
  92.8229899  72.4001809 102.3358034 100.6168376  74.4626610  93.8886125
  99.9656355  75.0480691  93.5020139 101.4112739  74.9932805  93.9481163
  94.5424003  71.5515747  94.2873260  95.3154879  71.0044734  94.1486136
  94.8949402  72.4159997  94.4987721  96.3809045  72.8792130 107.4940159
  96.0898911  73.7837760 107.3786825  97.0166030  72.9208657 108.2084229
  97.3065252  70.2568978 104.0841519  97.9028825  70.0325000 103.3698482
  97.3640224  69.5153724 104.6866967  96.8790281  67.7108413  91.9191710
  97.1315801  67.1889935  91.1575173  95.9414840  67.5474559  92.0218393
 101.9233564  66.7144192  99.7266453 102.7096653  66.2963615  99.3756870
 102.1872268  67.6190284  99.8948101 102.0943641  72.1517042  94.4255110
 101.4589474  72.2251669  95.1376014 101.7641047  72.7410641  93.7474189
 107.3241991  66.6519425 100.6299431 108.0567163  66.0818642 100.8637261
 106.5681346  66.2641025 101.0705937  96.5986569  69.6136519  94.1216085
  96.4822828  68.9381423  94.7897169  96.7088829  69.1268893  93.3048238
  98.9418110  69.0746666  97.8262774  98.5776318  68.5477287  98.5375695
  99.7985226  68.6845135  97.6529259 104.8467411  60.3640999 105.0894040
 104.5150736  61.2336410 104.8655255 104.2513024  60.0477283 105.7688070
  98.5823597  64.1036566  92.8224122  98.7498000  64.9716803  93.1894593
  98.3920766  64.2663848  91.8985412 101.3398931  72.5653545 104.4889953
 101.0399654  73.4678584 104.3805760 100.9949990  72.2985728 105.3411106
  94.7911412  69.0167342 100.5226657  93.8661908  68.8843556 100.7304349
  95.0395825  69.7961561 101.0196600 104.7396074  65.0836085 102.1687390
 103.8312952  65.0151494 101.8746151 104.6883670  65.5608030 102.9969216
  98.5612818  66.5594224  93.8070789  98.4412443  67.0051274  94.6456269
  97.8665407  66.9079541  93.2484327  92.1520223  68.6600615 101.3570446
  92.2812604  68.9135094 102.2709858  91.4717674  69.2528323 101.0375101
  96.3219710  79.3297865  97.4560920  96.2443740  80.2805690  97.5349401
  95.7181354  78.9843738  98.1135847  98.8136940  66.5025731 110.1122287
  98.0370274  67.0619651 110.1025152  99.4527503  66.9882514 110.6337157
 106.6057721  63.2852524 103.9465264 105.9632101  63.5785057 103.3005059
 106.1012649  63.1705444 104.7518461 104.2597884  67.0315697  94.6351123
 105.1715740  67.2643084  94.4598821 103.7507531  67.6152741  94.0726202
  97.0683312  69.3111184 109.6740254  97.8097997  69.8496228 109.3975078
  96.3620298  69.9377473 109.8311806 102.5438652  71.4540325 108.2712416
 102.9522008  71.0122735 107.5267048 101.8215914  70.8792952 108.5246609
  98.8969722  66.3912931 105.6445973  99.7430917  66.8152345 105.7880622
  98.8368360  65.7346556 106.3384536 102.8667467  72.0141515 102.0264705
 102.2376329  72.1787229 101.3240773 102.4793129  72.4283125 102.7975669
 106.7456699  72.9495953  99.3809068 106.0607737  73.3294854  98.8306102
 106.8300548  73.5591280 100.1141016 102.0469167  64.0517300 107.3027146
 101.8030099  64.8059360 106.7661422 102.3229098  64.4302647 108.1374393
 104.0007630  70.5955912 105.9804412 104.2124525  71.2387672 105.3038793
 103.9537378  69.7618229 105.5126342 101.6033859  63.2073733 102.8840984
 100.7418338  63.5054986 103.1757722 101.6296294  63.4244132 101.9522017
  98.4195429  71.7515923  99.2914790  98.8833774  72.0303626  98.5019412
  98.1552227  70.8499368  99.1087880  95.3119510  71.2987405 102.2294553
  95.8820867  71.7274673 101.5912038  95.9027621  71.0169990 102.9278739
  97.3564315  67.8739076  96.1004355  98.0588358  68.3260119  96.5678281
  97.0244943  67.2322895  96.7284248  95.8044676  66.4650832 110.4755564
  95.1743337  67.1467113 110.7090961  95.6980764  66.3533914 109.5308703
  91.0989649  66.1322628 101.4021488  90.3088703  66.3880157 100.9261599
  91.5900896  66.9470966 101.5073529 105.1153458  73.4727868 104.1526769
 105.9370902  73.0708055 103.8709451 105.1115861  73.3696102 105.1042885
  93.0504394  66.4967208  98.3604965  92.2535557  66.6085902  98.8788461
  92.8229986  66.8353860  97.4945856  98.8810062  73.0211911 106.3087480
  98.9454494  73.4832318 107.1445652  98.1720985  72.3909276 106.4369790
  89.3827352  66.3853119 103.8336479  89.6335390  67.2700129 104.0994055
  89.9186900  66.2057720 103.0611571 113.2059451  69.8166616 100.5011741
 112.4523160  69.2474014 100.3455745 113.3406992  69.7829281 101.4482375
  98.5958079  74.6880018  96.1766460  98.4603754  75.5331554  96.6051308
  99.1367892  74.8899296  95.4132394  95.0825419  60.7671598 112.8380815
  94.6892364  60.2137797 113.5128460  95.8991559  61.0782177 113.2287333
  92.0487477  72.2055456  96.7494385  92.5611997  72.9998707  96.8999950
  92.7010189  71.5081747  96.6827987  93.8582361  75.3221213  98.8317138
  94.0348990  76.2439177  98.6438122  94.6539195  75.0079632  99.2611518
  97.9993380  62.1829477 110.4301072  98.7403093  62.7836630 110.3505534
  98.2311303  61.4407115 109.8719114  93.1434718  67.3685845 108.7079302
  93.0288233  66.4671102 109.0086401  92.2879236  67.6149541 108.3564118
 100.2226556  75.3103585 110.3066802  99.7790410  74.5239963 109.9887707
 100.8843769  75.4982735 109.6410693  94.9813677  76.8399386 104.8327481
  95.5321102  76.7116450 104.0604475  94.1425153  77.1394275 104.4822374
 102.3207794  75.5906385 108.3348203 102.3026269  76.4115266 107.8428473
 103.2427714  75.4660460 108.5598345  98.7780848  73.1050514 109.1771712
  99.3109185  72.3438802 108.9471020  98.2494929  72.8124166 109.9195866
 101.9450543  58.2110580 104.7065354 101.6014812  59.1012222 104.6304464
 102.3129505  58.0212238 103.8434939  90.0136393  70.5344111  97.5253956
  90.8511615  70.9441119  97.3087663  90.1914661  69.5943553  97.4954150
 101.9100826  68.2019191  93.2137789 101.3947449  68.9723796  93.4526176
 101.6378134  67.5284327  93.8370850  99.4947937  63.0468892  98.2723027
  98.6389533  62.6575743  98.0928666  99.9074888  63.1260853  97.4122813
 101.0247083  60.5815235 102.6714587 100.5211879  60.5445371 101.8582392
 101.3177690  61.4907978 102.7311244  97.2689969  60.6653965 101.6780769
  98.1342966  60.4696774 101.3186658  97.3367478  60.4364317 102.6050125
 106.8835100  70.9551546  95.1490962 106.1064542  70.6162705  94.7046124
 107.5626581  70.9604169  94.4745927 101.6987129  66.0746283  95.0397570
 101.3937264  66.3892433  95.8907713 102.6517571  66.1527703  95.0824903
 100.1433561  72.2336507  96.6890524  99.6154922  71.4989266  96.3763761
  99.6421063  73.0111183  96.4430492 105.1226407  70.4285527 101.8057570
 104.4650081  71.1184789 101.8937699 105.9266806  70.8181959 102.1491557
  94.8752288  62.8956173  99.0497135  95.4496040  62.6731355  98.3170328
  95.4623271  62.9644868  99.8025737 103.9331865  68.7829900  99.8561512
 104.4463747  69.4159892 100.3583222 104.5833089  68.1831095  99.4904872
  95.2021875  64.9260634  93.0693021  94.3659188  65.2635321  93.3902295
  95.0626645  64.7909614  92.1320158  97.1774956  59.7697422  97.7772205
  96.5239368  59.4546439  97.1528820  97.1355430  59.1473162  98.5032028
  98.2886161  70.0516717  89.6925497  97.3813222  69.8205970  89.8916646
  98.7857193  69.2554336  89.8799478 101.1954240  78.7614224  92.6122183
 100.5215938  79.0645921  93.2207141 101.5820062  79.5643305  92.2627640
 100.4112696  66.2579355 102.1019852  99.4935258  66.4794302 101.9441541
 100.8272840  66.3325666 101.2431560 101.1947744  67.6570771  97.2322533
 101.9419563  68.1692168  96.9229655 101.4639334  67.3354824  98.0926926
  99.4674394  70.1529312  94.2149487  98.5585613  69.8688345  94.3121957
  99.4969478  70.5728390  93.3552794 104.6993662  73.7635901  97.9840655
 104.2455989  72.9226811  98.0405845 104.0687628  74.3997300  98.3215435
 103.6426581  64.6927887  99.2141322 102.9049338  64.1805274  99.5451565
 103.8953355  64.2528269  98.4024599 103.1426601  75.6012398  98.9190473
 103.4349575  76.1617455  98.2002838 103.6525221  75.8940959  99.6743632
 103.7438208  57.4704139  99.8083091 104.0497085  56.6101503  99.5209006
 104.4690813  58.0621760  99.6082085  90.0362565  67.8734826  98.1964689
  89.8386964  67.2804187  97.4715756  89.4809229  67.5687036  98.9140628
  98.0159288  67.7657932 100.3159282  98.0707898  66.8131769 100.2401759
  97.2050490  67.9217372 100.8000581  99.1650482  71.6938056  91.5537566
  98.7269912  70.9773914  91.0943203  99.9060923  71.9214170  90.9922657
  95.9551648  66.3834992  98.0749661  95.1419514  66.6829163  98.4814853
  96.4510642  65.9890681  98.7924143  98.1060226  76.3792749 100.0083926
  98.0636405  76.6053595  99.0792458  99.0222925  76.1456124 100.1569727
 101.5525860  66.8476817 106.9064555 101.9075248  67.0748290 107.7659021
 102.1997991  67.1795193 106.2841810 107.2823597  69.9695253  97.6113884
 107.1441495  70.1596849  96.6835073 106.9259816  70.7314635  98.0681935
  95.4465723  63.9553348 103.6910896  96.0865102  63.8142107 102.9933859
  94.6143253  63.6687861 103.3149498 107.3092976  72.0371780 102.6225156
 107.7429483  71.9447069 103.4708210 108.0224557  72.0129280 101.9845172
  96.2226027  73.2555778  99.8045889  97.0166625  72.7606098  99.6028464
  95.5117719  72.7273641  99.4413594 101.0420871  75.6373874 104.1558256
 101.0957894  76.2064810 104.9235972 100.1735653  75.8075759 103.7912293
  92.5308790  67.3998860  95.8805641  91.6006378  67.3383315  96.0975603
  92.6266262  66.8774813  95.0842283  92.4494339  63.9253673  98.4683883
  92.7101157  64.8399006  98.3593043  93.2711512  63.4578115  98.6180496
  93.9219265  65.3391430 105.6382707  94.5942318  65.1308792 104.9895356
  93.0949051  65.1413516 105.1987940 108.1708526  72.0795480 105.1558041
 108.3644416  72.9841291 105.4017316 108.0709144  71.6202899 105.9896626
  99.8244837  61.9653371 107.6548368  99.1772752  62.6643320 107.5612845
 100.5945852  62.3989515 108.0224617 103.2323635  72.2302223 110.7298922
 103.0809141  72.0012775 109.8129005 103.2228314  73.1872824 110.7430267
 100.0008971  69.8034136 105.7145188 100.9301031  69.9545295 105.5414155
  99.5800001  69.8918157 104.8593835  98.7997303  73.8284800 103.4843726
  98.6608388  73.4603585 104.3569664  98.0111899  74.3432440 103.3127684
  99.3945455  78.9293897  94.8269262  99.5697210  78.4581940  95.6414885
  98.7078243  79.5559663  95.0550523 100.3502518  73.2066403 100.8732564
 100.0152351  73.1667173 101.7690213  99.8506464  72.5411119 100.4002974
  94.3246762  68.6134033 106.3985145  94.1866560  67.8814272 106.9996684
  95.2351685  68.5242933 106.1169332 103.2861710  70.5522437  91.1469623
 102.6690880  69.8269265  91.0502676 102.8178198  71.3131797  90.8036697
  96.9529063  68.3253992 105.8868824  97.6628681  67.6847184 105.8455443
  96.9098371  68.5766887 106.8095005 104.9415841  75.2621346 108.8075404
 104.8828387  74.5780566 108.1405987 105.3435360  76.0040336 108.3556030
  95.6657997  65.3119210 107.7064464  95.1295354  64.8609949 108.3586060
  95.0774705  65.4465119 106.9634928  93.9606540  82.0783259 101.6009122
  94.2003138  82.7101784 102.2788141  93.1175737  81.7271299 101.8874482
  95.0760255  64.7707861  90.2690927  94.1989722  64.6496662  89.9053174
  95.5518009  63.9793940  90.0169816 104.9433249  73.2260929 107.0389383
 104.0560027  72.8886851 107.1615782 105.5131800  72.4943961 107.2758149
  86.5962396  69.5585021 100.3632435  87.2833435  69.2446751  99.7753450
  86.4410524  70.4626386 100.0899686  91.3997118  64.4475218 104.7917458
  91.3155306  63.8400887 104.0567868  90.5779824  64.9384236 104.7926955
  98.4734402  77.8862382 104.0050626  98.4004573  78.6917353 104.5169931
  98.0311795  78.0854348 103.1798648  98.2624182  77.1234152  97.5153448
  97.4791703  77.6655832  97.6091672  98.9616927  77.6408131  97.9147689
 101.5720832  62.9328781 100.1587653 102.0689531  62.1798744  99.8388724
 100.8007813  62.9693098  99.5930863 109.4250589  68.6369147 101.8005945
 109.4140465  69.5193862 101.4299878 108.5567968  68.2840698 101.6060482
 100.9333085  77.7849216 106.1608785 101.6461058  78.4196681 106.0884687
 100.4423114  77.8813082 105.3448787 102.6550612  71.6900469  97.7326077
 101.7206891  71.8101931  97.5630781 102.8327281  70.7872935  97.4686087
  98.1555800  65.0746164  99.8859338  97.7853588  64.5217205 100.5740244
  98.6514893  64.4704298  99.3334338 106.0423164  67.5317788  98.2676111
 106.5083616  68.3645779  98.1936414 106.4930664  67.0662769  98.9721369
  95.9844999  75.5343659 106.9814356  96.6854458  76.1680142 107.1343750
  95.5140114  75.8758391 106.2209995 104.1099395  73.8761609  95.2662263
 104.3859239  73.7618204  96.1756137 103.2403894  73.4779094  95.2274436
 104.0139826  59.8998375 102.3067012 103.1002906  60.1302602 102.4749219
 104.4432928  59.9836819 103.1581045 103.7846285  68.0888267 104.8066906
 103.1317735  68.3364174 104.1519359 104.1626665  67.2752405 104.4729384
 100.7453459  78.1247960  98.9095077 100.9275853  77.3069616  99.3722829
 101.5686445  78.3415652  98.4719967 101.0795624  77.0516145  96.1710125
 101.6083391  76.5408600  95.5580287 101.3423844  76.7358675  97.0355658
  99.8333858  68.8308078 111.2932943  99.1574495  68.7302207 111.9635319
 100.6561492  68.6747292 111.7568941  91.5812717  75.0680014 103.9145459
  92.1666154  74.3223702 104.0473363  91.3837555  75.3783971 104.7982122
  94.4351372  78.1031262  98.9307901  93.7661747  78.5877389  98.4471941
  94.2964242  78.3500482  99.8451279  86.1730372  67.6385615 102.6349902
  86.2114471  67.1049205 103.4287020  85.6670665  67.1120820 102.0160879
  98.5756641  80.1375005 105.5290559  99.1274949  80.3006627 106.2939645
  98.9162834  80.7279443 104.8570584  93.5521134  62.4850155 106.1312444
  93.6162461  63.3464986 105.7189842  93.4888254  61.8724157 105.3984803
  93.0273407  64.5573288 109.7785478  93.6545445  64.1750365 110.3923003
  92.1701325  64.3387490 110.1441171  89.8038949  66.3649717  95.7103833
  90.0992390  65.4560395  95.6570887  88.9026985  66.3437456  95.3884835
 101.7125028  78.0856981 102.5154241 101.5876168  77.2846721 102.0065187
 102.3704119  78.5803174 102.0268211  93.3333196  64.4405713 101.6931382
  92.6119782  65.0541681 101.5538855  94.1226452  64.9763478 101.6148028
 103.7759936  75.8866001 104.1433792 102.8290272  75.7671352 104.0712118
 104.1242710  74.9988499 104.2260053  96.1359510  61.7760140 107.9672033
  96.6593912  62.0222436 108.7298343  95.9171843  62.6080175 107.5475171
  91.5326791  64.0463814  95.8343158  91.2039497  63.1661193  95.6518264
  91.8866162  63.9911483  96.7219547 100.7806370  75.6818717 100.3438144
 100.6331332  74.7535425 100.5245714 101.6059863  75.7038808  99.8595219
  94.6468614  64.3336784  96.2018636  94.9864687  64.8622705  95.4797244
  95.0940735  64.6717190  96.9777202 104.3840492  76.5047276 101.4303017
 105.3087039  76.2990137 101.2927468 104.2155795  76.2563677 102.3392358
  97.3412055  62.7173835 105.6521704  97.0008875  61.9181648 106.0542384
  96.6351061  63.0175546 105.0798537  97.9928527  59.8023147 104.1049027
  98.8154596  59.3283626 103.9827917  98.2366590  60.5813631 104.6047713
  96.6336761  62.8311406  94.4011929  97.3545124  63.2092659  93.8975646
  96.0102065  63.5500283  94.5046907 100.7767884  63.5356555  95.3370261
 100.9931498  64.4181193  95.0359089 100.2961951  63.1442768  94.6075903
  95.5167105  66.4942268 101.9141006  95.3711686  66.8082571 102.8065287
  95.0392309  67.1127168 101.3611904  97.3763488  63.4844816 101.9621895
  97.3625057  62.5885909 101.6254193  98.0935916  63.4915480 102.5960181
  99.2289619  63.9182156 104.0075023  98.9707397  64.8399227 104.0059353
  98.6974659  63.5212591 104.6975487 104.1735808  77.0232943  96.7865108
 104.3472685  76.4579366  96.0338960 104.6664699  77.8233838  96.6044598
  89.9912768  69.0347612 104.8528667  89.4466236  69.8107420 104.9848941
  90.8692117  69.3818417 104.6947788  96.7800384  62.3659196  97.2309465
  96.9016295  61.4375842  97.4300353  96.4902427  62.3797882  96.3187781
  99.6491575  60.0514107 100.3676185  99.6713271  60.1153440  99.4128165
 100.0659634  59.2118615 100.5616691 110.0275199  69.7869366  98.4055408
 110.4706345  69.0376691  98.0074531 109.1501709  69.7779503  98.0229140
 105.1610980  76.3399708  93.8862006 105.8561885  76.9606400  94.1049321
 105.5034130  75.4895059  94.1614384  90.7778789  68.1617509 107.7458824
  90.0360526  68.3100144 108.3323454  90.4571534  68.4225774 106.8825573
 107.0602403  73.7899413  95.4149337 107.5853728  74.1286686  94.6898657
 106.9724756  72.8546429  95.2312472  98.7222452  77.7033487 107.5439214
  99.0309579  77.4582634 108.4161913  99.5197934  77.9080125 107.0558084
  98.7443064  79.8571397  99.7744590  98.3048054  79.3647775 100.4677447
  99.4951181  79.3144364  99.5336665  91.2235403  76.0482937  99.7769218
  92.0493423  75.7486709  99.3967862  90.8729455  75.2790560 100.2259007
  96.1916936  75.4009406 101.8466892  95.5696946  74.7380111 101.5469120
  96.8621803  75.4270537 101.1640540  89.4244008  73.9669264 100.7358152
  88.5875917  73.5391438 100.5542153  89.3967654  74.1601707 101.6728943
  96.2641464  63.8791194 111.4399398  96.3129619  64.7553316 111.0577168
  96.8063978  63.3368587 110.8671041 106.8694185  71.2724783 108.0333264
 106.9192189  71.1074791 108.9748786 106.7608108  70.4052042 107.6431144
  95.7530443  73.9513329  95.3225352  95.9018564  74.6348793  94.6692025
  96.5596887  73.9318419  95.8374808 104.1597947  67.2555711 109.3492570
 105.0607810  67.1162176 109.0576568 104.2345921  67.4210166 110.2890748
  98.4940752  64.6322566 108.1945757  97.6244062  64.9256132 107.9228345
  98.7300233  65.2163011 108.9153020 108.3712381  73.6921725 108.2775285
 108.0797190  74.0551705 109.1138746 107.7584513  72.9788733 108.0988617
 109.5708064  71.2574605 100.7977855 110.4054955  71.6964409 100.9615416
 109.7067192  70.7813258  99.9786101 106.6199570  68.8154339 106.7455343
 107.0953691  69.0081986 105.9374194 105.6965135  68.8713525 106.4998727
  93.5083076  69.9778507  96.3286421  93.2629118  69.0740837  96.5266631
  93.6778991  69.9795657  95.3865899 101.1979786  60.8502183 105.7111177
 101.7161730  61.5863210 105.3857666 100.8434919  61.1566176 106.5457936
  92.7778724  65.7106864  93.8272583  92.0847969  65.7851219  93.1712619
  92.5330476  64.9467208  94.3494100 101.4492380  57.2702465 101.2312074
 101.7294134  56.6025655 101.8572500 102.2342987  57.4631561 100.7186737
  99.2525849  76.4461459  92.7937100  98.6799816  77.0651647  92.3407572
  99.8258642  76.9960821  93.3277022 105.3201239  65.6920099 104.9783649
 106.2718662  65.7918197 104.9995873 105.1504689  64.8998368 105.4881733
 103.3415618  62.7775683 105.1643050 102.7465550  63.0580695 104.4689538
 103.0565315  63.2669584 105.9359791 102.4723109  76.7298610  93.9245682
 103.4053782  76.6644171  94.1278558 102.3846321  77.5654876  93.4660215
 105.1011125  76.0464480  90.8849630 105.0224757  75.7124343  91.7785388
 105.9220792  76.5386248  90.8841102 107.7989316  68.9126219 104.0925948
 107.7665637  67.9742220 104.2785632 108.4089940  68.9910256 103.3591773
  99.6372647  67.7822272  90.1353152 100.5831752  67.6528480  90.2041570
  99.2586892  67.0436934  90.6122581 107.9483805  65.7037263 104.1384232
 107.4322854  64.9195719 103.9514160 108.8323753  65.3755979 104.3030751
 105.6094532  59.4478278 100.0980044 105.4119353  59.1393366 100.9823376
 106.2194237  60.1739917 100.2277974 113.6165866  69.9742226 103.2331985
 114.3469255  69.7127514 103.7939688 113.0072812  69.2370948 103.2734053
 111.6981163  68.1150089 103.8306436 110.9714327  67.9806054 103.2222928
 111.2828450  68.4226917 104.6363154  99.5211340  71.8340018 111.5953809
 100.4414349  72.0118617 111.7893856  99.4860923  70.8896064 111.4433509
  97.8215564  65.7072249  90.0708038  96.9147020  65.4105361  90.1470751
  98.0991545  65.4102067  89.2042324  88.7393505  67.0278612 100.5207084
  88.4196289  66.1743920 100.2281458  88.1926933  67.2427190 101.2765051
  92.5173412  69.7441053 104.2376591  92.7359422  70.6758161 104.2564624
  92.9299186  69.3849027 105.0231394  99.4377630  60.2509138  96.2252279
  98.6278358  59.9056223  96.6007525 100.1262047  59.9416682  96.8139890
 101.3668178  59.3287185  97.8476576 101.9199217  59.7482638  98.5066599
 101.6038265  58.4022933  97.8899532  97.3901278  65.3174259 113.6279339
  97.2898005  66.2668616 113.5591431  97.1722820  64.9892498 112.7555410
  96.5914349  62.5659184  90.2120017  97.4533513  62.8914082  90.4715834
  96.7764693  61.7790680  89.6993083  88.6081765  70.6481523 102.4900206
  87.9145236  70.2335476 101.9770160  89.3554756  70.6902060 101.8933624
 104.7446986  61.4387710  97.3555240 104.1645655  62.0972514  96.9733292
 104.4782918  60.6165055  96.9442657 103.1950552  60.8392768  99.5576560
 103.6950330  60.9509302  98.7490879 103.8386160  60.5353821 100.1977369
  97.2532548  68.7471398 112.4444401  96.7699629  69.5471758 112.6508290
  97.3393487  68.7579342 111.4911845  90.5218507  70.5799777 100.3666220
  90.4989195  70.6787464  99.4148104  90.8319144  71.4264928 100.6883387
  93.1805885  72.6375932 104.4812835  94.1349139  72.6059875 104.4142766
  92.9818409  72.1766556 105.2963061  93.7705267  71.2077048 107.0483633
  94.5898156  71.7021127 107.0718470  94.0442075  70.2909016 107.0201200
 103.5271864  63.5987801  96.4111588 102.6397719  63.8837451  96.1931783
 103.9425853  63.4381564  95.5638865 106.8786400  63.6234322 100.1265927
 107.6546790  64.1130774 100.3990544 106.1534534  64.0492376 100.5837797
 109.3158958  64.3361941 101.1839868 109.9103449  64.0957677 100.4733176
 109.3885542  63.6169071 101.8113404  91.5356114  78.1795552 101.4983033
  91.4010582  77.4195953 100.9321031  91.1188176  78.9036452 101.0311822
 102.6715077  73.3632475  90.5059608 103.3750927  73.5682478  91.1217264
 101.9477726  73.9309237  90.7708692 103.5012887  69.1142337  96.6261878
 103.4448089  69.5710888  95.7869511 104.0541230  68.3533021  96.4484721
 107.3117693  64.9032068  97.4511998 107.0554627  64.5028704  98.2820205
 106.6870561  65.6175862  97.3262137 111.6230031  67.6428142  99.9583289
 111.0629589  67.7121331 100.7314851 111.0173534  67.4669126  99.2382785
  94.6925240  79.0764869 101.7101475  94.5757624  80.0210301 101.6080166
  93.8717686  78.7738430 102.0987275 104.5801774  73.8015004  92.5558068
 105.4147378  73.3696203  92.3735543 104.4186117  73.6297018  93.4834963
 104.2347667  70.3047118  93.9214407 104.1796470  70.1391389  92.9802851
 103.6093722  71.0123151  94.0776597  89.0240182  65.5415182 107.7475830
  89.6699045  65.0314136 108.2363055  88.8157333  66.2783864 108.3219255
  97.5443792  59.8055227  93.4999726  97.5322462  60.7497067  93.6567997
  98.4367214  59.6225372  93.2059187  95.7179754  79.7293131 104.9257404
  96.6207001  79.7616741 105.2423899  95.4917124  78.7993582 104.9403740
  97.4733356  78.4824117 101.5867482  96.5228987  78.4825979 101.4731855
  97.7765842  77.7356852 101.0703517 101.3595912  56.3998003  97.7545663
 100.5928307  55.8456490  97.9002345 101.7706616  56.4719872  98.6159814
  93.3637673  62.6882799 111.8450844  94.2269134  62.3319604 112.0554168
  92.7903083  62.3496694 112.5326248 110.0175756  84.2712084 102.5874770
 109.6794267  84.1553148 101.6995304 110.8865524  83.8703249 102.5675776
 105.8762571  86.1247560  98.5771660 105.3127437  86.0337497  97.8087948
 105.7614967  85.3047465  99.0574153 103.4227003  87.6198752 101.4155881
 104.2148295  87.2789576 101.0002180 103.6623654  87.7293727 102.3358034
 111.4562130  89.7918528  93.8886125 110.8050110  90.3772608  93.5020139
 112.2506493  90.3224723  93.9481163 105.3817757  86.8807665  94.2873260
 106.1548633  86.3336652  94.1486136 105.7343156  87.7451914  94.4987721
 107.7184035  83.0400331  91.9191710 107.9709556  82.5181852  91.1575173
 106.7808594  82.8766476  92.0218393 112.7627318  82.0436109  99.7266453
 113.5490407  81.6255533  99.3756870 113.0266022  82.9482202  99.8948101
 112.9337395  87.4808960  94.4255110 112.2983228  87.5543586  95.1376014
 112.6034802  88.0702559  93.7474189 118.1635745  81.9811343 100.6299431
 118.8960917  81.4110559 100.8637261 117.4075101  81.5932943 101.0705937
 107.4380324  84.9428437  94.1216085 107.3216582  84.2673340  94.7897169
 107.5482584  84.4560811  93.3048238 109.7811865  84.4038584  97.8262774
 109.4170072  83.8769205  98.5375695 110.6378981  84.0137053  97.6529259
 115.6861165  75.6932917 105.0894040 115.3544490  76.5628328 104.8655255
 115.0906779  75.3769201 105.7688070 109.4217352  79.4328484  92.8224122
 109.5891754  80.3008720  93.1894593 109.2314521  79.5955766  91.8985412
 105.6305166  84.3459260 100.5226657 104.7055663  84.2135474 100.7304349
 105.8789580  85.1253479 101.0196600 109.4006573  81.8886141  93.8070789
 109.2806198  82.3343192  94.6456269 108.7059161  82.2371459  93.2484327
 102.9913978  83.9892533 101.3570446 103.1206359  84.2427012 102.2709858
 102.3111429  84.5820241 101.0375101 107.1613465  94.6589783  97.4560920
 107.0837494  95.6097608  97.5349401 106.5575108  94.3135656  98.1135847
 115.0991639  82.3607614  94.6351123 116.0109495  82.5935001  94.4598821
 114.5901286  82.9444659  94.0726202 112.4427614  78.5365650 102.8840984
 111.5812093  78.8346904 103.1757722 112.4690048  78.7536049 101.9522017
 109.2589183  87.0807841  99.2914790 109.7227529  87.3595544  98.5019412
 108.9945981  86.1791286  99.1087880 106.1513264  86.6279323 102.2294553
 106.7214621  87.0566591 101.5912038 106.7421376  86.3461907 102.9278739
 108.1958069  83.2030993  96.1004355 108.8982112  83.6552037  96.5678281
 107.8638698  82.5614812  96.7284248 101.9383403  81.4614546 101.4021488
 101.1482457  81.7172075 100.9261599 102.4294650  82.2762884 101.5073529
 103.8898148  81.8259125  98.3604965 103.0929312  81.9377820  98.8788461
 103.6623741  82.1645778  97.4945856 100.2221106  81.7145037 103.8336479
 100.4729144  82.5992046 104.0994055 100.7580654  81.5349638 103.0611571
 109.4351834  90.0171936  96.1766460 109.2997509  90.8623472  96.6051308
 109.9761646  90.2191214  95.4132394 102.8881231  87.5347374  96.7494385
 103.4005752  88.3290624  96.8999950 103.5403944  86.8373665  96.6827987
 104.6976116  90.6513130  98.8317138 104.8742744  91.5731095  98.6438122
 105.4932949  90.3371550  99.2611518 112.7844297  73.5402498 104.7065354
 112.4408567  74.4304140 104.6304464 113.1523260  73.3504156 103.8434939
 100.8530148  85.8636028  97.5253956 101.6905370  86.2733037  97.3087663
 101.0308416  84.9235471  97.4954150 112.7494580  83.5311109  93.2137789
 112.2341203  84.3015714  93.4526176 112.4771888  82.8576245  93.8370850
 110.3341691  78.3760810  98.2723027 109.4783287  77.9867660  98.0928666
 110.7468643  78.4552771  97.4122813 111.8640838  75.9107153 102.6714587
 111.3605633  75.8737288 101.8582392 112.1571445  76.8199896 102.7311244
 108.1083724  75.9945883 101.6780769 108.9736720  75.7988691 101.3186658
 108.1761232  75.7656235 102.6050125 117.7228854  86.2843464  95.1490962
 116.9458297  85.9454623  94.7046124 118.4020335  86.2896087  94.4745927
 112.5380883  81.4038201  95.0397570 112.2331019  81.7184350  95.8907713
 113.4911325  81.4819621  95.0824903 110.9827315  87.5628424  96.6890524
 110.4548677  86.8281184  96.3763761 110.4814818  88.3403101  96.4430492
 105.7146043  78.2248091  99.0497135 106.2889795  78.0023272  98.3170328
 106.3017025  78.2936785  99.8025737 114.7725620  84.1121818  99.8561512
 115.2857502  84.7451809 100.3583222 115.4226844  83.5123013  99.4904872
 106.0415630  80.2552552  93.0693021 105.2052942  80.5927238  93.3902295
 105.9020399  80.1201532  92.1320158 108.0168710  75.0989340  97.7772205
 107.3633123  74.7838357  97.1528820 107.9749184  74.4765080  98.5032028
 109.1279915  85.3808635  89.6925497 108.2206977  85.1497888  89.8916646
 109.6250947  84.5846254  89.8799478 112.0347994  94.0906142  92.6122183
 111.3609693  94.3937839  93.2207141 112.4213816  94.8935222  92.2627640
 111.2506451  81.5871273 102.1019852 110.3329012  81.8086220 101.9441541
 111.6666594  81.6617584 101.2431560 112.0341498  82.9862689  97.2322533
 112.7813317  83.4984086  96.9229655 112.3033088  82.6646742  98.0926926
 110.3068149  85.4821230  94.2149487 109.3979368  85.1980262  94.3121957
 110.3363232  85.9020308  93.3552794 114.4820336  80.0219805  99.2141322
 113.7443092  79.5097191  99.5451565 114.7347109  79.5820187  98.4024599
 114.5831963  72.7996057  99.8083091 114.8890840  71.9393421  99.5209006
 115.3084568  73.3913677  99.6082085 100.8756319  83.2026744  98.1964689
 100.6780719  82.6096104  97.4715756 100.3202983  82.8978954  98.9140628
 108.8553043  83.0949850 100.3159282 108.9101652  82.1423687 100.2401759
 108.0444245  83.2509289 100.8000581 110.0044236  87.0229973  91.5537566
 109.5663666  86.3065832  91.0943203 110.7454677  87.2506088  90.9922657
 106.7945403  81.7126910  98.0749661 105.9813268  82.0121080  98.4814853
 107.2904397  81.3182599  98.7924143 118.1217351  85.2987170  97.6113884
 117.9835250  85.4888766  96.6835073 117.7653570  86.0606553  98.0681935
 106.2859477  79.2845265 103.6910896 106.9258857  79.1434025 102.9933859
 105.4537008  78.9979779 103.3149498 107.0619781  88.5847696  99.8045889
 107.8560380  88.0898016  99.6028464 106.3511474  88.0565559  99.4413594
 103.3702545  82.7290778  95.8805641 102.4400133  82.6675233  96.0975603
 103.4660017  82.2066730  95.0842283 103.2888094  79.2545590  98.4683883
 103.5494911  80.1690924  98.3593043 104.1105266  78.7870033  98.6180496
 104.7613019  80.6683348 105.6382707 105.4336073  80.4600710 104.9895356
 103.9342806  80.4705434 105.1987940 110.2339209  94.2585814  94.8269262
 110.4090965  93.7873857  95.6414885 109.5471997  94.8851580  95.0550523
 114.1255464  85.8814355  91.1469623 113.5084635  85.1561183  91.0502676
 113.6571953  86.6423715  90.8036697 105.9154010  80.0999779  90.2690927
 105.0383476  79.9788580  89.9053174 106.3911763  79.3085857  90.0169816
  97.4356150  84.8876939 100.3632435  98.1227190  84.5738669  99.7753450
  97.2804279  85.7918304 100.0899686 102.2390872  79.7767135 104.7917458
 102.1549061  79.1692805 104.0567868 101.4173579  80.2676154 104.7926955
 109.1017936  92.4526070  97.5153448 108.3185458  92.9947750  97.6091672
 109.8010681  92.9700049  97.9147689 112.4114586  78.2620699 100.1587653
 112.9083286  77.5090661  99.8388724 111.6401568  78.2985016  99.5930863
 113.4944367  87.0192386  97.7326077 112.5600646  87.1393849  97.5630781
 113.6721035  86.1164853  97.4686087 108.9949555  80.4038082  99.8859338
 108.6247342  79.8509122 100.5740244 109.4908647  79.7996215  99.3334338
 116.8816918  82.8609705  98.2676111 117.3477370  83.6937697  98.1936414
 117.3324419  82.3954687  98.9721369 114.9493149  89.2053527  95.2662263
 115.2252993  89.0910121  96.1756137 114.0797648  88.8071012  95.2274436
 114.8533581  75.2290292 102.3067012 113.9396661  75.4594519 102.4749219
 115.2826682  75.3128737 103.1581045 111.9189379  92.3808063  96.1710125
 112.4477145  91.8700517  95.5580287 112.1817598  92.0650593  97.0355658
  97.0124126  82.9677532 102.6349902  97.0508226  82.4341123 103.4287020
  96.5064419  82.4412738 102.0160879 104.3914889  77.8142073 106.1312444
 104.4556215  78.6756904 105.7189842 104.3282009  77.2016074 105.3984803
 100.6432704  81.6941634  95.7103833 100.9386145  80.7852313  95.6570887
  99.7420740  81.6729374  95.3884835 104.1726951  79.7697631 101.6931382
 103.4513537  80.3833599 101.5538855 104.9620207  80.3055396 101.6148028
 102.3720545  79.3755732  95.8343158 102.0433252  78.4953111  95.6518264
 102.7259916  79.3203401  96.7219547 105.4862369  79.6628702  96.2018636
 105.8258441  80.1914623  95.4797244 105.9334489  80.0009108  96.9777202
 108.1805809  78.0465753 105.6521704 107.8402630  77.2473566 106.0542384
 107.4744816  78.3467463 105.0798537 108.8322281  75.1315065 104.1049027
 109.6548351  74.6575543 103.9827917 109.0760345  75.9105549 104.6047713
 107.4730516  78.1603323  94.4011929 108.1938878  78.5384576  93.8975646
 106.8495820  78.8792200  94.5046907 111.6161639  78.8648472  95.3370261
 111.8325253  79.7473110  95.0359089 111.1355706  78.4734686  94.6075903
 106.3560860  81.8234186 101.9141006 106.2105441  82.1374489 102.8065287
 105.8786064  82.4419086 101.3611904 108.2157243  78.8136734 101.9621895
 108.2018812  77.9177827 101.6254193 108.9329671  78.8207397 102.5960181
 110.0683374  79.2474074 104.0075023 109.8101151  80.1691144 104.0059353
 109.5368414  78.8504508 104.6975487 100.8306522  84.3639530 104.8528667
 100.2859990  85.1399338 104.9848941 101.7085872  84.7110335 104.6947788
 107.6194139  77.6951114  97.2309465 107.7410050  76.7667760  97.4300353
 107.3296181  77.7089800  96.3187781 110.4885329  75.3806024 100.3676185
 110.5107026  75.4445357  99.4128165 110.9053388  74.5410533 100.5616691
 116.0004735  91.6691625  93.8862006 116.6955639  92.2898318  94.1049321
 116.3427885  90.8186977  94.1614384 117.8996158  89.1191331  95.4149337
 118.4247482  89.4578604  94.6898657 117.8118510  88.1838346  95.2312472
 102.0629158  91.3774855  99.7769218 102.8887178  91.0778627  99.3967862
 101.7123210  90.6082477 100.2259007 100.2637763  89.2961181 100.7358152
  99.4269671  88.8683356 100.5542153 100.2361408  89.4893625 101.6728943
 106.5924198  89.2805247  95.3225352 106.7412318  89.9640711  94.6692025
 107.3990641  89.2610337  95.8374808 104.3476831  85.3070424  96.3286421
 104.1022873  84.4032754  96.5266631 104.5172745  85.3087575  95.3865899
 112.0373541  76.1794101 105.7111177 112.5555484  76.9155128 105.3857666
 111.6828673  76.4858094 106.5457936 103.6172478  81.0398782  93.8272583
 102.9241723  81.1143137  93.1712619 103.3724230  80.2759125  94.3494100
 112.2886135  72.5994383 101.2312074 112.5687889  71.9317572 101.8572500
 113.0736742  72.7923479 100.7186737 110.0919603  91.7753377  92.7937100
 109.5193570  92.3943564  92.3407572 110.6652397  92.3252739  93.3277022
 113.3116863  92.0590527  93.9245682 114.2447536  91.9936089  94.1278558
 113.2240076  92.8946794  93.4660215 115.9404880  91.3756398  90.8849630
 115.8618511  91.0416261  91.7785388 116.7614547  91.8678165  90.8841102
 110.4766402  83.1114190  90.1353152 111.4225506  82.9820398  90.2041570
 110.0980647  82.3728852  90.6122581 116.4488286  74.7770196 100.0980044
 116.2513107  74.4685284 100.9823376 117.0587992  75.5031835 100.2277974
 108.6609319  81.0364166  90.0708038 107.7540774  80.7397279  90.1470751
 108.9385300  80.7393984  89.2042324  99.5787259  82.3570530 100.5207084
  99.2590044  81.5035838 100.2281458  99.0320687  82.5719108 101.2765051
 103.3567167  85.0732971 104.2376591 103.5753177  86.0050078 104.2564624
 103.7692941  84.7140945 105.0231394 110.2771385  75.5801056  96.2252279
 109.4672113  75.2348141  96.6007525 110.9655802  75.2708600  96.8139890
 112.2061933  74.6579103  97.8476576 112.7592972  75.0774556  98.5066599
 112.4432019  73.7314851  97.8899532 107.4308104  77.8951101  90.2120017
 108.2927268  78.2206000  90.4715834 107.6158448  77.1082597  89.6993083
  99.4475519  85.9773441 102.4900206  98.7538991  85.5627394 101.9770160
 100.1948510  86.0193978 101.8933624 115.5840740  76.7679628  97.3555240
 115.0039409  77.4264432  96.9733292 115.3176673  75.9456972  96.9442657
 114.0344306  76.1684686  99.5576560 114.5344085  76.2801220  98.7490879
 114.6779914  75.8645738 100.1977369 101.3612262  85.9091695 100.3666220
 101.3382950  86.0079382  99.4148104 101.6712898  86.7556846 100.6883387
 114.3665618  78.9279718  96.4111588 113.4791473  79.2129369  96.1931783
 114.7819607  78.7673482  95.5638865 117.7180154  78.9526239 100.1265927
 118.4940544  79.4422692 100.3990544 116.9928288  79.3784293 100.5837797
 120.1552713  79.6653858 101.1839868 120.7497204  79.4249594 100.4733176
 120.2279296  78.9460989 101.8113404 113.5108831  88.6924393  90.5059608
 114.2144682  88.8974395  91.1217264 112.7871480  89.2601155  90.7708692
 114.3406642  84.4434254  96.6261878 114.2841843  84.9002806  95.7869511
 114.8934984  83.6824939  96.4484721 118.1511448  80.2323986  97.4511998
 117.8948382  79.8320622  98.2820205 117.5264316  80.9467780  97.3262137
 115.4195529  89.1306922  92.5558068 116.2541133  88.6988121  92.3735543
 115.2579872  88.9588936  93.4834963 115.0741421  85.6339035  93.9214407
 115.0190225  85.4683307  92.9802851 114.4487476  86.3415068  94.0776597
  99.8633936  80.8707100 107.7475830 100.5092800  80.3606054 108.2363055
  99.6551087  81.6075781 108.3219255 108.3837547  75.1347144  93.4999726
 108.3716216  76.0788984  93.6567997 109.2760968  74.9517290  93.2059187
 112.1989666  71.7289921  97.7545663 111.4322062  71.1748408  97.9002345
 112.6100371  71.8011790  98.6159814 116.8809384  95.5844469  93.0693021
 116.0446696  95.9219156  93.3902295 116.7414154  95.4493449  92.1320158
 116.7547764  95.4291697  90.2690927 115.8777231  95.3080498  89.9053174
 117.2305518  94.6377775  90.0169816 114.4566233  96.3690699  93.8272583
 113.7635478  96.4435054  93.1712619 114.2117985  95.6051043  94.3494100
 119.5003073  96.3656084  90.0708038 118.5934529  96.0689197  90.1470751
 119.7779054  96.0685902  89.2042324 118.2701858  93.2243019  90.2120017
 119.1321022  93.5497917  90.4715834 118.4552202  92.4374515  89.6993083
 119.2231301  90.4639062  93.4999726 119.2109971  91.4080902  93.6567997
 120.1154723  90.2809208  93.2059187  52.9644694  -4.9807683  84.1806227
  52.8868723  -4.0299858  84.2594708  52.3606337  -5.3261810  84.8381153
  50.6031523  -2.2322289  88.3254429  50.8428122  -1.6003765  89.0033448
  49.7600720  -2.5834249  88.6119788  51.0776356  -6.2074286  85.6553208
  50.4086731  -5.7228159  85.1717248  50.9389225  -5.9605066  86.5696586
  55.2181624  -4.1730543  92.2535866  55.7699932  -4.0098921  93.0184951
  55.5587818  -3.5826105  91.5815891  55.3868047  -4.4534152  86.4989897
  54.9473038  -4.9457773  87.1922754  56.1376164  -4.9961184  86.2581972
  48.1781097  -6.1309996  88.2228339  48.0435565  -6.8909596  87.6566337
  47.7613160  -5.4069097  87.7557128  51.3350223  -5.2340679  88.4346782
  51.2182607  -4.2895247  88.3325472  50.5142669  -5.5367118  88.8232581
  52.3604737  -4.5812417  91.6502710  53.2631984  -4.5488807  91.9669205
  52.1342107  -5.5111967  91.6649046  66.6600739  -0.0393464  89.3120076
  66.3219251  -0.1552400  88.4240611  67.5290507  -0.4402299  89.2921082
  62.5187555   1.8142012  85.3016967  61.9552420   1.7231949  84.5333255
  62.4039950   0.9941916  85.7819460  67.1420522   1.1141387  95.2706282
  67.1309163   0.7194186  94.3986785  67.3041162   0.3807460  95.8640053
  60.0651987   3.3093204  88.1401188  60.8573279   2.9684028  87.7247487
  60.3048637   3.4188179  89.0603341  68.0987114   5.4812980  80.6131432
  67.4475093   6.0667060  80.2265446  68.8931476   6.0119175  80.6726469
  62.0242741   2.5702117  81.0118566  62.7973617   2.0231104  80.8731442
  62.3768140   3.4346366  81.2233028  63.8627783   3.8978499  94.2185466
  63.5717649   4.8024130  94.1032132  64.4984768   3.9395027  94.9329535
  64.7883990   1.2755348  90.8086825  65.3847562   1.0511370  90.0943788
  64.8458962   0.5340093  91.4112273  64.3609018  -1.2705217  78.6437016
  64.6134539  -1.7923696  77.8820479  63.4233578  -1.4339072  78.7463700
  69.5762379   3.1703412  81.1500416  68.9408212   3.2438038  81.8621321
  69.2459785   3.7597010  80.4719496  64.0805307   0.6322889  80.8461391
  63.9641565  -0.0432208  81.5142476  64.1907567   0.1455263  80.0293544
  66.4236848   0.0933036  84.5508080  66.0595055  -0.4336343  85.2621002
  67.2803964  -0.2968495  84.3774566  68.8217668   3.5839915  91.2135259
  68.5218391   4.4864953  91.1051067  68.4768728   3.3172098  92.0656412
  62.2730150   0.0353711  87.2471964  61.3480646  -0.0970074  87.4549656
  62.5214563   0.8147931  87.7441906  59.6338961  -0.3213015  88.0815753
  59.7631342  -0.0678536  88.9955165  58.9536412   0.2714693  87.7620408
  63.8038448  10.3484235  84.1806227  63.7262478  11.2992060  84.2594708
  63.2000092  10.0030107  84.8381153  64.5502050   0.3297554  96.3985561
  65.2916735   0.8682598  96.1220385  63.8439036   0.9563842  96.5557113
  70.0257390   2.4726694  94.9957722  70.4340746   2.0309105  94.2512355
  69.3034651   1.8979322  95.2491915  70.3486204   3.0327885  88.7510011
  69.7195067   3.1973599  88.0486079  69.9611867   3.4469494  89.5220975
  74.2275436   3.9682323  86.1054375  73.5426475   4.3481224  85.5551408
  74.3119286   4.5777649  86.8386323  71.4826368   1.6142282  92.7049719
  71.6943263   2.2574042  92.0284100  71.4356116   0.7804598  92.2371649
  65.9014166   2.7702293  86.0160096  66.3652512   3.0489996  85.2264719
  65.6370964   1.8685737  85.8333187  62.7938247   2.3173774  88.9539860
  63.3639604   2.7461043  88.3157344  63.3846359   2.0356359  89.6524045
  64.8383052  -1.1074555  82.8249662  65.5407096  -0.6553511  83.2923588
  64.5063681  -1.7490736  83.4529555  63.2863414  -2.5162798  97.2000871
  62.6562075  -1.8346517  97.4336268  63.1799502  -2.6279716  96.2554009
  58.5808386  -2.8491002  88.1266795  57.7907440  -2.5933474  87.6506906
  59.0719634  -2.0342664  88.2318836  72.5972196   4.4914237  90.8772076
  73.4189640   4.0894424  90.5954758  72.5934599   4.3882471  91.8288192
  60.5323132  -2.4846423  85.0850272  59.7354295  -2.3727729  85.6033767
  60.3048724  -2.1459771  84.2191162  66.3628799   4.0398280  93.0332786
  66.4273232   4.5018688  93.8690958  65.6539723   3.4095645  93.1615096
  56.8646089  -2.5960512  90.5581786  57.1154128  -1.7113502  90.8239362
  57.4005638  -2.7755910  89.7856878  66.0776817   5.7066388  82.9011767
  65.9422492   6.5517924  83.3296615  66.6186630   5.9085666  82.1377701
  59.5306214   3.2241826  83.4739692  60.0430735   4.0185076  83.6245257
  60.1828927   2.5268116  83.4073293  61.3401099   6.3407582  85.5562445
  61.5167727   7.2625547  85.3683429  62.1357933   6.0266001  85.9856825
  60.6253456  -1.6127786  95.4324608  60.5106971  -2.5142529  95.7331707
  59.7697973  -1.3664089  95.0809425  67.7045293   6.3289954  97.0312109
  67.2609148   5.5426333  96.7133013  68.3662507   6.5169105  96.3656000
  62.4632415   7.8585756  91.5572787  63.0139840   7.7302819  90.7849781
  61.6243890   8.1580645  91.2067680  69.8026531   6.6092754  95.0593510
  69.7845007   7.4301635  94.5673779  70.7246452   6.4846830  95.2843651
  66.2599586   4.1236884  95.9017018  66.7927922   3.3625172  95.6716326
  65.7313667   3.8310536  96.6441173  57.4955131   1.5530480  84.2499262
  58.3330353   1.9627489  84.0332970  57.6733399   0.6129922  84.2199456
  74.3653837   1.9737916  81.8736269  73.5883280   1.6349075  81.4291431
  75.0445318   1.9790539  81.1991234  67.6252298   3.2522876  83.4135831
  67.0973660   2.5175636  83.1009068  67.1239801   4.0297553  83.1675799
  72.6045144   1.4471897  88.5302877  71.9468819   2.1371158  88.6183005
  73.4085544   1.8368329  88.8736863  65.7704898   1.0703087  76.4170804
  64.8631960   0.8392340  76.6161953  66.2675930   0.2740706  76.6044785
  68.6772977   9.7800594  79.3367490  68.0034676  10.0832291  79.9452448
  69.0638799  10.5829674  78.9872947  66.9493132   1.1715681  80.9394794
  66.0404351   0.8874714  81.0367263  66.9788216   1.5914760  80.0798100
  72.1812399   4.7822271  84.7085961  71.7274726   3.9413181  84.7651152
  71.5506366   5.4183669  85.0460741  70.6245339   6.6198768  85.6435779
  70.9168313   7.1803825  84.9248145  71.1343959   6.9127329  86.3988938
  57.5181302  -1.1078804  84.9209996  57.3205702  -1.7009444  84.1961062
  56.9627966  -1.4126594  85.6385935  66.6469220   2.7124425  78.2782872
  66.2088650   1.9960284  77.8188510  67.3879661   2.9400540  77.7167964
  65.5878964   7.3979119  86.7329233  65.5455143   7.6239965  85.8037765
  66.5041663   7.1642493  86.8815034  74.7911714   3.0558149  89.3470462
  75.2248221   2.9633438  90.1953516  75.5043295   3.0315650  88.7090478
  63.7044765   4.2742148  86.5291195  64.4985363   3.7792468  86.3273770
  62.9936457   3.7460011  86.1658901  68.5239609   6.6560243  90.8803563
  68.5776631   7.2251180  91.6481279  67.6554390   6.8262128  90.5157600
  60.0127528  -1.5814771  82.6050948  59.0825116  -1.6430315  82.8220910
  60.1085000  -2.1038818  81.8087589  75.6527264   3.0981850  91.8803348
  75.8463154   4.0027660  92.1262623  75.5527882   2.6389269  92.7141933
  70.7142372   3.2488593  97.4544228  70.5627879   3.0199144  96.5374312
  70.7047052   4.2059194  97.4675573  67.4827709   0.8220505  92.4390495
  68.4119769   0.9731665  92.2659462  67.0618739   0.9104526  91.5839141
  66.2816041   4.8471170  90.2089032  66.1427126   4.4789954  91.0814970
  65.4930637   5.3618809  90.0372990  66.8764193   9.9480266  81.5514569
  67.0515948   9.4768309  82.3660192  66.1896981  10.5746032  81.7795830
  67.8321256   4.2252772  87.5977870  67.4971088   4.1853542  88.4935520
  67.3325201   3.5597488  87.1248280  61.8065500  -0.3679598  93.1230451
  61.6685298  -1.0999359  93.7241990  62.7170423  -0.4570697  92.8414639
  70.7680447   1.5708807  77.8714930  70.1509618   0.8455635  77.7747982
  70.2996936   2.3318167  77.5282004  64.4347800  -0.6559638  92.6114131
  65.1447419  -1.2966446  92.5700749  64.3917108  -0.4046743  93.5340312
  72.4234579   6.2807715  95.5320710  72.3647125   5.5966935  94.8651293
  72.8254097   7.0226705  95.0801336  61.4425278  13.0969629  88.3254429
  61.6821876  13.7288153  89.0033448  60.5994474  12.7457669  88.6119788
  72.4251986   4.2447299  93.7634690  71.5378765   3.9073221  93.8861089
  72.9950537   3.5130330  94.0003455  54.0781133   0.5771391  87.0877741
  54.7652173   0.2633121  86.4998757  53.9229262   1.4812755  86.8144993
  65.9553140   8.9048751  90.7295933  65.8823311   9.7103723  91.2415238
  65.5130533   9.1040717  89.9043954  65.7442919   8.1420521  84.2398755
  64.9610441   8.6842202  84.3336979  66.4435664   8.6594501  84.6392996
  68.4151823   8.8035585  92.8854092  69.1279795   9.4383050  92.8129993
  67.9241852   8.8999451  92.0694094  70.1369350   2.7086838  84.4571383
  69.2025629   2.8288301  84.2876088  70.3146019   1.8059305  84.1931393
  63.4663737   6.5530029  93.7059663  64.1673196   7.1866512  93.8589057
  62.9958852   6.8944760  92.9455302  71.5918133   4.8947979  81.9907570
  71.8677976   4.7804573  82.9001444  70.7222631   4.4965464  81.9519743
  68.2272197   9.1434330  85.6340383  68.4094591   8.3255985  86.0968135
  69.0505183   9.3602022  85.1965273  68.5614362   8.0702515  82.8955432
  69.0902129   7.5594969  82.2825594  68.8242582   7.7545045  83.7600965
  67.3152596  -0.1505553  98.0178250  66.6393233  -0.2511423  98.6880625
  68.1380230  -0.3066339  98.4814247  59.0631455   6.0866384  90.6390765
  59.6484892   5.3410072  90.7718669  58.8656293   6.3970341  91.5227429
  61.9170110   9.1217631  85.6553208  61.2480485   9.6063759  85.1717248
  61.7782980   9.3686852  86.5696586  53.6549110  -1.3428016  89.3595208
  53.6933209  -1.8764425  90.1532326  53.1489402  -1.8692810  88.7406186
  66.0575379  11.1561375  92.2535866  66.6093687  11.3192996  93.0184951
  66.3981572  11.7465813  91.5815891  70.9086253   5.9822632  98.1084520
  71.4526157   6.5952591  97.6139475  70.3273098   6.5402211  98.6251533
  57.2857687  -2.6163914  82.4349140  57.5811128  -3.5253235  82.3816193
  56.3845723  -2.6376174  82.1130142  69.1943766   9.1043350  89.2399548
  69.0694905   8.3033090  88.7310494  69.8522857   9.5989544  88.7513518
  71.2578674   6.9052370  90.8679098  70.3109010   6.7857722  90.7957425
  71.6061447   6.0174868  90.9505360  68.2625108   6.7005087  87.0683450
  68.1150070   5.7721794  87.2491020  69.0878601   6.7225177  86.5840526
  71.8659229   7.5233645  88.1548323  72.7905777   7.3176507  88.0172774
  71.6974533   7.2750047  89.0637665  62.9985843  -2.4871362  88.6386312
  62.8530424  -2.1731059  89.5310594  62.5211047  -1.8686462  88.0857211
  71.6554546   8.0419313  83.5110415  71.8291423   7.4765735  82.7584267
  72.1483437   8.8420208  83.3289905  57.4731505   0.0533982  91.5773973
  56.9284973   0.8293790  91.7094248  58.3510855   0.4004786  91.4193095
  72.6429718   7.3586077  80.6107313  73.3380623   7.9792770  80.8294628
  72.9852868   6.5081428  80.8859691  58.2597527  -0.8196122  94.4704130
  57.5179263  -0.6713486  95.0568761  57.9390272  -0.5587856  93.6070880
  74.5421141   4.8085783  82.1394644  75.0672465   5.1473056  81.4143964
  74.4543494   3.8732798  81.9557778  66.2041190   8.7219856  94.2684520
  66.5128316   8.4769003  95.1407220  67.0016672   8.9266495  93.7803391
  66.2261802  10.8757766  86.4989897  65.7866792  10.3834145  87.1922754
  66.9769919  10.3330734  86.2581972  58.7054141   7.0669307  86.5014525
  59.5312161   6.7673079  86.1213168  58.3548193   6.2976929  86.9504314
  63.6735674   6.4195775  88.5712199  63.0515683   5.7566480  88.2714426
  64.3440541   6.4456907  87.8885846  56.9062746   4.9855633  87.4603459
  56.0694654   4.5577808  87.2787460  56.8786391   5.1788077  88.3974250
  74.2315047   5.4418686  97.4445842  73.4410591   5.4242825  96.9050341
  73.9948402   5.9806980  98.1994878  74.3512922   2.2911153  94.7578570
  74.4010927   2.1261160  95.6994093  74.2426846   1.4238412  94.3676451
  63.2349181   4.9699699  82.0470659  63.3837301   5.6535163  81.3937332
  64.0415624   4.9504789  82.5620115  75.8531119   4.7108094  95.0020592
  75.5615927   5.0738075  95.8384053  75.2403250   3.9975103  94.8233924
  60.9901814   0.9964876  83.0531728  60.7447856   0.0927206  83.2511938
  61.1597729   0.9982027  82.1111206  66.7344587   7.4647829  79.5182407
  66.1618554   8.0838016  79.0652878  67.3077380   8.0147191  80.0522328
  69.9541846   7.7484979  80.6490989  70.8872519   7.6830541  80.8523864
  69.8665059   8.5841246  80.1905521  72.5829863   7.0650849  77.6094936
  72.5043495   6.7310713  78.5030694  73.4039530   7.5572617  77.6086409
  67.0030078   2.8526388  98.3199116  67.9233087   3.0304987  98.5139162
  66.9679661   1.9082433  98.1678815  56.2212243  -1.9535019  87.2452391
  55.9015027  -2.8069710  86.9526765  55.6745671  -1.7386440  88.0010358
  59.9992150   0.7627422  90.9621897  60.2178160   1.6944530  90.9809931
  60.4117924   0.4035397  91.7476701  56.0900503   1.6667893  89.2145512
  55.3963974   1.2521846  88.7015467  56.8373494   1.7088429  88.6178931
  64.7351286  -0.2342233  99.1689708  64.2518367   0.5658127  99.3753597
  64.8212225  -0.2234288  98.2157152  58.0037245   1.5986147  87.0911527
  57.9807933   1.6973834  86.1393410  58.3137882   2.4451298  87.4128693
  60.6624623   3.6562302  91.2058142  61.6167877   3.6246244  91.1388073
  60.4637147   3.1952926  92.0208367  61.2524005   2.2263418  93.7728939
  62.0716894   2.7207497  93.7963776  61.5260813   1.3095386  93.7446507
  59.0174852   9.1981921  88.2228339  58.8829320   8.4382322  87.6566337
  58.6006914   9.9222821  87.7557128  70.1533815   4.3818845  77.2304915
  70.8569665   4.5868847  77.8462570  69.4296464   4.9495607  77.4953998
  62.1743978  10.0951238  88.4346782  62.0576362  11.0396671  88.3325472
  61.3536424   9.7924800  88.8232581  72.0620512   4.8201374  79.2803375
  72.8966116   4.3882572  79.0980850  71.9004855   4.6483388  80.2080269
  71.7166404   1.3233487  80.6459714  71.6615208   1.1577759  79.7048158
  71.0912460   2.0309520  80.8021904  56.5058919  -3.4398448  94.4721136
  57.1517783  -3.9499494  94.9608361  56.2976070  -2.7029767  95.0464561
  69.0312312   3.6282399  99.9713277  69.9003471   3.8023051  99.6099912
  68.5519063   4.4476816  99.8489006  63.1998492  10.7479500  91.6502710
  64.1025738  10.7803110  91.9669205  62.9735862   9.8179951  91.6649046
  64.9552094   9.5010487  88.3112789  64.0047725   9.5012348  88.1977161
  65.2584580   8.7543221  87.7948824  80.6904787  15.3371025  89.3758551
  81.3283197  15.2177772  88.6721892  80.5725630  16.2851869  89.4346504
  77.4994494  15.2898453  89.3120076  77.1613005  15.1739518  88.4240611
  78.3684262  14.8889618  89.2921082  73.3581309  17.1433930  85.3016967
  72.7946174  17.0523867  84.5333255  73.2433704  16.3233834  85.7819460
  77.9814277  16.4433305  95.2706282  77.9702917  16.0486103  94.3986785
  78.1434916  15.7099378  95.8640053  70.9045741  18.6385121  88.1401188
  71.6967033  18.2975946  87.7247487  71.1442391  18.7480096  89.0603341
  78.9380868  20.8104897  80.6131432  78.2868848  21.3958978  80.2265446
  79.7325231  21.3411092  80.6726469  72.8636495  17.8994035  81.0118566
  73.6367371  17.3523022  80.8731442  73.2161894  18.7638284  81.2233028
  74.7021538  19.2270417  94.2185466  74.4111404  20.1316048  94.1032132
  75.3378522  19.2686944  94.9329535  75.6277745  16.6047265  90.8086825
  76.2241317  16.3803288  90.0943788  75.6852716  15.8632011  91.4112273
  75.2002773  14.0586701  78.6437016  75.4528294  13.5368222  77.8820479
  74.2627332  13.8952846  78.7463700  80.2446056  13.0622479  86.4511759
  81.0309145  12.6441902  86.1002177  80.5084760  13.9668571  86.6193408
  80.4156133  18.4995329  81.1500416  79.7801966  18.5729956  81.8621321
  80.0853540  19.0888928  80.4719496  85.6454483  12.9997712  87.3544738
  86.3779655  12.4296929  87.5882567  84.8893839  12.6119313  87.7951244
  74.9199062  15.9614807  80.8461391  74.8035320  15.2859710  81.5142476
  75.0301322  15.4747181  80.0293544  77.2630603  15.4224954  84.5508080
  76.8988810  14.8955575  85.2621002  78.1197719  15.0323423  84.3774566
  83.1679903   6.7119286  91.8139347  82.8363228   7.5814697  91.5900562
  82.5725517   6.3955570  92.4933377  76.9036090  10.4514853  79.5469429
  77.0710492  11.3195090  79.9139900  76.7133259  10.6142135  78.6230718
  79.6611423  18.9131832  91.2135259  79.3612146  19.8156871  91.1051067
  79.3162482  18.6464015  92.0656412  73.1123904  15.3645629  87.2471964
  72.1874401  15.2321843  87.4549656  73.3608317  16.1439848  87.7441906
  83.0608567  11.4314372  88.8932697  82.1525444  11.3629781  88.5991458
  83.0096162  11.9086317  89.7214522  76.8825310  12.9072511  80.5316096
  76.7624936  13.3529562  81.3701576  76.1877899  13.2557829  79.9729634
  70.4732715  15.0078903  88.0815753  70.6025096  15.2613382  88.9955165
  69.7930167  15.6006611  87.7620408  74.6432203  25.6776153  84.1806227
  74.5656232  26.6283978  84.2594708  74.0393846  25.3322025  84.8381153
  77.1349432  12.8504018  96.8367594  76.3582766  13.4097938  96.8270459
  77.7739995  13.3360801  97.3582464  84.9270213   9.6330811  90.6710571
  84.2844593   9.9263344  90.0250365  84.4225142   9.5183731  91.4763767
  82.5810377  13.3793984  81.3596430  83.4928233  13.6121371  81.1844127
  82.0720024  13.9631028  80.7971508  75.3895805  15.6589471  96.3985561
  76.1310489  16.1974515  96.1220385  74.6832790  16.2855760  96.5557113
  80.8651144  17.8018612  94.9957722  81.2734500  17.3601022  94.2512355
  80.1428406  17.2271239  95.2491915  77.2182214  12.7391219  92.3691279
  78.0643410  13.1630632  92.5125928  77.1580852  12.0824843  93.0629842
  81.1879959  18.3619803  88.7510011  80.5588821  18.5265517  88.0486079
  80.8005621  18.7761412  89.5220975  85.0669191  19.2974240  86.1054375
  84.3820229  19.6773142  85.5551408  85.1513040  19.9069567  86.8386323
  80.3681660  10.3995587  94.0272453  80.1242592  11.1537648  93.4906729
  80.6441590  10.7780935  94.8619700  82.3220122  16.9434199  92.7049719
  82.5337018  17.5865959  92.0284100  82.2749871  16.1096516  92.2371649
  79.9246351   9.5552020  89.6086291  79.0630830   9.8533274  89.9003028
  79.9508786   9.7722419  88.6767323  76.7407921  18.0994211  86.0160096
  77.2046266  18.3781914  85.2264719  76.4764719  17.1977655  85.8333187
  73.6332002  17.6465692  88.9539860  74.2033359  18.0752961  88.3157344
  74.2240114  17.3648277  89.6524045  75.6776807  14.2217363  82.8249662
  76.3800850  14.6738407  83.2923588  75.3457435  13.5801182  83.4529555
  74.1257168  12.8129120  97.2000871  73.4955829  13.4945400  97.4336268
  74.0193256  12.7012201  96.2554009  69.4202141  12.4800916  88.1266795
  68.6301195  12.7358444  87.6506906  69.9113388  13.2949253  88.2318836
  83.4365950  19.8206155  90.8772076  84.2583394  19.4186342  90.5954758
  83.4328353  19.7174389  91.8288192  71.3716886  12.8445495  85.0850272
  70.5748050  12.9564189  85.6033767  71.1442478  13.1832147  84.2191162
  77.2022554  19.3690198  93.0332786  77.2666986  19.8310605  93.8690958
  76.4933478  18.7387563  93.1615096  67.7039844  12.7331406  90.5581786
  67.9547882  13.6178416  90.8239362  68.2399392  12.5536008  89.7856878
  91.5271943  16.1644903  87.2257047  90.7735652  15.5952301  87.0701052
  91.6619485  16.1307568  88.1727682  76.9170571  21.0358306  82.9011767
  76.7816246  21.8809841  83.3296615  77.4580384  21.2377583  82.1377701
  73.4037911   7.1149885  99.5626122  73.0104857   6.5616084 100.2373766
  74.2204051   7.4260464  99.9532640  70.3699969  18.5533744  83.4739692
  70.8824489  19.3476994  83.6245257  71.0222682  17.8560034  83.4073293
  72.1794854  21.6699500  85.5562445  72.3561482  22.5917465  85.3683429
  72.9751687  21.3557919  85.9856825  76.3205872   8.5307765  97.1546379
  77.0615586   9.1314918  97.0750841  76.5523795   7.7885402  96.5964421
  71.4647210  13.7164132  95.4324608  71.3500725  12.8149389  95.7331707
  70.6091728  13.9627829  95.0809425  78.5439048  21.6581872  97.0312109
  78.1002902  20.8718251  96.7133013  79.2056261  21.8461023  96.3656000
  73.3026169  23.1877674  91.5572787  73.8533594  23.0594737  90.7849781
  72.4637645  23.4872563  91.2067680  80.6420286  21.9384672  95.0593510
  80.6238761  22.7593553  94.5673779  81.5640206  21.8138747  95.2843651
  77.0993340  19.4528802  95.9017018  77.6321677  18.6917090  95.6716326
  76.5707421  19.1602453  96.6441173  80.2663035   4.5588867  91.4310660
  79.9227304   5.4490509  91.3549771  80.6341998   4.3690525  90.5680245
  68.3348886  16.8822398  84.2499262  69.1724108  17.2919406  84.0332970
  68.5127153  15.9421840  84.2199456  80.2313318  14.5497479  79.9383095
  79.7159941  15.3202083  80.1771483  79.9590626  13.8762615  80.5616157
  77.8160429   9.3947179  84.9968334  76.9602025   9.0054030  84.8173972
  78.2287381   9.4739140  84.1368119  79.3459575   6.9293523  89.3959893
  78.8424371   6.8923658  88.5827699  79.6390182   7.8386265  89.4556550
  75.5902461   7.0132252  88.4026075  76.4555458   6.8175061  88.0431965
  75.6579970   6.7842604  89.3295432  85.2047592  17.3029833  81.8736269
  84.4277035  16.9640993  81.4291431  85.8839073  17.3082456  81.1991234
  80.0199621  12.4224571  81.7642877  79.7149757  12.7370720  82.6153020
  80.9730063  12.5005991  81.8070210  78.4646053  18.5814794  83.4135831
  77.9367414  17.8467554  83.1009068  77.9633556  19.3589470  83.1675799
  83.4438899  16.7763814  88.5302877  82.7862573  17.4663076  88.6183005
  84.2479298  17.1660246  88.8736863  73.1964780   9.2434460  85.7742442
  73.7708532   9.0209642  85.0415635  73.7835763   9.3123155  86.5271043
  82.2544358  15.1308187  86.5806819  82.7676239  15.7638179  87.0828528
  82.9045582  14.5309383  86.2150179  73.5234368  11.2738921  79.7938327
  72.6871680  11.6113608  80.1147602  73.3839137  11.1387901  78.8565464
  75.4987448   6.1175709  84.5017511  74.8451860   5.8024726  83.8774126
  75.4567922   5.4951450  85.2277334  76.6098653  16.3995004  76.4170804
  75.7025715  16.1684258  76.6161953  77.1069685  15.6032624  76.6044785
  79.5166732  25.1092511  79.3367490  78.8428431  25.4124208  79.9452448
  79.9032554  25.9121592  78.9872947  78.7325188  12.6057643  88.8265159
  77.8147750  12.8272590  88.6686847  79.1485332  12.6803953  87.9676866
  79.5160236  14.0049058  83.9567839  80.2632055  14.5170456  83.6474961
  79.7851826  13.6833111  84.8172233  77.7886886  16.5007599  80.9394794
  76.8798106  16.2166632  81.0367263  77.8181970  16.9206678  80.0798100
  83.0206154  20.1114189  84.7085961  82.5668481  19.2705098  84.7651152
  82.3900121  20.7475587  85.0460741  81.9639073  11.0406175  85.9386629
  81.2261830  10.5283561  86.2696871  82.2165847  10.6006556  85.1269906
  81.4639093  21.9490685  85.6435779  81.7562067  22.5095742  84.9248145
  81.9737714  22.2419246  86.3988938  68.3575057  14.2213113  84.9209996
  68.1599457  13.6282474  84.1961062  67.8021721  13.9165323  85.6385935
  76.3371780  14.1136220  87.0404589  76.3920390  13.1610056  86.9647066
  75.5262982  14.2695659  87.5245887  77.4862974  18.0416343  78.2782872
  77.0482404  17.3252202  77.8188510  78.2273415  18.2692458  77.7167964
  74.2764140  12.7313279  84.7994968  73.4632006  13.0307450  85.2060160
  74.7723135  12.3368968  85.5169450  76.4272718  22.7271036  86.7329233
  76.3848897  22.9531883  85.8037765  77.3435417  22.4934411  86.8815034
  79.8738352  13.1955104  93.6309862  80.2287740  13.4226577  94.4904327
  80.5210483  13.5273481  93.0087117  85.6036089  16.3173540  84.3359191
  85.4653988  16.5075136  83.4080380  85.2472308  17.0792923  84.7927242
  73.7678215  10.3031635  90.4156203  74.4077594  10.1620394  89.7179166
  72.9355746  10.0166148  90.0394805  85.6305469  18.3850067  89.3470462
  86.0641975  18.2925356  90.1953516  86.3437049  18.3607567  88.7090478
  74.5438519  19.6034065  86.5291195  75.3379118  19.1084386  86.3273770
  73.8330211  19.0751929  86.1658901  79.3633364  21.9852161  90.8803563
  79.4170386  22.5543097  91.6481279  78.4948145  22.1554046  90.5157600
  70.8521283  13.7477147  82.6050948  69.9218871  13.6861603  82.8220910
  70.9478755  13.2253100  81.8087589  70.7706832  10.2731960  85.1929190
  71.0313649  11.1877293  85.0838350  71.5924004   9.8056403  85.3425802
  72.2431757  11.6869717  92.3628014  72.9154810  11.4787079  91.7140663
  71.4161543  11.4891803  91.9233246  86.4921018  18.4273767  91.8803348
  86.6856908  19.3319578  92.1262623  86.3921636  17.9681187  92.7141933
  78.1457329   8.3131658  94.3793675  77.4985244   9.0121608  94.2858151
  78.9158344   8.7467802  94.7469923  81.5536127  18.5780510  97.4544228
  81.4021633  18.3491062  96.5374312  81.5440806  19.5351112  97.4675573
  78.3221463  16.1512423  92.4390495  79.2513523  16.3023583  92.2659462
  77.9012493  16.2396444  91.5839141  77.1209795  20.1763087  90.2089032
  76.9820881  19.8081872  91.0814970  76.3324391  20.6910727  90.0372990
  77.7157947  25.2772184  81.5514569  77.8909703  24.8060227  82.3660192
  77.0290735  25.9037950  81.7795830  78.6715010  19.5544690  87.5977870
  78.3364843  19.5145460  88.4935520  78.1718956  18.8889406  87.1248280
  72.6459254  14.9612320  93.1230451  72.5079052  14.2292559  93.7241990
  73.5564178  14.8721220  92.8414639  81.6074202  16.9000724  77.8714930
  80.9903372  16.1747553  77.7747982  81.1390690  17.6610085  77.5282004
  75.2741555  14.6732279  92.6114131  75.9841173  14.0325472  92.5700749
  75.2310863  14.9245174  93.5340312  83.2628334  21.6099633  95.5320710
  83.2040880  20.9258853  94.8651293  83.6647852  22.3518623  95.0801336
  73.9870489  11.6597497  94.4309770  73.4507846  11.2088236  95.0831367
  73.3987197  11.7943406  93.6880235  72.2819032  28.4261547  88.3254429
  72.5215631  29.0580071  89.0033448  71.4388229  28.0749587  88.6119788
  73.3972748  11.1186149  76.9936234  72.5202214  10.9974950  76.6298481
  73.8730501  10.3272227  76.7415123  83.2645741  19.5739217  93.7634690
  82.3772520  19.2365139  93.8861089  83.8344292  18.8422248  94.0003455
  64.9174888  15.9063308  87.0877741  65.6045928  15.5925038  86.4998757
  64.7623017  16.8104673  86.8144993  69.7209610  10.7953505  91.5162765
  69.6367799  10.1879175  90.7813175  68.8992316  11.2862523  91.5172261
  76.7946894  24.2340669  90.7295933  76.7217066  25.0395641  91.2415238
  76.3524287  24.4332635  89.9043954  76.5836674  23.4712439  84.2398755
  75.8004196  24.0134119  84.3336979  77.2829419  23.9886419  84.6392996
  79.8933324   9.2807069  86.8832960  80.3902023   8.5277031  86.5634030
  79.1220305   9.3171385  86.3176169  87.7463081  14.9847434  88.5251251
  87.7352958  15.8672150  88.1545185  86.8780461  14.6318985  88.3305789
  79.2545578  24.1327503  92.8854092  79.9673550  24.7674968  92.8129993
  78.7635606  24.2291369  92.0694094  80.9763105  18.0378756  84.4571383
  80.0419383  18.1580218  84.2876088  81.1539773  17.1351223  84.1931393
  76.4768293  11.4224452  86.6104645  76.1066080  10.8695492  87.2985550
  76.9727385  10.8182585  86.0579645  84.3635656  13.8796075  84.9921418
  84.8296108  14.7124067  84.9181720  84.8143156  13.4141057  85.6966676
  74.3057491  21.8821947  93.7059663  75.0066951  22.5158430  93.8589057
  73.8352606  22.2236678  92.9455302  82.4311887  20.2239896  81.9907570
  82.7071731  20.1096491  82.9001444  81.5616386  19.8257381  81.9519743
  82.3352319   6.2476662  89.0312319  81.4215398   6.4780889  89.1994526
  82.7645420   6.3315106  89.8826351  82.1058777  14.4366554  91.5312213
  81.4530227  14.6842461  90.8764666  82.4839157  13.6230692  91.1974690
  79.0665951  24.4726247  85.6340383  79.2488346  23.6547903  86.0968135
  79.8898937  24.6893939  85.1965273  79.4008117  23.3994432  82.8955432
  79.9295883  22.8886887  82.2825594  79.6636336  23.0836963  83.7600965
  78.1546350  15.1786365  98.0178250  77.4786987  15.0780494  98.6880625
  78.9773984  15.0225579  98.4814247  69.9025209  21.4158302  90.6390765
  70.4878646  20.6701990  90.7718669  69.7050048  21.7262258  91.5227429
  72.7563865  24.4509549  85.6553208  72.0874240  24.9355677  85.1717248
  72.6176734  24.6978769  86.5696586  64.4942864  13.9863902  89.3595208
  64.5326964  13.4527493  90.1532326  63.9883157  13.4599107  88.7406186
  76.8969133  26.4853293  92.2535866  77.4487441  26.6484914  93.0184951
  77.2375327  27.0757730  91.5815891  71.8733626   8.8328442  92.8557751
  71.9374953   9.6943273  92.4435148  71.8100747   8.2202444  92.1230109
  71.3485899  10.9051575  96.5030785  71.9757938  10.5228652  97.1168309
  70.4913818  10.6865777  96.8686477  81.7480007  21.3114550  98.1084520
  82.2919911  21.9244508  97.6139475  81.1666852  21.8694128  98.6251533
  68.1251442  12.7128004  82.4349140  68.4204883  11.8038682  82.3816193
  67.2239477  12.6915743  82.1130142  80.0337520  24.4335268  89.2399548
  79.9088660  23.6325008  88.7310494  80.6916611  24.9281461  88.7513518
  71.6545689  10.7884001  88.4176688  70.9332274  11.4019968  88.2784162
  72.4438944  11.3241765  88.3393334  82.0972429  22.2344288  90.8679098
  81.1502764  22.1149639  90.7957425  82.4455202  21.3466786  90.9505360
  74.4572002   8.1238427  94.6917340  74.9806404   8.3700724  95.4543649
  74.2384335   8.9558462  94.2720477  69.8539283  10.3942102  82.5588465
  69.5251989   9.5139481  82.3763571  70.2078654  10.3389770  83.4464854
  79.1018862  22.0297004  87.0683450  78.9543824  21.1013712  87.2491020
  79.9272356  22.0517095  86.5840526  72.9681106  10.6815071  82.9263943
  73.3077179  11.2100993  82.2042551  73.4153227  11.0195478  83.7022509
  82.7052984  22.8525563  88.1548323  83.6299531  22.6468424  88.0172774
  82.5368287  22.6041964  89.0637665  75.6624547   9.0652122  92.3767011
  75.3221368   8.2659935  92.7787691  74.9563553   9.3653833  91.8043844
  76.3141019   6.1501435  90.8294334  77.1367088   5.6761913  90.7073224
  76.5579083   6.9291918  91.3293020  74.9549253   9.1789693  81.1257235
  75.6757616   9.5570946  80.6220952  74.3314558   9.8978570  81.2292213
  79.0980376   9.8834842  82.0615568  79.3143991  10.7659480  81.7604396
  78.6174444   9.4921055  81.3321210  73.8379598  12.8420555  88.6386312
  73.6924178  13.1560858  89.5310594  73.3604801  13.4605456  88.0857211
  75.6975981   9.8323103  88.6867202  75.6837549   8.9364197  88.3499500
  76.4148409   9.8393767  89.3205488  77.5502111  10.2660443  90.7320329
  77.2919889  11.1877514  90.7304660  77.0187152   9.8690878  91.4220793
  82.4948300  23.3711231  83.5110415  82.6685178  22.8057653  82.7584267
  82.9877191  24.1712125  83.3289905  68.3125260  15.3825900  91.5773973
  67.7678728  16.1585708  91.7094248  69.1904610  15.7296704  91.4193095
  75.1012877   8.7137483  83.9554772  75.2228788   7.7854130  84.1545659
  74.8114919   8.7276169  83.0433087  77.9704067   6.3992394  87.0921492
  77.9925764   6.4631727  86.1373471  78.3872126   5.5596903  87.2861998
  88.3487691  16.1347653  85.1300714  88.7918837  15.3854979  84.7319838
  87.4714202  16.1257790  84.7474446  83.4823473  22.6877995  80.6107313
  84.1774377  23.3084688  80.8294628  83.8246623  21.8373346  80.8859691
  69.0991282  14.5095796  94.4704130  68.3573018  14.6578431  95.0568761
  68.7784026  14.7704061  93.6070880  85.3814896  20.1377700  82.1394644
  85.9066220  20.4764973  81.4143964  85.2937248  19.2024716  81.9557778
  77.0434944  24.0511774  94.2684520  77.3522071  23.8060921  95.1407220
  77.8410426  24.2558413  93.7803391  77.0655556  26.2049684  86.4989897
  76.6260547  25.7126062  87.1922754  77.8163673  25.6622651  86.2581972
  69.5447895  22.3961225  86.5014525  70.3705915  22.0964996  86.1213168
  69.1941947  21.6268847  86.9504314  74.5129429  21.7487693  88.5712199
  73.8909438  21.0858398  88.2714426  75.1834296  21.7748825  87.8885846
  67.7456500  20.3147551  87.4603459  66.9088409  19.8869725  87.2787460
  67.7180146  20.5079994  88.3974250  74.5853956  10.2269481  98.1644705
  74.6342112  11.1031604  97.7822474  75.1276470   9.6846874  97.5916348
  85.0708802  20.7710604  97.4445842  84.2804345  20.7534743  96.9050341
  84.8342156  21.3098898  98.1994878  85.1906677  17.6203070  94.7578570
  85.2404682  17.4553078  95.6994093  85.0820600  16.7530330  94.3676451
  74.0742936  20.2991616  82.0470659  74.2231056  20.9827081  81.3937332
  74.8809379  20.2796706  82.5620115  82.4810439  13.6033999  96.0737877
  83.3820302  13.4640463  95.7821875  82.5558414  13.7688453  97.0136054
  76.8153245  10.9800853  94.9191063  75.9456554  11.2734419  94.6473652
  77.0512725  11.5641298  95.6398327  86.6924874  20.0400012  95.0020592
  86.4009682  20.4029993  95.8384053  86.0797005  19.3267020  94.8233924
  87.8920556  17.6052892  87.5223162  88.7267447  18.0442696  87.6860722
  88.0279685  17.1291545  86.7031408  84.9412062  15.1632627  93.4700650
  85.4166183  15.3560273  92.6619501  84.0177627  15.2191812  93.2244033
  71.8295569  16.3256794  83.0531728  71.5841610  15.4219124  83.2511938
  71.9991483  16.3273944  82.1111206  79.5192278   7.1980470  92.4356484
  80.0374222   7.9341497  92.1102972  79.1647411   7.5044463  93.2703243
  71.0991216  12.0585151  80.5517889  70.4060461  12.1329506  79.8957925
  70.8542968  11.2945495  81.0739406  77.5738341  22.7939747  79.5182407
  77.0012308  23.4129934  79.0652878  78.1471135  23.3439108  80.0522328
  83.6413731  12.0398387  91.7028955  84.5931154  12.1396484  91.7241179
  83.4717181  11.2476655  92.2127040  81.6628110   9.1253970  91.8888356
  81.0678042   9.4058983  91.1934845  81.3777807   9.6147871  92.6605097
  80.7935601  23.0776897  80.6490989  81.7266274  23.0122458  80.8523864
  80.7058814  23.9133164  80.1905521  83.4223618  22.3942767  77.6094936
  83.3437249  22.0602631  78.5030694  84.2433284  22.8864535  77.6086409
  86.1201809  15.2604506  90.8171255  86.0878129  14.3220507  91.0030939
  86.7302432  15.3388543  90.0837080  77.9585140  14.1300559  76.8598459
  78.9044244  14.0006767  76.9286877  77.5799385  13.3915221  77.3367887
  86.2696297  12.0515550  90.8629538  85.7535346  11.2674006  90.6759467
  87.1536246  11.7234266  91.0276058  83.9307024   5.7956565  86.8225351
  83.7331845   5.4871654  87.7068683  84.5406730   6.5218204  86.9523281
  91.9378359  16.3220513  89.9577292  92.6681747  16.0605801  90.5184995
  91.3285304  15.5849235  89.9979360  90.0193656  14.4628376  90.5551743
  89.2926819  14.3284341  89.9468235  89.6040943  14.7705204  91.3608461
  77.8423832  18.1818305  98.3199116  78.7626842  18.3596905  98.5139162
  77.8073415  17.2374351  98.1678815  76.1428057  12.0550536  76.7953344
  75.2359512  11.7583648  76.8716058  76.4204038  11.7580354  75.9287630
  67.0605997  13.3756899  87.2452391  66.7408781  12.5222207  86.9526765
  66.5139425  13.5905477  88.0010358  70.8385905  16.0919340  90.9621897
  71.0571914  17.0236448  90.9809931  71.2511678  15.7327315  91.7476701
  77.7590122   6.5987425  82.9497586  76.9490851   6.2534510  83.3252832
  78.4474539   6.2894969  83.5385197  79.6880671   5.6765472  84.5721882
  80.2411709   6.0960926  85.2311905  79.9250757   4.7501220  84.6144838
  75.7113770  11.6652546 100.3524646  75.6110497  12.6146903 100.2836737
  75.4935312  11.3370785  99.4800716  74.9126841   8.9137471  76.9365323
  75.7746005   9.2392369  77.1961141  75.0977185   8.1268967  76.4238389
  66.9294257  16.9959811  89.2145512  66.2357729  16.5813763  88.7015467
  67.6767248  17.0380347  88.6178931  83.0659478   7.7865997  84.0800546
  82.4858147   8.4450801  83.6978599  82.7995410   6.9643342  83.6687964
  81.5163044   7.1871055  86.2821867  82.0162823   7.2987590  85.4736186
  82.1598652   6.8832108  86.9222675  75.5745040  15.0949685  99.1689708
  75.0912122  15.8950045  99.3753597  75.6605979  15.1057630  98.2157152
  68.8431000  16.9278064  87.0911527  68.8201688  17.0265752  86.1393410
  69.1531636  17.7743215  87.4128693  71.5018377  18.9854219  91.2058142
  72.4561631  18.9538162  91.1388073  71.3030901  18.5244843  92.0208367
  72.0917760  17.5555336  93.7728939  72.9110649  18.0499414  93.7963776
  72.3654567  16.6387304  93.7446507  81.8484356   9.9466088  83.1356895
  80.9610211  10.2315738  82.9177089  82.2638345   9.7859851  82.2884172
  85.1998892   9.9712609  86.8511234  85.9759282  10.4609061  87.1235851
  84.4747026  10.3970663  87.3083103  87.6371451  10.6840228  87.9085175
  88.2315941  10.4435964  87.1978483  87.7098034   9.9647359  88.5358711
  69.8568606  24.5273839  88.2228339  69.7223074  23.7674240  87.6566337
  69.4400669  25.2514739  87.7557128  80.9927569  19.7110762  77.2304915
  81.6963419  19.9160765  77.8462570  80.2690218  20.2787524  77.4953998
  81.8225380  15.4620624  83.3507185  81.7660581  15.9189175  82.5114817
  82.3753722  14.7011308  83.1730028  85.6330185  11.2510356  84.1757304
  85.3767120  10.8506991  85.0065512  85.0083054  11.9654150  84.0507443
  89.9442523  13.9906429  86.6828596  89.3842081  14.0599618  87.4560158
  89.3386027  13.8147413  85.9628092  73.0137732  25.4243156  88.4346782
  72.8970116  26.3688588  88.3325472  72.1930178  25.1216718  88.8232581
  82.9014267  20.1493292  79.2803375  83.7359871  19.7174490  79.0980850
  82.7398610  19.9775305  80.2080269  82.5560159  16.6525405  80.6459714
  82.5008963  16.4869676  79.7048158  81.9306214  17.3601438  80.8021904
  67.3452674  11.8893469  94.4721136  67.9911537  11.3792423  94.9608361
  67.1369825  12.6262151  95.0464561  79.8706066  18.9574317  99.9713277
  80.7397226  19.1314969  99.6099912  79.3912818  19.7768734  99.8489006
  75.8656284   6.1533514  80.2245032  75.8534954   7.0975354  80.3813303
  76.7579706   5.9703659  79.9304494  74.0392246  26.0771418  91.6502710
  74.9419493  26.1095028  91.9669205  73.8129616  25.1471869  91.6649046
  75.7945848  24.8302404  88.3112789  74.8441479  24.8304266  88.1977161
  76.0978334  24.0835139  87.7948824  71.6850165   9.0361086  98.5696150
  72.5481626   8.6797891  98.7799475  71.1115576   8.6974981  99.2571555
  91.5298542  30.6662943  89.3758551  92.1676952  30.5469690  88.6721892
  91.4119385  31.6143787  89.4346504  88.3388248  30.6190371  89.3120076
  88.0006760  30.5031436  88.4240611  89.2078016  30.2181536  89.2921082
  84.1975064  32.4725847  85.3016967  83.6339929  32.3815784  84.5333255
  84.0827459  31.6525752  85.7819460  88.8208031  31.7725223  95.2706282
  88.8096672  31.3778021  94.3986785  88.9828671  31.0391295  95.8640053
  81.7439496  33.9677039  88.1401188  82.5360788  33.6267864  87.7247487
  81.9836146  34.0772014  89.0603341  89.7774622  36.1396815  80.6131432
  89.1262602  36.7250895  80.2265446  90.5718985  36.6703010  80.6726469
  83.7030250  33.2285952  81.0118566  84.4761126  32.6814939  80.8731442
  84.0555649  34.0930201  81.2233028  85.5415292  34.5562334  94.2185466
  85.2505158  35.4607965  94.1032132  86.1772277  34.5978862  94.9329535
  86.4671499  31.9339183  90.8086825  87.0635071  31.7095205  90.0943788
  86.5246471  31.1923928  91.4112273  86.0396527  29.3878618  78.6437016
  86.2922048  28.8660140  77.8820479  85.1021087  29.2244764  78.7463700
  91.0839810  28.3914397  86.4511759  91.8702900  27.9733820  86.1002177
  91.3478515  29.2960489  86.6193408  91.2549888  33.8287247  81.1500416
  90.6195721  33.9021873  81.8621321  90.9247294  34.4180846  80.4719496
  96.4848237  28.3289630  87.3544738  97.2173409  27.7588847  87.5882567
  95.7287593  27.9411230  87.7951244  85.7592816  31.2906724  80.8461391
  85.6429074  30.6151628  81.5142476  85.8695076  30.8039098  80.0293544
  88.1024357  30.7516871  84.5508080  87.7382564  30.2247492  85.2621002
  88.9591473  30.3615340  84.3774566  94.0073658  22.0411204  91.8139347
  93.6756983  22.9106615  91.5900562  93.4119271  21.7247488  92.4933377
  87.7429844  25.7806771  79.5469429  87.9104246  26.6487007  79.9139900
  87.5527013  25.9434053  78.6230718  90.5005177  34.2423750  91.2135259
  90.2005900  35.1448789  91.1051067  90.1556237  33.9755933  92.0656412
  83.9517659  30.6937547  87.2471964  83.0268155  30.5613761  87.4549656
  84.2002072  31.4731766  87.7441906  93.9002321  26.7606290  88.8932697
  92.9919198  26.6921699  88.5991458  93.8489917  27.2378235  89.7214522
  87.7219065  28.2364429  80.5316096  87.6018690  28.6821479  81.3701576
  87.0271653  28.5849746  79.9729634  81.3126470  30.3370820  88.0815753
  81.4418851  30.5905299  88.9955165  80.6323921  30.9298528  87.7620408
  85.4825957  41.0068070  84.1806227  85.4049987  41.9575895  84.2594708
  84.8787601  40.6613943  84.8381153  87.9743187  28.1795936  96.8367594
  87.1976521  28.7389856  96.8270459  88.6133750  28.6652719  97.3582464
  95.7663967  24.9622729  90.6710571  95.1238348  25.2555262  90.0250365
  95.2618896  24.8475649  91.4763767  93.4204131  28.7085902  81.3596430
  94.3321987  28.9413288  81.1844127  92.9113778  29.2922946  80.7971508
  86.2289559  30.9881389  96.3985561  86.9704244  31.5266433  96.1220385
  85.5226545  31.6147678  96.5557113  91.7044899  33.1310530  94.9957722
  92.1128255  32.6892940  94.2512355  90.9822160  32.5563157  95.2491915
  88.0575969  28.0683136  92.3691279  88.9037164  28.4922550  92.5125928
  87.9974607  27.4116761  93.0629842  92.0273713  33.6911720  88.7510011
  91.3982576  33.8557434  88.0486079  91.6399376  34.1053330  89.5220975
  95.9062945  34.6266158  86.1054375  95.2213983  35.0065059  85.5551408
  95.9906795  35.2361485  86.8386323  91.2075414  25.7287505  94.0272453
  90.9636346  26.4829565  93.4906729  91.4835345  26.1072852  94.8619700
  93.1613877  32.2726117  92.7049719  93.3730772  32.9157877  92.0284100
  93.1143625  31.4388434  92.2371649  90.7640106  24.8843938  89.6086291
  89.9024585  25.1825191  89.9003028  90.7902541  25.1014337  88.6767323
  87.5801675  33.4286128  86.0160096  88.0440021  33.7073831  85.2264719
  87.3158473  32.5269573  85.8333187  84.4725756  32.9757610  88.9539860
  85.0427113  33.4044878  88.3157344  85.0633868  32.6940195  89.6524045
  86.5170561  29.5509281  82.8249662  87.2194605  30.0030324  83.2923588
  86.1851190  28.9093099  83.4529555  84.9650923  28.1421037  97.2000871
  84.3349583  28.8237318  97.4336268  84.8587011  28.0304119  96.2554009
  80.2595895  27.8092833  88.1266795  79.4694949  28.0650362  87.6506906
  80.7507143  28.6241171  88.2318836  94.2759705  35.1498072  90.8772076
  95.0977149  34.7478260  90.5954758  94.2722108  35.0466307  91.8288192
  82.2110641  28.1737413  85.0850272  81.4141804  28.2856107  85.6033767
  81.9836233  28.5124065  84.2191162  88.0416308  34.6982116  93.0332786
  88.1060741  35.1602523  93.8690958  87.3327232  34.0679481  93.1615096
  78.5433598  28.0623324  90.5581786  78.7941637  28.9470334  90.8239362
  79.0793147  27.8827925  89.7856878 102.3665698  31.4936821  87.2257047
 101.6129406  30.9244219  87.0701052 102.5013239  31.4599485  88.1727682
  87.7564326  36.3650223  82.9011767  87.6210001  37.2101759  83.3296615
  88.2974138  36.5669501  82.1377701  84.2431666  22.4441803  99.5626122
  83.8498611  21.8908002 100.2373766  85.0597806  22.7552382  99.9532640
  81.2093723  33.8825661  83.4739692  81.7218244  34.6768912  83.6245257
  81.8616436  33.1851952  83.4073293  83.0188608  36.9991418  85.5562445
  83.1955236  37.9209382  85.3683429  83.8145442  36.6849837  85.9856825
  87.1599627  23.8599682  97.1546379  87.9009340  24.4606835  97.0750841
  87.3917549  23.1177320  96.5964421  82.3040965  29.0456049  95.4324608
  82.1894480  28.1441307  95.7331707  81.4485482  29.2919746  95.0809425
  89.3832802  36.9873790  97.0312109  88.9396657  36.2010168  96.7133013
  90.0450016  37.1752940  96.3656000  84.1419924  38.5169591  91.5572787
  84.6927349  38.3886655  90.7849781  83.3031399  38.8164480  91.2067680
  91.4814040  37.2676590  95.0593510  91.4632516  38.0885471  94.5673779
  92.4033960  37.1430665  95.2843651  87.9387095  34.7820719  95.9017018
  88.4715431  34.0209007  95.6716326  87.4101176  34.4894371  96.6441173
  91.1056790  19.8880785  91.4310660  90.7621059  20.7782427  91.3549771
  91.4735752  19.6982443  90.5680245  79.1742640  32.2114316  84.2499262
  80.0117862  32.6211324  84.0332970  79.3520908  31.2713758  84.2199456
  91.0707072  29.8789396  79.9383095  90.5553696  30.6494001  80.1771483
  90.7984381  29.2054532  80.5616157  88.6554183  24.7239097  84.9968334
  87.7995780  24.3345947  84.8173972  89.0681135  24.8031058  84.1368119
  90.1853330  22.2585440  89.3959893  89.6818126  22.2215575  88.5827699
  90.4783937  23.1678183  89.4556550  86.4296216  22.3424170  88.4026075
  87.2949213  22.1466979  88.0431965  86.4973725  22.1134522  89.3295432
  96.0441346  32.6321751  81.8736269  95.2670789  32.2932910  81.4291431
  96.7232827  32.6374374  81.1991234  90.8593375  27.7516488  81.7642877
  90.5543511  28.0662638  82.6153020  91.8123818  27.8297908  81.8070210
  89.3039807  33.9106712  83.4135831  88.7761169  33.1759471  83.1009068
  88.8027310  34.6881388  83.1675799  94.2832653  32.1055732  88.5302877
  93.6256328  32.7954994  88.6183005  95.0873053  32.4952164  88.8736863
  84.0358535  24.5726378  85.7742442  84.6102287  24.3501559  85.0415635
  84.6229517  24.6415072  86.5271043  93.0938112  30.4600105  86.5806819
  93.6069994  31.0930097  87.0828528  93.7439336  29.8601300  86.2150179
  84.3628122  26.6030839  79.7938327  83.5265434  26.9405526  80.1147602
  84.2232892  26.4679819  78.8565464  86.3381203  21.4467627  84.5017511
  85.6845615  21.1316644  83.8774126  86.2961677  20.8243367  85.2277334
  87.4492407  31.7286922  76.4170804  86.5419469  31.4976175  76.6161953
  87.9463439  30.9324541  76.6044785  90.3560486  40.4384429  79.3367490
  89.6822185  40.7416126  79.9452448  90.7426308  41.2413509  78.9872947
  89.5718943  27.9349560  88.8265159  88.6541504  28.1564507  88.6686847
  89.9879087  28.0095871  87.9676866  90.3553991  29.3340976  83.9567839
  91.1025810  29.8462373  83.6474961  90.6245580  29.0125029  84.8172233
  88.6280641  31.8299517  80.9394794  87.7191860  31.5458550  81.0367263
  88.6575725  32.2498595  80.0798100  93.8599908  35.4406106  84.7085961
  93.4062235  34.5997016  84.7651152  93.2293875  36.0767505  85.0460741
  92.8032828  26.3698092  85.9386629  92.0655585  25.8575479  86.2696871
  93.0559601  25.9298474  85.1269906  92.3032848  37.2782603  85.6435779
  92.5955822  37.8387660  84.9248145  92.8131468  37.5711164  86.3988938
  92.9044455  19.1474344  86.5328398  93.2103332  18.2871708  86.2454313
  93.6297060  19.7391965  86.3327392  79.1968811  29.5505031  84.9209996
  78.9993211  28.9574392  84.1961062  78.6415475  29.2457241  85.6385935
  87.1765535  29.4428137  87.0404589  87.2314145  28.4901974  86.9647066
  86.3656737  29.5987576  87.5245887  88.3256729  33.3708260  78.2782872
  87.8876159  32.6544119  77.8188510  89.0667170  33.5984375  77.7167964
  85.1157895  28.0605197  84.7994968  84.3025760  28.3599368  85.2060160
  85.6116889  27.6660886  85.5169450  87.2666473  38.0562954  86.7329233
  87.2242652  38.2823800  85.8037765  88.1829172  37.8226329  86.8815034
  90.7132107  28.5247022  93.6309862  91.0681494  28.7518495  94.4904327
  91.3604238  28.8565398  93.0087117  96.4429844  31.6465457  84.3359191
  96.3047742  31.8367053  83.4080380  96.0866062  32.4084840  84.7927242
  84.6071970  25.6323553  90.4156203  85.2471349  25.4912312  89.7179166
  83.7749500  25.3458066  90.0394805  96.4699223  33.7141985  89.3470462
  96.9035730  33.6217274  90.1953516  97.1830804  33.6899485  88.7090478
  85.3832274  34.9325983  86.5291195  86.1772872  34.4376303  86.3273770
  84.6723966  34.4043846  86.1658901  90.2027118  37.3144079  90.8803563
  90.2564140  37.8835015  91.6481279  89.3341899  37.4845964  90.5157600
  81.6915037  29.0769065  82.6050948  80.7612625  29.0153520  82.8220910
  81.7872509  28.5545018  81.8087589  81.6100586  25.6023878  85.1929190
  81.8707403  26.5169211  85.0838350  82.4317758  25.1348320  85.3425802
  83.0825511  27.0161635  92.3628014  83.7548565  26.8078997  91.7140663
  82.2555298  26.8183721  91.9233246  97.3314773  33.7565685  91.8803348
  97.5250663  34.6611496  92.1262623  97.2315391  33.2973104  92.7141933
  88.9851083  23.6423576  94.3793675  88.3378998  24.3413525  94.2858151
  89.7552099  24.0759720  94.7469923  92.3929881  33.9072428  97.4544228
  92.2415388  33.6782980  96.5374312  92.3834561  34.8643029  97.4675573
  89.1615218  31.4804341  92.4390495  90.0907278  31.6315500  92.2659462
  88.7406248  31.5688361  91.5839141  87.9603550  35.5055005  90.2089032
  87.8214635  35.1373789  91.0814970  87.1718146  36.0202644  90.0372990
  88.5551702  40.6064102  81.5514569  88.7303457  40.1352145  82.3660192
  87.8684490  41.2329868  81.7795830  89.5108765  34.8836608  87.5977870
  89.1758597  34.8437378  88.4935520  89.0112710  34.2181324  87.1248280
  83.4853009  30.2904238  93.1230451  83.3472807  29.5584477  93.7241990
  84.3957932  30.2013138  92.8414639  92.4467956  32.2292642  77.8714930
  91.8297127  31.5039470  77.7747982  91.9784445  32.9902002  77.5282004
  86.1135309  30.0024197  92.6114131  86.8234928  29.3617389  92.5700749
  86.0704617  30.2537092  93.5340312  94.1022088  36.9391550  95.5320710
  94.0434634  36.2550771  94.8651293  94.5041606  37.6810540  95.0801336
  84.8264243  26.9889415  94.4309770  84.2901600  26.5380153  95.0831367
  84.2380952  27.1235324  93.6880235  83.1212787  43.7553464  88.3254429
  83.3609385  44.3871988  89.0033448  82.2781983  43.4041504  88.6119788
  84.2366502  26.4478066  76.9936234  83.3595969  26.3266867  76.6298481
  84.7124255  25.6564145  76.7415123  94.1039495  34.9031134  93.7634690
  93.2166274  34.5657056  93.8861089  94.6738046  34.1714166  94.0003455
  75.7568642  31.2355226  87.0877741  76.4439682  30.9216956  86.4998757
  75.6016771  32.1396591  86.8144993  80.5603365  26.1245423  91.5162765
  80.4761553  25.5171092  90.7813175  79.7386071  26.6154441  91.5172261
  87.6340649  39.5632587  90.7295933  87.5610820  40.3687558  91.2415238
  87.1918042  39.7624553  89.9043954  87.4230428  38.8004357  84.2398755
  86.6397950  39.3426037  84.3336979  88.1223173  39.3178336  84.6392996
  90.7327078  24.6098986  86.8832960  91.2295778  23.8568949  86.5634030
  89.9614060  24.6463303  86.3176169  98.5856836  30.3139352  88.5251251
  98.5746712  31.1964067  88.1545185  97.7174215  29.9610903  88.3305789
  90.0939332  39.4619421  92.8854092  90.8067304  40.0966886  92.8129993
  89.6029361  39.5583287  92.0694094  91.8156859  33.3670673  84.4571383
  90.8813138  33.4872136  84.2876088  91.9933528  32.4643140  84.1931393
  87.3162047  26.7516369  86.6104645  86.9459835  26.1987410  87.2985550
  87.8121140  26.1474503  86.0579645  95.2029410  29.2087993  84.9921418
  95.6689863  30.0415984  84.9181720  95.6536911  28.7432974  85.6966676
  85.1451246  37.2113864  93.7059663  85.8460705  37.8450347  93.8589057
  84.6746361  37.5528596  92.9455302  93.2705642  35.5531814  81.9907570
  93.5465485  35.4388409  82.9001444  92.4010140  35.1549299  81.9519743
  93.1746073  21.5768580  89.0312319  92.2609153  21.8072807  89.1994526
  93.6039175  21.6607024  89.8826351  92.9452532  29.7658472  91.5312213
  92.2923982  30.0134379  90.8764666  93.3232912  28.9522610  91.1974690
  89.9059706  39.8018165  85.6340383  90.0882100  38.9839821  86.0968135
  90.7292692  40.0185857  85.1965273  90.2401871  38.7286350  82.8955432
  90.7689637  38.2178805  82.2825594  90.5030091  38.4128880  83.7600965
  88.9940105  30.5078283  98.0178250  88.3180742  30.4072412  98.6880625
  89.8167739  30.3517496  98.4814247  80.7418964  36.7450219  90.6390765
  81.3272401  35.9993907  90.7718669  80.5443802  37.0554176  91.5227429
  83.5957619  39.7801467  85.6553208  82.9267994  40.2647594  85.1717248
  83.4570489  40.0270687  86.5696586  75.3336619  29.3155819  89.3595208
  75.3720718  28.7819410  90.1532326  74.8276911  28.7891025  88.7406186
  87.7362888  41.8145210  92.2535866  88.2881196  41.9776832  93.0184951
  88.0769081  42.4049648  91.5815891  82.7127381  24.1620360  92.8557751
  82.7768707  25.0235191  92.4435148  82.6494501  23.5494362  92.1230109
  82.1879653  26.2343493  96.5030785  82.8151692  25.8520570  97.1168309
  81.3307572  26.0157694  96.8686477  92.5873762  36.6406468  98.1084520
  93.1313666  37.2536426  97.6139475  92.0060607  37.1986046  98.6251533
  78.9645196  28.0419922  82.4349140  79.2598637  27.1330600  82.3816193
  78.0633232  28.0207661  82.1130142  90.8731275  39.7627186  89.2399548
  90.7482414  38.9616926  88.7310494  91.5310366  40.2573379  88.7513518
  82.4939443  26.1175918  88.4176688  81.7726029  26.7311886  88.2784162
  83.2832699  26.6533683  88.3393334  92.9366183  37.5636206  90.8679098
  91.9896519  37.4441557  90.7957425  93.2848956  36.6758704  90.9505360
  85.2965757  23.4530345  94.6917340  85.8200158  23.6992641  95.4543649
  85.0778090  24.2850380  94.2720477  80.6933038  25.7234019  82.5588465
  80.3645744  24.8431398  82.3763571  81.0472408  25.6681688  83.4464854
  89.9412617  37.3588922  87.0683450  89.7937579  36.4305629  87.2491020
  90.7666110  37.3809013  86.5840526  83.8074861  26.0106989  82.9263943
  84.1470933  26.5392910  82.2042551  84.2546981  26.3487395  83.7022509
  93.5446738  38.1817481  88.1548323  94.4693286  37.9760342  88.0172774
  93.3762042  37.9333882  89.0637665  86.5018302  24.3944040  92.3767011
  86.1615122  23.5951853  92.7787691  85.7957308  24.6945751  91.8043844
  87.1534773  21.4793352  90.8294334  87.9760843  21.0053830  90.7073224
  87.3972837  22.2583836  91.3293020  85.7943008  24.5081611  81.1257235
  86.5151370  24.8862863  80.6220952  85.1708312  25.2270488  81.2292213
  89.9374131  25.2126760  82.0615568  90.1537745  26.0951398  81.7604396
  89.4568198  24.8212973  81.3321210  84.6773352  28.1712473  88.6386312
  84.5317933  28.4852776  89.5310594  84.1998556  28.7897373  88.0857211
  86.5369735  25.1615021  88.6867202  86.5231304  24.2656114  88.3499500
  87.2542163  25.1685685  89.3205488  88.3895866  25.5952361  90.7320329
  88.1313644  26.5169432  90.7304660  87.8580906  25.1982796  91.4220793
  93.3342055  38.7003148  83.5110415  93.5078932  38.1349571  82.7584267
  93.8270946  39.5004043  83.3289905  79.1519014  30.7117817  91.5773973
  78.6072482  31.4877625  91.7094248  80.0298364  31.0588622  91.4193095
  85.9406631  24.0429401  83.9554772  86.0622542  23.1146047  84.1545659
  85.6508673  24.0568087  83.0433087  88.8097821  21.7284312  87.0921492
  88.8319518  21.7923645  86.1373471  89.2265880  20.8888820  87.2861998
  99.1881446  31.4639571  85.1300714  99.6312592  30.7146896  84.7319838
  98.3107956  31.4549708  84.7474446  94.3217227  38.0169913  80.6107313
  95.0168132  38.6376605  80.8294628  94.6640377  37.1665264  80.8859691
  79.9385036  29.8387714  94.4704130  79.1966772  29.9870349  95.0568761
  79.6177781  30.0995979  93.6070880  96.2208650  35.4669618  82.1394644
  96.7459974  35.8056891  81.4143964  96.1331003  34.5316633  81.9557778
  87.8828699  39.3803692  94.2684520  88.1915825  39.1352839  95.1407220
  88.6804181  39.5850330  93.7803391  87.9049311  41.5341601  86.4989897
  87.4654301  41.0417980  87.1922754  88.6557428  40.9914569  86.2581972
  80.3841650  37.7253142  86.5014525  81.2099670  37.4256914  86.1213168
  80.0335702  36.9560765  86.9504314  85.3523183  37.0779611  88.5712199
  84.7303192  36.4150316  88.2714426  86.0228050  37.1040742  87.8885846
  78.5850255  35.6439469  87.4603459  77.7482163  35.2161643  87.2787460
  78.5573900  35.8371912  88.3974250  85.4247711  25.5561399  98.1644705
  85.4735866  26.4323521  97.7822474  85.9670225  25.0138792  97.5916348
  95.9102556  36.1002522  97.4445842  95.1198100  36.0826661  96.9050341
  95.6735911  36.6390815  98.1994878  96.0300431  32.9494988  94.7578570
  96.0798436  32.7844996  95.6994093  95.9214355  32.0822247  94.3676451
  84.9136690  35.6283534  82.0470659  85.0624810  36.3118998  81.3937332
  85.7203133  35.6088624  82.5620115  93.3204194  28.9325916  96.0737877
  94.2214056  28.7932381  95.7821875  93.3952168  29.0980371  97.0136054
  87.6546999  26.3092771  94.9191063  86.7850308  26.6026337  94.6473652
  87.8906479  26.8933216  95.6398327  97.5318628  35.3691930  95.0020592
  97.2403436  35.7321910  95.8384053  96.9190759  34.6558938  94.8233924
  98.7314310  32.9344809  87.5223162  99.5661202  33.3734614  87.6860722
  98.8673439  32.4583463  86.7031408  95.7805816  30.4924544  93.4700650
  96.2559938  30.6852191  92.6619501  94.8571382  30.5483730  93.2244033
  82.6689323  31.6548711  83.0531728  82.4235365  30.7511041  83.2511938
  82.8385238  31.6565862  82.1111206  90.3586033  22.5272388  92.4356484
  90.8767977  23.2633415  92.1102972  90.0041166  22.8336381  93.2703243
  81.9384971  27.3877069  80.5517889  81.2454215  27.4621424  79.8957925
  81.6936722  26.6237413  81.0739406  90.6098627  18.9472670  87.9557380
  90.8900381  18.2795859  88.5817807  91.3949234  19.1401766  87.4432044
  88.4132096  38.1231664  79.5182407  87.8406063  38.7421851  79.0652878
  88.9864889  38.6731026  80.0522328  94.4807485  27.3690304  91.7028955
  95.4324908  27.4688402  91.7241179  94.3110936  26.5768573  92.2127040
  92.5021865  24.4545888  91.8888356  91.9071797  24.7350900  91.1934845
  92.2171562  24.9439789  92.6605097  91.6329355  38.4068814  80.6490989
  92.5660028  38.3414376  80.8523864  91.5452568  39.2425081  80.1905521
  94.2617372  37.7234685  77.6094936  94.1831004  37.3894548  78.5030694
  95.0827039  38.2156453  77.6086409  96.9595563  30.5896424  90.8171255
  96.9271883  29.6512425  91.0030939  97.5696187  30.6680461  90.0837080
  88.7978894  29.4592477  76.8598459  89.7437999  29.3298685  76.9286877
  88.4193139  28.7207139  77.3367887  97.1090052  27.3807468  90.8629538
  96.5929100  26.5965924  90.6759467  97.9930000  27.0526184  91.0276058
  94.7700779  21.1248483  86.8225351  94.5725600  20.8163571  87.7068683
  95.3800484  21.8510122  86.9523281 102.7772113  31.6512431  89.9577292
 103.5075502  31.3897719  90.5184995 102.1679059  30.9141153  89.9979360
 100.8587410  29.7920294  90.5551743 100.1320574  29.6576258  89.9468235
 100.4434697  30.0997122  91.3608461  88.6817587  33.5110223  98.3199116
  89.6020596  33.6888822  98.5139162  88.6467170  32.5666269  98.1678815
  86.9821811  27.3842453  76.7953344  86.0753267  27.0875566  76.8716058
  87.2597792  27.0872272  75.9287630  77.8999752  28.7048817  87.2452391
  77.5802536  27.8514125  86.9526765  77.3533180  28.9197395  88.0010358
  81.6779659  31.4211258  90.9621897  81.8965669  32.3528366  90.9809931
  82.0905433  31.0619232  91.7476701  88.5983877  21.9279343  82.9497586
  87.7884605  21.5826428  83.3252832  89.2868294  21.6186887  83.5385197
  90.5274425  21.0057390  84.5721882  91.0805464  21.4252843  85.2311905
  90.7644512  20.0793138  84.6144838  86.5507524  26.9944464 100.3524646
  86.4504251  27.9438821 100.2836737  86.3329066  26.6662703  99.4800716
  85.7520596  24.2429389  76.9365323  86.6139760  24.5684287  77.1961141
  85.9370940  23.4560885  76.4238389  77.7688012  32.3251728  89.2145512
  77.0751483  31.9105681  88.7015467  78.5161003  32.3672265  88.6178931
  93.9053232  23.1157915  84.0800546  93.3251901  23.7742719  83.6978599
  93.6389165  22.2935260  83.6687964  92.3556799  22.5162973  86.2821867
  92.8556577  22.6279507  85.4736186  92.9992407  22.2124026  86.9222675
  86.4138794  30.4241602  99.1689708  85.9305876  31.2241963  99.3753597
  86.4999734  30.4349547  98.2157152  79.6824754  32.2569982  87.0911527
  79.6595442  32.3557669  86.1393410  79.9925391  33.1035133  87.4128693
  82.3412132  34.3146137  91.2058142  83.2955386  34.2830079  91.1388073
  82.1424656  33.8536761  92.0208367  82.9311514  32.8847253  93.7728939
  83.7504403  33.3791332  93.7963776  83.2048322  31.9679221  93.7446507
  92.6878110  25.2758006  83.1356895  91.8003965  25.5607656  82.9177089
  93.1032099  25.1151769  82.2884172  96.0392646  25.3004526  86.8511234
  96.8153037  25.7900979  87.1235851  95.3140781  25.7262581  87.3083103
  98.4765205  26.0132146  87.9085175  99.0709696  25.7727882  87.1978483
  98.5491789  25.2939276  88.5358711  80.6962361  39.8565757  88.2228339
  80.5616829  39.0966158  87.6566337  80.2794423  40.5806656  87.7557128
  91.8321324  35.0402680  77.2304915  92.5357174  35.2452683  77.8462570
  91.1083973  35.6079442  77.4953998  92.6619134  30.7912541  83.3507185
  92.6054335  31.2481093  82.5114817  93.2147477  30.0303226  83.1730028
  96.4723940  26.5802273  84.1757304  96.2160874  26.1798909  85.0065512
  95.8476808  27.2946067  84.0507443 100.7836278  29.3198347  86.6828596
 100.2235836  29.3891536  87.4560158 100.1779781  29.1439331  85.9628092
  83.8531487  40.7535074  88.4346782  83.7363871  41.6980506  88.3325472
  83.0323933  40.4508635  88.8232581  93.7408021  35.4785209  79.2803375
  94.5753625  35.0466408  79.0980850  93.5792364  35.3067223  80.2080269
  93.3953913  31.9817323  80.6459714  93.3402717  31.8161594  79.7048158
  92.7699969  32.6893356  80.8021904  78.1846428  27.2185387  94.4721136
  78.8305292  26.7084341  94.9608361  77.9763579  27.9554069  95.0464561
  90.7099821  34.2866235  99.9713277  91.5790980  34.4606887  99.6099912
  90.2306572  35.1060651  99.8489006  86.7050039  21.4825432  80.2245032
  86.6928709  22.4267272  80.3813303  87.5973461  21.2995577  79.9304494
  84.8786001  41.4063336  91.6502710  85.7813247  41.4386946  91.9669205
  84.6523371  40.4763786  91.6649046  86.6339603  40.1594322  88.3112789
  85.6835234  40.1596184  88.1977161  86.9372089  39.4127057  87.7948824
  90.5202158  18.0768208  84.4790969  89.7534554  17.5226695  84.6247652
  90.9312863  18.1490077  85.3405121  82.5243919  24.3653004  98.5696150
  83.3875381  24.0089809  98.7799475  81.9509330  24.0266899  99.2571555
 102.3692296  45.9954860  89.3758551 103.0070706  45.8761608  88.6721892
 102.2513139  46.9435704  89.4346504  99.1782003  45.9482289  89.3120076
  98.8400514  45.8323353  88.4240611 100.0471771  45.5473454  89.2921082
  95.0368818  47.8017765  85.3016967  94.4733683  47.7107702  84.5333255
  94.9221213  46.9817669  85.7819460  99.6601786  47.1017140  95.2706282
  99.6490426  46.7069939  94.3986785  99.8222425  46.3683213  95.8640053
  92.5833250  49.2968957  88.1401188  93.3754542  48.9559781  87.7247487
  92.8229900  49.4063932  89.0603341 100.6168377  51.4688733  80.6131432
  99.9656357  52.0542813  80.2265446 101.4112740  51.9994928  80.6726469
  94.5424004  48.5577870  81.0118566  95.3154880  48.0106857  80.8731442
  94.8949403  49.4222119  81.2233028  96.3809047  49.8854252  94.2185466
  96.0898913  50.7899883  94.1032132  97.0166031  49.9270780  94.9329535
  97.3065254  47.2631101  90.8086825  97.9028826  47.0387123  90.0943788
  97.3640225  46.5215846  91.4112273  96.8790282  44.7170536  78.6437016
  97.1315803  44.1952057  77.8820479  95.9414841  44.5536681  78.7463700
 101.9233565  43.7206314  86.4511759 102.7096654  43.3025737  86.1002177
 102.1872269  44.6252407  86.6193408 102.0943642  49.1579165  81.1500416
 101.4589475  49.2313791  81.8621321 101.7641049  49.7472763  80.4719496
 107.3241992  43.6581548  87.3544738 108.0567164  43.0880764  87.5882567
 106.5681348  43.2703148  87.7951244  96.5986571  46.6198642  80.8461391
  96.4822829  45.9443545  81.5142476  96.7088831  46.1331016  80.0293544
  98.9418112  46.0808789  84.5508080  98.5776319  45.5539410  85.2621002
  99.7985228  45.6907258  84.3774566 104.8467412  37.3703122  91.8139347
 104.5150737  38.2398533  91.5900562 104.2513026  37.0539406  92.4933377
  98.5823599  41.1098689  79.5469429  98.7498001  41.9778925  79.9139900
  98.3920768  41.2725970  78.6230718 101.3398932  49.5715668  91.2135259
 101.0399655  50.4740706  91.1051067 100.9949991  49.3047851  92.0656412
  94.7911413  46.0229464  87.2471964  93.8661910  45.8905679  87.4549656
  95.0395826  46.8023684  87.7441906 104.7396076  42.0898208  88.8932697
 103.8312953  42.0213616  88.5991458 104.6883671  42.5670153  89.7214522
  98.5612819  43.5656346  80.5316096  98.4412445  44.0113397  81.3701576
  97.8665408  43.9141664  79.9729634  92.1520224  45.6662738  88.0815753
  92.2812605  45.9197217  88.9955165  91.4717676  46.2590446  87.7620408
  96.3219712  56.3359988  84.1806227  96.2443741  57.2867813  84.2594708
  95.7181355  55.9905860  84.8381153  98.8136941  43.5087853  96.8367594
  98.0370275  44.0681774  96.8270459  99.4527504  43.9944636  97.3582464
 106.6057722  40.2914646  90.6710571 105.9632102  40.5847179  90.0250365
 106.1012650  40.1767567  91.4763767 104.2597886  44.0377819  81.3596430
 105.1715742  44.2705206  81.1844127 103.7507533  44.6214864  80.7971508
  97.0683314  46.3173307  96.3985561  97.8097998  46.8558351  96.1220385
  96.3620299  46.9439596  96.5557113 102.5438653  48.4602447  94.9957722
 102.9522009  48.0184858  94.2512355 101.8215915  47.8855075  95.2491915
  98.8969723  43.3975054  92.3691279  99.7430919  43.8214468  92.5125928
  98.8368361  42.7408678  93.0629842 102.8667468  49.0203638  88.7510011
 102.2376330  49.1849352  88.0486079 102.4793130  49.4345247  89.5220975
 106.7456700  49.9558076  86.1054375 106.0607738  50.3356977  85.5551408
 106.8300549  50.5653402  86.8386323 102.0469169  41.0579422  94.0272453
 101.8030101  41.8121483  93.4906729 102.3229099  41.4364770  94.8619700
 104.0007631  47.6018035  92.7049719 104.2124527  48.2449795  92.0284100
 103.9537380  46.7680351  92.2371649 101.6033860  40.2135855  89.6086291
 100.7418339  40.5117109  89.9003028 101.6296295  40.4306254  88.6767323
  98.4195430  48.7578046  86.0160096  98.8833775  49.0365749  85.2264719
  98.1552228  47.8561491  85.8333187  95.3119511  48.3049527  88.9539860
  95.8820868  48.7336796  88.3157344  95.9027623  48.0232112  89.6524045
  97.3564316  44.8801198  82.8249662  98.0588359  45.3322242  83.2923588
  97.0244944  44.2385017  83.4529555  95.8044677  43.4712955  97.2000871
  95.1743338  44.1529236  97.4336268  95.6980765  43.3596037  96.2554009
  91.0989650  43.1384751  88.1266795  90.3088704  43.3942280  87.6506906
  91.5900897  43.9533089  88.2318836 105.1153459  50.4789990  90.8772076
 105.9370903  50.0770177  90.5954758 105.1115862  50.3758224  91.8288192
  93.0504395  43.5029330  85.0850272  92.2535558  43.6148024  85.6033767
  92.8229987  43.8415982  84.2191162  98.8810063  50.0274033  93.0332786
  98.9454495  50.4894441  93.8690958  98.1720987  49.3971398  93.1615096
  89.3827353  43.3915241  90.5581786  89.6335391  44.2762251  90.8239362
  89.9186901  43.2119843  89.7856878 113.2059452  46.8228739  87.2257047
 112.4523161  46.2536137  87.0701052 113.3406994  46.7891403  88.1727682
  98.5958080  51.6942141  82.9011767  98.4603755  52.5393677  83.3296615
  99.1367893  51.8961419  82.1377701  95.0825420  37.7733721  99.5626122
  94.6892366  37.2199919 100.2373766  95.8991560  38.0844299  99.9532640
  92.0487478  49.2117579  83.4739692  92.5611998  50.0060829  83.6245257
  92.7010191  48.5143869  83.4073293  93.8582363  52.3283335  85.5562445
  94.0348991  53.2501300  85.3683429  94.6539196  52.0141754  85.9856825
  97.9993381  39.1891600  97.1546379  98.7403094  39.7898753  97.0750841
  98.2311304  38.4469238  96.5964421  93.1434719  44.3747967  95.4324608
  93.0288234  43.4733224  95.7331707  92.2879237  44.6211664  95.0809425
 100.2226557  52.3165707  97.0312109  99.7790411  51.5302086  96.7133013
 100.8843770  52.5044858  96.3656000  94.9813678  53.8461509  91.5572787
  95.5321103  53.7178572  90.7849781  94.1425154  54.1456398  91.2067680
 102.3207795  52.5968507  95.0593510 102.3026270  53.4177388  94.5673779
 103.2427715  52.4722583  95.2843651  98.7780849  50.1112637  95.9017018
  99.3109186  49.3500925  95.6716326  98.2494930  49.8186289  96.6441173
 101.9450544  35.2172703  91.4310660 101.6014813  36.1074344  91.3549771
 102.3129507  35.0274360  90.5680245  90.0136395  47.5406233  84.2499262
  90.8511617  47.9503242  84.0332970  90.1914662  46.6005675  84.2199456
 101.9100827  45.2081314  79.9383095 101.3947450  45.9785919  80.1771483
 101.6378135  44.5346450  80.5616157  99.4947938  40.0531015  84.9968334
  98.6389534  39.6637865  84.8173972  99.9074890  40.1322976  84.1368119
 101.0247084  37.5877358  89.3959893 100.5211880  37.5507493  88.5827699
 101.3177691  38.4970101  89.4556550  97.2689970  37.6716088  88.4026075
  98.1342967  37.4758896  88.0431965  97.3367479  37.4426439  89.3295432
 106.8835101  47.9613669  81.8736269 106.1064544  47.6224828  81.4291431
 107.5626582  47.9666292  81.1991234 101.6987130  43.0808406  81.7642877
 101.3937266  43.3954555  82.6153020 102.6517572  43.1589826  81.8070210
 100.1433562  49.2398629  83.4135831  99.6154923  48.5051389  83.1009068
  99.6421065  50.0173306  83.1675799 105.1226408  47.4347650  88.5302877
 104.4650082  48.1246911  88.6183005 105.9266807  47.8244082  88.8736863
  94.8752289  39.9018296  85.7742442  95.4496041  39.6793477  85.0415635
  95.4623272  39.9706990  86.5271043 103.9331867  45.7892023  86.5806819
 104.4463748  46.4222014  87.0828528 104.5833090  45.1893218  86.2150179
  95.2021877  41.9322757  79.7938327  94.3659189  42.2697443  80.1147602
  95.0626646  41.7971736  78.8565464  97.1774957  36.7759545  84.5017511
  96.5239369  36.4608562  83.8774126  97.1355431  36.1535285  85.2277334
  98.2886162  47.0578840  76.4170804  97.3813224  46.8268093  76.6161953
  98.7857194  46.2616459  76.6044785 101.1954241  55.7676347  79.3367490
 100.5215940  56.0708044  79.9452448 101.5820063  56.5705427  78.9872947
 100.4112697  43.2641478  88.8265159  99.4935259  43.4856425  88.6686847
 100.8272841  43.3387789  87.9676866 101.1947745  44.6632894  83.9567839
 101.9419564  45.1754291  83.6474961 101.4639335  44.3416946  84.8172233
  99.4674395  47.1591434  80.9394794  98.5585615  46.8750467  81.0367263
  99.4969479  47.5790513  80.0798100 104.6993663  50.7698024  84.7085961
 104.2455990  49.9288934  84.7651152 104.0687630  51.4059422  85.0460741
 103.6426582  41.6990010  85.9386629 102.9049339  41.1867396  86.2696871
 103.8953356  41.2590392  85.1269906 103.1426602  52.6074521  85.6435779
 103.4349576  53.1679578  84.9248145 103.6525223  52.9003082  86.3988938
 103.7438210  34.4766262  86.5328398 104.0497087  33.6163625  86.2454313
 104.4690815  35.0683882  86.3327392  90.0362566  44.8796949  84.9209996
  89.8386966  44.2866309  84.1961062  89.4809230  44.5749159  85.6385935
  98.0159289  44.7720055  87.0404589  98.0707899  43.8193891  86.9647066
  97.2050491  44.9279494  87.5245887  99.1650483  48.7000178  78.2782872
  98.7269913  47.9836037  77.8188510  99.9060924  48.9276293  77.7167964
  95.9551649  43.3897115  84.7994968  95.1419515  43.6891285  85.2060160
  96.4510644  42.9952804  85.5169450  98.1060227  53.3854872  86.7329233
  98.0636406  53.6115718  85.8037765  99.0222926  53.1518246  86.8815034
 101.5525861  43.8538939  93.6309862 101.9075249  44.0810412  94.4904327
 102.1997992  44.1857316  93.0087117 107.2823598  46.9757375  84.3359191
 107.1441497  47.1658971  83.4080380 106.9259817  47.7376758  84.7927242
  95.4465724  40.9615470  90.4156203  96.0865103  40.8204229  89.7179166
  94.6143255  40.6749984  90.0394805 107.3092978  49.0433902  89.3470462
 107.7429484  48.9509191  90.1953516 108.0224558  49.0191403  88.7090478
  96.2226028  50.2617901  86.5291195  97.0166627  49.7668221  86.3273770
  95.5117720  49.7335764  86.1658901 101.0420873  52.6435996  90.8803563
 101.0957895  53.2126933  91.6481279 100.1735654  52.8137881  90.5157600
  92.5308792  44.4060982  82.6050948  91.6006380  44.3445438  82.8220910
  92.6266263  43.8836935  81.8087589  92.4494341  40.9315795  85.1929190
  92.7101158  41.8461129  85.0838350  93.2711513  40.4640238  85.3425802
  93.9219266  42.3453552  92.3628014  94.5942319  42.1370915  91.7140663
  93.0949052  42.1475638  91.9233246 108.1708527  49.0857603  91.8803348
 108.3644417  49.9903413  92.1262623 108.0709145  48.6265022  92.7141933
  99.8244838  38.9715493  94.3793675  99.1772753  39.6705443  94.2858151
 100.5945853  39.4051637  94.7469923 103.2323636  49.2364346  97.4544228
 103.0809142  49.0074897  96.5374312 103.2228315  50.1934947  97.4675573
 100.0008972  46.8096258  92.4390495 100.9301032  46.9607418  92.2659462
  99.5800002  46.8980279  91.5839141  98.7997304  50.8346923  90.2089032
  98.6608390  50.4665707  91.0814970  98.0111900  51.3494562  90.0372990
  99.3945456  55.9356019  81.5514569  99.5697212  55.4644062  82.3660192
  98.7078244  56.5621785  81.7795830 100.3502519  50.2128525  87.5977870
 100.0152352  50.1729295  88.4935520  99.8506465  49.5473241  87.1248280
  94.3246763  45.6196155  93.1230451  94.1866561  44.8876394  93.7241990
  95.2351687  45.5305056  92.8414639 103.2861711  47.5584560  77.8714930
 102.6690881  46.8331388  77.7747982 102.8178199  48.3193920  77.5282004
  96.9529064  45.3316115  92.6114131  97.6628682  44.6909307  92.5700749
  96.9098372  45.5829010  93.5340312 104.9415842  52.2683468  95.5320710
 104.8828389  51.5842688  94.8651293 105.3435361  53.0102458  95.0801336
  95.6657998  42.3181333  94.4309770  95.1295355  41.8672071  95.0831367
  95.0774706  42.4527242  93.6880235  93.9606541  59.0845382  88.3254429
  94.2003140  59.7163906  89.0033448  93.1175738  58.7333422  88.6119788
  95.0760257  41.7769984  76.9936234  94.1989723  41.6558785  76.6298481
  95.5518010  40.9856062  76.7415123 104.9433250  50.2323052  93.7634690
 104.0560029  49.8948974  93.8861089 105.5131801  49.5006083  94.0003455
  86.5962397  46.5647144  87.0877741  87.2833437  46.2508874  86.4998757
  86.4410526  47.4688508  86.8144993  91.3997119  41.4537340  91.5162765
  91.3155308  40.8463010  90.7813175  90.5779825  41.9446359  91.5172261
  98.4734403  54.8924504  90.7295933  98.4004575  55.6979476  91.2415238
  98.0311796  55.0916470  89.9043954  98.2624183  54.1296274  84.2398755
  97.4791705  54.6717955  84.3336979  98.9616928  54.6470254  84.6392996
 101.5720833  39.9390904  86.8832960 102.0689532  39.1860866  86.5634030
 100.8007814  39.9755221  86.3176169 109.4250590  45.6431269  88.5251251
 109.4140467  46.5255985  88.1545185 108.5567970  45.2902820  88.3305789
 100.9333087  54.7911338  92.8854092 101.6461059  55.4258803  92.8129993
 100.4423115  54.8875204  92.0694094 102.6550614  48.6962591  84.4571383
 101.7206892  48.8164054  84.2876088 102.8327282  47.7935058  84.1931393
  98.1555802  42.0808287  86.6104645  97.7853589  41.5279327  87.2985550
  98.6514894  41.4766420  86.0579645 106.0423165  44.5379910  84.9921418
 106.5083617  45.3707902  84.9181720 106.4930665  44.0724892  85.6966676
  95.9845000  52.5405782  93.7059663  96.6854460  53.1742265  93.8589057
  95.5140115  52.8820513  92.9455302 104.1099396  50.8823732  81.9907570
 104.3859240  50.7680326  82.9001444 103.2403895  50.4841217  81.9519743
 104.0139828  36.9060497  89.0312319 103.1002907  37.1364724  89.1994526
 104.4432929  36.9898941  89.8826351 103.7846286  45.0950389  91.5312213
 103.1317736  45.3426297  90.8764666 104.1626666  44.2814528  91.1974690
 100.7453460  55.1310083  85.6340383 100.9275855  54.3131738  86.0968135
 101.5686446  55.3477775  85.1965273 101.0795626  54.0578268  82.8955432
 101.6083392  53.5470722  82.2825594 101.3423845  53.7420798  83.7600965
  99.8333859  45.8370200  98.0178250  99.1574496  45.7364330  98.6880625
 100.6561493  45.6809414  98.4814247  91.5812718  52.0742137  90.6390765
  92.1666155  51.3285825  90.7718669  91.3837557  52.3846094  91.5227429
  94.4351373  55.1093384  85.6553208  93.7661749  55.5939512  85.1717248
  94.2964243  55.3562605  86.5696586  86.1730373  44.6447737  89.3595208
  86.2114473  44.1111328  90.1532326  85.6670666  44.1182943  88.7406186
  98.5756642  57.1437128  92.2535866  99.1274950  57.3068749  93.0184951
  98.9162836  57.7341566  91.5815891  93.5521135  39.4912278  92.8557751
  93.6162462  40.3527109  92.4435148  93.4888256  38.8786279  92.1230109
  93.0273408  41.5635410  96.5030785  93.6545447  41.1812488  97.1168309
  92.1701327  41.3449612  96.8686477 103.4267516  51.9698385  98.1084520
 103.9707420  52.5828344  97.6139475 102.8454361  52.5277964  98.6251533
  89.8038951  43.3711839  82.4349140  90.0992392  42.4622518  82.3816193
  88.9026986  43.3499579  82.1130142 101.7125029  55.0919103  89.2399548
 101.5876169  54.2908843  88.7310494 102.3704120  55.5865297  88.7513518
  93.3333198  41.4467836  88.4176688  92.6119783  42.0603804  88.2784162
  94.1226453  41.9825601  88.3393334 103.7759938  52.8928123  90.8679098
 102.8290273  52.7733475  90.7957425 104.1242711  52.0050622  90.9505360
  96.1359511  38.7822262  94.6917340  96.6593913  39.0284559  95.4543649
  95.9171844  39.6142297  94.2720477  91.5326792  41.0525937  82.5588465
  91.2039498  40.1723316  82.3763571  91.8866163  40.9973606  83.4464854
 100.7806371  52.6880840  87.0683450 100.6331333  51.7597547  87.2491020
 101.6059865  52.7100930  86.5840526  94.6468615  41.3398907  82.9263943
  94.9864688  41.8684828  82.2042551  95.0940736  41.6779313  83.7022509
 104.3840493  53.5109398  88.1548323 105.3087040  53.3052260  88.0172774
 104.2155796  53.2625800  89.0637665  97.3412056  39.7235958  92.3767011
  97.0008877  38.9243771  92.7787691  96.6351062  40.0237668  91.8043844
  97.9928528  36.8085270  90.8294334  98.8154597  36.3345748  90.7073224
  98.2366592  37.5875754  91.3293020  96.6336762  39.8373528  81.1257235
  97.3545125  40.2154781  80.6220952  96.0102067  40.5562405  81.2292213
 100.7767885  40.5418677  82.0615568 100.9931500  41.4243315  81.7604396
 100.2961952  40.1504891  81.3321210  95.5167107  43.5004391  88.6386312
  95.3711687  43.8144694  89.5310594  95.0392310  44.1189291  88.0857211
  97.3763490  40.4906939  88.6867202  97.3625058  39.5948032  88.3499500
  98.0935918  40.4977602  89.3205488  99.2289620  40.9244279  90.7320329
  98.9707398  41.8461349  90.7304660  98.6974661  40.5274713  91.4220793
 104.1735809  54.0295066  83.5110415 104.3472687  53.4641488  82.7584267
 104.6664700  54.8295961  83.3289905  89.9912769  46.0409735  91.5773973
  89.4466237  46.8169543  91.7094248  90.8692119  46.3880539  91.4193095
  96.7800386  39.3721319  83.9554772  96.9016297  38.4437965  84.1545659
  96.4902428  39.3860005  83.0433087  99.6491576  37.0576229  87.0921492
  99.6713273  37.1215562  86.1373471 100.0659635  36.2180738  87.2861998
 110.0275200  46.7931489  85.1300714 110.4706346  46.0438814  84.7319838
 109.1501711  46.7841625  84.7474446 105.1610982  53.3461830  80.6107313
 105.8561886  53.9668523  80.8294628 105.5034132  52.4957182  80.8859691
  90.7778791  45.1679631  94.4704130  90.0360527  45.3162267  95.0568761
  90.4571535  45.4287897  93.6070880 107.0602405  50.7961536  82.1394644
 107.5853729  51.1348809  81.4143964 106.9724757  49.8608551  81.9557778
  98.7222453  54.7095609  94.2684520  99.0309580  54.4644756  95.1407220
  99.5197935  54.9142248  93.7803391  98.7443065  56.8633519  86.4989897
  98.3048056  56.3709898  87.1922754  99.4951182  56.3206487  86.2581972
  91.2235404  53.0545060  86.5014525  92.0493424  52.7548832  86.1213168
  90.8729456  52.2852682  86.9504314  96.1916938  52.4071528  88.5712199
  95.5696947  51.7442233  88.2714426  96.8621804  52.4332660  87.8885846
  89.4244009  50.9731386  87.4603459  88.5875918  50.5453561  87.2787460
  89.3967655  51.1663830  88.3974250  96.2641465  40.8853316  98.1644705
  96.3129621  41.7615439  97.7822474  96.8063979  40.3430709  97.5916348
 106.7496311  51.4294439  97.4445842 105.9591854  51.4118578  96.9050341
 106.5129665  51.9682733  98.1994878 106.8694186  48.2786906  94.7578570
 106.9192191  48.1136913  95.6994093 106.7608109  47.4114165  94.3676451
  95.7530444  50.9575452  82.0470659  95.9018565  51.6410916  81.3937332
  96.5596888  50.9380542  82.5620115 104.1597948  44.2617834  96.0737877
 105.0607811  44.1224299  95.7821875 104.2345923  44.4272289  97.0136054
  98.4940754  41.6384689  94.9191063  97.6244063  41.9318255  94.6473652
  98.7300234  42.2225134  95.6398327 108.3712383  50.6983847  95.0020592
 108.0797191  51.0613828  95.8384053 107.7584514  49.9850856  94.8233924
 109.5708065  48.2636727  87.5223162 110.4054956  48.7026531  87.6860722
 109.7067194  47.7875380  86.7031408 106.6199571  45.8216462  93.4700650
 107.0953692  46.0144108  92.6619501 105.6965136  45.8775648  93.2244033
  93.5083077  46.9840629  83.0531728  93.2629119  46.0802959  83.2511938
  93.6778992  46.9857780  82.1111206 101.1979787  37.8564306  92.4356484
 101.7161731  38.5925332  92.1102972 100.8434920  38.1628299  93.2703243
  92.7778725  42.7168987  80.5517889  92.0847970  42.7913342  79.8957925
  92.5330477  41.9529330  81.0739406 101.4492382  34.2764588  87.9557380
 101.7294135  33.6087777  88.5817807 102.2342988  34.4693684  87.4432044
  99.2525850  53.4523582  79.5182407  98.6799817  54.0713769  79.0652878
  99.8258644  54.0022944  80.0522328 105.3201240  42.6982222  91.7028955
 106.2718663  42.7980320  91.7241179 105.1504690  41.9060491  92.2127040
 103.3415619  39.7837805  91.8888356 102.7465551  40.0642818  91.1934845
 103.0565316  40.2731706  92.6605097 102.4723110  53.7360732  80.6490989
 103.4053783  53.6706294  80.8523864 102.3846323  54.5716999  80.1905521
 105.1011126  53.0526602  77.6094936 105.0224758  52.7186466  78.5030694
 105.9220793  53.5448370  77.6086409 107.7989318  45.9188342  90.8171255
 107.7665638  44.9804342  91.0030939 108.4089941  45.9972378  90.0837080
  99.6372649  44.7884395  76.8598459 100.5831753  44.6590603  76.9286877
  99.2586893  44.0499057  77.3367887 107.9483806  42.7099385  90.8629538
 107.4322855  41.9257842  90.6759467 108.8323755  42.3818102  91.0276058
 105.6094533  36.4540401  86.8225351 105.4119354  36.1455489  87.7068683
 106.2194239  37.1802040  86.9523281 113.6165868  46.9804349  89.9577292
 114.3469256  46.7189637  90.5184995 113.0072813  46.2433071  89.9979360
 111.6981165  45.1212211  90.5551743 110.9714328  44.9868176  89.9468235
 111.2828452  45.4289040  91.3608461  99.5211341  48.8402141  98.3199116
 100.4414351  49.0180740  98.5139162  99.4860924  47.8958186  98.1678815
  97.8215566  42.7134371  76.7953344  96.9147021  42.4167484  76.8716058
  98.0991547  42.4164189  75.9287630  88.7393506  44.0340735  87.2452391
  88.4196290  43.1806043  86.9526765  88.1926934  44.2489313  88.0010358
  92.5173414  46.7503176  90.9621897  92.7359423  47.6820283  90.9809931
  92.9299187  46.3911150  91.7476701  99.4377631  37.2571261  82.9497586
  98.6278360  36.9118346  83.3252832 100.1262048  36.9478805  83.5385197
 101.3668180  36.3349308  84.5721882 101.9199218  36.7544761  85.2311905
 101.6038266  35.4085056  84.6144838  97.3901279  42.3236381 100.3524646
  97.2898006  43.2730738 100.2836737  97.1722821  41.9954620  99.4800716
  96.5914350  39.5721306  76.9365323  97.4533514  39.8976205  77.1961141
  96.7764694  38.7852802  76.4238389  88.6081766  47.6543646  89.2145512
  87.9145237  47.2397599  88.7015467  89.3554757  47.6964183  88.6178931
 104.7446987  38.4449833  84.0800546 104.1645656  39.1034637  83.6978599
 104.4782919  37.6227177  83.6687964 103.1950553  37.8454891  86.2821867
 103.6950332  37.9571425  85.4736186 103.8386161  37.5415943  86.9222675
  97.2532549  45.7533520  99.1689708  96.7699631  46.5533880  99.3753597
  97.3393488  45.7641465  98.2157152  90.5218509  47.5861900  87.0911527
  90.4989197  47.6849587  86.1393410  90.8319145  48.4327051  87.4128693
  93.1805886  49.6438055  91.2058142  94.1349140  49.6121997  91.1388073
  92.9818410  49.1828679  92.0208367  93.7705269  48.2139171  93.7728939
  94.5898158  48.7083250  93.7963776  94.0442076  47.2971139  93.7446507
 103.5271865  40.6049923  83.1356895 102.6397720  40.8899574  82.9177089
 103.9425854  40.4443687  82.2884172 106.8786401  40.6296444  86.8511234
 107.6546791  41.1192897  87.1235851 106.1534535  41.0554498  87.3083103
 109.3158960  41.3424063  87.9085175 109.9103450  41.1019799  87.1978483
 109.3885543  40.6231194  88.5358711  91.5356115  55.1857674  88.2228339
  91.4010583  54.4258075  87.6566337  91.1188178  55.9098574  87.7557128
 102.6715078  50.3694598  77.2304915 103.3750928  50.5744600  77.8462570
 101.9477727  50.9371360  77.4953998 103.5012889  46.1204459  83.3507185
 103.4448090  46.5773011  82.5114817 104.0541231  45.3595144  83.1730028
 107.3117694  41.9094191  84.1757304 107.0554629  41.5090827  85.0065512
 106.6870562  42.6237985  84.0507443 111.6230032  44.6490264  86.6828596
 111.0629590  44.7183454  87.4560158 111.0173536  44.4731249  85.9628092
  94.6925241  56.0826991  88.4346782  94.5757625  57.0272424  88.3325472
  93.8717687  55.7800553  88.8232581 104.5801776  50.8077127  79.2803375
 105.4147380  50.3758326  79.0980850 104.4186119  50.6359141  80.2080269
 104.2347668  47.3109240  80.6459714 104.1796472  47.1453512  79.7048158
 103.6093723  48.0185273  80.8021904  89.0240183  42.5477305  94.4721136
  89.6699046  42.0376259  94.9608361  88.8157334  43.2845986  95.0464561
 101.5493575  49.6158152  99.9713277 102.4184735  49.7898805  99.6099912
 101.0700327  50.4352569  99.8489006  97.5443793  36.8117349  80.2245032
  97.5322463  37.7559189  80.3813303  98.4367215  36.6287495  79.9304494
  95.7179755  56.7355253  91.6502710  96.6207002  56.7678863  91.9669205
  95.4917125  55.8055704  91.6649046  97.4733357  55.4886240  88.3112789
  96.5228988  55.4888101  88.1977161  97.7765843  54.7418974  87.7948824
 101.3595913  33.4060126  84.4790969 100.5928309  32.8518613  84.6247652
 101.7706618  33.4781995  85.3405121  93.3637674  39.6944922  98.5696150
  94.2269135  39.3381727  98.7799475  92.7903084  39.3558817  99.2571555
 113.2086051  61.3246778  89.3758551 113.8464461  61.2053526  88.6721892
 113.0906894  62.2727622  89.4346504 110.0175757  61.2774206  89.3120076
 109.6794269  61.1615271  88.4240611 110.8865525  60.8765371  89.2921082
 105.8762573  63.1309683  85.3016967 105.3127438  63.0399620  84.5333255
 105.7614968  62.3109587  85.7819460 110.4995540  62.4309058  95.2706282
 110.4884181  62.0361856  94.3986785 110.6616180  61.6975131  95.8640053
 103.4227005  64.6260874  88.1401188 104.2148297  64.2851699  87.7247487
 103.6623655  64.7355849  89.0603341 111.4562131  66.7980650  80.6131432
 110.8050111  67.3834731  80.2265446 112.2506494  67.3286845  80.6726469
 105.3817759  63.8869788  81.0118566 106.1548635  63.3398775  80.8731442
 105.7343157  64.7514037  81.2233028 107.2202801  65.2146170  94.2185466
 106.9292667  66.1191801  94.1032132 107.8559786  65.2562697  94.9329535
 108.1459008  62.5923018  90.8086825 108.7422580  62.3679041  90.0943788
 108.2033980  61.8507764  91.4112273 107.7184036  60.0462454  78.6437016
 107.9709557  59.5243975  77.8820479 106.7808596  59.8828599  78.7463700
 112.7627319  59.0498232  86.4511759 113.5490408  58.6317655  86.1002177
 113.0266024  59.9544324  86.6193408 112.9337397  64.4871082  81.1500416
 112.2983230  64.5605709  81.8621321 112.6034803  65.0764681  80.4719496
 118.1635746  58.9873465  87.3544738 118.8960918  58.4172682  87.5882567
 117.4075102  58.5995066  87.7951244 107.4380325  61.9490560  80.8461391
 107.3216583  61.2735463  81.5142476 107.5482585  61.4622934  80.0293544
 109.7811866  61.4100707  84.5508080 109.4170073  60.8831328  85.2621002
 110.6378982  61.0199176  84.3774566 115.6861167  52.6995039  91.8139347
 115.3544492  53.5690450  91.5900562 115.0906780  52.3831323  92.4933377
 109.4217353  56.4390606  79.5469429 109.5891755  57.3070843  79.9139900
 109.2314522  56.6017888  78.6230718 112.1792686  64.9007585  91.2135259
 111.8793409  65.8032624  91.1051067 111.8343746  64.6339769  92.0656412
 105.6305168  61.3521382  87.2471964 104.7055664  61.2197596  87.4549656
 105.8789581  62.1315601  87.7441906 115.5789830  57.4190126  88.8932697
 114.6706707  57.3505534  88.5991458 115.5277426  57.8962070  89.7214522
 109.4006574  58.8948264  80.5316096 109.2806199  59.3405315  81.3701576
 108.7059162  59.2433582  79.9729634 102.9913979  60.9954656  88.0815753
 103.1206360  61.2489135  88.9955165 102.3111430  61.5882364  87.7620408
 107.1613466  71.6651906  84.1806227 107.0837496  72.6159731  84.2594708
 106.5575110  71.3197778  84.8381153 109.6530696  58.8379771  96.8367594
 108.8764030  59.3973691  96.8270459 110.2921259  59.3236554  97.3582464
 117.4451476  55.6206564  90.6710571 116.8025857  55.9139097  90.0250365
 116.9406405  55.5059484  91.4763767 115.0991640  59.3669737  81.3596430
 116.0109496  59.5997124  81.1844127 114.5901287  59.9506781  80.7971508
 107.9077068  61.6465224  96.3985561 108.6491753  62.1850268  96.1220385
 107.2014054  62.2731513  96.5557113 113.3832408  63.7894365  94.9957722
 113.7915764  63.3476775  94.2512355 112.6609669  63.2146992  95.2491915
 109.7363478  58.7266972  92.3691279 110.5824673  59.1506385  92.5125928
 109.6762115  58.0700596  93.0629842 113.7061222  64.3495556  88.7510011
 113.0770085  64.5141270  88.0486079 113.3186885  64.7637165  89.5220975
 117.5850454  65.2849993  86.1054375 116.9001492  65.6648895  85.5551408
 117.6694304  65.8945320  86.8386323 112.8862923  56.3871340  94.0272453
 112.6423855  57.1413401  93.4906729 113.1622854  56.7656688  94.8619700
 114.8401386  62.9309952  92.7049719 115.0518281  63.5741712  92.0284100
 114.7931134  62.0972269  92.2371649 112.4427615  55.5427773  89.6086291
 111.5812094  55.8409027  89.9003028 112.4690050  55.7598172  88.6767323
 109.2589184  64.0869964  86.0160096 109.7227530  64.3657667  85.2264719
 108.9945982  63.1853408  85.8333187 106.1513265  63.6341445  88.9539860
 106.7214622  64.0628714  88.3157344 106.7421377  63.3524030  89.6524045
 108.1958070  60.2093116  82.8249662 108.8982114  60.6614160  83.2923588
 107.8638699  59.5676935  83.4529555 106.6438432  58.8004873  97.2000871
 106.0137092  59.4821153  97.4336268 106.5374520  58.6887954  96.2554009
 101.9383404  58.4676669  88.1266795 101.1482458  58.7234197  87.6506906
 102.4294652  59.2825007  88.2318836 115.9547214  65.8081908  90.8772076
 116.7764658  65.4062095  90.5954758 115.9509617  65.7050142  91.8288192
 103.8898150  58.8321248  85.0850272 103.0929313  58.9439942  85.6033767
 103.6623742  59.1707900  84.2191162 109.7203817  65.3565951  93.0332786
 109.7848250  65.8186358  93.8690958 109.0114741  64.7263316  93.1615096
 100.2221107  58.7207159  90.5581786 100.4729146  59.6054169  90.8239362
 100.7580656  58.5411761  89.7856878 109.4351835  67.0234059  82.9011767
 109.2997510  67.8685594  83.3296615 109.9761647  67.2253336  82.1377701
 105.9219175  53.1025638  99.5626122 105.5286120  52.5491837 100.2373766
 106.7385315  53.4136217  99.9532640 102.8881232  64.5409497  83.4739692
 103.4005753  65.3352747  83.6245257 103.5403945  63.8435787  83.4073293
 104.6976117  67.6575253  85.5562445 104.8742745  68.5793218  85.3683429
 105.4932951  67.3433672  85.9856825 108.8387136  54.5183518  97.1546379
 109.5796849  55.1190671  97.0750841 109.0705058  53.7761155  96.5964421
 103.9828474  59.7039885  95.4324608 103.8681989  58.8025142  95.7331707
 103.1272991  59.9503582  95.0809425 111.0620311  67.6457625  97.0312109
 110.6184166  66.8594004  96.7133013 111.7237525  67.8336776  96.3656000
 105.8207433  69.1753427  91.5572787 106.3714858  69.0470490  90.7849781
 104.9818908  69.4748316  91.2067680 113.1601549  67.9260425  95.0593510
 113.1420025  68.7469306  94.5673779 114.0821469  67.8014500  95.2843651
 109.6174604  65.4404555  95.9017018 110.1502940  64.6792843  95.6716326
 109.0888685  65.1478206  96.6441173 112.7844299  50.5464620  91.4310660
 112.4408568  51.4366262  91.3549771 113.1523261  50.3566278  90.5680245
 100.8530149  62.8698151  84.2499262 101.6905371  63.2795159  84.0332970
 101.0308417  61.9297593  84.2199456 112.7494581  60.5373232  79.9383095
 112.2341205  61.3077836  80.1771483 112.4771890  59.8638368  80.5616157
 110.3341692  55.3822932  84.9968334 109.4783289  54.9929783  84.8173972
 110.7468644  55.4614893  84.1368119 111.8640839  52.9169276  89.3959893
 111.3605635  52.8799411  88.5827699 112.1571446  53.8262018  89.4556550
 108.1083725  53.0008005  88.4026075 108.9736722  52.8050814  88.0431965
 108.1761234  52.7718357  89.3295432 117.7228855  63.2905586  81.8736269
 116.9458298  62.9516746  81.4291431 118.4020336  63.2958209  81.1991234
 112.5380884  58.4100324  81.7642877 112.2331020  58.7246473  82.6153020
 113.4911327  58.4881744  81.8070210 110.9827316  64.5690547  83.4135831
 110.4548678  63.8343307  83.1009068 110.4814819  65.3465223  83.1675799
 115.9620162  62.7639568  88.5302877 115.3043837  63.4538829  88.6183005
 116.7660562  63.1535999  88.8736863 105.7146044  55.2310213  85.7742442
 106.2889796  55.0085395  85.0415635 106.3017026  55.2998908  86.5271043
 114.7725621  61.1183940  86.5806819 115.2857503  61.7513932  87.0828528
 115.4226845  60.5185136  86.2150179 106.0415631  57.2614674  79.7938327
 105.2052943  57.5989361  80.1147602 105.9020401  57.1263654  78.8565464
 108.0168712  52.1051462  84.5017511 107.3633124  51.7900479  83.8774126
 107.9749186  51.4827203  85.2277334 109.1279916  62.3870757  76.4170804
 108.2206978  62.1560011  76.6161953 109.6250948  61.5908377  76.6044785
 112.0347995  71.0968264  79.3367490 111.3609694  71.3999961  79.9452448
 112.4213817  71.8997345  78.9872947 111.2506452  58.5933396  88.8265159
 110.3329013  58.8148343  88.6686847 111.6666596  58.6679706  87.9676866
 112.0341500  59.9924811  83.9567839 112.7813319  60.5046209  83.6474961
 112.3033089  59.6708864  84.8172233 110.3068150  62.4883352  80.9394794
 109.3979369  62.2042385  81.0367263 110.3363234  62.9082431  80.0798100
 115.5387417  66.0989942  84.7085961 115.0849744  65.2580852  84.7651152
 114.9081384  66.7351340  85.0460741 114.4820337  57.0281928  85.9386629
 113.7443094  56.5159314  86.2696871 114.7347110  56.5882309  85.1269906
 113.9820357  67.9366438  85.6435779 114.2743331  68.4971495  84.9248145
 114.4918977  68.2294999  86.3988938 114.5831964  49.8058180  86.5328398
 114.8890841  48.9455543  86.2454313 115.3084569  50.3975800  86.3327392
 100.8756320  60.2088866  84.9209996 100.6780720  59.6158227  84.1961062
 100.3202984  59.9041076  85.6385935 108.8553044  60.1011973  87.0404589
 108.9101654  59.1485809  86.9647066 108.0444246  60.2571412  87.5245887
 110.0044238  64.0292096  78.2782872 109.5663668  63.3127955  77.8188510
 110.7454679  64.2568211  77.7167964 106.7945404  58.7189032  84.7994968
 105.9813269  59.0183203  85.2060160 107.2904398  58.3244721  85.5169450
 108.9453982  68.7146789  86.7329233 108.9030161  68.9407636  85.8037765
 109.8616681  68.4810164  86.8815034 112.3919616  59.1830857  93.6309862
 112.7469003  59.4102330  94.4904327 113.0391747  59.5149234  93.0087117
 118.1217352  62.3049293  84.3359191 117.9835251  62.4950889  83.4080380
 117.7653571  63.0668676  84.7927242 106.2859479  56.2907388  90.4156203
 106.9258858  56.1496147  89.7179166 105.4537009  56.0041901  90.0394805
 118.1486732  64.3725820  89.3470462 118.5823239  64.2801109  90.1953516
 118.8618313  64.3483320  88.7090478 107.0619783  65.5909818  86.5291195
 107.8560381  65.0960139  86.3273770 106.3511475  65.0627682  86.1658901
 111.8814627  67.9727914  90.8803563 111.9351649  68.5418850  91.6481279
 111.0129408  68.1429799  90.5157600 103.3702546  59.7352900  82.6050948
 102.4400134  59.6737356  82.8220910 103.4660018  59.2128853  81.8087589
 103.2888095  56.2607713  85.1929190 103.5494912  57.1753046  85.0838350
 104.1105267  55.7932156  85.3425802 104.7613020  57.6745470  92.3628014
 105.4336074  57.4662832  91.7140663 103.9342807  57.4767556  91.9233246
 119.0102282  64.4149521  91.8803348 119.2038172  65.3195331  92.1262623
 118.9102900  63.9556940  92.7141933 110.6638592  54.3007411  94.3793675
 110.0166507  54.9997361  94.2858151 111.4339608  54.7343555  94.7469923
 114.0717390  64.5656263  97.4544228 113.9202897  64.3366815  96.5374312
 114.0622070  65.5226865  97.4675573 110.8402727  62.1388176  92.4390495
 111.7694787  62.2899336  92.2659462 110.4193757  62.2272197  91.5839141
 109.6391059  66.1638840  90.2089032 109.5002144  65.7957625  91.0814970
 108.8505655  66.6786480  90.0372990 110.2339210  71.2647937  81.5514569
 110.4090966  70.7935980  82.3660192 109.5471999  71.8913703  81.7795830
 111.1896274  65.5420443  87.5977870 110.8546106  65.5021213  88.4935520
 110.6900219  64.8765159  87.1248280 105.1640518  60.9488073  93.1230451
 105.0260316  60.2168312  93.7241990 106.0745441  60.8596973  92.8414639
 114.1255465  62.8876477  77.8714930 113.5084636  62.1623306  77.7747982
 113.6571954  63.6485838  77.5282004 107.7922818  60.6608032  92.6114131
 108.5022437  60.0201225  92.5700749 107.7492126  60.9120927  93.5340312
 115.7809597  67.5975386  95.5320710 115.7222143  66.9134606  94.8651293
 116.1829115  68.3394376  95.0801336 106.5051752  57.6473250  94.4309770
 105.9689109  57.1963989  95.0831367 105.9168461  57.7819159  93.6880235
 104.8000296  74.4137300  88.3254429 105.0396894  75.0455824  89.0033448
 103.9569492  74.0625340  88.6119788 105.9154011  57.1061902  76.9936234
 105.0383478  56.9850703  76.6298481 106.3911764  56.3147980  76.7415123
 115.7827004  65.5614970  93.7634690 114.8953783  65.2240892  93.8861089
 116.3525555  64.8298001  94.0003455  97.4356151  61.8939061  87.0877741
  98.1227191  61.5800792  86.4998757  97.2804280  62.7980426  86.8144993
 102.2390874  56.7829258  91.5162765 102.1549062  56.1754928  90.7813175
 101.4173580  57.2738276  91.5172261 109.3128158  70.2216422  90.7295933
 109.2398329  71.0271394  91.2415238 108.8705551  70.4208388  89.9043954
 109.1017937  69.4588192  84.2398755 108.3185459  70.0009872  84.3336979
 109.8010682  69.9762172  84.6392996 112.4114587  55.2682822  86.8832960
 112.9083287  54.5152784  86.5634030 111.6401569  55.3047138  86.3176169
 120.2644345  60.9723187  88.5251251 120.2534221  61.8547903  88.1545185
 119.3961724  60.6194738  88.3305789 111.7726841  70.1203256  92.8854092
 112.4854813  70.7550721  92.8129993 111.2816870  70.2167122  92.0694094
 113.4944368  64.0254509  84.4571383 112.5600647  64.1455971  84.2876088
 113.6721037  63.1226976  84.1931393 108.9949556  57.4100205  86.6104645
 108.6247344  56.8571245  87.2985550 109.4908649  56.8058338  86.0579645
 116.8816919  59.8671828  84.9921418 117.3477372  60.6999820  84.9181720
 117.3324420  59.4016810  85.6966676 106.8238755  67.8697700  93.7059663
 107.5248214  68.5034183  93.8589057 106.3533870  68.2112431  92.9455302
 114.9493151  66.2115649  81.9907570 115.2252994  66.0972244  82.9001444
 114.0797649  65.8133134  81.9519743 114.8533582  52.2352415  89.0312319
 113.9396662  52.4656642  89.1994526 115.2826684  52.3190859  89.8826351
 114.6240041  60.4242307  91.5312213 113.9711491  60.6718214  90.8764666
 115.0020421  59.6106445  91.1974690 111.5847215  70.4602000  85.6340383
 111.7669609  69.6423656  86.0968135 112.4080201  70.6769692  85.1965273
 111.9189380  69.3870185  82.8955432 112.4477146  68.8762640  82.2825594
 112.1817600  69.0712716  83.7600965 110.6727614  61.1662118  98.0178250
 109.9968251  61.0656247  98.6880625 111.4955248  61.0101332  98.4814247
 102.4206473  67.4034055  90.6390765 103.0059910  66.6577743  90.7718669
 102.2231311  67.7138011  91.5227429 105.2745128  70.4385302  85.6553208
 104.6055503  70.9231430  85.1717248 105.1357998  70.6854522  86.5696586
  97.0124127  59.9739655  89.3595208  97.0508227  59.4403246  90.1532326
  96.5064420  59.4474860  88.7406186 109.4150397  72.4729046  92.2535866
 109.9668705  72.6360667  93.0184951 109.7556590  73.0633483  91.5815891
 104.3914890  54.8204195  92.8557751 104.4556216  55.6819026  92.4435148
 104.3282010  54.2078197  92.1230109 103.8667162  56.8927328  96.5030785
 104.4939201  56.5104405  97.1168309 103.0095081  56.6741530  96.8686477
 114.2661271  67.2990303  98.1084520 114.8101175  67.9120261  97.6139475
 113.6848116  67.8569881  98.6251533 100.6432705  58.7003757  82.4349140
 100.9386146  57.7914435  82.3816193  99.7420741  58.6791496  82.1130142
 112.5518784  70.4211021  89.2399548 112.4269923  69.6200761  88.7310494
 113.2097875  70.9157214  88.7513518 104.1726952  56.7759754  88.4176688
 103.4513538  57.3895721  88.2784162 104.9620208  57.3117518  88.3393334
 114.6153692  68.2220041  90.8679098 113.6684028  68.1025392  90.7957425
 114.9636465  67.3342539  90.9505360 106.9753266  54.1114180  94.6917340
 107.4987667  54.3576477  95.4543649 106.7565599  54.9434215  94.2720477
 102.3720547  56.3817855  82.5588465 102.0433253  55.5015234  82.3763571
 102.7259917  56.3265523  83.4464854 111.6200126  68.0172757  87.0683450
 111.4725088  67.0889465  87.2491020 112.4453619  68.0392848  86.5840526
 105.4862370  56.6690824  82.9263943 105.8258442  57.1976746  82.2042551
 105.9334490  57.0071231  83.7022509 115.2234247  68.8401316  88.1548323
 116.1480795  68.6344177  88.0172774 115.0549551  68.5917717  89.0637665
 108.1805811  55.0527875  92.3767011 107.8402631  54.2535688  92.7787691
 107.4744817  55.3529586  91.8043844 108.8322282  52.1377188  90.8294334
 109.6548352  51.6637666  90.7073224 109.0760346  52.9167671  91.3293020
 107.4730517  55.1665446  81.1257235 108.1938879  55.5446699  80.6220952
 106.8495821  55.8854323  81.2292213 111.6161640  55.8710595  82.0615568
 111.8325254  56.7535233  81.7604396 111.1355707  55.4796808  81.3321210
 106.3560861  58.8296308  88.6386312 106.2105442  59.1436611  89.5310594
 105.8786065  59.4481209  88.0857211 108.2157244  55.8198856  88.6867202
 108.2018813  54.9239950  88.3499500 108.9329672  55.8269520  89.3205488
 110.0683375  56.2536196  90.7320329 109.8101153  57.1753267  90.7304660
 109.5368415  55.8566631  91.4220793 115.0129564  69.3586984  83.5110415
 115.1866441  68.7933406  82.7584267 115.5058455  70.1587878  83.3289905
 100.8306523  61.3701653  91.5773973 100.2859991  62.1461461  91.7094248
 101.7085873  61.7172457  91.4193095 107.6194140  54.7013237  83.9554772
 107.7410051  53.7729883  84.1545659 107.3296182  54.7151922  83.0433087
 110.4885330  52.3868147  87.0921492 110.5107027  52.4507480  86.1373471
 110.9053389  51.5472656  87.2861998 120.8668955  62.1223407  85.1300714
 121.3100101  61.3730732  84.7319838 119.9895465  62.1133543  84.7474446
 116.0004736  68.6753748  80.6107313 116.6955641  69.2960441  80.8294628
 116.3427886  67.8249099  80.8859691 101.6172545  60.4971549  94.4704130
 100.8754281  60.6454184  95.0568761 101.2965290  60.7579815  93.6070880
 117.8996159  66.1253453  82.1394644 118.4247483  66.4640726  81.4143964
 117.8118512  65.1900469  81.9557778 109.5616208  70.0387527  94.2684520
 109.8703334  69.7936674  95.1407220 110.3591690  70.2434166  93.7803391
 109.5836820  72.1925437  86.4989897 109.1441810  71.7001815  87.1922754
 110.3344937  71.6498404  86.2581972 102.0629159  68.3836978  86.5014525
 102.8887179  68.0840750  86.1213168 101.7123211  67.6144600  86.9504314
 107.0310692  67.7363446  88.5712199 106.4090701  67.0734151  88.2714426
 107.7015559  67.7624578  87.8885846 100.2637764  66.3023304  87.4603459
  99.4269672  65.8745478  87.2787460 100.2361409  66.4955747  88.3974250
 107.1035220  56.2145234  98.1644705 107.1523375  57.0907357  97.7822474
 107.6457734  55.6722627  97.5916348 117.5890065  66.7586357  97.4445842
 116.7985609  66.7410496  96.9050341 117.3523420  67.2974651  98.1994878
 117.7087940  63.6078824  94.7578570 117.7585945  63.4428831  95.6994093
 117.6001864  62.7406083  94.3676451 106.5924199  66.2867369  82.0470659
 106.7412319  66.9702834  81.3937332 107.3990642  66.2672459  82.5620115
 114.9991703  59.5909752  96.0737877 115.9001565  59.4516216  95.7821875
 115.0739677  59.7564206  97.0136054 109.3334508  56.9676606  94.9191063
 108.4637817  57.2610172  94.6473652 109.5693988  57.5517051  95.6398327
 119.2106137  66.0275765  95.0020592 118.9190945  66.3905746  95.8384053
 118.5978268  65.3142773  94.8233924 120.4101819  63.5928645  87.5223162
 121.2448711  64.0318449  87.6860722 120.5460948  63.1167298  86.7031408
 117.4593325  61.1508380  93.4700650 117.9347447  61.3436026  92.6619501
 116.5358891  61.2067565  93.2244033 104.3476832  62.3132547  83.0531728
 104.1022874  61.4094877  83.2511938 104.5172747  62.3149697  82.1111206
 112.0373542  53.1856223  92.4356484 112.5555486  53.9217250  92.1102972
 111.6828675  53.4920217  93.2703243 103.6172480  58.0460904  80.5517889
 102.9241724  58.1205259  79.8957925 103.3724231  57.2821248  81.0739406
 112.2886136  49.6056506  87.9557380 112.5687890  48.9379695  88.5817807
 113.0736743  49.7985601  87.4432044 110.0919605  68.7815500  79.5182407
 109.5193572  69.4005687  79.0652878 110.6652398  69.3314861  80.0522328
 116.1594994  58.0274140  91.7028955 117.1112417  58.1272237  91.7241179
 115.9898445  57.2352408  92.2127040 114.1809374  55.1129723  91.8888356
 113.5859306  55.3934736  91.1934845 113.8959071  55.6023624  92.6605097
 113.3116864  69.0652650  80.6490989 114.2447537  68.9998211  80.8523864
 113.2240077  69.9008917  80.1905521 115.9404881  68.3818520  77.6094936
 115.8618513  68.0478384  78.5030694 116.7614548  68.8740288  77.6086409
 118.6383072  61.2480259  90.8171255 118.6059392  60.3096260  91.0030939
 119.2483696  61.3264296  90.0837080 110.4766403  60.1176312  76.8598459
 111.4225508  59.9882521  76.9286877 110.0980648  59.3790974  77.3367887
 118.7877561  58.0391303  90.8629538 118.2716609  57.2549759  90.6759467
 119.6717509  57.7110019  91.0276058 116.4488288  51.7832318  86.8225351
 116.2513109  51.4747407  87.7068683 117.0587993  52.5093957  86.9523281
 110.3605096  64.1694059  98.3199116 111.2808105  64.3472658  98.5139162
 110.3254679  63.2250104  98.1678815 108.6609320  58.0426289  76.7953344
 107.7540776  57.7459402  76.8716058 108.9385301  57.7456107  75.9287630
  99.5787261  59.3632652  87.2452391  99.2590045  58.5097960  86.9526765
  99.0320689  59.5781230  88.0010358 103.3567168  62.0795093  90.9621897
 103.5753178  63.0112201  90.9809931 103.7692942  61.7203068  91.7476701
 110.2771386  52.5863179  82.9497586 109.4672114  52.2410263  83.3252832
 110.9655803  52.2770722  83.5385197 112.2061934  51.6641225  84.5721882
 112.7592973  52.0836679  85.2311905 112.4432021  50.7376973  84.6144838
 108.2295033  57.6528299 100.3524646 108.1291760  58.6022656 100.2836737
 108.0116575  57.3246538  99.4800716 107.4308105  54.9013224  76.9365323
 108.2927269  55.2268122  77.1961141 107.6158449  54.1144720  76.4238389
  99.4475521  62.9835564  89.2145512  98.7538992  62.5689516  88.7015467
 100.1948512  63.0256100  88.6178931 115.5840741  53.7741750  84.0800546
 115.0039410  54.4326554  83.6978599 115.3176674  52.9519095  83.6687964
 114.0344308  53.1746808  86.2821867 114.5344086  53.2863343  85.4736186
 114.6779916  52.8707861  86.9222675 108.0926303  61.0825438  99.1689708
 107.6093385  61.8825798  99.3753597 108.1787243  61.0933383  98.2157152
 101.3612263  62.9153817  87.0911527 101.3382951  63.0141505  86.1393410
 101.6712900  63.7618968  87.4128693 104.0199641  64.9729972  91.2058142
 104.9742895  64.9413915  91.1388073 103.8212165  64.5120596  92.0208367
 104.6099023  63.5431089  93.7728939 105.4291912  64.0375167  93.7963776
 104.8835831  62.6263057  93.7446507 114.3665619  55.9341841  83.1356895
 113.4791474  56.2191491  82.9177089 114.7819608  55.7735604  82.2884172
 117.7180155  55.9588362  86.8511234 118.4940546  56.4484814  87.1235851
 116.9928290  56.3846416  87.3083103 120.1552714  56.6715981  87.9085175
 120.7497205  56.4311717  87.1978483 120.2279298  55.9523112  88.5358711
 102.3749870  70.5149592  88.2228339 102.2404338  69.7549993  87.6566337
 101.9581932  71.2390492  87.7557128 113.5108833  65.6986516  77.2304915
 114.2144683  65.9036518  77.8462570 112.7871482  66.2663277  77.4953998
 114.3406643  61.4496377  83.3507185 114.2841844  61.9064928  82.5114817
 114.8934985  60.6887061  83.1730028 118.1511449  57.2386109  84.1757304
 117.8948383  56.8382744  85.0065512 117.5264317  57.9529903  84.0507443
 105.5318996  71.4118909  88.4346782 105.4151380  72.3564341  88.3325472
 104.7111442  71.1092471  88.8232581 115.4195530  66.1369045  79.2803375
 116.2541134  65.7050243  79.0980850 115.2579873  65.9651058  80.2080269
 115.0741422  62.6401158  80.6459714 115.0190226  62.4745429  79.7048158
 114.4487478  63.3477191  80.8021904  99.8633937  57.8769222  94.4721136
 100.5092801  57.3668176  94.9608361  99.6551088  58.6137904  95.0464561
 112.3887330  64.9450070  99.9713277 113.2578489  65.1190722  99.6099912
 111.9094081  65.7644487  99.8489006 108.3837548  52.1409267  80.2245032
 108.3716218  53.0851107  80.3813303 109.2760970  51.9579412  79.9304494
 106.5573510  72.0647171  91.6502710 107.4600756  72.0970781  91.9669205
 106.3310880  71.1347622  91.6649046 108.3127112  70.8178157  88.3112789
 107.3622743  70.8180019  88.1977161 108.6159598  70.0710892  87.7948824
 112.1989667  48.7352044  84.4790969 111.4322063  48.1810530  84.6247652
 112.6100372  48.8073912  85.3405121 104.2031428  55.0236839  98.5696150
 105.0662890  54.6673644  98.7799475 103.6296839  54.6850734  99.2571555
 120.8569512  76.6066124  89.3120076 120.5188023  76.4907189  88.4240611
 121.7259280  76.2057289  89.2921082 116.7156327  78.4601600  85.3016967
 116.1521192  78.3691537  84.5333255 116.6008722  77.6401505  85.7819460
 121.3389295  77.7600976  95.2706282 121.3277935  77.3653774  94.3986785
 121.5009934  77.0267048  95.8640053 114.2620759  79.9552792  88.1401188
 115.0542051  79.6143617  87.7247487 114.5017409  80.0647767  89.0603341
 116.2211513  79.2161705  81.0118566 116.9942389  78.6690692  80.8731442
 116.5736912  80.0805955  81.2233028 118.0596556  80.5438087  94.2185466
 117.7686422  81.4483718  94.1032132 118.6953540  80.5854615  94.9329535
 118.9852763  77.9214936  90.8086825 119.5816335  77.6970958  90.0943788
 119.0427734  77.1799681  91.4112273 118.5577791  75.3754371  78.6437016
 118.8103312  74.8535893  77.8820479 117.6202350  75.2120517  78.7463700
 118.2774080  77.2782477  80.8461391 118.1610338  76.6027381  81.5142476
 118.3876340  76.7914851  80.0293544 120.6205621  76.7392624  84.5508080
 120.2563828  76.2123245  85.2621002 121.4772737  76.3491093  84.3774566
 120.2611108  71.7682524  79.5469429 120.4285510  72.6362760  79.9139900
 120.0708277  71.9309806  78.6230718 116.4698922  76.6813300  87.2471964
 115.5449419  76.5489514  87.4549656 116.7183335  77.4607519  87.7441906
 120.2400328  74.2240182  80.5316096 120.1199954  74.6697232  81.3701576
 119.5452917  74.5725499  79.9729634 113.8307733  76.3246573  88.0815753
 113.9600114  76.5781052  88.9955165 113.1505185  76.9174281  87.7620408
 118.0007221  86.9943823  84.1806227 117.9231250  87.9451648  84.2594708
 117.3968864  86.6489696  84.8381153 120.4924450  74.1671689  96.8367594
 119.7157784  74.7265609  96.8270459 121.1315013  74.6528472  97.3582464
 118.7470823  76.9757142  96.3985561 119.4885507  77.5142186  96.1220385
 118.0407808  77.6023431  96.5557113 120.5757232  74.0558889  92.3691279
 121.4218428  74.4798303  92.5125928 120.5155870  73.3992514  93.0629842
 120.0982939  79.4161881  86.0160096 120.5621284  79.6949584  85.2264719
 119.8339737  78.5145326  85.8333187 116.9907020  78.9633363  88.9539860
 117.5608377  79.3920631  88.3157344 117.5815132  78.6815948  89.6524045
 119.0351825  75.5385034  82.8249662 119.7375868  75.9906077  83.2923588
 118.7032453  74.8968853  83.4529555 117.4832186  74.1296790  97.2000871
 116.8530847  74.8113071  97.4336268 117.3768274  74.0179872  96.2554009
 112.7777159  73.7968586  88.1266795 111.9876213  74.0526115  87.6506906
 113.2688406  74.6116924  88.2318836 114.7291904  74.1613166  85.0850272
 113.9323067  74.2731860  85.6033767 114.5017496  74.4999818  84.2191162
 120.5597572  80.6857869  93.0332786 120.6242004  81.1478276  93.8690958
 119.8508496  80.0555234  93.1615096 111.0614862  74.0499077  90.5581786
 111.3122900  74.9346087  90.8239362 111.5974410  73.8703678  89.7856878
 120.2745589  82.3525976  82.9011767 120.1391264  83.1977512  83.3296615
 120.8155402  82.5545254  82.1377701 116.7612929  68.4317556  99.5626122
 116.3679875  67.8783755 100.2373766 117.5779069  68.7428135  99.9532640
 113.7274987  79.8701414  83.4739692 114.2399507  80.6644665  83.6245257
 114.3797700  79.1727705  83.4073293 115.5369872  82.9867171  85.5562445
 115.7136500  83.9085135  85.3683429 116.3326705  82.6725590  85.9856825
 119.6780890  69.8475435  97.1546379 120.4190603  70.4482588  97.0750841
 119.9098813  69.1053073  96.5964421 114.8222228  75.0331802  95.4324608
 114.7075743  74.1317060  95.7331707 113.9666746  75.2795499  95.0809425
 116.6601187  84.5045344  91.5572787 117.2108612  84.3762408  90.7849781
 115.8212663  84.8040233  91.2067680 120.4568358  80.7696472  95.9017018
 120.9896695  80.0084760  95.6716326 119.9282439  80.4770124  96.6441173
 111.6923904  78.1990069  84.2499262 112.5299126  78.6087077  84.0332970
 111.8702171  77.2589511  84.2199456 121.1735447  70.7114850  84.9968334
 120.3177043  70.3221700  84.8173972 121.5862399  70.7906811  84.1368119
 118.9477479  68.3299923  88.4026075 119.8130476  68.1342732  88.0431965
 119.0154988  68.1010275  89.3295432 121.8221071  79.8982465  83.4135831
 121.2942432  79.1635224  83.1009068 121.3208573  80.6757141  83.1675799
 116.5539798  70.5602131  85.7742442 117.1283550  70.3377312  85.0415635
 117.1410781  70.6290825  86.5271043 116.8809385  72.5906592  79.7938327
 116.0446698  72.9281279  80.1147602 116.7414155  72.4555572  78.8565464
 118.8562466  67.4343380  84.5017511 118.2026878  67.1192397  83.8774126
 118.8142940  66.8119120  85.2277334 119.9673671  77.7162675  76.4170804
 119.0600733  77.4851928  76.6161953 120.4644703  76.9200294  76.6044785
 121.1461904  77.8175270  80.9394794 120.2373124  77.5334303  81.0367263
 121.1756988  78.2374348  80.0798100 111.7150075  75.5380784  84.9209996
 111.5174475  74.9450145  84.1961062 111.1596739  75.2332994  85.6385935
 119.6946798  75.4303890  87.0404589 119.7495408  74.4777727  86.9647066
 118.8838000  75.5863330  87.5245887 120.8437992  79.3584013  78.2782872
 120.4057422  78.6419872  77.8188510 121.5848433  79.5860128  77.7167964
 117.6339158  74.0480950  84.7994968 116.8207024  74.3475121  85.2060160
 118.1298153  73.6536639  85.5169450 119.7847736  84.0438707  86.7329233
 119.7423915  84.2699553  85.8037765 120.7010435  83.8102082  86.8815034
 117.1253233  71.6199306  90.4156203 117.7652612  71.4788065  89.7179166
 116.2930764  71.3333819  90.0394805 117.9013537  80.9201736  86.5291195
 118.6954136  80.4252056  86.3273770 117.1905229  80.3919599  86.1658901
 114.2096300  75.0644818  82.6050948 113.2793889  75.0029273  82.8220910
 114.3053772  74.5420771  81.8087589 114.1281850  71.5899631  85.1929190
 114.3888667  72.5044964  85.0838350 114.9499022  71.1224073  85.3425802
 115.6006775  73.0037388  92.3628014 116.2729828  72.7954750  91.7140663
 114.7736561  72.8059474  91.9233246 121.5032347  69.6299329  94.3793675
 120.8560262  70.3289278  94.2858151 122.2733362  70.0635473  94.7469923
 120.4784813  81.4930758  90.2089032 120.3395899  81.1249542  91.0814970
 119.6899409  82.0078398  90.0372990 121.0732965  86.5939855  81.5514569
 121.2484721  86.1227898  82.3660192 120.3865753  87.2205621  81.7795830
 122.0290028  80.8712361  87.5977870 121.6939861  80.8313131  88.4935520
 121.5293974  80.2057077  87.1248280 116.0034272  76.2779991  93.1230451
 115.8654070  75.5460230  93.7241990 116.9139196  76.1888891  92.8414639
 118.6316573  75.9899950  92.6114131 119.3416191  75.3493142  92.5700749
 118.5885881  76.2412845  93.5340312 117.3445507  72.9765168  94.4309770
 116.8082864  72.5255906  95.0831367 116.7562215  73.1111077  93.6880235
 115.6394050  89.7429217  88.3254429 115.8790648  90.3747741  89.0033448
 114.7963247  89.3917257  88.6119788 116.7547766  72.4353819  76.9936234
 115.8777232  72.3142620  76.6298481 117.2305519  71.6439898  76.7415123
 108.2749906  77.2230979  87.0877741 108.9620946  76.9092709  86.4998757
 108.1198035  78.1272344  86.8144993 113.0784628  72.1121176  91.5162765
 112.9942817  71.5046845  90.7813175 112.2567334  72.6030194  91.5172261
 120.1521912  85.5508340  90.7295933 120.0792084  86.3563311  91.2415238
 119.7099305  85.7500306  89.9043954 119.9411692  84.7880110  84.2398755
 119.1579214  85.3301790  84.3336979 120.6404437  85.3054089  84.6392996
 119.8343311  72.7392122  86.6104645 119.4641098  72.1863163  87.2985550
 120.3302403  72.1350256  86.0579645 117.6632509  83.1989617  93.7059663
 118.3641969  83.8326100  93.8589057 117.1927624  83.5404349  92.9455302
 121.5121368  76.4954036  98.0178250 120.8362005  76.3948165  98.6880625
 122.3349002  76.3393250  98.4814247 113.2600227  82.7325972  90.6390765
 113.8453664  81.9869660  90.7718669 113.0625066  83.0429929  91.5227429
 116.1138882  85.7677220  85.6553208 115.4449258  86.2523347  85.1717248
 115.9751752  86.0146440  86.5696586 107.8517882  75.3031573  89.3595208
 107.8901981  74.7695163  90.1532326 107.3458175  74.7766778  88.7406186
 120.2544151  87.8020963  92.2535866 120.8062459  87.9652585  93.0184951
 120.5950345  88.3925401  91.5815891 115.2308644  70.1496113  92.8557751
 115.2949971  71.0110944  92.4435148 115.1675765  69.5370115  92.1230109
 114.7060917  72.2219246  96.5030785 115.3332956  71.8396323  97.1168309
 113.8488836  72.0033448  96.8686477 111.4826460  74.0295675  82.4349140
 111.7779901  73.1206353  82.3816193 110.5814495  74.0083414  82.1130142
 115.0120707  72.1051671  88.4176688 114.2907292  72.7187639  88.2784162
 115.8013962  72.6409436  88.3393334 117.8147020  69.4406098  94.6917340
 118.3381422  69.6868394  95.4543649 117.5959353  70.2726133  94.2720477
 113.2114301  71.7109772  82.5588465 112.8827007  70.8307151  82.3763571
 113.5653672  71.6557441  83.4464854 116.3256124  71.9982742  82.9263943
 116.6652197  72.5268663  82.2042551 116.7728245  72.3363148  83.7022509
 119.0199565  70.3819793  92.3767011 118.6796385  69.5827606  92.7787691
 118.3138571  70.6821504  91.8043844 119.6716037  67.4669105  90.8294334
 120.4942106  66.9929583  90.7073224 119.9154100  68.2459589  91.3293020
 118.3124271  70.4957364  81.1257235 119.0332634  70.8738617  80.6220952
 117.6889576  71.2146241  81.2292213 117.1954616  74.1588226  88.6386312
 117.0499196  74.4728529  89.5310594 116.7179819  74.7773126  88.0857211
 119.0550999  71.1490774  88.6867202 119.0412567  70.2531867  88.3499500
 119.7723427  71.1561438  89.3205488 120.9077129  71.5828114  90.7320329
 120.6494907  72.5045185  90.7304660 120.3762170  71.1858549  91.4220793
 111.6700278  76.6993570  91.5773973 111.1253746  77.4753378  91.7094248
 112.5479628  77.0464375  91.4193095 118.4587895  70.0305154  83.9554772
 118.5803806  69.1021800  84.1545659 118.1689937  70.0443840  83.0433087
 121.3279085  67.7160065  87.0921492 121.3500782  67.7799398  86.1373471
 121.7447144  66.8764573  87.2861998 112.4566300  75.8263467  94.4704130
 111.7148036  75.9746102  95.0568761 112.1359044  76.0871732  93.6070880
 120.4009962  85.3679445  94.2684520 120.7097089  85.1228592  95.1407220
 121.1985444  85.5726083  93.7803391 120.4230574  87.5217354  86.4989897
 119.9835565  87.0293733  87.1922754 121.1738691  86.9790322  86.2581972
 112.9022913  83.7128895  86.5014525 113.7280933  83.4132667  86.1213168
 112.5516965  82.9436518  86.9504314 117.8704447  83.0655364  88.5712199
 117.2484456  82.4026069  88.2714426 118.5409313  83.0916495  87.8885846
 111.1031518  81.6315222  87.4603459 110.2663427  81.2037396  87.2787460
 111.0755164  81.8247665  88.3974250 117.9428974  71.5437152  98.1644705
 117.9917130  72.4199274  97.7822474 118.4851488  71.0014545  97.5916348
 117.4317953  81.6159287  82.0470659 117.5806074  82.2994751  81.3937332
 118.2384397  81.5964377  82.5620115 120.1728263  72.2968524  94.9191063
 119.3031572  72.5902090  94.6473652 120.4087743  72.8808969  95.6398327
 115.1870586  77.6424465  83.0531728 114.9416628  76.7386795  83.2511938
 115.3566501  77.6441615  82.1111206 114.4566234  73.3752822  80.5517889
 113.7635479  73.4497177  79.8957925 114.2117986  72.6113166  81.0739406
 120.9313359  84.1107417  79.5182407 120.3587326  84.7297604  79.0652878
 121.5046153  84.6606779  80.0522328 121.3160158  75.4468230  76.8598459
 122.2619262  75.3174438  76.9286877 120.9374402  74.7082892  77.3367887
 121.1998850  79.4985976  98.3199116 122.1201860  79.6764575  98.5139162
 121.1648433  78.5542022  98.1678815 119.5003075  73.3718206  76.7953344
 118.5934530  73.0751319  76.8716058 119.7779056  73.0748025  75.9287630
 110.4181015  74.6924570  87.2452391 110.0983799  73.8389878  86.9526765
 109.8714443  74.9073148  88.0010358 114.1960923  77.4087011  90.9621897
 114.4146932  78.3404119  90.9809931 114.6086696  77.0494985  91.7476701
 121.1165140  67.9155096  82.9497586 120.3065869  67.5702181  83.3252832
 121.8049557  67.6062640  83.5385197 119.0688788  72.9820217 100.3524646
 118.9685515  73.9314574 100.2836737 118.8510330  72.6538456  99.4800716
 118.2701859  70.2305142  76.9365323 119.1321023  70.5560040  77.1961141
 118.4552203  69.4436638  76.4238389 110.2869275  78.3127481  89.2145512
 109.5932746  77.8981434  88.7015467 111.0342266  78.3548018  88.6178931
 118.9320058  76.4117355  99.1689708 118.4487140  77.2117716  99.3753597
 119.0180997  76.4225300  98.2157152 112.2006018  78.2445735  87.0911527
 112.1776706  78.3433422  86.1393410 112.5106654  79.0910886  87.4128693
 114.8593395  80.3021890  91.2058142 115.8136649  80.2705833  91.1388073
 114.6605919  79.8412514  92.0208367 115.4492778  78.8723006  93.7728939
 116.2685667  79.3667085  93.7963776 115.7229585  77.9554974  93.7446507
 113.2143624  85.8441510  88.2228339 113.0798092  85.0841911  87.6566337
 112.7975687  86.5682410  87.7557128 116.3712750  86.7410827  88.4346782
 116.2545134  87.6856259  88.3325472 115.5505196  86.4384388  88.8232581
 110.7027692  73.2061140  94.4721136 111.3486555  72.6960094  94.9608361
 110.4944843  73.9429822  95.0464561 119.2231302  67.4701185  80.2245032
 119.2109972  68.4143025  80.3813303 120.1154724  67.2871330  79.9304494
 117.3967264  87.3939089  91.6502710 118.2994511  87.4262699  91.9669205
 117.1704634  86.4639540  91.6649046 119.1520866  86.1470075  88.3112789
 118.2016497  86.1471937  88.1977161 119.4553352  85.4002810  87.7948824
 115.0425183  70.3528757  98.5696150 115.9056644  69.9965562  98.7799475
 114.4690593  70.0142652  99.2571555 121.9008616  89.3790994  90.5581786
 122.1516655  90.2638004  90.8239362 122.4368165  89.1995596  89.7856878
 119.1143660  92.5522897  87.0877741 119.8014700  92.2384627  86.4998757
 118.9591789  93.4564261  86.8144993 118.6911636  90.6323490  89.3595208
 118.7295736  90.0987081  90.1532326 118.1851929  90.1058696  88.7406186
 121.9425273  96.9607139  87.4603459 121.1057181  96.5329314  87.2787460
 121.9148918  97.1539583  88.3974250 121.2574770  90.0216488  87.2452391
 120.9377554  89.1681796  86.9526765 120.7108198  90.2365066  88.0010358
 121.1263030  93.6419399  89.2145512 120.4326501  93.2273352  88.7015467
 121.8736021  93.6839936  88.6178931 121.5421446  88.5353058  94.4721136
 122.1880310  88.0252012  94.9608361 121.3338597  89.2721739  95.0464561
  74.6432204   2.6838275  70.9051534  74.5656234   3.6346100  70.9840014
  74.0393847   2.3384148  71.5626460  72.2819034   5.4323669  75.0499736
  72.5215632   6.0642193  75.7278754  71.4388230   5.0811709  75.3365095
  72.7563866   1.4571672  72.3798514  72.0874241   1.9417799  71.8962554
  72.6176735   1.7040892  73.2941893  76.8969134   3.4915415  78.9781173
  77.4487442   3.6547037  79.7430258  77.2375328   4.0819853  78.3061197
  77.0655558   3.2111806  73.2235203  76.6260548   2.7188185  73.9168060
  77.8163675   2.6684774  72.9827279  69.8568608   1.5335962  74.9473646
  69.7223075   0.7736362  74.3811644  69.4400670   2.2576861  74.4802435
  73.0137733   2.4305279  75.1592089  72.8970118   3.3750711  75.0570779
  72.1930180   2.1278840  75.5477888  74.0392248   3.0833540  78.3748017
  74.9419494   3.1157151  78.6914512  73.8129618   2.1533991  78.3894353
  88.3388249   7.6252494  76.0365383  88.0006761   7.5093558  75.1485918
  89.2078018   7.2243659  76.0166389  84.1975065   9.4787970  72.0262274
  83.6339930   9.3877907  71.2578561  84.0827460   8.6587874  72.5064766
  88.8208032   8.7787345  81.9951588  88.8096673   8.3840144  81.1232092
  88.9828672   8.0453418  82.5885360  81.7439497  10.9739162  74.8646494
  82.5360789  10.6329986  74.4492793  81.9836147  11.0834137  75.7848648
  89.7774624  13.1458938  67.3376739  89.1262603  13.7313018  66.9510752
  90.5718987  13.6765133  67.3971776  83.7030251  10.2348075  67.7363873
  84.4761127   9.6877062  67.5976749  84.0555650  11.0992324  67.9478334
  85.5415293  11.5624457  80.9430772  85.2505159  12.4670088  80.8277439
  86.1772278  11.6040985  81.6574842  86.4671500   8.9401306  77.5332132
  87.0635073   8.7157328  76.8189095  86.5246472   8.1986051  78.1357580
  86.0396529   6.3940741  65.3682323  86.2922049   5.8722262  64.6065786
  85.1021088   6.2306886  65.4709007  91.2549889  10.8349370  67.8745723
  90.6195722  10.9083996  68.5866628  90.9247295  11.4242968  67.1964802
  85.7592817   8.2968847  67.5706698  85.6429076   7.6213750  68.2387782
  85.8695077   7.8101221  66.7538851  88.1024358   7.7578994  71.2753387
  87.7382566   7.2309615  71.9866309  88.9591474   7.3677463  71.1019873
  90.5005179  11.2485873  77.9380566  90.2005902  12.1510911  77.8296373
  90.1556238  10.9818056  78.7901719  83.9517660   7.6999669  73.9717270
  83.0268156   7.5675884  74.1794962  84.2002073   8.4793889  74.4687213
  81.3126471   7.3432943  74.8061059  81.4418852   7.5967422  75.7200471
  80.6323922   7.9360651  74.4865715  85.4825958  18.0130193  70.9051534
  85.4049988  18.9638018  70.9840014  84.8787602  17.6676065  71.5626460
  86.2289560   7.9943512  83.1230868  86.9704245   8.5328556  82.8465691
  85.5226546   8.6209800  83.2802419  91.7044900  10.1372652  81.7203029
  92.1128256   9.6955063  80.9757661  90.9822162   9.5625280  81.9737222
  92.0273715  10.6973843  75.4755318  91.3982577  10.8619557  74.7731386
  91.6399377  11.1115452  76.2466282  95.9062947  11.6328281  72.8299682
  95.2213985  12.0127182  72.2796715  95.9906796  12.2423607  73.5631629
  93.1613878   9.2788240  79.4295025  93.3730773   9.9220000  78.7529406
  93.1143626   8.4450556  78.9616955  87.5801677  10.4348251  72.7405403
  88.0440022  10.7135954  71.9510026  87.3158475   9.5331695  72.5578494
  84.4725758   9.9819732  75.6785166  85.0427115  10.4107001  75.0402651
  85.0633869   9.7002317  76.3769352  86.5170563   6.5571403  69.5494968
  87.2194606   7.0092447  70.0168895  86.1851191   5.9155222  70.1774861
  84.9650924   5.1483160  83.9246178  84.3349585   5.8299441  84.1581574
  84.8587012   5.0366241  82.9799316  80.2595897   4.8154956  74.8512102
  79.4694951   5.0712484  74.3752212  80.7507144   5.6303294  74.9564142
  94.2759706  12.1560195  77.6017383  95.0977150  11.7540382  77.3200064
  94.2722109  12.0528429  78.5533498  82.2110642   5.1799535  71.8095578
  81.4141805   5.2918229  72.3279074  81.9836234   5.5186187  70.9436469
  88.0416310  11.7044238  79.7578093  88.1060742  12.1664646  80.5936265
  87.3327233  11.0741603  79.8860403  78.5433600   5.0685446  77.2827093
  78.7941638   5.9532456  77.5484668  79.0793148   4.8890048  76.5102184
  87.7564327  13.3712346  69.6257073  87.6210002  14.2163882  70.0541921
  88.2974140  13.5731624  68.8623007  81.2093725  10.8887784  70.1984998
  81.7218245  11.6831034  70.3490563  81.8616437  10.1914074  70.1318600
  83.0188609  14.0053540  72.2807752  83.1955238  14.9271505  72.0928736
  83.8145443  13.6911959  72.7102131  82.3040966   6.0518172  82.1569915
  82.1894481   5.1503429  82.4577014  81.4485484   6.2981869  81.8054731
  89.3832804  13.9935912  83.7557415  88.9396658  13.2072291  83.4378320
  90.0450017  14.1815063  83.0901306  84.1419925  15.5231714  78.2818094
  84.6927350  15.3948777  77.5095088  83.3031401  15.8226603  77.9312987
  91.4814042  14.2738712  81.7838817  91.4632517  15.0947593  81.2919086
  92.4033962  14.1492788  82.0088958  87.9387096  11.7882842  82.6262325
  88.4715433  11.0271130  82.3961633  87.4101177  11.4956494  83.3686480
  79.1742641   9.2176438  70.9744569  80.0117863   9.6273447  70.7578277
  79.3520909   8.2775880  70.9444763  96.0441348   9.6383873  68.5981575
  95.2670790   9.2995033  68.1536738  96.7232829   9.6436497  67.9236541
  89.3039809  10.9168834  70.1381137  88.7761170  10.1821594  69.8254375
  88.8027311  11.6943511  69.8921105  94.2832655   9.1117855  75.2548183
  93.6256329   9.8017116  75.3428312  95.0873054   9.5014287  75.5982170
  87.4492409   8.7349045  63.1416110  86.5419470   8.5038298  63.3407259
  87.9463441   7.9386664  63.3290092  90.3560488  17.4446552  66.0612796
  89.6822186  17.7478248  66.6697754  90.7426310  18.2475632  65.7118253
  88.6280642   8.8361639  67.6640100  87.7191861   8.5520672  67.7612570
  88.6575726   9.2560718  66.8043407  93.8599910  12.4468229  71.4331268
  93.4062237  11.6059139  71.4896458  93.2293876  13.0829627  71.7706048
  92.3032849  14.2844726  72.3681086  92.5955823  14.8449783  71.6493452
  92.8131469  14.5773287  73.1234245  79.1968813   6.5567154  71.6455302
  78.9993212   5.9636514  70.9206369  78.6415477   6.2519364  72.3631241
  88.3256730  10.3770383  65.0028179  87.8876160   9.6606242  64.5433816
  89.0667171  10.6046498  64.4413270  87.2666474  15.0625077  73.4574539
  87.2242653  15.2885923  72.5283071  88.1829173  14.8288451  73.6060340
  96.4699224  10.7204107  76.0715769  96.9035731  10.6279396  76.9198823
  97.1830805  10.6961608  75.4335785  85.3832275  11.9388106  73.2536502
  86.1772873  11.4438426  73.0519077  84.6723967  11.4105969  72.8904207
  90.2027119  14.3206201  77.6048870  90.2564142  14.8897138  78.3726585
  89.3341901  14.4908086  77.2402907  81.6915038   6.0831187  69.3296255
  80.7612626   6.0215643  69.5466217  81.7872510   5.5607140  68.5332896
  97.3314774  10.7627808  78.6048654  97.5250664  11.6673618  78.8507929
  97.2315392  10.3035227  79.4387239  92.3929883  10.9134551  84.1789535
  92.2415389  10.6845102  83.2619619  92.3834562  11.8705152  84.1920880
  89.1615219   8.4866463  79.1635801  90.0907279   8.6377623  78.9904769
  88.7406249   8.5750484  78.3084448  87.9603551  12.5117128  76.9334339
  87.8214636  12.1435912  77.8060277  87.1718147  13.0264767  76.7618297
  88.5551703  17.6126224  68.2759876  88.7303458  17.1414267  69.0905498
  87.8684491  18.2391990  68.5041136  89.5108766  11.8898730  74.3223177
  89.1758599  11.8499500  75.2180827  89.0112712  11.2243446  73.8493587
  83.4853010   7.2966360  79.8475758  83.3472808   6.5646599  80.4487297
  84.3957933   7.2075260  79.5659946  92.4467958   9.2354765  64.5960236
  91.8297128   8.5101593  64.4993289  91.9784446   9.9964125  64.2527311
  86.1135311   7.0086320  79.3359438  86.8234929   6.3679512  79.2946056
  86.0704619   7.2599215  80.2585618  94.1022089  13.9453673  82.2566017
  94.0434635  13.2612893  81.5896600  94.5041608  14.6872663  81.8046643
  83.1212788  20.7615587  75.0499736  83.3609386  21.3934111  75.7278754
  82.2781985  20.4103627  75.3365095  94.1039497  11.9093257  80.4879996
  93.2166275  11.5719179  80.6106395  94.6738048  11.1776288  80.7248762
  75.7568644   8.2417349  73.8123048  76.4439683   7.9279079  73.2244063
  75.6016772   9.1458713  73.5390299  87.6340650  16.5694709  77.4541240
  87.5610821  17.3749681  77.9660544  87.1918043  16.7686675  76.6289261
  87.4230430  15.8066479  70.9644061  86.6397951  16.3488160  71.0582286
  88.1223175  16.3240459  71.3638302  90.0939333  16.4681543  79.6099398
  90.8067306  17.1029008  79.5375300  89.6029362  16.5645409  78.7939400
  91.8156860  10.3732796  71.1816690  90.8813139  10.4934259  71.0121394
  91.9933529   9.4705263  70.9176700  85.1451247  14.2175987  80.4304969
  85.8460706  14.8512470  80.5834363  84.6746362  14.5590718  79.6700608
  93.2705643  12.5593937  68.7152876  93.5465487  12.4450531  69.6246750
  92.4010142  12.1611421  68.6765049  89.9059707  16.8080287  72.3585690
  90.0882101  15.9901943  72.8213442  90.7292693  17.0247980  71.9210580
  90.2401872  15.7348473  69.6200738  90.7689639  15.2240927  69.0070900
  90.5030092  15.4191003  70.4846271  88.9940106   7.5140405  84.7423557
  88.3180743   7.4134535  85.4125932  89.8167740   7.3579619  85.2059554
  80.7418965  13.7512342  77.3636072  81.3272402  13.0056030  77.4963976
  80.5443803  14.0616299  78.2472736  83.5957620  16.7863589  72.3798514
  82.9267996  17.2709717  71.8962554  83.4570490  17.0332810  73.2941893
  75.3336620   6.3217942  76.0840515  75.3720719   5.7881533  76.8777633
  74.8276913   5.7953148  75.4651492  87.7362889  18.8207333  78.9781173
  88.2881197  18.9838954  79.7430258  88.0769082  19.4111771  78.3061197
  92.5873763  13.6468590  84.8329827  93.1313667  14.2598549  84.3384782
  92.0060608  14.2048169  85.3496840  78.9645197   5.0482044  69.1594446
  79.2598638   4.1392723  69.1061500  78.0633233   5.0269784  68.8375449
  90.8731276  16.7689308  75.9644855  90.7482416  15.9679048  75.4555800
  91.5310367  17.2635502  75.4758825  92.9366185  14.5698328  77.5924405
  91.9896520  14.4503680  77.5202732  93.2848958  13.6820826  77.6750666
  89.9412618  14.3651045  73.7928757  89.7937580  13.4367752  73.9736327
  90.7666111  14.3871135  73.3085832  93.5446740  15.1879603  74.8793630
  94.4693287  14.9822465  74.7418081  93.3762043  14.9396005  75.7882971
  84.6773354   5.1774595  75.3631619  84.5317934   5.4914899  76.2555900
  84.1998557   5.7959496  74.8102518  93.3342056  15.7065271  70.2355721
  93.5078933  15.1411693  69.4829574  93.8270947  16.5066166  70.0535211
  79.1519016   7.7179940  78.3019280  78.6072484   8.4939748  78.4339554
  80.0298366   8.0650744  78.1438401  94.3217228  15.0232035  67.3352620
  95.0168133  15.6438728  67.5539934  94.6640378  14.1727386  67.6104997
  79.9385038   6.8449836  81.1949437  79.1966774   6.9932472  81.7814067
  79.6177782   7.1058102  80.3316186  96.2208651  12.4731741  68.8639950
  96.7459976  12.8119013  68.1389270  96.1331004  11.5378756  68.6803085
  87.8828700  16.3865814  80.9929827  88.1915827  16.1414961  81.8652527
  88.6804182  16.5912453  80.5048697  87.9049312  18.5403724  73.2235203
  87.4654303  18.0480103  73.9168060  88.6557429  17.9976692  72.9827279
  80.3841651  14.7315265  73.2259832  81.2099671  14.4319037  72.8458475
  80.0335703  13.9622887  73.6749620  85.3523184  14.0841733  75.2957505
  84.7303194  13.4212438  74.9959733  86.0228051  14.1102865  74.6131153
  78.5850256  12.6501591  74.1848765  77.7482165  12.2223766  74.0032766
  78.5573902  12.8434035  75.1219556  95.9102558  13.1064644  84.1691148
  95.1198101  13.0888783  83.6295648  95.6735912  13.6452938  84.9240185
  96.0300433   9.9557111  81.4823877  96.0798438   9.7907118  82.4239400
  95.9214356   9.0884370  81.0921758  84.9136691  12.6345656  68.7715966
  85.0624812  13.3181121  68.1182638  85.7203135  12.6150747  69.2865421
  97.5318629  12.3754052  81.7265898  97.2403438  12.7384033  82.5629359
  96.9190761  11.6621061  81.5479230  82.6689324   8.6610834  69.7777035
  82.4235366   7.7573164  69.9757245  82.8385239   8.6627985  68.8356513
  88.4132097  15.1293787  66.2427713  87.8406064  15.7483974  65.7898185
  88.9864890  15.6793149  66.7767635  91.6329357  15.4130937  67.3736295
  92.5660030  15.3476499  67.5769171  91.5452569  16.2487204  66.9150828
  94.2617373  14.7296807  64.3340243  94.1831005  14.3956671  65.2276001
  95.0827040  15.2218575  64.3331715  88.6817588  10.5172346  85.0444423
  89.6020597  10.6950945  85.2384469  88.6467171   9.5728391  84.8924122
  77.8999753   5.7110939  73.9697697  77.5802537   4.8576248  73.6772071
  77.3533181   5.9259518  74.7255665  81.6779660   8.4273380  77.6867204
  81.8965670   9.3590488  77.7055238  82.0905434   8.0681355  78.4722008
  77.7688013   9.3313851  75.9390819  77.0751484   8.9167804  75.4260773
  78.5161004   9.3734387  75.3424238  86.4138796   7.4303725  85.8935014
  85.9305877   8.2304085  86.0998903  86.4999735   7.4411670  84.9402458
  79.6824755   9.2632105  73.8156834  79.6595443   9.3619792  72.8638717
  79.9925392  10.1097256  74.1374000  82.3412133  11.3208260  77.9303448
  83.2955387  11.2892202  77.8633380  82.1424657  10.8598883  78.7453674
  82.9311515   9.8909376  80.4974246  83.7504404  10.3853454  80.5209083
  83.2048323   8.9741344  80.4691813  80.6962362  16.8627879  74.9473646
  80.5616830  16.1028280  74.3811644  80.2794424  17.5868779  74.4802435
  91.8321325  12.0464803  63.9550221  92.5357175  12.2514805  64.5707877
  91.1083974  12.6141565  64.2199305  83.8531488  17.7597196  75.1592089
  83.7363872  18.7042629  75.0570779  83.0323934  17.4570758  75.5477888
  93.7408022  12.4847332  66.0048681  94.5753626  12.0528530  65.8226156
  93.5792365  12.3129346  66.9325576  93.3953915   8.9879445  67.3705021
  93.3402718   8.8223717  66.4293465  92.7699970   9.6955478  67.5267210
  78.1846430   4.2247510  81.1966443  78.8305293   3.7146464  81.6853668
  77.9763581   4.9616191  81.7709868  90.7099822  11.2928357  86.6958583
  91.5790981  11.4669009  86.3345218  90.2306573  12.1122774  86.5734313
  84.8786002  18.4125458  78.3748017  85.7813249  18.4449068  78.6914512
  84.6523372  17.4825909  78.3894353  86.6339604  17.1656445  75.0358096
  85.6835235  17.1658306  74.9222468  86.9372090  16.4189179  74.5194130
 102.3692298  23.0016983  76.1003858 103.0070707  22.8823730  75.3967198
 102.2513140  23.9497827  76.1591810  99.1782004  22.9544411  76.0365383
  98.8400515  22.8385476  75.1485918 100.0471772  22.5535576  76.0166389
  95.0368820  24.8079888  72.0262274  94.4733685  24.7169825  71.2578561
  94.9221215  23.9879792  72.5064766  99.6601787  24.1079263  81.9951588
  99.6490428  23.7132061  81.1232092  99.8222426  23.3745336  82.5885360
  92.5833251  26.3031079  74.8646494  93.3754543  25.9621904  74.4492793
  92.8229902  26.4126054  75.7848648 100.6168378  28.4750855  67.3376739
  99.9656358  29.0604936  66.9510752 101.4112741  29.0057050  67.3971776
  94.5424005  25.5639992  67.7363873  95.3154881  25.0168980  67.5976749
  94.8949404  26.4284242  67.9478334  96.3809048  26.8916375  80.9430772
  96.0898914  27.7962006  80.8277439  97.0166032  26.9332902  81.6574842
  97.3065255  24.2693223  77.5332132  97.9028827  24.0449246  76.8189095
  97.3640226  23.5277969  78.1357580  96.8790283  21.7232659  65.3682323
  97.1315804  21.2014180  64.6065786  95.9414842  21.5598804  65.4709007
 101.9233566  20.7268437  73.1757066 102.7096655  20.3087860  72.8247483
 102.1872270  21.6314529  73.3438715 102.0943643  26.1641287  67.8745723
 101.4589476  26.2375914  68.5866628 101.7641050  26.7534886  67.1964802
 107.3241993  20.6643670  74.0790045 108.0567165  20.0942887  74.3127874
 106.5681349  20.2765271  74.5196550  96.5986572  23.6260765  67.5706698
  96.4822830  22.9505668  68.2387782  96.7088832  23.1393138  66.7538851
  98.9418113  23.0870912  71.2753387  98.5776320  22.5601533  71.9866309
  99.7985229  22.6969381  71.1019873 104.8467413  14.3765244  78.5384653
 104.5150738  15.2460655  78.3145868 104.2513027  14.0601528  79.2178684
  98.5823600  18.1160811  66.2714736  98.7498002  18.9841048  66.6385207
  98.3920769  18.2788093  65.3476025 101.3398933  26.5777790  77.9380566
 101.0399656  27.4802829  77.8296373 100.9949993  26.3109973  78.7901719
  94.7911414  23.0291587  73.9717270  93.8661911  22.8967801  74.1794962
  95.0395828  23.8085806  74.4687213 104.7396077  19.0960330  75.6178003
 103.8312954  19.0275739  75.3236764 104.6883673  19.5732275  76.4459829
  98.5612821  20.5718469  67.2561402  98.4412446  21.0175520  68.0946883
  97.8665409  20.9203786  66.6974941  92.1520226  22.6724861  74.8061059
  92.2812607  22.9259340  75.7200471  91.4717677  23.2652569  74.4865715
  96.3219713  33.3422111  70.9051534  96.2443743  34.2929936  70.9840014
  95.7181356  32.9967983  71.5626460  98.8136943  20.5149976  83.5612901
  98.0370277  21.0743896  83.5515765  99.4527506  21.0006759  84.0827771
 106.6057723  17.2976769  77.3955877 105.9632103  17.5909302  76.7495672
 106.1012652  17.1829689  78.2009074 104.2597887  21.0439942  68.0841736
 105.1715743  21.2767329  67.9089434 103.7507534  21.6276986  67.5216815
  97.0683315  23.3235429  83.1230868  97.8097999  23.8620473  82.8465691
  96.3620300  23.9501718  83.2802419 102.5438655  25.4664570  81.7203029
 102.9522011  25.0246980  80.9757661 101.8215916  24.8917197  81.9737222
  98.8969725  20.4037177  79.0936586  99.7430920  20.8276590  79.2371235
  98.8368362  19.7470801  79.7875149 102.8667469  26.0265760  75.4755318
 102.2376332  26.1911475  74.7731386 102.4793131  26.4407370  76.2466282
 106.7456701  26.9620198  72.8299682 106.0607739  27.3419100  72.2796715
 106.8300550  27.5715525  73.5631629 102.0469170  18.0641545  80.7517760
 101.8030102  18.8183605  80.2152035 102.3229100  18.4426893  81.5865007
 104.0007633  24.6080157  79.4295025 104.2124528  25.2511917  78.7529406
 103.9537381  23.7742474  78.9616955 101.6033862  17.2197978  76.3331597
 100.7418341  17.5179232  76.6248335 101.6296296  17.4368377  75.4012630
  98.4195431  25.7640169  72.7405403  98.8833777  26.0427872  71.9510026
  98.1552229  24.8623613  72.5578494  95.3119512  25.3111650  75.6785166
  95.8820869  25.7398918  75.0402651  95.9027624  25.0294235  76.3769352
  97.3564317  21.8863321  69.5494968  98.0588360  22.3384365  70.0168895
  97.0244946  21.2447140  70.1774861  95.8044679  20.4775078  83.9246178
  95.1743339  21.1591358  84.1581574  95.6980767  20.3658159  82.9799316
  91.0989651  20.1446874  74.8512102  90.3088705  20.4004402  74.3752212
  91.5900898  20.9595211  74.9564142 105.1153461  27.4852113  77.6017383
 105.9370904  27.0832300  77.3200064 105.1115864  27.3820347  78.5533498
  93.0504396  20.5091453  71.8095578  92.2535560  20.6210147  72.3279074
  92.8229989  20.8478105  70.9436469  98.8810064  27.0336156  79.7578093
  98.9454497  27.4956563  80.5936265  98.1720988  26.4033521  79.8860403
  89.3827354  20.3977364  77.2827093  89.6335392  21.2824374  77.5484668
  89.9186902  20.2181966  76.5102184 113.2059454  23.8290861  73.9502354
 112.4523162  23.2598259  73.7946358 113.3406995  23.7953526  74.8972989
  98.5958082  28.7004264  69.6257073  98.4603757  29.5455799  70.0541921
  99.1367894  28.9023541  68.8623007  95.0825421  14.7795843  86.2871429
  94.6892367  14.2262042  86.9619073  95.8991562  15.0906422  86.6777946
  92.0487479  26.2179702  70.1984998  92.5612000  27.0122952  70.3490563
  92.7010192  25.5205992  70.1318600  93.8582364  29.3345458  72.2807752
  94.0348992  30.2563423  72.0928736  94.6539197  29.0203877  72.7102131
  97.9993382  16.1953722  83.8791685  98.7403096  16.7960876  83.7996148
  98.2311305  15.4531360  83.3209728  93.1434720  21.3810090  82.1569915
  93.0288236  20.4795347  82.4577014  92.2879238  21.6273786  81.8054731
 100.2226558  29.3227830  83.7557415  99.7790412  28.5364209  83.4378320
 100.8843772  29.5106981  83.0901306  94.9813679  30.8523632  78.2818094
  95.5321104  30.7240695  77.5095088  94.1425155  31.1518521  77.9312987
 102.3207796  29.6030630  81.7838817 102.3026272  30.4239511  81.2919086
 103.2427716  29.4784705  82.0088958  98.7780850  27.1174759  82.6262325
  99.3109187  26.3563048  82.3961633  98.2494931  26.8248411  83.3686480
 101.9450545  12.2234825  78.1555967 101.6014815  13.1136467  78.0795077
 102.3129508  12.0336483  77.2925552  90.0136396  24.5468356  70.9744569
  90.8511618  24.9565364  70.7578277  90.1914664  23.6067798  70.9444763
 101.9100828  22.2143437  66.6628402 101.3947451  22.9848041  66.9016789
 101.6378136  21.5408573  67.2861463  99.4947939  17.0593137  71.7213640
  98.6389535  16.6699988  71.5419279  99.9074891  17.1385098  70.8613426
 101.0247086  14.5939481  76.1205200 100.5211881  14.5569616  75.3073005
 101.3177693  15.5032223  76.1801857  97.2689972  14.6778210  75.1271382
  98.1342968  14.4821019  74.7677271  97.3367480  14.4488562  76.0540739
 106.8835102  24.9675791  68.5981575 106.1064545  24.6286951  68.1536738
 107.5626583  24.9728414  67.9236541 101.6987131  20.0870529  68.4888183
 101.3937267  20.4016678  69.3398326 102.6517573  20.1651949  68.5315516
 100.1433563  26.2460752  70.1381137  99.6154925  25.5113512  69.8254375
  99.6421066  27.0235428  69.8921105 105.1226409  24.4409772  75.2548183
 104.4650084  25.1309034  75.3428312 105.9266808  24.8306204  75.5982170
  94.8752291  16.9080418  72.4987749  95.4496043  16.6855600  71.7660942
  95.4623273  16.9769113  73.2516350 103.9331868  22.7954145  73.3052125
 104.4463750  23.4284137  73.8073835 104.5833092  22.1955341  72.9395485
  95.2021878  18.9384879  66.5183634  94.3659190  19.2759566  66.8392909
  95.0626647  18.8033859  65.5810771  97.1774958  13.7821667  71.2262818
  96.5239371  13.4670684  70.6019433  97.1355433  13.1597408  71.9522641
  98.2886163  24.0640962  63.1416110  97.3813225  23.8330216  63.3407259
  98.7857195  23.2678581  63.3290092 101.1954242  32.7738469  66.0612796
 100.5215941  33.0770166  66.6697754 101.5820064  33.5767550  65.7118253
 100.4112699  20.2703601  75.5510466  99.4935260  20.4918548  75.3932154
 100.8272842  20.3449911  74.6922173 101.1947746  21.6695016  70.6813146
 101.9419565  22.1816414  70.3720268 101.4639336  21.3479069  71.5417540
  99.4674397  24.1653557  67.6640100  98.5585616  23.8812590  67.7612570
  99.4969480  24.5852636  66.8043407 104.6993664  27.7760147  71.4331268
 104.2455991  26.9351056  71.4896458 104.0687631  28.4121545  71.7706048
 103.6426584  18.7052133  72.6631935 102.9049340  18.1929519  72.9942178
 103.8953357  18.2652514  71.8515212 103.1426603  29.6136643  72.3681086
 103.4349578  30.1741700  71.6493452 103.6525224  29.9065204  73.1234245
  90.0362567  21.8859071  71.6455302  89.8386967  21.2928432  70.9206369
  89.4809231  21.5811281  72.3631241  98.0159291  21.7782178  73.7649896
  98.0707900  20.8256014  73.6892372  97.2050493  21.9341617  74.2491194
  99.1650484  25.7062301  65.0028179  98.7269914  24.9898160  64.5433816
  99.9060925  25.9338416  64.4413270  95.9551651  20.3959237  71.5240274
  95.1419516  20.6953408  71.9305467  96.4510645  20.0014926  72.2414757
  98.1060229  30.3916994  73.4574539  98.0636407  30.6177841  72.5283071
  99.0222927  30.1580369  73.6060340 101.5525862  20.8601062  80.3555168
 101.9075250  21.0872535  81.2149634 102.1997994  21.1919439  79.7332424
 107.2823599  23.9819498  71.0604497 107.1441498  24.1721094  70.1325687
 106.9259818  24.7438881  71.5172549  95.4465725  17.9677593  77.1401509
  96.0865105  17.8266352  76.4424473  94.6143256  17.6812106  76.7640111
 107.3092979  26.0496025  76.0715769 107.7429486  25.9571314  76.9198823
 108.0224560  26.0253525  75.4335785  96.2226029  27.2680023  73.2536502
  97.0166628  26.7730343  73.0519077  95.5117722  26.7397886  72.8904207
 101.0420874  29.6498119  77.6048870 101.0957896  30.2189055  78.3726585
 100.1735655  29.8200004  77.2402907  92.5308793  21.4123105  69.3296255
  91.6006381  21.3507561  69.5466217  92.6266265  20.8899058  68.5332896
  92.4494342  17.9377918  71.9174496  92.7101159  18.8523251  71.8083657
  93.2711514  17.4702360  72.0671109  93.9219267  19.3515675  79.0873321
  94.5942321  19.1433037  78.4385970  93.0949054  19.1537761  78.6478553
 108.1708528  26.0919725  78.6048654 108.3644419  26.9965536  78.8507929
 108.0709147  25.6327145  79.4387239  99.8244839  15.9777616  81.1038982
  99.1772754  16.6767566  81.0103458 100.5945855  16.4113760  81.4715230
 103.2323637  26.2426468  84.1789535 103.0809144  26.0137020  83.2619619
 103.2228317  27.1997070  84.1920880 100.0008974  23.8158381  79.1635801
 100.9301034  23.9669541  78.9904769  99.5800004  23.9042402  78.3084448
  98.7997305  27.8409045  76.9334339  98.6608391  27.4727830  77.8060277
  98.0111902  28.3556685  76.7618297  99.3945457  32.9418142  68.2759876
  99.5697213  32.4706185  69.0905498  98.7078245  33.5683908  68.5041136
 100.3502520  27.2190648  74.3223177 100.0152353  27.1791418  75.2180827
  99.8506466  26.5535364  73.8493587  94.3246764  22.6258278  79.8475758
  94.1866562  21.8938517  80.4487297  95.2351688  22.5367178  79.5659946
 103.2861712  24.5646682  64.5960236 102.6690883  23.8393511  64.4993289
 102.8178201  25.3256043  64.2527311  96.9529065  22.3378237  79.3359438
  97.6628684  21.6971430  79.2946056  96.9098373  22.5891132  80.2585618
 104.9415844  29.2745591  82.2566017 104.8828390  28.5904811  81.5896600
 105.3435362  30.0164581  81.8046643  95.6657999  19.3243455  81.1555077
  95.1295356  18.8734194  81.8076673  95.0774707  19.4589364  80.4125541
  93.9606543  36.0907505  75.0499736  94.2003141  36.7226029  75.7278754
  93.1175739  35.7395545  75.3365095  95.0760258  18.7832107  63.7181541
  94.1989724  18.6620907  63.3543787  95.5518011  17.9918185  63.4660429
 104.9433251  27.2385175  80.4879996 104.0560030  26.9011096  80.6106395
 105.5131802  26.5068206  80.7248762  86.5962398  23.5709266  73.8123048
  87.2833438  23.2570996  73.2244063  86.4410527  24.4750631  73.5390299
  91.3997120  18.4599463  78.2408072  91.3155309  17.8525133  77.5058481
  90.5779827  18.9508481  78.2417568  98.4734404  31.8986627  77.4541240
  98.4004576  32.7041599  77.9660544  98.0311798  32.0978593  76.6289261
  98.2624184  31.1358397  70.9644061  97.4791706  31.6780077  71.0582286
  98.9616929  31.6532377  71.3638302 101.5720834  16.9453027  73.6078267
 102.0689534  16.1922989  73.2879337 100.8007816  16.9817343  73.0421476
 109.4250592  22.6493392  75.2496558 109.4140468  23.5318107  74.8790491
 108.5567971  22.2964943  75.0551095 100.9333088  31.7973461  79.6099398
 101.6461060  32.4320926  79.5375300 100.4423117  31.8937327  78.7939400
 102.6550615  25.7024714  71.1816690 101.7206894  25.8226176  71.0121394
 102.8327283  24.7997181  70.9176700  98.1555803  19.0870410  73.3349951
  97.7853590  18.5341450  74.0230857  98.6514895  18.4828543  72.7824951
 106.0423166  21.5442033  71.7166724 106.5083618  22.3770025  71.6427027
 106.4930667  21.0787015  72.4211983  95.9845001  29.5467905  80.4304969
  96.6854461  30.1804387  80.5834363  95.5140116  29.8882636  79.6700608
 104.1099397  27.8885854  68.7152876 104.3859241  27.7742449  69.6246750
 103.2403896  27.4903339  68.6765049 104.0139829  13.9122620  75.7557625
 103.1002909  14.1426847  75.9239832 104.4432930  13.9961064  76.6071658
 103.7846287  22.1012512  78.2557519 103.1317738  22.3488419  77.6009972
 104.1626667  21.2876650  77.9219997 100.7453461  32.1372205  72.3585690
 100.9275856  31.3193861  72.8213442 101.5686447  32.3539897  71.9210580
 101.0795627  31.0640390  69.6200738 101.6083393  30.5532845  69.0070900
 101.3423846  30.7482920  70.4846271  99.8333860  22.8432323  84.7423557
  99.1574497  22.7426452  85.4125932 100.6561494  22.6871537  85.2059554
  91.5812720  29.0804260  77.3636072  92.1666156  28.3347947  77.4963976
  91.3837558  29.3908216  78.2472736  94.4351375  32.1155507  72.3798514
  93.7661750  32.6001635  71.8962554  94.2964244  32.3624727  73.2941893
  86.1730374  21.6509860  76.0840515  86.2114474  21.1173450  76.8777633
  85.6670667  21.1245065  75.4651492  98.5756643  34.1499250  78.9781173
  99.1274951  34.3130872  79.7430258  98.9162837  34.7403688  78.3061197
  93.5521137  16.4974400  79.5803057  93.6162463  17.3589231  79.1680455
  93.4888257  15.8848402  78.8475416  93.0273409  18.5697533  83.2276092
  93.6545448  18.1874610  83.8413616  92.1701328  18.3511735  83.5931784
 103.4267518  28.9760508  84.8329827 103.9707422  29.5890466  84.3384782
 102.8454363  29.5340086  85.3496840  89.8038952  20.3773962  69.1594446
  90.0992393  19.4684640  69.1061500  88.9026988  20.3561701  68.8375449
 101.7125031  32.0981226  75.9644855 101.5876170  31.2970966  75.4555800
 102.3704122  32.5927419  75.4758825  93.3333199  18.4529958  75.1421995
  92.6119785  19.0665926  75.0029468  94.1226455  18.9887723  75.0638641
 103.7759939  29.8990246  77.5924405 102.8290275  29.7795597  77.5202732
 104.1242712  29.0112744  77.6750666  96.1359512  15.7884385  81.4162647
  96.6593914  16.0346682  82.1788956  95.9171846  16.6204420  80.9965784
  91.5326793  18.0588060  69.2833772  91.2039500  17.1785439  69.1008877
  91.8866164  18.0035728  70.1710161 100.7806372  29.6942962  73.7928757
 100.6331335  28.7659670  73.9736327 101.6059866  29.7163053  73.3085832
  94.6468617  18.3461029  69.6509249  94.9864689  18.8746951  68.9287858
  95.0940737  18.6841436  70.4267816 104.3840494  30.5171521  74.8793630
 105.3087042  30.3114382  74.7418081 104.2155798  30.2687922  75.7882971
  97.3412057  16.7298080  79.1012317  97.0008878  15.9305893  79.5032997
  96.6351064  17.0299791  78.5289150  97.9928529  13.8147393  77.5539640
  98.8154599  13.3407871  77.4318531  98.2366593  14.5937876  78.0538327
  96.6336764  16.8435651  67.8502542  97.3545126  17.2216904  67.3466259
  96.0102068  17.5624528  67.9537520 100.7767887  17.5480800  68.7860874
 100.9931501  18.4305438  68.4849702 100.2961954  17.1567013  68.0566516
  95.5167108  20.5066513  75.3631619  95.3711689  20.8206816  76.2555900
  95.0392312  21.1251413  74.8102518  97.3763491  17.4969061  75.4112508
  97.3625060  16.6010154  75.0744806  98.0935919  17.5039725  76.0450794
  99.2289622  17.9306401  77.4565636  98.9707399  18.8523472  77.4549966
  98.6974662  17.5336836  78.1466100 104.1735810  31.0357188  70.2355721
 104.3472688  30.4703611  69.4829574 104.6664702  31.8358083  70.0535211
  89.9912770  23.0471858  78.3019280  89.4466238  23.8231666  78.4339554
  90.8692120  23.3942662  78.1438401  96.7800387  16.3783441  70.6800079
  96.9016298  15.4500088  70.8790966  96.4902429  16.3922127  69.7678394
  99.6491577  14.0638352  73.8166798  99.6713274  14.1277685  72.8618778
 100.0659636  13.2242861  74.0107305 110.0275202  23.7993611  71.8546021
 110.4706348  23.0500937  71.4565144 109.1501712  23.7903748  71.4719753
 105.1610983  30.3523953  67.3352620 105.8561887  30.9730646  67.5539934
 105.5034133  29.5019304  67.6104997  90.7778792  22.1741754  81.1949437
  90.0360528  22.3224389  81.7814067  90.4571536  22.4350019  80.3316186
 107.0602406  27.8023658  68.8639950 107.5853730  28.1410931  68.1389270
 106.9724759  26.8670674  68.6803085  98.7222455  31.7157732  80.9929827
  99.0309581  31.4706879  81.8652527  99.5197937  31.9204371  80.5048697
  98.7443067  33.8695642  73.2235203  98.3048057  33.3772020  73.9168060
  99.4951184  33.3268609  72.9827279  91.2235406  30.0607183  73.2259832
  92.0493426  29.7610954  72.8458475  90.8729458  29.2914805  73.6749620
  96.1916939  29.4133651  75.2957505  95.5696948  28.7504356  74.9959733
  96.8621806  29.4394783  74.6131153  89.4244011  27.9793509  74.1848765
  88.5875919  27.5515683  74.0032766  89.3967656  28.1725952  75.1219556
  96.2641466  17.8915439  84.8890011  96.3129622  18.7677562  84.5067781
  96.8063981  17.3492832  84.3161654 106.7496312  28.4356562  84.1691148
 105.9591856  28.4180701  83.6295648 106.5129667  28.9744856  84.9240185
 106.8694187  25.2849028  81.4823877 106.9192192  25.1199036  82.4239400
 106.7608110  24.4176287  81.0921758  95.7530446  27.9637574  68.7715966
  95.9018566  28.6473039  68.1182638  96.5596889  27.9442664  69.2865421
 104.1597949  21.2679956  82.7983184 105.0607812  21.1286421  82.5067181
 104.2345924  21.4334411  83.7381361  98.4940755  18.6446811  81.6436370
  97.6244064  18.9380377  81.3718958  98.7300235  19.2287256  82.3643633
 108.3712384  27.7045970  81.7265898 108.0797192  28.0675950  82.5629359
 107.7584515  26.9912978  81.5479230 109.5708066  25.2698850  74.2468469
 110.4054958  25.7088654  74.4106029 109.7067195  24.7937503  73.4276714
 106.6199572  22.8278585  80.1945956 107.0953694  23.0206231  79.3864808
 105.6965138  22.8837770  79.9489340  93.5083079  23.9902752  69.7777035
  93.2629121  23.0865082  69.9757245  93.6778993  23.9919902  68.8356513
 101.1979789  14.8626428  79.1601790 101.7161732  15.5987455  78.8348279
 100.8434921  15.1690421  79.9948549  92.7778726  19.7231109  67.2763196
  92.0847971  19.7975464  66.6203232  92.5330478  18.9591453  67.7984713
  99.2525851  30.4585705  66.2427713  98.6799818  31.0775892  65.7898185
  99.8258645  31.0085066  66.7767635 105.3201241  19.7044345  78.4274262
 106.2718664  19.8042442  78.4486486 105.1504692  18.9122613  78.9372346
 103.3415621  16.7899928  78.6133663 102.7465553  17.0704941  77.9180151
 103.0565317  17.2793829  79.3850404 102.4723111  30.7422855  67.3736295
 103.4053784  30.6768416  67.5769171 102.3846324  31.5779122  66.9150828
 105.1011128  30.0588725  64.3340243 105.0224759  29.7248589  65.2276001
 105.9220795  30.5510493  64.3331715 107.7989319  22.9250464  77.5416562
 107.7665639  21.9866465  77.7276245 108.4089943  23.0034501  76.8082386
  99.6372650  21.7946517  63.5843766 100.5831755  21.6652725  63.6532184
  99.2586895  21.0561179  64.0613194 107.9483807  19.7161508  77.5874845
 107.4322856  18.9319964  77.4004774 108.8323756  19.3880224  77.7521364
 105.6094534  13.4602523  73.5470657 105.4119355  13.1517612  74.4313989
 106.2194240  14.1864162  73.6768587 113.6165869  23.9866471  76.6822598
 114.3469257  23.7251759  77.2430302 113.0072814  23.2495193  76.7224666
 111.6981166  22.1274334  77.2797050 110.9714329  21.9930299  76.6713541
 111.2828453  22.4351162  78.0853768  99.5211342  25.8464263  85.0444423
 100.4414352  26.0242862  85.2384469  99.4860925  24.9020309  84.8924122
  97.8215567  19.7196494  63.5198651  96.9147022  19.4229606  63.5961364
  98.0991548  19.4226312  62.6532937  88.7393507  21.0402857  73.9697697
  88.4196292  20.1868165  73.6772071  88.1926936  21.2551435  74.7255665
  92.5173415  23.7565298  77.6867204  92.7359425  24.6882406  77.7055238
  92.9299189  23.3973273  78.4722008  99.4377633  14.2633383  69.6742892
  98.6278361  13.9180468  70.0498138 100.1262050  13.9540927  70.2630504
 101.3668181  13.3411430  71.2967189 101.9199220  13.7606884  71.9557212
 101.6038267  12.4147178  71.3390145  97.3901280  19.3298504  87.0769953
  97.2898007  20.2792861  87.0082044  97.1722822  19.0016743  86.2046023
  96.5914352  16.5783429  63.6610630  97.4533516  16.9038327  63.9206447
  96.7764696  15.7914925  63.1483696  88.6081767  24.6605769  75.9390819
  87.9145239  24.2459721  75.4260773  89.3554758  24.7026305  75.3424238
 104.7446988  15.4511955  70.8045853 104.1645657  16.1096759  70.4223905
 104.4782921  14.6289300  70.3933271 103.1950554  14.8517013  73.0067173
 103.6950333  14.9633548  72.1981492 103.8386162  14.5478066  73.6467982
  97.2532550  22.7595643  85.8935014  96.7699632  23.5596003  86.0998903
  97.3393489  22.7703588  84.9402458  90.5218510  24.5924022  73.8156834
  90.4989198  24.6911710  72.8638717  90.8319146  25.4389173  74.1374000
  93.1805888  26.6500177  77.9303448  94.1349141  26.6184120  77.8633380
  92.9818411  26.1890801  78.7453674  93.7705270  25.2201293  80.4974246
  94.5898159  25.7145372  80.5209083  94.0442078  24.3033262  80.4691813
 103.5271866  17.6112046  69.8602201 102.6397721  17.8961696  69.6422396
 103.9425855  17.4505809  69.0129478 106.8786402  17.6358567  73.5756541
 107.6546792  18.1255019  73.8481157 106.1534536  18.0616621  74.0328410
 109.3158961  18.3486186  74.6330481 109.9103452  18.1081922  73.9223789
 109.3885545  17.6293317  75.2604017  91.5356117  32.1919797  74.9473646
  91.4010584  31.4320198  74.3811644  91.1188179  32.9160697  74.4802435
 102.6715080  27.3756720  63.9550221 103.3750930  27.5806723  64.5707877
 101.9477728  27.9433482  64.2199305 103.5012890  23.1266582  70.0752491
 103.4448091  23.5835133  69.2360124 104.0541232  22.3657266  69.8975334
 107.3117696  18.9156314  70.9002611 107.0554630  18.5152949  71.7310819
 106.6870564  19.6300108  70.7752750 111.6230034  21.6552387  73.4073902
 111.0629592  21.7245576  74.1805464 111.0173537  21.4793371  72.6873399
  94.6925242  33.0889114  75.1592089  94.5757627  34.0334546  75.0570779
  93.8717689  32.7862675  75.5477888 104.5801777  27.8139250  66.0048681
 105.4147381  27.3820448  65.8226156 104.4186120  27.6421263  66.9325576
 104.2347669  24.3171363  67.3705021 104.1796473  24.1515634  66.4293465
 103.6093724  25.0247396  67.5267210  89.0240184  19.5539427  81.1966443
  89.6699048  19.0438381  81.6853668  88.8157335  20.2908109  81.7709868
 101.5493576  26.6220275  86.6958583 102.4184736  26.7960927  86.3345218
 101.0700328  27.4414692  86.5734313  97.5443795  13.8179472  66.9490339
  97.5322464  14.7621312  67.1058610  98.4367216  13.6349617  66.6549800
  95.7179757  33.7417376  78.3748017  96.6207003  33.7740986  78.6914512
  95.4917127  32.8117827  78.3894353  97.4733359  32.4948362  75.0358096
  96.5228990  32.4950224  74.9222468  97.7765845  31.7481097  74.5194130
  93.3637675  16.7007044  85.2941457  94.2269137  16.3443849  85.5044782
  92.7903086  16.3620939  85.9816861 113.2086052  38.3308901  76.1003858
 113.8464462  38.2115648  75.3967198 113.0906895  39.2789745  76.1591810
 110.0175758  38.2836329  76.0365383 109.6794270  38.1677394  75.1485918
 110.8865526  37.8827494  76.0166389 105.8762574  40.1371805  72.0262274
 105.3127439  40.0461742  71.2578561 105.7614969  39.3171710  72.5064766
 110.4995541  39.4371181  81.9951588 110.4884182  39.0423979  81.1232092
 110.6616181  38.7037253  82.5885360 103.4227006  41.6322997  74.8646494
 104.2148298  41.2913822  74.4492793 103.6623656  41.7417972  75.7848648
 111.4562133  43.8042773  67.3376739 110.8050112  44.3896853  66.9510752
 112.2506496  44.3348968  67.3971776 105.3817760  40.8931910  67.7363873
 106.1548636  40.3460897  67.5976749 105.7343159  41.7576159  67.9478334
 107.2202802  42.2208292  80.9430772 106.9292668  43.1253923  80.8277439
 107.8559787  42.2624820  81.6574842 108.1459009  39.5985141  77.5332132
 108.7422582  39.3741163  76.8189095 108.2033981  38.8569886  78.1357580
 107.7184038  37.0524576  65.3682323 107.9709558  36.5306098  64.6065786
 106.7808597  36.8890722  65.4709007 112.7627321  36.0560355  73.1757066
 113.5490410  35.6379778  72.8247483 113.0266025  36.9606447  73.3438715
 112.9337398  41.4933205  67.8745723 112.2983231  41.5667831  68.5866628
 112.6034804  42.0826804  67.1964802 118.1635748  35.9935588  74.0790045
 118.8960920  35.4234805  74.3127874 117.4075103  35.6057188  74.5196550
 107.4380326  38.9552682  67.5706698 107.3216585  38.2797586  68.2387782
 107.5482586  38.4685056  66.7538851 109.7811867  38.4162829  71.2753387
 109.4170075  37.8893450  71.9866309 110.6378983  38.0261298  71.1019873
 115.6861168  29.7057162  78.5384653 115.3544493  30.5752573  78.3145868
 115.0906781  29.3893446  79.2178684 109.4217354  33.4452729  66.2714736
 109.5891757  34.3132965  66.6385207 109.2314523  33.6080011  65.3476025
 112.1792688  41.9069708  77.9380566 111.8793411  42.8094747  77.8296373
 111.8343747  41.6401891  78.7901719 105.6305169  38.3583505  73.9717270
 104.7055665  38.2259719  74.1794962 105.8789582  39.1377724  74.4687213
 115.5789831  34.4252248  75.6178003 114.6706709  34.3567657  75.3236764
 115.5277427  34.9024193  76.4459829 109.4006575  35.9010386  67.2561402
 109.2806200  36.3467437  68.0946883 108.7059164  36.2495704  66.6974941
 102.9913980  38.0016778  74.8061059 103.1206361  38.2551257  75.7200471
 102.3111431  38.5944486  74.4865715 107.1613467  48.6714028  70.9051534
 107.0837497  49.6221853  70.9840014 106.5575111  48.3259901  71.5626460
 109.6530697  35.8441894  83.5612901 108.8764031  36.4035814  83.5515765
 110.2921260  36.3298677  84.0827771 117.4451478  32.6268686  77.3955877
 116.8025858  32.9201220  76.7495672 116.9406406  32.5121607  78.2009074
 115.0991641  36.3731860  68.0841736 116.0109497  36.6059246  67.9089434
 114.5901288  36.9568904  67.5216815 107.9077069  38.6527347  83.1230868
 108.6491754  39.1912391  82.8465691 107.2014055  39.2793636  83.2802419
 113.3832409  40.7956488  81.7203029 113.7915765  40.3538898  80.9757661
 112.6609671  40.2209115  81.9737222 109.7363479  35.7329094  79.0936586
 110.5824674  36.1568508  79.2371235 109.6762117  35.0762719  79.7875149
 113.7061224  41.3557678  75.4755318 113.0770086  41.5203392  74.7731386
 113.3186886  41.7699288  76.2466282 117.5850456  42.2912116  72.8299682
 116.9001494  42.6711017  72.2796715 117.6694305  42.9007443  73.5631629
 112.8862924  33.3933463  80.7517760 112.6423856  34.1475523  80.2152035
 113.1622855  33.7718810  81.5865007 114.8401387  39.9372075  79.4295025
 115.0518282  40.5803835  78.7529406 114.7931135  39.1034392  78.9616955
 112.4427616  32.5489896  76.3331597 111.5812095  32.8471149  76.6248335
 112.4690051  32.7660295  75.4012630 109.2589186  41.0932086  72.7405403
 109.7227531  41.3719789  71.9510026 108.9945984  40.1915531  72.5578494
 106.1513267  40.6403568  75.6785166 106.7214624  41.0690836  75.0402651
 106.7421378  40.3586152  76.3769352 108.1958072  37.2155239  69.5494968
 108.8982115  37.6676282  70.0168895 107.8638700  36.5739057  70.1774861
 106.6438433  35.8066995  83.9246178 106.0137094  36.4883276  84.1581574
 106.5374521  35.6950077  82.9799316 101.9383406  35.4738791  74.8512102
 101.1482460  35.7296320  74.3752212 102.4294653  36.2887129  74.9564142
 115.9547215  42.8144030  77.6017383 116.7764659  42.4124218  77.3200064
 115.9509618  42.7112265  78.5533498 103.8898151  35.8383370  71.8095578
 103.0929314  35.9502065  72.3279074 103.6623743  36.1770023  70.9436469
 109.7203819  42.3628074  79.7578093 109.7848251  42.8248481  80.5936265
 109.0114742  41.7325439  79.8860403 100.2221109  35.7269282  77.2827093
 100.4729147  36.6116292  77.5484668 100.7580657  35.5473883  76.5102184
 109.4351836  44.0296181  69.6257073 109.2997511  44.8747717  70.0541921
 109.9761649  44.2315459  68.8623007 105.9219176  30.1087761  86.2871429
 105.5286121  29.5553960  86.9619073 106.7385316  30.4198340  86.6777946
 102.8881234  41.5471619  70.1984998 103.4005754  42.3414869  70.3490563
 103.5403946  40.8497910  70.1318600 104.6976118  44.6637376  72.2807752
 104.8742747  45.5855340  72.0928736 105.4932952  44.3495795  72.7102131
 108.8387137  31.5245640  83.8791685 109.5796850  32.1252793  83.7996148
 109.0705060  30.7823278  83.3209728 103.9828475  36.7102007  82.1569915
 103.8681990  35.8087265  82.4577014 103.1272993  36.9565704  81.8054731
 111.0620313  44.6519748  83.7557415 110.6184167  43.8656126  83.4378320
 111.7237526  44.8398898  83.0901306 105.8207434  46.1815549  78.2818094
 106.3714859  46.0532613  77.5095088 104.9818910  46.4810438  77.9312987
 113.1601551  44.9322548  81.7838817 113.1420026  45.7531429  81.2919086
 114.0821471  44.8076623  82.0088958 109.6174605  42.4466677  82.6262325
 110.1502942  41.6854965  82.3961633 109.0888686  42.1540329  83.3686480
 112.7844300  27.5526743  78.1555967 112.4408569  28.4428385  78.0795077
 113.1523262  27.3628401  77.2925552 100.8530150  39.8760274  70.9744569
 101.6905372  40.2857282  70.7578277 101.0308418  38.9359716  70.9444763
 112.7494583  37.5435354  66.6628402 112.2341206  38.3139959  66.9016789
 112.4771891  36.8700490  67.2861463 110.3341694  32.3885055  71.7213640
 109.4783290  31.9991905  71.5419279 110.7468645  32.4677016  70.8613426
 111.8640840  29.9231398  76.1205200 111.3605636  29.8861533  75.3073005
 112.1571447  30.8324141  76.1801857 108.1083726  30.0070128  75.1271382
 108.9736723  29.8112937  74.7677271 108.1761235  29.7780480  76.0540739
 117.7228857  40.2967709  68.5981575 116.9458299  39.9578868  68.1536738
 118.4020338  40.3020332  67.9236541 112.5380886  35.4162446  68.4888183
 112.2331021  35.7308595  69.3398326 113.4911328  35.4943866  68.5315516
 110.9827318  41.5752670  70.1381137 110.4548679  40.8405429  69.8254375
 110.4814820  42.3527346  69.8921105 115.9620164  39.7701690  75.2548183
 115.3043838  40.4600951  75.3428312 116.7660563  40.1598122  75.5982170
 105.7146045  32.2372336  72.4987749 106.2889797  32.0147517  71.7660942
 106.3017028  32.3061030  73.2516350 114.7725622  38.1246063  73.3052125
 115.2857504  38.7576055  73.8073835 115.4226846  37.5247258  72.9395485
 106.0415632  34.2676797  66.5183634 105.2052945  34.6051483  66.8392909
 105.9020402  34.1325777  65.5810771 108.0168713  29.1113585  71.2262818
 107.3633125  28.7962602  70.6019433 107.9749187  28.4889325  71.9522641
 109.1279918  39.3932880  63.1416110 108.2206979  39.1622133  63.3407259
 109.6250950  38.5970499  63.3290092 112.0347997  48.1030387  66.0612796
 111.3609695  48.4062084  66.6697754 112.4213819  48.9059467  65.7118253
 111.2506453  35.5995518  75.5510466 110.3329015  35.8210465  75.3932154
 111.6666597  35.6741829  74.6922173 112.0341501  36.9986934  70.6813146
 112.7813320  37.5108331  70.3720268 112.3033091  36.6770987  71.5417540
 110.3068151  39.4945475  67.6640100 109.3979370  39.2104508  67.7612570
 110.3363235  39.9144553  66.8043407 115.5387419  43.1052064  71.4331268
 115.0849746  42.2642974  71.4896458 114.9081385  43.7413463  71.7706048
 114.4820338  34.0344050  72.6631935 113.7443095  33.5221436  72.9942178
 114.7347112  33.5944432  71.8515212 113.9820358  44.9428561  72.3681086
 114.2743332  45.5033618  71.6493452 114.4918978  45.2357122  73.1234245
 114.5831965  26.8120302  73.2573705 114.8890842  25.9517666  72.9699620
 115.3084570  27.4037922  73.0572698 100.8756322  37.2150989  71.6455302
 100.6780721  36.6220350  70.9206369 100.3202986  36.9103199  72.3631241
 108.8553045  37.1074095  73.7649896 108.9101655  36.1547932  73.6892372
 108.0444247  37.2633534  74.2491194 110.0044239  41.0354218  65.0028179
 109.5663669  40.3190077  64.5433816 110.7454680  41.2630333  64.4413270
 106.7945405  35.7251155  71.5240274 105.9813271  36.0245326  71.9305467
 107.2904399  35.3306844  72.2414757 108.9453983  45.7208912  73.4574539
 108.9030162  45.9469758  72.5283071 109.8616682  45.4872287  73.6060340
 112.3919617  36.1892980  80.3555168 112.7469005  36.4164453  81.2149634
 113.0391748  36.5211356  79.7332424 118.1217354  39.3111415  71.0604497
 117.9835252  39.5013011  70.1325687 117.7653573  40.0730798  71.5172549
 106.2859480  33.2969511  77.1401509 106.9258859  33.1558270  76.4424473
 105.4537010  33.0104024  76.7640111 118.1486733  41.3787942  76.0715769
 118.5823240  41.2863232  76.9198823 118.8618314  41.3545443  75.4335785
 107.0619784  42.5971941  73.2536502 107.8560382  42.1022261  73.0519077
 106.3511476  42.0689804  72.8904207 111.8814628  44.9790037  77.6048870
 111.9351651  45.5480973  78.3726585 111.0129410  45.1491922  77.2402907
 103.3702547  36.7415023  69.3296255 102.4400135  36.6799478  69.5466217
 103.4660019  36.2190976  68.5332896 103.2888096  33.2669836  71.9174496
 103.5494914  34.1815169  71.8083657 104.1105269  32.7994278  72.0671109
 104.7613022  34.6807593  79.0873321 105.4336075  34.4724955  78.4385970
 103.9342808  34.4829679  78.6478553 119.0102283  41.4211643  78.6048654
 119.2038173  42.3257454  78.8507929 118.9102901  40.9619062  79.4387239
 110.6638594  31.3069534  81.1038982 110.0166509  32.0059483  81.0103458
 111.4339609  31.7405678  81.4715230 114.0717392  41.5718386  84.1789535
 113.9202898  41.3428938  83.2619619 114.0622071  42.5288987  84.1920880
 110.8402728  39.1450299  79.1635801 111.7694788  39.2961458  78.9904769
 110.4193758  39.2334319  78.3084448 109.6391060  43.1700963  76.9334339
 109.5002145  42.8019747  77.8060277 108.8505656  43.6848602  76.7618297
 110.2339212  48.2710059  68.2759876 110.4090967  47.7998103  69.0905498
 109.5472000  48.8975826  68.5041136 111.1896275  42.5482566  74.3223177
 110.8546108  42.5083336  75.2180827 110.6900221  41.8827282  73.8493587
 105.1640519  37.9550196  79.8475758 105.0260317  37.2230435  80.4487297
 106.0745442  37.8659096  79.5659946 114.1255467  39.8938600  64.5960236
 113.5084637  39.1685428  64.4993289 113.6571955  40.6547960  64.2527311
 107.7922820  37.6670155  79.3359438 108.5022438  37.0263347  79.2946056
 107.7492128  37.9183050  80.2585618 115.7809598  44.6037508  82.2566017
 115.7222144  43.9196729  81.5896600 116.1829117  45.3456498  81.8046643
 106.5051754  34.6535373  81.1555077 105.9689111  34.2026111  81.8076673
 105.9168462  34.7881282  80.4125541 104.8000297  51.4199422  75.0499736
 105.0396895  52.0517946  75.7278754 103.9569494  51.0687462  75.3365095
 105.9154012  34.1124024  63.7181541 105.0383479  33.9912825  63.3543787
 106.3911766  33.3210103  63.4660429 115.7827006  42.5677092  80.4879996
 114.8953784  42.2303014  80.6106395 116.3525557  41.8360124  80.7248762
  97.4356153  38.9001184  73.8123048  98.1227192  38.5862914  73.2244063
  97.2804281  39.8042549  73.5390299 102.2390875  33.7891381  78.2408072
 102.1549064  33.1817050  77.5058481 101.4173581  34.2800399  78.2417568
 109.3128159  47.2278545  77.4541240 109.2398330  48.0333516  77.9660544
 108.8705552  47.4270511  76.6289261 109.1017939  46.4650315  70.9644061
 108.3185460  47.0071995  71.0582286 109.8010684  46.9824294  71.3638302
 112.4114589  32.2744944  73.6078267 112.9083288  31.5214907  73.2879337
 111.6401570  32.3109261  73.0421476 120.2644346  37.9785310  75.2496558
 120.2534222  38.8610025  74.8790491 119.3961725  37.6256861  75.0551095
 111.7726842  47.1265379  79.6099398 112.4854815  47.7612844  79.5375300
 111.2816871  47.2229245  78.7939400 113.4944369  41.0316631  71.1816690
 112.5600648  41.1518094  71.0121394 113.6721038  40.1289098  70.9176700
 108.9949557  34.4162327  73.3349951 108.6247345  33.8633368  74.0230857
 109.4908650  33.8120461  72.7824951 116.8816921  36.8733951  71.7166724
 117.3477373  37.7061942  71.6427027 117.3324421  36.4078932  72.4211983
 106.8238756  44.8759822  80.4304969 107.5248215  45.5096305  80.5834363
 106.3533871  45.2174554  79.6700608 114.9493152  43.2177772  68.7152876
 115.2252996  43.1034367  69.6246750 114.0797651  42.8195257  68.6765049
 114.8533583  29.2414538  75.7557625 113.9396663  29.4718765  75.9239832
 115.2826685  29.3252982  76.6071658 114.6240042  37.4304430  78.2557519
 113.9711492  37.6780337  77.6009972 115.0020422  36.6168568  77.9219997
 111.5847216  47.4664123  72.3585690 111.7669610  46.6485779  72.8213442
 112.4080202  47.6831815  71.9210580 111.9189381  46.3932308  69.6200738
 112.4477148  45.8824763  69.0070900 112.1817601  46.0774838  70.4846271
 110.6727615  38.1724241  84.7423557 109.9968252  38.0718370  85.4125932
 111.4955249  38.0163454  85.2059554 102.4206474  44.4096177  77.3636072
 103.0059911  43.6639865  77.4963976 102.2231312  44.7200134  78.2472736
 105.2745129  47.4447425  72.3798514 104.6055504  47.9293552  71.8962554
 105.1357999  47.6916645  73.2941893  97.0124129  36.9801777  76.0840515
  97.0508228  36.4465368  76.8777633  96.5064422  36.4536983  75.4651492
 109.4150398  49.4791168  78.9781173 109.9668706  49.6422790  79.7430258
 109.7556591  50.0695606  78.3061197 104.3914891  31.8266318  79.5803057
 104.4556218  32.6881149  79.1680455 104.3282011  31.2140320  78.8475416
 103.8667164  33.8989450  83.2276092 104.4939202  33.5166528  83.8413616
 103.0095082  33.6803652  83.5931784 114.2661272  44.3052426  84.8329827
 114.8101176  44.9182384  84.3384782 113.6848117  44.8632004  85.3496840
 100.6432706  35.7065880  69.1594446 100.9386147  34.7976558  69.1061500
  99.7420742  35.6853619  68.8375449 112.5518785  47.4273144  75.9644855
 112.4269925  46.6262884  75.4555800 113.2097876  47.9219337  75.4758825
 104.1726953  33.7821876  75.1421995 103.4513539  34.3957844  75.0029468
 104.9620209  34.3179641  75.0638641 114.6153693  45.2282164  77.5924405
 113.6684029  45.1087515  77.5202732 114.9636467  44.3404662  77.6750666
 106.9753267  31.1176303  81.4162647 107.4987669  31.3638599  82.1788956
 106.7565600  31.9496337  80.9965784 102.3720548  33.3879977  69.2833772
 102.0433254  32.5077356  69.1008877 102.7259919  33.3327646  70.1710161
 111.6200127  45.0234880  73.7928757 111.4725089  44.0951587  73.9736327
 112.4453620  45.0454971  73.3085832 105.4862371  33.6752947  69.6509249
 105.8258444  34.2038868  68.9287858 105.9334492  34.0133353  70.4267816
 115.2234249  45.8463439  74.8793630 116.1480796  45.6406300  74.7418081
 115.0549552  45.5979840  75.7882971 108.1805812  32.0589998  79.1012317
 107.8402632  31.2597811  79.5032997 107.4744818  32.3591709  78.5289150
 108.8322284  29.1439310  77.5539640 109.6548353  28.6699788  77.4318531
 109.0760347  29.9229794  78.0538327 107.4730518  32.1727569  67.8502542
 108.1938881  32.5508821  67.3466259 106.8495822  32.8916445  67.9537520
 111.6161641  32.8772718  68.7860874 111.8325255  33.7597355  68.4849702
 111.1355708  32.4858931  68.0566516 106.3560862  35.8358431  75.3631619
 106.2105443  36.1498734  76.2555900 105.8786066  36.4543331  74.8102518
 108.2157245  32.8260979  75.4112508 108.2018814  31.9302072  75.0744806
 108.9329673  32.8331643  76.0450794 110.0683376  33.2598319  77.4565636
 109.8101154  34.1815390  77.4549966 109.5368416  32.8628754  78.1466100
 115.0129565  46.3649106  70.2355721 115.1866442  45.7995529  69.4829574
 115.5058456  47.1650001  70.0535211 100.8306525  38.3763775  78.3019280
 100.2859993  39.1523583  78.4339554 101.7085875  38.7234580  78.1438401
 107.6194141  31.7075359  70.6800079 107.7410052  30.7792005  70.8790966
 107.3296184  31.7214045  69.7678394 110.4885332  29.3930270  73.8166798
 110.5107029  29.4569603  72.8618778 110.9053391  28.5534778  74.0107305
 120.8668956  39.1285529  71.8546021 121.3100102  38.3792854  71.4565144
 119.9895466  39.1195665  71.4719753 116.0004737  45.6815871  67.3352620
 116.6955642  46.3022563  67.5539934 116.3427887  44.8311222  67.6104997
 101.6172547  37.5033672  81.1949437 100.8754283  37.6516307  81.7814067
 101.2965291  37.7641937  80.3316186 117.8996160  43.1315576  68.8639950
 118.4247485  43.4702849  68.1389270 117.8118513  42.1962591  68.6803085
 109.5616209  47.0449650  80.9929827 109.8703336  46.7998797  81.8652527
 110.3591691  47.2496288  80.5048697 109.5836821  49.1987559  73.2235203
 109.1441811  48.7063938  73.9168060 110.3344938  48.6560527  72.9827279
 102.0629160  45.3899100  73.2259832 102.8887180  45.0902872  72.8458475
 101.7123212  44.6206723  73.6749620 107.0310693  44.7425568  75.2957505
 106.4090703  44.0796273  74.9959733 107.7015560  44.7686700  74.6131153
 100.2637765  43.3085427  74.1848765  99.4269674  42.8807601  74.0032766
 100.2361411  43.5017870  75.1219556 107.1035221  33.2207356  84.8890011
 107.1523376  34.0969479  84.5067781 107.6457735  32.6784750  84.3161654
 117.5890067  43.7648480  84.1691148 116.7985610  43.7472619  83.6295648
 117.3523421  44.3036773  84.9240185 117.7087942  40.6140946  81.4823877
 117.7585946  40.4490954  82.4239400 117.6001865  39.7468205  81.0921758
 106.5924200  43.2929492  68.7715966 106.7412321  43.9764956  68.1182638
 107.3990644  43.2734582  69.2865421 114.9991704  36.5971874  82.7983184
 115.9001567  36.4578339  82.5067181 115.0739678  36.7626329  83.7381361
 109.3334509  33.9738729  81.6436370 108.4637819  34.2672295  81.3718958
 109.5693990  34.5579174  82.3643633 119.2106138  43.0337888  81.7265898
 118.9190947  43.3967868  82.5629359 118.5978270  42.3204896  81.5479230
 120.4101821  40.5990767  74.2468469 121.2448712  41.0380571  74.4106029
 120.5460950  40.1229421  73.4276714 117.4593327  38.1570502  80.1945956
 117.9347448  38.3498149  79.3864808 116.5358892  38.2129688  79.9489340
 104.3476833  39.3194669  69.7777035 104.1022875  38.4156999  69.9757245
 104.5172748  39.3211820  68.8356513 112.0373543  30.1918346  79.1601790
 112.5555487  30.9279373  78.8348279 111.6828676  30.4982339  79.9948549
 103.6172481  35.0523027  67.2763196 102.9241726  35.1267382  66.6203232
 103.3724233  34.2883371  67.7984713 112.2886137  26.6118628  74.6802687
 112.5687891  25.9441817  75.3063113 113.0736744  26.8047724  74.1677351
 110.0919606  45.7877622  66.2427713 109.5193573  46.4067809  65.7898185
 110.6652399  46.3376984  66.7767635 116.1594996  35.0336262  78.4274262
 117.1112419  35.1334360  78.4486486 115.9898446  34.2414531  78.9372346
 114.1809375  32.1191846  78.6133663 113.5859307  32.3996858  77.9180151
 113.8959072  32.6085746  79.3850404 113.3116866  46.0714772  67.3736295
 114.2447539  46.0060334  67.5769171 113.2240078  46.9071039  66.9150828
 115.9404882  45.3880643  64.3340243 115.8618514  45.0540506  65.2276001
 116.7614549  45.8802411  64.3331715 118.6383073  38.2542382  77.5416562
 118.6059394  37.3158383  77.7276245 119.2483697  38.3326419  76.8082386
 110.4766404  37.1238435  63.5843766 111.4225509  36.9944643  63.6532184
 110.0980649  36.3853097  64.0613194 118.7877562  35.0453425  77.5874845
 118.2716611  34.2611882  77.4004774 119.6717510  34.7172142  77.7521364
 116.4488289  28.7894441  73.5470657 116.2513110  28.4809529  74.4313989
 117.0587994  29.5156080  73.6768587 110.3605097  41.1756181  85.0444423
 111.2808106  41.3534780  85.2384469 110.3254680  40.2312226  84.8924122
 108.6609321  35.0488411  63.5198651 107.7540777  34.7521524  63.5961364
 108.9385302  34.7518229  62.6532937  99.5787262  36.3694775  73.9697697
  99.2590046  35.5160083  73.6772071  99.0320690  36.5843353  74.7255665
 103.3567169  39.0857216  77.6867204 103.5753179  40.0174324  77.7055238
 103.7692943  38.7265190  78.4722008 110.2771387  29.5925301  69.6742892
 109.4672115  29.2472386  70.0498138 110.9655804  29.2832845  70.2630504
 112.2061935  28.6703348  71.2967189 112.7592974  29.0898801  71.9557212
 112.4432022  27.7439096  71.3390145 108.2295035  34.6590422  87.0769953
 108.1291762  35.6084779  87.0082044 108.0116577  34.3308660  86.2046023
 107.4308106  31.9075347  63.6610630 108.2927270  32.2330245  63.9206447
 107.6158450  31.1206843  63.1483696  99.4475522  39.9897686  75.9390819
  98.7538993  39.5751639  75.4260773 100.1948513  40.0318223  75.3424238
 115.5840743  30.7803873  70.8045853 115.0039412  31.4388677  70.4223905
 115.3176675  29.9581218  70.3933271 114.0344309  30.1808931  73.0067173
 114.5344087  30.2925465  72.1981492 114.6779917  29.8769984  73.6467982
 108.0926305  38.0887560  85.8935014 107.6093386  38.8887921  86.0998903
 108.1787244  38.0995505  84.9402458 101.3612264  39.9215940  73.8156834
 101.3382952  40.0203627  72.8638717 101.6712901  40.7681091  74.1374000
 104.0199642  41.9792095  77.9303448 104.9742896  41.9476037  77.8633380
 103.8212166  41.5182719  78.7453674 104.6099024  40.5493211  80.4974246
 105.4291913  41.0437290  80.5209083 104.8835832  39.6325179  80.4691813
 114.3665621  32.9403963  69.8602201 113.4791476  33.2253614  69.6422396
 114.7819610  32.7797727  69.0129478 117.7180157  32.9650484  73.5756541
 118.4940547  33.4546937  73.8481157 116.9928291  33.3908539  74.0328410
 120.1552715  33.6778104  74.6330481 120.7497206  33.4373840  73.9223789
 120.2279299  32.9585234  75.2604017 102.3749871  47.5211715  74.9473646
 102.2404339  46.7612115  74.3811644 101.9581933  48.2452614  74.4802435
 113.5108834  42.7048638  63.9550221 114.2144684  42.9098641  64.5707877
 112.7871483  43.2725400  64.2199305 114.3406644  38.4558499  70.0752491
 114.2841846  38.9127051  69.2360124 114.8934987  37.6949184  69.8975334
 118.1511450  34.2448231  70.9002611 117.8948384  33.8444867  71.7310819
 117.5264318  34.9592025  70.7752750 105.5318997  48.4181032  75.1592089
 105.4151381  49.3626464  75.0570779 104.7111443  48.1154593  75.5477888
 115.4195531  43.1431167  66.0048681 116.2541135  42.7112366  65.8226156
 115.2579874  42.9713181  66.9325576 115.0741424  39.6463281  67.3705021
 115.0190227  39.4807552  66.4293465 114.4487479  40.3539314  67.5267210
  99.8633939  34.8831345  81.1966443 100.5092802  34.3730299  81.6853668
  99.6551090  35.6200027  81.7709868 112.3887331  41.9512192  86.6958583
 113.2578490  42.1252845  86.3345218 111.9094082  42.7706609  86.5734313
 108.3837549  29.1471390  66.9490339 108.3716219  30.0913230  67.1058610
 109.2760971  28.9641535  66.6549800 106.5573511  49.0709293  78.3748017
 107.4600758  49.1032904  78.6914512 106.3310881  48.1409744  78.3894353
 108.3127113  47.8240280  75.0358096 107.3622744  47.8242142  74.9222468
 108.6159599  47.0773015  74.5194130 112.1989669  25.7414166  71.2036276
 111.4322064  25.1872653  71.3492958 112.6100373  25.8136035  72.0650427
 104.2031430  32.0298962  85.2941457 105.0662891  31.6735767  85.5044782
 103.6296840  31.6912857  85.9816861 120.8569513  53.6128247  76.0365383
 120.5188024  53.4969311  75.1485918 121.7259281  53.2119412  76.0166389
 116.7156328  55.4663723  72.0262274 116.1521194  55.3753660  71.2578561
 116.6008724  54.6463627  72.5064766 121.3389296  54.7663098  81.9951588
 121.3277937  54.3715897  81.1232092 121.5009935  54.0329171  82.5885360
 114.2620760  56.9614915  74.8646494 115.0542052  56.6205739  74.4492793
 114.5017411  57.0709890  75.7848648 116.2211514  56.2223828  67.7363873
 116.9942390  55.6752815  67.5976749 116.5736913  57.0868077  67.9478334
 118.0596557  57.5500210  80.9430772 117.7686423  58.4545841  80.8277439
 118.6953541  57.5916738  81.6574842 118.9852764  54.9277059  77.5332132
 119.5816336  54.7033081  76.8189095 119.0427735  54.1861804  78.1357580
 118.5577792  52.3816494  65.3682323 118.8103313  51.8598015  64.6065786
 117.6202351  52.2182639  65.4709007 118.2774081  54.2844600  67.5706698
 118.1610339  53.6089503  68.2387782 118.3876341  53.7976974  66.7538851
 120.6205622  53.7454747  71.2753387 120.2563829  53.2185368  71.9866309
 121.4772738  53.3553216  71.1019873 120.2611109  48.7744647  66.2714736
 120.4285511  49.6424883  66.6385207 120.0708278  48.9371928  65.3476025
 116.4698923  53.6875422  73.9717270 115.5449420  53.5551637  74.1794962
 116.7183337  54.4669642  74.4687213 120.2400330  51.2302304  67.2561402
 120.1199955  51.6759355  68.0946883 119.5452918  51.5787622  66.6974941
 113.8307735  53.3308696  74.8061059 113.9600116  53.5843175  75.7200471
 113.1505186  53.9236404  74.4865715 118.0007222  64.0005946  70.9051534
 117.9231252  64.9513771  70.9840014 117.3968865  63.6551818  71.5626460
 120.4924452  51.1733811  83.5612901 119.7157786  51.7327731  83.5515765
 121.1315015  51.6590594  84.0827771 118.7470824  53.9819265  83.1230868
 119.4885508  54.5204309  82.8465691 118.0407809  54.6085553  83.2802419
 120.5757234  51.0621012  79.0936586 121.4218429  51.4860426  79.2371235
 120.5155871  50.4054636  79.7875149 120.0982940  56.4224004  72.7405403
 120.5621286  56.7011707  71.9510026 119.8339738  55.5207448  72.5578494
 116.9907021  55.9695485  75.6785166 117.5608378  56.3982754  75.0402651
 117.5815133  55.6878070  76.3769352 119.0351826  52.5447156  69.5494968
 119.7375869  52.9968200  70.0168895 118.7032455  51.9030975  70.1774861
 117.4832188  51.1358913  83.9246178 116.8530848  51.8175194  84.1581574
 117.3768276  51.0241994  82.9799316 112.7777160  50.8030709  74.8512102
 111.9876214  51.0588237  74.3752212 113.2688407  51.6179047  74.9564142
 114.7291905  51.1675288  71.8095578 113.9323069  51.2793982  72.3279074
 114.5017498  51.5061940  70.9436469 120.5597573  57.6919991  79.7578093
 120.6242006  58.1540399  80.5936265 119.8508497  57.0617356  79.8860403
 111.0614863  51.0561199  77.2827093 111.3122901  51.9408209  77.5484668
 111.5974411  50.8765801  76.5102184 120.2745591  59.3588099  69.6257073
 120.1391266  60.2039635  70.0541921 120.8155403  59.5607377  68.8623007
 116.7612930  45.4379679  86.2871429 116.3679876  44.8845877  86.9619073
 117.5779071  45.7490257  86.6777946 113.7274988  56.8763537  70.1984998
 114.2399509  57.6706787  70.3490563 114.3797701  56.1789827  70.1318600
 115.5369873  59.9929293  72.2807752 115.7136501  60.9147258  72.0928736
 116.3326706  59.6787712  72.7102131 119.6780891  46.8537558  83.8791685
 120.4190605  47.4544711  83.7996148 119.9098814  46.1115196  83.3209728
 114.8222229  52.0393925  82.1569915 114.7075744  51.1379182  82.4577014
 113.9666747  52.2857622  81.8054731 116.6601188  61.5107467  78.2818094
 117.2108613  61.3824530  77.5095088 115.8212664  61.8102356  77.9312987
 120.4568359  57.7758595  82.6262325 120.9896696  57.0146883  82.3961633
 119.9282440  57.4832247  83.3686480 111.6923905  55.2052191  70.9744569
 112.5299127  55.6149200  70.7578277 111.8702173  54.2651633  70.9444763
 121.1735448  47.7176973  71.7213640 120.3177044  47.3283823  71.5419279
 121.5862400  47.7968933  70.8613426 118.9477481  45.3362046  75.1271382
 119.8130477  45.1404854  74.7677271 119.0154989  45.1072397  76.0540739
 121.8221072  56.9044587  70.1381137 121.2942434  56.1697347  69.8254375
 121.3208575  57.6819264  69.8921105 116.5539800  47.5664254  72.4987749
 117.1283552  47.3439435  71.7660942 117.1410782  47.6352948  73.2516350
 116.8809387  49.5968715  66.5183634 116.0446699  49.9343401  66.8392909
 116.7414156  49.4617694  65.5810771 118.8562467  44.4405502  71.2262818
 118.2026880  44.1254520  70.6019433 118.8142941  43.8181243  71.9522641
 119.9673672  54.7224798  63.1416110 119.0600734  54.4914051  63.3407259
 120.4644704  53.9262417  63.3290092 121.1461906  54.8237392  67.6640100
 120.2373125  54.5396425  67.7612570 121.1756989  55.2436471  66.8043407
 111.7150076  52.5442907  71.6455302 111.5174476  51.9512267  70.9206369
 111.1596740  52.2395117  72.3631241 119.6946800  52.4366013  73.7649896
 119.7495409  51.4839849  73.6892372 118.8838002  52.5925452  74.2491194
 120.8437993  56.3646136  65.0028179 120.4057423  55.6481995  64.5433816
 121.5848434  56.5922251  64.4413270 117.6339160  51.0543073  71.5240274
 116.8207025  51.3537243  71.9305467 118.1298154  50.6598762  72.2414757
 119.7847737  61.0500830  73.4574539 119.7423916  61.2761676  72.5283071
 120.7010436  60.8164204  73.6060340 117.1253234  48.6261428  77.1401509
 117.7652614  48.4850187  76.4424473 116.2930765  48.3395942  76.7640111
 117.9013538  57.9263859  73.2536502 118.6954137  57.4314179  73.0519077
 117.1905231  57.3981722  72.8904207 114.2096302  52.0706940  69.3296255
 113.2793890  52.0091396  69.5466217 114.3053774  51.5482893  68.5332896
 114.1281851  48.5961753  71.9174496 114.3888668  49.5107087  71.8083657
 114.9499023  48.1286196  72.0671109 115.6006776  50.0099510  79.0873321
 116.2729830  49.8016873  78.4385970 114.7736563  49.8121596  78.6478553
 121.5032348  46.6361451  81.1038982 120.8560263  47.3351401  81.0103458
 122.2733364  47.0697595  81.4715230 120.4784814  58.4992881  76.9334339
 120.3395900  58.1311665  77.8060277 119.6899410  59.0140520  76.7618297
 121.0732966  63.6001977  68.2759876 121.2484722  63.1290020  69.0905498
 120.3865754  64.2267743  68.5041136 122.0290029  57.8774483  74.3223177
 121.6939862  57.8375253  75.2180827 121.5293975  57.2119199  73.8493587
 116.0034273  53.2842113  79.8475758 115.8654071  52.5522352  80.4487297
 116.9139197  53.1951014  79.5659946 118.6316574  52.9962073  79.3359438
 119.3416193  52.3555265  79.2946056 118.5885882  53.2474968  80.2585618
 117.3445508  49.9827291  81.1555077 116.8082865  49.5318029  81.8076673
 116.7562216  50.1173199  80.4125541 115.6394052  66.7491340  75.0499736
 115.8790650  67.3809864  75.7278754 114.7963248  66.3979380  75.3365095
 116.7547767  49.4415942  63.7181541 115.8777233  49.3204743  63.3543787
 117.2305520  48.6502020  63.4660429 108.2749907  54.2293102  73.8123048
 108.9620947  53.9154832  73.2244063 108.1198036  55.1334466  73.5390299
 113.0784629  49.1183298  78.2408072 112.9942818  48.5108968  77.5058481
 112.2567336  49.6092317  78.2417568 120.1521913  62.5570462  77.4541240
 120.0792085  63.3625434  77.9660544 119.7099306  62.7562428  76.6289261
 119.9411693  61.7942232  70.9644061 119.1579215  62.3363913  71.0582286
 120.6404438  62.3116212  71.3638302 119.8343312  49.7454245  73.3349951
 119.4641099  49.1925285  74.0230857 120.3302404  49.1412378  72.7824951
 117.6632510  60.2051740  80.4304969 118.3641970  60.8388223  80.5834363
 117.1927625  60.5466471  79.6700608 121.5121369  53.5016158  84.7423557
 120.8362006  53.4010288  85.4125932 122.3349003  53.3455372  85.2059554
 113.2600229  59.7388095  77.3636072 113.8453665  58.9931783  77.4963976
 113.0625067  60.0492052  78.2472736 116.1138884  62.7739342  72.3798514
 115.4449259  63.2585470  71.8962554 115.9751753  63.0208563  73.2941893
 107.8517883  52.3093695  76.0840515 107.8901983  51.7757286  76.8777633
 107.3458176  51.7828901  75.4651492 120.2544152  64.8083086  78.9781173
 120.8062460  64.9714707  79.7430258 120.5950346  65.3987524  78.3061197
 115.2308646  47.1558236  79.5803057 115.2949972  48.0173067  79.1680455
 115.1675766  46.5432237  78.8475416 114.7060918  49.2281368  83.2276092
 115.3332957  48.8458445  83.8413616 113.8488837  49.0095570  83.5931784
 111.4826461  51.0357797  69.1594446 111.7779902  50.1268476  69.1061500
 110.5814497  51.0145537  68.8375449 115.0120708  49.1113794  75.1421995
 114.2907294  49.7249762  75.0029468 115.8013964  49.6471559  75.0638641
 117.8147021  46.4468220  81.4162647 118.3381423  46.6930517  82.1788956
 117.5959355  47.2788255  80.9965784 113.2114302  48.7171895  69.2833772
 112.8827009  47.8369274  69.1008877 113.5653673  48.6619564  70.1710161
 116.3256126  49.0044865  69.6509249 116.6652198  49.5330786  68.9287858
 116.7728246  49.3425271  70.4267816 119.0199566  47.3881915  79.1012317
 118.6796387  46.5889729  79.5032997 118.3138573  47.6883626  78.5289150
 119.6716038  44.4731228  77.5539640 120.4942108  43.9991706  77.4318531
 119.9154102  45.2521712  78.0538327 118.3124273  47.5019486  67.8502542
 119.0332635  47.8800739  67.3466259 117.6889577  48.2208363  67.9537520
 117.1954617  51.1650349  75.3631619 117.0499198  51.4790652  76.2555900
 116.7179821  51.7835249  74.8102518 119.0551000  48.1552897  75.4112508
 119.0412569  47.2593990  75.0744806 119.7723428  48.1623560  76.0450794
 120.9077131  48.5890237  77.4565636 120.6494908  49.5107307  77.4549966
 120.3762171  48.1920671  78.1466100 111.6700279  53.7055693  78.3019280
 111.1253747  54.4815501  78.4339554 112.5479629  54.0526497  78.1438401
 118.4587896  47.0367277  70.6800079 118.5803807  46.1083923  70.8790966
 118.1689938  47.0505963  69.7678394 121.3279086  44.7222187  73.8166798
 121.3500783  44.7861520  72.8618778 121.7447145  43.8826696  74.0107305
 112.4566301  52.8325589  81.1949437 111.7148037  52.9808225  81.7814067
 112.1359045  53.0933855  80.3316186 120.4009964  62.3741567  80.9929827
 120.7097090  62.1290714  81.8652527 121.1985446  62.5788206  80.5048697
 120.4230576  64.5279477  73.2235203 119.9835566  64.0355856  73.9168060
 121.1738693  63.9852445  72.9827279 112.9022915  60.7191018  73.2259832
 113.7280935  60.4194790  72.8458475 112.5516967  59.9498640  73.6749620
 117.8704448  60.0717486  75.2957505 117.2484457  59.4088191  74.9959733
 118.5409315  60.0978618  74.6131153 111.1031520  58.6377344  74.1848765
 110.2663428  58.2099519  74.0032766 111.0755165  58.8309788  75.1219556
 117.9428975  48.5499274  84.8890011 117.9917131  49.4261397  84.5067781
 118.4851490  48.0076667  84.3161654 117.4317955  58.6221409  68.7715966
 117.5806075  59.3056874  68.1182638 118.2384398  58.6026500  69.2865421
 120.1728264  49.3030647  81.6436370 119.3031573  49.5964213  81.3718958
 120.4087744  49.8871092  82.3643633 115.1870588  54.6486587  69.7777035
 114.9416630  53.7448917  69.9757245 115.3566502  54.6503738  68.8356513
 114.4566235  50.3814945  67.2763196 113.7635480  50.4559300  66.6203232
 114.2117987  49.6175288  67.7984713 120.9313360  61.1169540  66.2427713
 120.3587327  61.7359727  65.7898185 121.5046154  61.6668902  66.7767635
 121.3160159  52.4530353  63.5843766 122.2619263  52.3236561  63.6532184
 120.9374404  51.7145015  64.0613194 121.1998851  56.5048099  85.0444423
 122.1201861  56.6826698  85.2384469 121.1648434  55.5604144  84.8924122
 119.5003076  50.3780329  63.5198651 118.5934531  50.0813442  63.5961364
 119.7779057  50.0810147  62.6532937 110.4181016  51.6986692  73.9697697
 110.0983801  50.8452001  73.6772071 109.8714444  51.9135271  74.7255665
 114.1960924  54.4149133  77.6867204 114.4146934  55.3466241  77.7055238
 114.6086698  54.0557108  78.4722008 121.1165142  44.9217219  69.6742892
 120.3065870  44.5764304  70.0498138 121.8049559  44.6124763  70.2630504
 119.0688789  49.9882339  87.0769953 118.9685516  50.9376696  87.0082044
 118.8510331  49.6600578  86.2046023 118.2701861  47.2367264  63.6610630
 119.1321025  47.5622163  63.9206447 118.4552205  46.4498760  63.1483696
 110.2869276  55.3189604  75.9390819 109.5932748  54.9043557  75.4260773
 111.0342267  55.3610140  75.3424238 118.9320059  53.4179478  85.8935014
 118.4487141  54.2179838  86.0998903 119.0180998  53.4287423  84.9402458
 112.2006019  55.2507858  73.8156834 112.1776707  55.3495545  72.8638717
 112.5106655  56.0973009  74.1374000 114.8593397  57.3084013  77.9303448
 115.8136650  57.2767955  77.8633380 114.6605920  56.8474637  78.7453674
 115.4492779  55.8785129  80.4974246 116.2685668  56.3729207  80.5209083
 115.7229587  54.9617097  80.4691813 113.2143625  62.8503632  74.9473646
 113.0798093  62.0904033  74.3811644 112.7975688  63.5744532  74.4802435
 116.3712751  63.7472949  75.1592089 116.2545136  64.6918382  75.0570779
 115.5505198  63.4446511  75.5477888 110.7027693  50.2123263  81.1966443
 111.3486557  49.7022217  81.6853668 110.4944844  50.9491944  81.7709868
 119.2231304  44.4763307  66.9490339 119.2109973  45.4205147  67.1058610
 120.1154725  44.2933453  66.6549800 117.3967265  64.4001211  78.3748017
 118.2994512  64.4324821  78.6914512 117.1704636  63.4701662  78.3894353
 119.1520868  63.1532198  75.0358096 118.2016499  63.1534059  74.9222468
 119.4553354  62.4064932  74.5194130 115.0425184  47.3590880  85.2941457
 115.9056646  47.0027685  85.5044782 114.4690595  47.0204775  85.9816861
 121.9008618  66.3853117  77.2827093 122.1516656  67.2700127  77.5484668
 122.4368166  66.2057719  76.5102184 119.1143662  69.5585019  73.8123048
 119.8014701  69.2446749  73.2244063 118.9591790  70.4626384  73.5390299
 118.6911638  67.6385613  76.0840515 118.7295737  67.1049203  76.8777633
 118.1851931  67.1120818  75.4651492 121.9425274  73.9669262  74.1848765
 121.1057183  73.5391436  74.0032766 121.9148920  74.1601705  75.1219556
 121.2574771  67.0278610  73.9697697 120.9377555  66.1743918  73.6772071
 120.7108199  67.2427188  74.7255665 121.1263031  70.6481522  75.9390819
 120.4326502  70.2335474  75.4260773 121.8736022  70.6902058  75.3424238
 121.5421448  65.5415180  81.1966443 122.1880311  65.0314134  81.6853668
 121.3338599  66.2783862  81.7709868  96.3219714  10.3484233  57.6296840
  96.2443744  11.2992058  57.7085321  95.7181358  10.0030106  58.2871767
  93.9606544  13.0969627  61.7745042  94.2003142  13.7288151  62.4524061
  93.1175740  12.7457667  62.0610402  94.4351376   9.1217630  59.1043821
  93.7661751   9.6063757  58.6207861  94.2964246   9.3686850  60.0187199
  98.5756645  11.1561373  65.7026479  99.1274953  11.3192995  66.4675564
  98.9162838  11.7465811  65.0306504  98.7443068  10.8757764  59.9480510
  98.3048058  10.3834143  60.6413367  99.4951185  10.3330732  59.7072585
  91.5356118   9.1981920  61.6718953  91.4010586   8.4382320  61.1056951
  91.1188180   9.9222819  61.2047742  94.6925244  10.0951237  61.8837395
  94.5757628  11.0396669  61.7816086  93.8717690   9.7924798  62.2723194
  95.7179758  10.7479498  65.0993324  96.6207004  10.7803109  65.4159819
  95.4917128   9.8179949  65.1139660 110.0175760  15.2898451  62.7610689
 109.6794271  15.1739516  61.8731224 110.8865528  14.8889617  62.7411696
 105.8762575  17.1433928  58.7507580 105.3127440  17.0523865  57.9823868
 105.7614970  16.3233832  59.2310073 110.4995543  16.4433303  68.7196895
 110.4884183  16.0486101  67.8477399 110.6616182  15.7099376  69.3130666
 103.4227007  18.6385119  61.5891801 104.2148299  18.2975944  61.1738100
 103.6623657  18.7480095  62.5093954 111.4562134  20.8104896  54.0622045
 110.8050114  21.3958976  53.6756059 112.2506497  21.3411090  54.1217083
 105.3817761  17.8994033  54.4609180 106.1548637  17.3523020  54.3222055
 105.7343160  18.7638282  54.6723641 107.2202804  19.2270415  67.6676079
 106.9292670  20.1316046  67.5522745 107.8559788  19.2686943  68.3820148
 108.1459011  16.6047264  64.2577439 108.7422583  16.3803286  63.5434402
 108.2033982  15.8632009  64.8602886 107.7184039  14.0586699  52.0927630
 107.9709560  13.5368220  51.3311093 106.7808598  13.8952844  52.1954313
 112.9337399  18.4995328  54.5991030 112.2983232  18.5729954  55.3111934
 112.6034806  19.0888926  53.9210109 107.4380328  15.9614805  54.2952005
 107.3216586  15.2859708  54.9633089 107.5482588  15.4747179  53.4784158
 109.7811869  15.4224952  57.9998694 109.4170076  14.8955573  58.7111615
 110.6378985  15.0323421  57.8265179 112.1792689  18.9131831  64.6625873
 111.8793412  19.8156869  64.5541680 111.8343748  18.6464014  65.5147026
 105.6305170  15.3645627  60.6962577 104.7055667  15.2321841  60.9040269
 105.8789583  16.1439847  61.1932519 102.9913981  15.0078901  61.5306366
 103.1206362  15.2613380  62.4445778 102.3111433  15.6006609  61.2111021
 107.1613469  25.6776151  57.6296840 107.0837498  26.6283976  57.7085321
 106.5575112  25.3322023  58.2871767 107.9077071  15.6589470  69.8476174
 108.6491755  16.1974514  69.5710998 107.2014056  16.2855758  70.0047726
 113.3832410  17.8018610  68.4448336 113.7915766  17.3601021  67.7002968
 112.6609672  17.2271238  68.6982529 113.7061225  18.3619801  62.2000625
 113.0770087  18.5265515  61.4976692 113.3186887  18.7761410  62.9711589
 117.5850457  19.2974239  59.5544988 116.9001495  19.6773140  59.0042022
 117.6694306  19.9069565  60.2876936 114.8401388  16.9434198  66.1540332
 115.0518284  17.5865957  65.4774713 114.7931137  16.1096514  65.6862262
 109.2589187  18.0994209  59.4650710 109.7227532  18.3781912  58.6755332
 108.9945985  17.1977653  59.2823800 106.1513268  17.6465690  62.4030473
 106.7214625  18.0752959  61.7647957 106.7421380  17.3648275  63.1014659
 108.1958073  14.2217361  56.2740275 108.8982116  14.6738405  56.7414201
 107.8638701  13.5801180  56.9020168 106.6438434  12.8129118  70.6491484
 106.0137095  13.4945399  70.8826881 106.5374522  12.7012199  69.7044622
 101.9383407  12.4800914  61.5757408 101.1482461  12.7358442  61.0997519
 102.4294654  13.2949252  61.6809449 115.9547216  19.8206153  64.3262689
 116.7764660  19.4186340  64.0445371 115.9509619  19.7174387  65.2778805
 103.8898152  12.8445493  58.5340885 103.0929315  12.9564187  59.0524381
 103.6623744  13.1832145  57.6681776 109.7203820  19.3690196  66.4823400
 109.7848252  19.8310604  67.3181572 109.0114744  18.7387561  66.6105710
 100.2221110  12.7331404  64.0072399 100.4729148  13.6178414  64.2729975
 100.7580658  12.5536006  63.2347491 109.4351837  21.0358304  56.3502380
 109.2997512  21.8809840  56.7787228 109.9761650  21.2377581  55.5868314
 102.8881235  18.5533742  56.9230305 103.4005755  19.3476992  57.0735870
 103.5403948  17.8560032  56.8563907 104.6976120  21.6699498  59.0053058
 104.8742748  22.5917463  58.8174042 105.4932953  21.3557917  59.4347438
 103.9828476  13.7164130  68.8815222 103.8681991  12.8149387  69.1822320
 103.1272994  13.9627827  68.5300038 111.0620314  21.6581870  70.4802722
 110.6184168  20.8718249  70.1623627 111.7237527  21.8461021  69.8146613
 105.8207435  23.1877672  65.0063401 106.3714860  23.0594735  64.2340395
 104.9818911  23.4872561  64.6558293 113.1601552  21.9384670  68.5084123
 113.1420027  22.7593551  68.0164393 114.0821472  21.8138745  68.7334265
 109.6174606  19.4528800  69.3507632 110.1502943  18.6917088  69.1206940
 109.0888687  19.1602452  70.0931786 100.8530152  16.8822396  57.6989876
 101.6905374  17.2919405  57.4823583 101.0308419  15.9421838  57.6690070
 117.7228858  17.3029831  55.3226882 116.9458301  16.9640991  54.8782044
 118.4020339  17.3082455  54.6481847 110.9827319  18.5814792  56.8626444
 110.4548680  17.8467552  56.5499681 110.4814822  19.3589469  56.6166412
 115.9620165  16.7763813  61.9793490 115.3043839  17.4663074  62.0673619
 116.7660564  17.1660245  62.3227476 109.1279919  16.3995002  49.8661417
 108.2206981  16.1684256  50.0652566 109.6250951  15.6032622  50.0535398
 112.0347998  25.1092510  52.7858103 111.3609697  25.4124206  53.3943061
 112.4213820  25.9121590  52.4363560 110.3068152  16.5007597  54.3885407
 109.3979372  16.2166630  54.4857877 110.3363236  16.9206676  53.5288714
 115.5387420  20.1114187  58.1576574 115.0849747  19.2705097  58.2141765
 114.9081387  20.7475585  58.4951355 113.9820359  21.9490684  59.0926393
 114.2743333  22.5095741  58.3738758 114.4918980  22.2419245  59.8479552
 100.8756323  14.2213111  58.3700609 100.6780723  13.6282472  57.6451676
 100.3202987  13.9165322  59.0876548 110.0044240  18.0416341  51.7273485
 109.5663670  17.3252200  51.2679123 110.7454681  18.2692456  51.1658577
 108.9453984  22.7271035  60.1819846 108.9030163  22.9531881  59.2528378
 109.8616683  22.4934409  60.3305647 118.1486735  18.3850065  62.7961076
 118.5823241  18.2925354  63.6444130 118.8618315  18.3607566  62.1581092
 107.0619785  19.6034064  59.9781809 107.8560384  19.1084384  59.7764383
 106.3511477  19.0751927  59.6149514 111.8814630  21.9852159  64.3294176
 111.9351652  22.5543095  65.0971892 111.0129411  22.1554044  63.9648213
 103.3702549  13.7477145  56.0541561 102.4400137  13.6861601  56.2711523
 103.4660020  13.2253098  55.2578202 119.0102284  18.4273766  65.3293961
 119.2038174  19.3319576  65.5753236 118.9102902  17.9681185  66.1632546
 114.0717393  18.5780508  70.9034842 113.9202899  18.3491060  69.9864925
 114.0622072  19.5351110  70.9166187 110.8402729  16.1512421  65.8881108
 111.7694789  16.3023581  65.7150075 110.4193759  16.2396442  65.0329755
 109.6391061  20.1763086  63.6579646 109.5002147  19.8081870  64.5305584
 108.8505657  20.6910725  63.4863603 110.2339213  25.2772182  55.0005182
 110.4090969  24.8060225  55.8150805 109.5472001  25.9037948  55.2286443
 111.1896276  19.5544688  61.0468483 110.8546109  19.5145458  61.9426133
 110.6900222  18.8889404  60.5738894 105.1640520  14.9612318  66.5721065
 105.0260318  14.2292557  67.1732604 106.0745444  14.8721218  66.2905252
 114.1255468  16.9000723  51.3205543 113.5084638  16.1747551  51.2238596
 113.6571956  17.6610083  50.9772617 107.7922821  14.6732278  66.0604744
 108.5022439  14.0325470  66.0191363 107.7492129  14.9245173  66.9830925
 115.7809599  21.6099631  68.9811323 115.7222146  20.9258851  68.3141906
 116.1829118  22.3518621  68.5291949 104.8000298  28.4261545  61.7745042
 105.0396897  29.0580069  62.4524061 103.9569495  28.0749585  62.0610402
 115.7827007  19.5739215  67.2125303 114.8953786  19.2365137  67.3351702
 116.3525558  18.8422246  67.4494068  97.4356154  15.9063307  60.5368354
  98.1227194  15.5925037  59.9489370  97.2804283  16.8104671  60.2635606
 109.3128160  24.2340667  64.1786546 109.2398332  25.0395639  64.6905851
 108.8705553  24.4332633  63.3534568 109.1017940  23.4712437  57.6889368
 108.3185462  24.0134118  57.7827592 109.8010685  23.9886417  58.0883609
 111.7726844  24.1327501  66.3344705 112.4854816  24.7674966  66.2620606
 111.2816872  24.2291367  65.5184707 113.4944371  18.0378754  57.9061997
 112.5600649  18.1580216  57.7366701 113.6721039  17.1351221  57.6422006
 106.8238757  21.8821945  67.1550276 107.5248217  22.5158428  67.3079670
 106.3533872  22.2236676  66.3945915 114.9493153  20.2239895  55.4398183
 115.2252997  20.1096489  56.3492057 114.0797652  19.8257379  55.4010356
 111.5847217  24.4726245  59.0830996 111.7669612  23.6547901  59.5458749
 112.4080203  24.6893938  58.6455886 111.9189383  23.3994431  56.3446045
 112.4477149  22.8886885  55.7316207 112.1817602  23.0836961  57.2091578
 110.6727616  15.1786363  71.4668863 109.9968253  15.0780493  72.1371238
 111.4955250  15.0225577  71.9304860 102.4206475  21.4158300  64.0881378
 103.0059912  20.6701988  64.2209283 102.2231314  21.7262257  64.9718042
 105.2745130  24.4509547  59.1043821 104.6055506  24.9355675  58.6207861
 105.1358000  24.6978768  60.0187199  97.0124130  13.9863900  62.8085822
  97.0508230  13.4527491  63.6022940  96.5064423  13.4599106  62.1896799
 109.4150399  26.4853291  65.7026479 109.9668707  26.6484912  66.4675564
 109.7556593  27.0757729  65.0306504 114.2661273  21.3114548  71.5575134
 114.8101177  21.9244507  71.0630088 113.6848118  21.8694127  72.0742147
 100.6432708  12.7128002  55.8839753 100.9386149  11.8038681  55.8306807
  99.7420743  12.6915742  55.5620755 112.5518786  24.4335266  62.6890161
 112.4269926  23.6325006  62.1801107 113.2097877  24.9281460  62.2004131
 114.6153695  22.2344286  64.3169711 113.6684030  22.1149638  64.2448038
 114.9636468  21.3466784  64.3995973 111.6200128  22.0297003  60.5174064
 111.4725090  21.1013710  60.6981634 112.4453622  22.0517093  60.0331139
 115.2234250  22.8525561  61.6038936 116.1480797  22.6468423  61.4663388
 115.0549553  22.6041962  62.5128278 106.3560864  12.8420553  62.0876926
 106.2105444  13.1560857  62.9801207 105.8786067  13.4605454  61.5347824
 115.0129566  23.3711229  56.9601028 115.1866444  22.8057651  56.2074880
 115.5058457  24.1712124  56.7780518 100.8306526  15.3825898  65.0264587
 100.2859994  16.1585706  65.1584861 101.7085876  15.7296702  64.8683708
 116.0004739  22.6877993  54.0597926 116.6955643  23.3084686  54.2785241
 116.3427889  21.8373344  54.3350304 101.6172548  14.5095794  67.9194744
 100.8754284  14.6578429  68.5059374 101.2965292  14.7704060  67.0561493
 117.8996162  20.1377699  55.5885257 118.4247486  20.4764971  54.8634577
 117.8118514  19.2024714  55.4048392 109.5616210  24.0511772  67.7175134
 109.8703337  23.8060919  68.5897833 110.3591692  24.2558411  67.2294004
 109.5836822  26.2049682  59.9480510 109.1441813  25.7126061  60.6413367
 110.3344939  25.6622650  59.7072585 102.0629161  22.3961223  59.9505138
 102.8887181  22.0964995  59.5703782 101.7123213  21.6268845  60.3994927
 107.0310695  21.7487691  62.0202812 106.4090704  21.0858396  61.7205040
 107.7015562  21.7748823  61.3376460 100.2637766  20.3147549  60.9094072
  99.4269675  19.8869724  60.7278073 100.2361412  20.5079993  61.8464863
 117.5890068  20.7710602  70.8936455 116.7985611  20.7534741  70.3540954
 117.3523422  21.3098896  71.6485491 117.7087943  17.6203069  68.2069183
 117.7585948  17.4553076  69.1484706 117.6001866  16.7530328  67.8167064
 106.5924202  20.2991614  55.4961272 106.7412322  20.9827079  54.8427945
 107.3990645  20.2796704  56.0110728 119.2106140  20.0400010  68.4511205
 118.9190948  20.4029991  69.2874666 118.5978271  19.3267019  68.2724537
 104.3476834  16.3256792  56.5022341 104.1022876  15.4219122  56.7002551
 104.5172749  16.3273942  55.5601819 110.0919607  22.7939745  52.9673020
 109.5193574  23.4129932  52.5143492 110.6652401  23.3439107  53.5012942
 113.3116867  23.0776895  54.0981602 114.2447540  23.0122457  54.3014478
 113.2240080  23.9133162  53.6396135 115.9404883  22.3942765  51.0585550
 115.8618515  22.0602629  51.9521308 116.7614550  22.8864533  51.0577022
 110.3605098  18.1818304  71.7689729 111.2808108  18.3596903  71.9629776
 110.3254681  17.2374349  71.6169429  99.5787263  13.3756897  60.6943004
  99.2590047  12.5222206  60.4017378  99.0320691  13.5905476  61.4500971
 103.3567171  16.0919338  64.4112510 103.5753180  17.0236446  64.4300544
 103.7692944  15.7327313  65.1967314  99.4475523  16.9959809  62.6636125
  98.7538994  16.5813762  62.1506080 100.1948514  17.0380345  62.0669544
 108.0926306  15.0949683  72.6180321 107.6093388  15.8950043  72.8244210
 108.1787245  15.1057628  71.6647765 101.3612266  16.9278063  60.5402140
 101.3382954  17.0265750  59.5884023 101.6712902  17.7743213  60.8619306
 104.0199643  18.9854218  64.6548755 104.9742897  18.9538160  64.5878686
 103.8212167  18.5244841  65.4698981 104.6099026  17.5555334  67.2219552
 105.4291915  18.0499412  67.2454390 104.8835833  16.6387302  67.1937120
 102.3749872  24.5273837  61.6718953 102.2404340  23.7674238  61.1056951
 101.9581935  25.2514737  61.2047742 113.5108835  19.7110761  50.6795528
 114.2144685  19.9160763  51.2953184 112.7871484  20.2787523  50.9444611
 105.5318998  25.4243154  61.8837395 105.4151382  26.3688587  61.7816086
 104.7111444  25.1216716  62.2723194 115.4195533  20.1493290  52.7293988
 116.2541137  19.7174488  52.5471463 115.2579876  19.9775304  53.6570882
 115.0741425  16.6525403  54.0950327 115.0190229  16.4869675  53.1538771
 114.4487480  17.3601436  54.2512517  99.8633940  11.8893468  67.9211749
 100.5092803  11.3792422  68.4098975  99.6551091  12.6262149  68.4955175
 112.3887332  18.9574315  73.4203890 113.2578492  19.1314967  73.0590525
 111.9094084  19.7768732  73.2979619 106.5573512  26.0771416  65.0993324
 107.4600759  26.1095026  65.4159819 106.3310882  25.1471867  65.1139660
 108.3127114  24.8302403  61.7603402 107.3622745  24.8304264  61.6467775
 108.6159600  24.0835137  61.2439437 120.8569514  30.6190369  62.7610689
 120.5188026  30.5031434  61.8731224 121.7259282  30.2181534  62.7411696
 116.7156330  32.4725846  58.7507580 116.1521195  32.3815782  57.9823868
 116.6008725  31.6525750  59.2310073 121.3389297  31.7725221  68.7196895
 121.3277938  31.3778019  67.8477399 121.5009937  31.0391293  69.3130666
 114.2620762  33.9677037  61.5891801 115.0542054  33.6267862  61.1738100
 114.5017412  34.0772012  62.5093954 116.2211516  33.2285950  54.4609180
 116.9942392  32.6814937  54.3222055 116.5736914  34.0930200  54.6723641
 118.0596558  34.5562333  67.6676079 117.7686424  35.4607964  67.5522745
 118.6953543  34.5978860  68.3820148 118.9852765  31.9339181  64.2577439
 119.5816337  31.7095204  63.5434402 119.0427737  31.1923927  64.8602886
 118.5577793  29.3878617  52.0927630 118.8103314  28.8660138  51.3311093
 117.6202353  29.2244762  52.1954313 118.2774082  31.2906722  54.2952005
 118.1610340  30.6151626  54.9633089 118.3876342  30.8039096  53.4784158
 120.6205623  30.7516870  57.9998694 120.2563830  30.2247491  58.7111615
 121.4772739  30.3615339  57.8265179 120.2611110  25.7806769  52.9960042
 120.4285512  26.6487006  53.3630513 120.0708279  25.9434051  52.0721332
 116.4698925  30.6937545  60.6962577 115.5449421  30.5613759  60.9040269
 116.7183338  31.4731764  61.1932519 120.2400331  28.2364427  53.9806709
 120.1199956  28.6821478  54.8192189 119.5452919  28.5849744  53.4220247
 113.8307736  30.3370819  61.5306366 113.9600117  30.5905297  62.4445778
 113.1505187  30.9298527  61.2111021 118.0007223  41.0068069  57.6296840
 117.9231253  41.9575894  57.7085321 117.3968867  40.6613941  58.2871767
 120.4924453  28.1795934  70.2858207 119.7157787  28.7389854  70.2761072
 121.1315016  28.6652717  70.8073077 118.7470825  30.9881387  69.8476174
 119.4885510  31.5266431  69.5710998 118.0407811  31.6147676  70.0047726
 120.5757235  28.0683135  65.8181893 121.4218430  28.4922548  65.9616542
 120.5155873  27.4116759  66.5120456 120.0982941  33.4286126  59.4650710
 120.5621287  33.7073829  58.6755332 119.8339739  32.5269571  59.2823800
 116.9907022  32.9757608  62.4030473 117.5608379  33.4044876  61.7647957
 117.5815134  32.6940193  63.1014659 119.0351827  29.5509279  56.2740275
 119.7375871  30.0030323  56.7414201 118.7032456  28.9093098  56.9020168
 117.4832189  28.1421035  70.6491484 116.8530849  28.8237316  70.8826881
 117.3768277  28.0304117  69.7044622 112.7777161  27.8092832  61.5757408
 111.9876215  28.0650360  61.0997519 113.2688409  28.6241169  61.6809449
 114.7291907  28.1737411  58.5340885 113.9323070  28.2856105  59.0524381
 114.5017499  28.5124063  57.6681776 120.5597574  34.6982114  66.4823400
 120.6242007  35.1602521  67.3181572 119.8508498  34.0679479  66.6105710
 111.0614864  28.0623322  64.0072399 111.3122903  28.9470332  64.2729975
 111.5974413  27.8827923  63.2347491 120.2745592  36.3650221  56.3502380
 120.1391267  37.2101757  56.7787228 120.8155404  36.5669499  55.5868314
 116.7612932  22.4441801  73.0116735 116.3679877  21.8908000  73.6864380
 117.5779072  22.7552380  73.4023253 113.7274989  33.8825660  56.9230305
 114.2399510  34.6768910  57.0735870 114.3797702  33.1851950  56.8563907
 115.5369874  36.9991416  59.0053058 115.7136502  37.9209380  58.8174042
 116.3326708  36.6849835  59.4347438 119.6780893  23.8599680  70.6036992
 120.4190606  24.4606834  70.5241454 119.9098815  23.1177318  70.0455034
 114.8222231  29.0456048  68.8815222 114.7075746  28.1441305  69.1822320
 113.9666748  29.2919744  68.5300038 116.6601190  38.5169590  65.0063401
 117.2108615  38.3886653  64.2340395 115.8212665  38.8164479  64.6558293
 120.4568361  34.7820717  69.3507632 120.9896697  34.0209006  69.1206940
 119.9282442  34.4894369  70.0931786 111.6923906  32.2114314  57.6989876
 112.5299128  32.6211322  57.4823583 111.8702174  31.2713756  57.6690070
 121.1735449  24.7239095  58.4458947 120.3177046  24.3345946  58.2664586
 121.5862401  24.8031056  57.5858733 118.9477482  22.3424168  61.8516688
 119.8130479  22.1466977  61.4922578 119.0154991  22.1134520  62.7786045
 121.8221073  33.9106710  56.8626444 121.2942435  33.1759469  56.5499681
 121.3208576  34.6881386  56.6166412 116.5539801  24.5726376  59.2233055
 117.1283553  24.3501558  58.4906248 117.1410783  24.6415071  59.9761657
 116.8809388  26.6030837  53.2428941 116.0446700  26.9405524  53.5638215
 116.7414158  26.4679817  52.3056078 118.8562469  21.4467625  57.9508125
 118.2026881  21.1316642  57.3264740 118.8142943  20.8243366  58.6767948
 119.9673673  31.7286920  49.8661417 119.0600735  31.4976174  50.0652566
 120.4644705  30.9324539  50.0535398 121.1461907  31.8299515  54.3885407
 120.2373126  31.5458548  54.4857877 121.1756991  32.2498594  53.5288714
 111.7150077  29.5505029  58.3700609 111.5174477  28.9574390  57.6451676
 111.1596741  29.2457239  59.0876548 119.6946801  29.4428136  60.4895202
 119.7495411  28.4901972  60.4137679 118.8838003  29.5987575  60.9736501
 120.8437995  33.3708259  51.7273485 120.4057425  32.6544118  51.2679123
 121.5848436  33.5984374  51.1658577 117.6339161  28.0605195  58.2485581
 116.8207026  28.3599366  58.6550773 118.1298155  27.6660884  58.9660063
 119.7847739  38.0562952  60.1819846 119.7423918  38.2823799  59.2528378
 120.7010438  37.8226327  60.3305647 117.1253236  25.6323551  63.8646816
 117.7652615  25.4912310  63.1669779 116.2930766  25.3458064  63.4885418
 117.9013540  34.9325981  59.9781809 118.6954138  34.4376301  59.7764383
 117.1905232  34.4043844  59.6149514 114.2096303  29.0769063  56.0541561
 113.2793891  29.0153519  56.2711523 114.3053775  28.5545016  55.2578202
 114.1281852  25.6023876  58.6419803 114.3888669  26.5169209  58.5328963
 114.9499024  25.1348318  58.7916416 115.6006777  27.0161633  65.8118627
 116.2729831  26.8078995  65.1631276 114.7736564  26.8183719  65.3723860
 121.5032349  23.6423574  67.8284288 120.8560264  24.3413524  67.7348765
 122.2733365  24.0759718  68.1960536 120.4784816  35.5055003  63.6579646
 120.3395901  35.1373788  64.5305584 119.6899412  36.0202643  63.4863603
 121.0732967  40.6064100  55.0005182 121.2484723  40.1352143  55.8150805
 120.3865756  41.2329866  55.2286443 122.0290031  34.8836606  61.0468483
 121.6939863  34.8437376  61.9426133 121.5293976  34.2181322  60.5738894
 116.0034275  30.2904236  66.5721065 115.8654073  29.5584475  67.1732604
 116.9139198  30.2013136  66.2905252 118.6316575  30.0024195  66.0604744
 119.3416194  29.3617388  66.0191363 118.5885883  30.2537090  66.9830925
 117.3445509  26.9889413  67.8800384 116.8082866  26.5380152  68.5321980
 116.7562218  27.1235322  67.1370848 115.6394053  43.7553463  61.7745042
 115.8790651  44.3871987  62.4524061 114.7963249  43.4041503  62.0610402
 116.7547768  26.4478065  50.4426847 115.8777235  26.3266865  50.0789094
 117.2305521  25.6564143  50.1905736 108.2749908  31.2355224  60.5368354
 108.9620948  30.9216954  59.9489370 108.1198037  32.1396589  60.2635606
 113.0784631  26.1245421  64.9653378 112.9942819  25.5171090  64.2303788
 112.2567337  26.6154439  64.9662875 120.1521915  39.5632585  64.1786546
 120.0792086  40.3687556  64.6905851 119.7099308  39.7624551  63.3534568
 119.9411694  38.8004355  57.6889368 119.1579216  39.3426035  57.7827592
 120.6404439  39.3178335  58.0883609 119.8343313  26.7516367  60.0595258
 119.4641101  26.1987408  60.7476163 120.3302406  26.1474501  59.5070258
 117.6632512  37.2113862  67.1550276 118.3641971  37.8450345  67.3079670
 117.1927627  37.5528594  66.3945915 121.5121371  30.5078281  71.4668863
 120.8362008  30.4072410  72.1371238 122.3349005  30.3517495  71.9304860
 113.2600230  36.7450218  64.0881378 113.8453667  35.9993905  64.2209283
 113.0625068  37.0554174  64.9718042 116.1138885  39.7801465  59.1043821
 115.4449260  40.2647593  58.6207861 115.9751755  40.0270685  60.0187199
 107.8517884  29.3155818  62.8085822 107.8901984  28.7819408  63.6022940
 107.3458177  28.7891023  62.1896799 120.2544154  41.8145208  65.7026479
 120.8062462  41.9776830  66.4675564 120.5950347  42.4049646  65.0306504
 115.2308647  24.1620358  66.3048364 115.2949973  25.0235189  65.8925762
 115.1675767  23.5494360  65.5720722 114.7060919  26.2343491  69.9521398
 115.3332958  25.8520568  70.5658922 113.8488838  26.0157693  70.3177091
 111.4826462  28.0419920  55.8839753 111.7779903  27.1330598  55.8306807
 110.5814498  28.0207659  55.5620755 115.0120709  26.1175916  61.8667302
 114.2907295  26.7311884  61.7274775 115.8013965  26.6533681  61.7883948
 117.8147023  23.4530343  68.1407953 118.3381424  23.6992639  68.9034263
 117.5959356  24.2850378  67.7211091 113.2114304  25.7234018  56.0079078
 112.8827010  24.8431396  55.8254184 113.5653674  25.6681686  56.8955467
 116.3256127  26.0106987  56.3754556 116.6652199  26.5392909  55.6533164
 116.7728247  26.3487393  57.1513122 119.0199568  24.3944038  65.8257624
 118.6796388  23.5951851  66.2278304 118.3138574  24.6945749  65.2534457
 119.6716039  21.4793350  64.2784947 120.4942109  21.0053829  64.1563837
 119.9154103  22.2583834  64.7783633 118.3124274  24.5081609  54.5747849
 119.0332636  24.8862862  54.0711565 117.6889578  25.2270486  54.6782827
 117.1954618  28.1712471  62.0876926 117.0499199  28.4852774  62.9801207
 116.7179822  28.7897371  61.5347824 119.0551001  25.1615019  62.1357815
 119.0412570  24.2656112  61.7990113 119.7723429  25.1685683  62.7696101
 120.9077132  25.5952359  64.1810943 120.6494910  26.5169430  64.1795273
 120.3762172  25.1982794  64.8711407 111.6700280  30.7117816  65.0264587
 111.1253748  31.4877623  65.1584861 112.5479630  31.0588620  64.8683708
 118.4587897  24.0429399  57.4045385 118.5803808  23.1146046  57.6036273
 118.1689939  24.0568085  56.4923701 121.3279087  21.7284310  60.5412105
 121.3500784  21.7923643  59.5864085 121.7447146  20.8888818  60.7352611
 112.4566302  29.8387712  67.9194744 111.7148038  29.9870347  68.5059374
 112.1359047  30.0995977  67.0561493 120.4009965  39.3803690  67.7175134
 120.7097091  39.1352837  68.5897833 121.1985447  39.5850328  67.2294004
 120.4230577  41.5341600  59.9480510 119.9835567  41.0417978  60.6413367
 121.1738694  40.9914567  59.7072585 112.9022916  37.7253140  59.9505138
 113.7280936  37.4256912  59.5703782 112.5516968  36.9560763  60.3994927
 117.8704449  37.0779609  62.0202812 117.2484458  36.4150314  61.7205040
 118.5409316  37.1040741  61.3376460 111.1031521  35.6439467  60.9094072
 110.2663429  35.2161641  60.7278073 111.0755166  35.8371910  61.8464863
 117.9428977  25.5561397  71.6135318 117.9917132  26.4323520  71.2313087
 118.4851491  25.0138790  71.0406961 117.4317956  35.6283532  55.4961272
 117.5806076  36.3118996  54.8427945 118.2384399  35.6088622  56.0110728
 120.1728265  26.3092769  68.3681676 119.3031574  26.6026335  68.0964265
 120.4087745  26.8933214  69.0888940 115.1870589  31.6548710  56.5022341
 114.9416631  30.7511040  56.7002551 115.3566504  31.6565860  55.5601819
 114.4566237  27.3877067  54.0008503 113.7635481  27.4621422  53.3448539
 114.2117988  26.6237411  54.5230020 120.9313362  38.1231663  52.9673020
 120.3587329  38.7421850  52.5143492 121.5046155  38.6731024  53.5012942
 121.3160160  29.4592475  50.3089072 122.2619265  29.3298683  50.3777490
 120.9374405  28.7207137  50.7858500 121.1998853  33.5110221  71.7689729
 122.1201862  33.6888820  71.9629776 121.1648436  32.5666267  71.6169429
 119.5003077  27.3842452  50.2443957 118.5934533  27.0875564  50.3206671
 119.7779058  27.0872270  49.3778244 110.4181018  28.7048815  60.6943004
 110.0983802  27.8514123  60.4017378 109.8714446  28.9197393  61.4500971
 114.1960925  31.4211256  64.4112510 114.4146935  32.3528364  64.4300544
 114.6086699  31.0619230  65.1967314 121.1165143  21.9279341  56.3988199
 120.3065871  21.5826426  56.7743445 121.8049560  21.6186885  56.9875810
 119.0688790  26.9944462  73.8015259 118.9685517  27.9438819  73.7327350
 118.8510332  26.6662701  72.9291329 118.2701862  24.2429387  50.3855937
 119.1321026  24.5684285  50.6451754 118.4552206  23.4560883  49.8729002
 110.2869278  32.3251727  62.6636125 109.5932749  31.9105679  62.1506080
 111.0342269  32.3672263  62.0669544 118.9320060  30.4241601  72.6180321
 118.4487142  31.2241961  72.8244210 119.0181000  30.4349546  71.6647765
 112.2006020  32.2569980  60.5402140 112.1776708  32.3557668  59.5884023
 112.5106657  33.1035131  60.8619306 114.8593398  34.3146135  64.6548755
 115.8136652  34.2830078  64.5878686 114.6605922  33.8536759  65.4698981
 115.4492780  32.8847251  67.2219552 116.2685669  33.3791330  67.2454390
 115.7229588  31.9679220  67.1937120 113.2143627  39.8565755  61.6718953
 113.0798095  39.0966156  61.1056951 112.7975689  40.5806655  61.2047742
 116.3712753  40.7535072  61.8837395 116.2545137  41.6980504  61.7816086
 115.5505199  40.4508633  62.2723194 110.7027694  27.2185385  67.9211749
 111.3486558  26.7084339  68.4098975 110.4944845  27.9554067  68.4955175
 119.2231305  21.4825430  53.6735646 119.2109975  22.4267270  53.8303917
 120.1154727  21.2995575  53.3795107 117.3967267  41.4063334  65.0993324
 118.2994513  41.4386944  65.4159819 117.1704637  40.4763785  65.1139660
 119.1520869  40.1594320  61.7603402 118.2016500  40.1596182  61.6467775
 119.4553355  39.4127055  61.2439437 115.0425185  24.3653002  72.0186764
 115.9056647  24.0089807  72.2290088 114.4690596  24.0266897  72.7062168
 121.9008619  43.3915240  64.0072399 122.1516657  44.2762250  64.2729975
 122.4368167  43.2119841  63.2347491 119.1143663  46.5647142  60.5368354
 119.8014703  46.2508872  59.9489370 118.9591792  47.4688507  60.2635606
 118.6911639  44.6447735  62.8085822 118.7295738  44.1111326  63.6022940
 118.1851932  44.1182941  62.1896799 121.9425275  50.9731385  60.9094072
 121.1057184  50.5453559  60.7278073 121.9148921  51.1663828  61.8464863
 121.2574772  44.0340733  60.6943004 120.9377556  43.1806041  60.4017378
 120.7108200  44.2489311  61.4500971 121.1263032  47.6543644  62.6636125
 120.4326503  47.2397597  62.1506080 121.8736023  47.6964181  62.0669544
 121.5421449  42.5477303  67.9211749 122.1880312  42.0376257  68.4098975
 121.3338600  43.2845985  68.4955175 118.0007224  18.0130191  44.3542147
 117.9231254  18.9638016  44.4330628 117.3968868  17.6676064  45.0117073
 115.6394054  20.7615585  48.4990349 115.8790652  21.3934109  49.1769368
 114.7963251  20.4103625  48.7855708 116.1138886  16.7863587  45.8289127
 115.4449262  17.2709715  45.3453168 115.9751756  17.0332808  46.7432506
 120.2544155  18.8207331  52.4271786 120.8062463  18.9838953  53.1920871
 120.5950348  19.4111769  51.7551811 120.4230578  18.5403722  46.6725817
 119.9835568  18.0480101  47.3658673 121.1738695  17.9976690  46.4317892
 113.2143628  16.8627877  48.3964259 113.0798096  16.1028278  47.8302257
 112.7975690  17.5868777  47.9293048 116.3712754  17.7597194  48.6082702
 116.2545138  18.7042627  48.5061392 115.5505200  17.4570756  48.9968501
 117.3967268  18.4125456  51.8238630 118.2994515  18.4449067  52.1405125
 117.1704638  17.4825907  51.8384966 121.9008620  20.3977362  50.7317706
 122.1516658  21.2824372  50.9975282 122.4368168  20.2181964  49.9592798
 119.1143664  23.5709265  47.2613661 119.8014704  23.2570995  46.6734676
 118.9591793  24.4750629  46.9880913 118.6911640  21.6509858  49.5331128
 118.7295740  21.1173449  50.3268246 118.1851933  21.1245064  48.9142105
 121.9425277  27.9793507  47.6339378 121.1057185  27.5515682  47.4523380
 121.9148922  28.1725951  48.5710170 121.2574773  21.0402855  47.4188311
 120.9377558  20.1868164  47.1262685 120.7108201  21.2551433  48.1746278
 121.1263033  24.6605767  49.3881432 120.4326505  24.2459720  48.8751387
 121.8736024  24.7026303  48.7914851 121.5421450  19.5539426  54.6457056
 122.1880314  19.0438380  55.1344281 121.3338601  20.2908107  55.2200481
  25.3197956  63.4322308 119.1631567  24.6459654  63.7354005 119.7716525
  25.7063778  64.2351389 118.8137024  27.4105426  55.2230521 117.6979007
  26.7934596  54.4977349 117.6012059  26.9421914  55.9839882 117.3546081
  29.2854696  61.0107792 120.4371390  29.9805601  61.6314484 120.6558705
  29.6277847  60.1603143 120.7123768  23.3769565  61.1169543 119.3446484
  22.8043532  61.7359731 118.8916955  23.9502359  61.6668905 119.8786405
  26.5966825  61.4006694 120.4755066  27.5297498  61.3352255 120.6787941
  26.5090037  62.2362960 120.0169598  29.2254841  60.7172564 117.4359013
  29.1468473  60.3832428 118.3294771  30.0464508  61.2094332 117.4350486
  26.7958793  58.0340559 117.0568992  27.4994643  58.2390562 117.6726647
  26.0721442  58.6017321 117.3218075  28.7045490  58.4723089 119.1067452
  29.5391094  58.0404287 118.9244927  28.5429833  58.3005102 120.0344346
  37.3329766  68.9892740 129.2022628  37.9708176  68.8699487 128.4985969
  37.2150608  69.9373584 129.2610581  34.1419472  68.9420168 129.1384153
  33.8037983  68.8261232 128.2504688  35.0109240  68.5411333 129.1185159
  30.0006288  70.7955644 125.1281044  29.4371153  70.7045581 124.3597332
  29.8858683  69.9755549 125.6083537  35.5805846  74.4626612 120.4395509
  34.9293826  75.0480692 120.0529523  36.3750209  74.9932807 120.4990546
  29.5061473  71.5515749 120.8382643  30.2792349  71.0044736 120.6995519
  29.8586872  72.4159998 121.0497105  31.8427751  67.7108415 118.4701093
  32.0953272  67.1889936 117.7084556  30.9052310  67.5474561 118.5727777
  36.8871034  66.7144194 126.2775837  37.6734123  66.2963617 125.9266254
  37.1509738  67.6190286 126.4457485  37.0581111  72.1517044 120.9764493
  36.4226944  72.2251670 121.6885398  36.7278518  72.7410643 120.2983573
  42.2879461  66.6519427 127.1808815  43.0204633  66.0818644 127.4146645
  41.5318817  66.2641027 127.6215321  31.5624040  69.6136521 120.6725468
  31.4460298  68.9381424 121.3406553  31.6726300  69.1268895 119.8557621
  33.9055581  69.0746668 124.3772157  33.5413788  68.5477289 125.0885079
  34.7622697  68.6845137 124.2038643  33.5461068  64.1036568 119.3733506
  33.7135470  64.9716804 119.7403977  33.3558237  64.2663850 118.4494795
  36.3036401  72.5653547 131.0399336  36.0037124  73.4678586 130.9315144
  35.9587461  72.2985730 131.8920489  39.7033545  65.0836087 128.7196774
  38.7950422  65.0151495 128.4255535  39.6521141  65.5608032 129.5478599
  33.5250289  66.5594225 120.3580173  33.4049914  67.0051276 121.1965653
  32.8302877  66.9079543 119.7993711  31.2857181  79.3297867 124.0070304
  31.2081211  80.2805692 124.0858785  30.6818824  78.9843740 124.6645230
  39.2235355  67.0315699 121.1860507  40.1353211  67.2643085 121.0108204
  38.7145002  67.6152743 120.6235585  37.8304937  72.0141517 128.5774088
  37.2013800  72.1787231 127.8750156  37.4430599  72.4283127 129.3485052
  41.7094169  72.9495955 125.9318452  41.0245207  73.3294856 125.3815485
  41.7938018  73.5591282 126.6650400  33.3832899  71.7515925 125.8424173
  33.8471245  72.0303628 125.0528796  33.1189697  70.8499370 125.6597264
  32.3201785  67.8739078 122.6513739  33.0225828  68.3260121 123.1187665
  31.9882414  67.2322896 123.2793632  40.0790929  73.4727869 130.7036153
  40.9008372  73.0708057 130.4218835  40.0753332  73.3696103 131.6552269
  48.1696922  69.8166618 127.0521124  47.4160630  69.2474016 126.8965129
  48.3044463  69.7829282 127.9991759  33.5595550  74.6880020 122.7275844
  33.4241225  75.5331556 123.1560692  34.1005362  74.8899298 121.9641778
  27.0124947  72.2055458 123.3003769  27.5249468  72.9998708 123.4509334
  27.6647660  71.5081749 123.2337370  28.8219832  75.3221214 125.3826522
  28.9986460  76.2439179 125.1947506  29.6176665  75.0079634 125.8120902
  24.9773864  70.5344112 124.0763339  25.8149086  70.9441121 123.8597047
  25.1552132  69.5943555 124.0463533  36.8738296  68.2019193 119.7647172
  36.3584919  68.9723798 120.0035560  36.6015605  67.5284329 120.3880234
  34.4585407  63.0468894 124.8232411  33.6027003  62.6575744 124.6438049
  34.8712359  63.1260855 123.9632196  41.8472570  70.9551548 121.7000346
  41.0702013  70.6162707 121.2555508  42.5264051  70.9604171 121.0255311
  36.6624599  66.0746285 121.5906954  36.3574735  66.3892434 122.4417097
  37.6155041  66.1527705 121.6334287  35.1071031  72.2336509 123.2399908
  34.5792393  71.4989268 122.9273145  34.6058534  73.0111185 122.9939876
  40.0863877  70.4285529 128.3566954  39.4287552  71.1184790 128.4447082
  40.8904276  70.8181961 128.7000940  38.8969336  68.7829902 126.4070896
  39.4101218  69.4159894 126.9092605  39.5470560  68.1831097 126.0414256
  30.1659346  64.9260636 119.6202404  29.3296658  65.2635322 119.9411679
  30.0264115  64.7909616 118.6829541  33.2523631  70.0516719 116.2434881
  32.3450693  69.8205972 116.4426030  33.7494663  69.2554338 116.4308862
  36.1591710  78.7614226 119.1631567  35.4853409  79.0645923 119.7716525
  36.5457532  79.5643306 118.8137024  36.1585215  67.6570773 123.7831916
  36.9057033  68.1692170 123.4739038  36.4276804  67.3354826 124.6436310
  34.4311865  70.1529314 120.7658871  33.5223084  69.8688346 120.8631340
  34.4606949  70.5728392 119.9062177  39.6631132  73.7635903 124.5350038
  39.2093459  72.9226813 124.5915229  39.0325099  74.3997302 124.8724818
  38.6064052  64.6927889 125.7650706  37.8686808  64.1805275 126.0960948
  38.8590825  64.2528271 124.9533983  38.1064071  75.6012400 125.4699856
  38.3987046  76.1617457 124.7512222  38.6162692  75.8940961 126.2253015
  32.9796759  67.7657934 126.8668666  33.0345369  66.8131771 126.7911143
  32.1687961  67.9217373 127.3509964  34.1287953  71.6938057 118.1046949
  33.6907382  70.9773916 117.6452587  34.8698393  71.9214172 117.5432041
  30.9189119  66.3834994 124.6259045  30.1056984  66.6829165 125.0324237
  31.4148113  65.9890683 125.3433527  33.0697697  76.3792751 126.5593310
  33.0273875  76.6053597 125.6301842  33.9860395  76.1456126 126.7079111
  42.2461067  69.9695254 124.1623268  42.1078966  70.1596850 123.2344457
  41.8897286  70.7314637 124.6191319  42.2730447  72.0371781 129.1734539
  42.7066954  71.9447070 130.0217593  42.9862028  72.0129282 128.5354555
  31.1863497  73.2555780 126.3555272  31.9804096  72.7606100 126.1537847
  30.4755190  72.7273643 125.9922978  36.0058342  75.6373875 130.7067640
  36.0595364  76.2064812 131.4745356  35.1373123  75.8075761 130.3421677
  27.4946261  67.3998862 122.4315025  26.5643849  67.3383317 122.6484987
  27.5903733  66.8774814 121.6351666  43.1345996  72.0795482 131.7067425
  43.3281887  72.9841293 131.9526700  43.0346615  71.6202901 132.5406010
  33.7634773  73.8284802 130.0353109  33.6245859  73.4603586 130.9079047
  32.9749370  74.3432441 129.8637067  34.3582925  78.9293898 121.3778646
  34.5334681  78.4581942 122.1924269  33.6715713  79.5559665 121.6059907
  35.3139988  73.2066405 127.4241947  34.9789821  73.1667175 128.3199597
  34.8143934  72.5411121 126.9512357  38.2499180  70.5522439 117.6979007
  37.6328351  69.8269267 117.6012059  37.7815669  71.3131799 117.3546081
  30.0397726  64.7707863 116.8200311  29.1627192  64.6496664 116.4562558
  30.5155479  63.9793942 116.5679200  33.2261652  77.1234154 124.0662832
  32.4429174  77.6655834 124.1601056  33.9254397  77.6408133 124.4657073
  36.5358302  62.9328783 126.7097037  37.0327002  62.1798745 126.3898107
  35.7645284  62.9693100 126.1440246  44.3888060  68.6369149 128.3515328
  44.3777936  69.5193864 127.9809262  43.5205439  68.2840699 128.1569866
  37.6188083  71.6900470 124.2835460  36.6844362  71.8101933 124.1140165
  37.7964751  70.7872937 124.0195470  41.0060634  67.5317790 124.8185495
  41.4721086  68.3645781 124.7445797  41.4568135  67.0662771 125.5230753
  39.0736865  73.8761611 121.8171647  39.3496709  73.7618205 122.7265521
  38.2041364  73.4779096 121.7783820  35.7090929  78.1247962 125.4604460
  35.8913324  77.3069618 125.9232212  36.5323915  78.3415654 125.0229350
  36.0433095  77.0516147 122.7219509  36.5720861  76.5408601 122.1089671
  36.3061314  76.7358677 123.5865042  24.7676420  66.3649719 122.2613217
  25.0629861  65.4560397 122.2080270  23.8664456  66.3437458 121.9394219
  36.6762499  78.0856983 129.0663625  36.5513638  77.2846722 128.5574571
  37.3341590  78.5803176 128.5777595  38.7397407  75.8866003 130.6943175
  37.7927743  75.7671354 130.6221502  39.0880180  74.9988501 130.7769437
  26.4964261  64.0463816 122.3852542  26.1676968  63.1661195 122.2027648
  26.8503632  63.9911485 123.2728931  35.7443840  75.6818719 126.8947527
  35.5968803  74.7535426 127.0755097  36.5697334  75.7038810 126.4104603
  29.6106085  64.3336786 122.7528020  29.9502157  64.8622707 122.0306628
  30.0578205  64.6717192 123.5286586  39.3477962  76.5047278 127.9812400
  40.2724510  76.2990139 127.8436851  39.1793266  76.2563679 128.8901742
  31.5974232  62.8311408 120.9521312  32.3182594  63.2092660 120.4485029
  30.9739536  63.5500284 121.0556290  35.7405355  63.5356557 121.8879645
  35.9568969  64.4181194 121.5868473  35.2599422  63.1442770 121.1585287
  39.1373278  77.0232945 123.3374492  39.3110156  76.4579368 122.5848344
  39.6302170  77.8233840 123.1553982  31.7437855  62.3659198 123.7818849
  31.8653766  61.4375844 123.9809736  31.4539897  62.3797884 122.8697164
  44.9912670  69.7869368 124.9564791  45.4343816  69.0376693 124.5583915
  44.1139180  69.7779504 124.5738523  40.1248451  76.3399709 120.4371390
  40.8199355  76.9606402 120.6558705  40.4671601  75.4895061 120.7123768
  42.0239874  73.7899415 121.9658721  42.5491198  74.1286688 121.2408041
  41.9362227  72.8546430 121.7821855  33.7080535  79.8571398 126.3253974
  33.2685525  79.3647777 127.0186831  34.4588652  79.3144366 126.0846049
  30.7167914  73.9513331 121.8734736  30.8656034  74.6348795 121.2201409
  31.5234357  73.9318421 122.3884192  43.3349852  73.6921727 134.8284669
  43.0434660  74.0551707 135.6648130  42.7221983  72.9788735 134.6498001
  44.5345534  71.2574606 127.3487239  45.3692426  71.6964410 127.5124799
  44.6704663  70.7813260 126.5295485  28.4720547  69.9778508 122.8795805
  28.2266589  69.0740838 123.0776015  28.6416461  69.9795659 121.9375283
  27.7416194  65.7106866 120.3781966  27.0485439  65.7851221 119.7222002
  27.4967946  64.9467210 120.9003483  34.2163319  76.4461461 119.3446484
  33.6437286  77.0651648 118.8916955  34.7896113  76.9960823 119.8786405
  37.4360579  76.7298611 120.4755066  38.3691252  76.6644173 120.6787941
  37.3483792  77.5654878 120.0169598  40.0648596  76.0464482 117.4359013
  39.9862227  75.7124345 118.3294771  40.8858263  76.5386250 117.4350486
  42.7626787  68.9126221 130.6435332  42.7303107  67.9742222 130.8295016
  43.3727411  68.9910258 129.9101157  34.6010118  67.7822274 116.6862536
  35.5469223  67.6528482 116.7550954  34.2224363  67.0436936 117.1631964
  48.5803337  69.9742228 129.7841369  49.3106725  69.7127516 130.3449072
  47.9710282  69.2370950 129.8243437  46.6618634  68.1150090 130.3815820
  45.9351798  67.9806055 129.7732312  46.2465921  68.4226919 131.1872538
  32.7853035  65.7072250 116.6217421  31.8784490  65.4105363 116.6980135
  33.0629016  65.4102068 115.7551707  34.4015101  60.2509140 122.7761663
  33.5915829  59.9056225 123.1516909  35.0899518  59.9416684 123.3649274
  31.5551820  62.5659186 116.7629400  32.4170984  62.8914084 117.0225218
  31.7402164  61.7790681 116.2502466  39.7084456  61.4387712 123.9064623
  39.1283125  62.0972516 123.5242676  39.4420389  60.6165057 123.4952041
  38.4909334  63.5987802 122.9620972  37.6035189  63.8837453 122.7441166
  38.9063323  63.4381566 122.1148249  41.8423870  63.6234323 126.6775311
  42.6184260  64.1130776 126.9499928  41.1172004  64.0492378 127.1347180
  44.2796429  64.3361943 127.7349252  44.8740920  64.0957679 127.0242560
  44.3523013  63.6169073 128.3622788  37.6352548  73.3632477 117.0568992
  38.3388398  73.5682480 117.6726647  36.9115196  73.9309239 117.3218075
  38.4650358  69.1142338 123.1771262  38.4085559  69.5710890 122.3378894
  39.0178700  68.3533023 122.9994105  42.2755164  64.9032070 124.0021381
  42.0192098  64.5028706 124.8329589  41.6508032  65.6175864 123.8771520
  46.5867502  67.6428143 126.5092673  46.0267060  67.7121333 127.2824235
  45.9811005  67.4669128 125.7892169  39.5439245  73.8015006 119.1067452
  40.3784849  73.3696205 118.9244927  39.3823588  73.6297020 120.0344346
  39.1985137  70.3047120 120.4723791  39.1433941  70.1391391 119.5312235
  38.5731192  71.0123152 120.6285981  32.5081263  59.8055229 120.0509109
  32.4959932  60.7497068 120.2077380  33.4004684  59.6225374 119.7568571
  44.9813226  84.2712085 129.1384153  44.6431738  84.1553150 128.2504688
  45.8502995  83.8703251 129.1185159  40.8400042  86.1247562 125.1281044
  40.2764907  86.0337499 124.3597332  40.7252437  85.3047466 125.6083537
  46.4199601  89.7918530 120.4395509  45.7687581  90.3772610 120.0529523
  47.2143964  90.3224724 120.4990546  40.3455228  86.8807667 120.8382643
  41.1186104  86.3336654 120.6995519  40.6980627  87.7451916 121.0497105
  42.6821506  83.0400333 118.4701093  42.9347026  82.5181854 117.7084556
  41.7446065  82.8766478 118.5727777  47.7264789  82.0436111 126.2775837
  48.5127878  81.6255534 125.9266254  47.9903493  82.9482203 126.4457485
  47.8974866  87.4808961 120.9764493  47.2620699  87.5543588 121.6885398
  47.5672272  88.0702560 120.2983573  53.1273216  81.9811344 127.1808815
  53.8598388  81.4110561 127.4146645  52.3712571  81.5932945 127.6215321
  42.4017794  84.9428439 120.6725468  42.2854053  84.2673342 121.3406553
  42.5120054  84.4560813 119.8557621  44.7449335  84.4038586 124.3772157
  44.3807543  83.8769207 125.0885079  45.6016451  84.0137055 124.2038643
  50.6498636  75.6932918 131.6403424  50.3181961  76.5628329 131.4164639
  50.0544249  75.3769203 132.3197454  44.3854822  79.4328486 119.3733506
  44.5529225  80.3008722 119.7403977  44.1951991  79.5955767 118.4494795
  40.5942637  84.3459261 127.0736041  39.6693134  84.2135475 127.2813733
  40.8427050  85.1253481 127.5705983  44.3644043  81.8886143 120.3580173
  44.2443668  82.3343194 121.1965653  43.6696632  82.2371461 119.7993711
  42.1250935  94.6589785 124.0070304  42.0474965  95.6097610 124.0858785
  41.5212579  94.3135657 124.6645230  50.0629109  82.3607616 121.1860507
  50.9746966  82.5935003 121.0108204  49.5538756  82.9444660 120.6235585
  47.4065084  78.5365652 129.4350368  46.5449563  78.8346906 129.7267105
  47.4327519  78.7536051 128.5031400  44.2226654  87.0807843 125.8424173
  44.6864999  87.3595546 125.0528796  43.9583452  86.1791287 125.6597264
  41.1150735  86.6279324 128.7803937  41.6852092  87.0566593 128.1421421
  41.7058846  86.3461909 129.4788122  43.1595540  83.2030995 122.6513739
  43.8619583  83.6552039 123.1187665  42.8276168  82.5614814 123.2793632
  36.9020874  81.4614548 127.9530872  36.1119928  81.7172076 127.4770983
  37.3932121  82.2762886 128.0582913  38.8535619  81.8259127 124.9114349
  38.0566782  81.9377821 125.4297844  38.6261211  82.1645779 124.0455239
  44.3989304  90.0171938 122.7275844  44.2634979  90.8623474 123.1560692
  44.9399117  90.2191215 121.9641778  37.8518702  87.5347376 123.3003769
  38.3643222  88.3290626 123.4509334  38.5041414  86.8373666 123.2337370
  39.6613586  90.6513132 125.3826522  39.8380215  91.5731097 125.1947506
  40.4570420  90.3371551 125.8120902  47.7481768  73.5402500 131.2574737
  47.4046037  74.4304141 131.1813848  48.1160730  73.3504157 130.3944322
  35.8167618  85.8636030 124.0763339  36.6542840  86.2733038 123.8597047
  35.9945886  84.9235472 124.0463533  47.7132051  83.5311111 119.7647172
  47.1978674  84.3015715 120.0035560  47.4409359  82.8576247 120.3880234
  45.2979162  78.3760812 124.8232411  44.4420758  77.9867662 124.6438049
  45.7106113  78.4552772 123.9632196  46.8278308  75.9107155 129.2223970
  46.3243104  75.8737290 128.4091776  47.1208915  76.8199898 129.2820627
  43.0721194  75.9945885 128.2290152  43.9374191  75.7988693 127.8696042
  43.1398703  75.7656236 129.1559509  52.6866325  86.2843465 121.7000346
  51.9095767  85.9454625 121.2555508  53.3657806  86.2896089 121.0255311
  47.5018354  81.4038203 121.5906954  47.1968489  81.7184352 122.4417097
  48.4548796  81.4819623 121.6334287  45.9464786  87.5628426 123.2399908
  45.4186147  86.8281186 122.9273145  45.4452288  88.3403103 122.9939876
  40.6783513  78.2248092 125.6006519  41.2527265  78.0023274 124.8679712
  41.2654496  78.2936787 126.3535120  49.7363090  84.1121819 126.4070896
  50.2494972  84.7451811 126.9092605  50.3864314  83.5123015 126.0414256
  41.0053100  80.2552554 119.6202404  40.1690413  80.5927240 119.9411679
  40.8657870  80.1201533 118.6829541  42.9806181  75.0989341 124.3281588
  42.3270593  74.7838359 123.7038203  42.9386655  74.4765082 125.0541411
  44.0917386  85.3808636 116.2434881  43.1844447  85.1497890 116.4426030
  44.5888418  84.5846256 116.4308862  46.9985465  94.0906144 119.1631567
  46.3247163  94.3937840 119.7716525  47.3851287  94.8935224 118.8137024
  46.2143921  81.5871275 128.6529236  45.2966483  81.8086222 128.4950924
  46.6304065  81.6617585 127.7940943  46.9978969  82.9862691 123.7831916
  47.7450788  83.4984088 123.4739038  47.2670559  82.6646743 124.6436310
  45.2705619  85.4821231 120.7658871  44.3616838  85.1980264 120.8631340
  45.3000703  85.9020310 119.9062177  49.4457806  80.0219807 125.7650706
  48.7080563  79.5097193 126.0960948  49.6984580  79.5820188 124.9533983
  49.5469433  72.7996059 126.3592475  49.8528310  71.9393422 126.0718390
  50.2722038  73.3913679 126.1591469  35.8393790  83.2026745 124.7474073
  35.6418189  82.6096106 124.0225139  35.2840454  82.8978956 125.4650012
  43.8190513  83.0949852 126.8668666  43.8739123  82.1423688 126.7911143
  43.0081715  83.2509291 127.3509964  44.9681707  87.0229975 118.1046949
  44.5301137  86.3065834 117.6452587  45.7092148  87.2506090 117.5432041
  41.7582873  81.7126912 124.6259045  40.9450739  82.0121082 125.0324237
  42.2541867  81.3182600 125.3433527  53.0854822  85.2987172 124.1623268
  52.9472720  85.4888768 123.2344457  52.7291041  86.0606555 124.6191319
  41.2496948  79.2845267 130.2420280  41.8896327  79.1434026 129.5443243
  40.4174478  78.9979781 129.8658882  42.0257252  88.5847698 126.3555272
  42.8197850  88.0898018 126.1537847  41.3148944  88.0565561 125.9922978
  38.3340015  82.7290779 122.4315025  37.4037603  82.6675235 122.6484987
  38.4297487  82.2066732 121.6351666  38.2525564  79.2545592 125.0193267
  38.5132382  80.1690925 124.9102427  39.0742737  78.7870035 125.1689879
  45.1976680  94.2585816 121.3778646  45.3728435  93.7873859 122.1924269
  44.5109468  94.8851582 121.6059907  49.0892935  85.8814357 117.6979007
  48.4722105  85.1561185 117.6012059  48.6209423  86.6423717 117.3546081
  40.8791481  80.0999781 116.8200311  40.0020947  79.9788582 116.4562558
  41.3549234  79.3085859 116.5679200  44.0655407  92.4526071 124.0662832
  43.2822928  92.9947751 124.1601056  44.7648152  92.9700051 124.4657073
  47.3752057  78.2620701 126.7097037  47.8720756  77.5090663 126.3898107
  46.6039038  78.2985017 126.1440246  48.4581837  87.0192388 124.2835460
  47.5238116  87.1393850 124.1140165  48.6358506  86.1164855 124.0195470
  43.9587025  80.4038084 126.4368722  43.5884813  79.8509124 127.1249627
  44.4546118  79.7996217 125.8843722  51.8454389  82.8609707 124.8185495
  52.3114841  83.6937699 124.7445797  52.2961889  82.3954689 125.5230753
  49.9130620  89.2053529 121.8171647  50.1890464  89.0910123 122.7265521
  49.0435119  88.8071013 121.7783820  49.8171051  75.2290294 128.8576396
  48.9034131  75.4594521 129.0258603  50.2464153  75.3128738 129.7090428
  46.8826849  92.3808065 122.7219509  47.4114616  91.8700519 122.1089671
  47.1455069  92.0650595 123.5865042  39.3552359  77.8142075 132.6821828
  39.4193686  78.6756905 132.2699225  39.2919479  77.2016076 131.9494186
  35.6070174  81.6941636 122.2613217  35.9023615  80.7852315 122.2080270
  34.7058210  81.6729376 121.9394219  39.1364421  79.7697633 128.2440765
  38.4151007  80.3833600 128.1048239  39.9257677  80.3055398 128.1657411
  37.3358016  79.3755734 122.3852542  37.0070722  78.4953113 122.2027648
  37.6897387  79.3203403 123.2728931  40.4499839  79.6628704 122.7528020
  40.7895912  80.1914625 122.0306628  40.8971960  80.0009110 123.5286586
  43.1443280  78.0465754 132.2031088  42.8040100  77.2473567 132.6051768
  42.4382286  78.3467465 131.6307921  43.7959752  75.1315067 130.6558411
  44.6185821  74.6575545 130.5337301  44.0397815  75.9105551 131.1557097
  42.4367986  78.1603325 120.9521312  43.1576349  78.5384578 120.4485029
  41.8133290  78.8792202 121.0556290  46.5799109  78.8648474 121.8879645
  46.7962724  79.7473112 121.5868473  46.0993176  78.4734688 121.1585287
  41.3198331  81.8234187 128.4650389  41.1742911  82.1374491 129.3574671
  40.8423534  82.4419088 127.9121288  43.1794713  78.8136735 128.5131279
  43.1656282  77.9177829 128.1763577  43.8967142  78.8207399 129.1469565
  45.0320844  79.2474076 130.5584406  44.7738622  80.1691146 130.5568737
  44.5005884  78.8504510 131.2484870  42.5831609  77.6951116 123.7818849
  42.7047521  76.7667762 123.9809736  42.2933652  77.7089802 122.8697164
  45.4522800  75.3806026 126.9185569  45.4744497  75.4445359 125.9637548
  45.8690859  74.5410535 127.1126075  50.9642205  91.6691627 120.4371390
  51.6593110  92.2898320 120.6558705  51.3065355  90.8186978 120.7123768
  52.8633628  89.1191333 121.9658721  53.3884953  89.4578605 121.2408041
  52.7755981  88.1838348 121.7821855  41.5561668  89.2805248 121.8734736
  41.7049789  89.9640713 121.2201409  42.3628112  89.2610338 122.3884192
  39.3114301  85.3070426 122.8795805  39.0660343  84.4032756 123.0776015
  39.4810216  85.3087576 121.9375283  47.0011011  76.1794102 132.2620561
  47.5192955  76.9155129 131.9367049  46.6466144  76.4858096 133.0967320
  38.5809949  81.0398784 120.3781966  37.8879194  81.1143139 119.7222002
  38.3361701  80.2759127 120.9003483  47.2523605  72.5994385 127.7821457
  47.5325359  71.9317574 128.4081884  48.0374212  72.7923481 127.2696121
  45.0557074  91.7753379 119.3446484  44.4831041  92.3943566 118.8916955
  45.6289867  92.3252741 119.8786405  48.2754334  92.0590529 120.4755066
  49.2085007  91.9936091 120.6787941  48.1877546  92.8946796 120.0169598
  50.9042350  91.3756399 117.4359013  50.8255982  91.0416263 118.3294771
  51.7252017  91.8678167 117.4350486  45.4403872  83.1114192 116.6862536
  46.3862977  82.9820400 116.7550954  45.0618117  82.3728853 117.1631964
  51.4125757  74.7770198 126.6489428  51.2150578  74.4685286 127.5332760
  52.0225462  75.5031837 126.7787358  43.6246789  81.0364168 116.6217421
  42.7178245  80.7397281 116.6980135  43.9022770  80.7393986 115.7551707
  45.2408855  75.5801058 122.7761663  44.4309584  75.2348143 123.1516909
  45.9293272  75.2708601 123.3649274  47.1699403  74.6579105 124.3985959
  47.7230442  75.0774558 125.0575982  47.4069490  73.7314853 124.4408915
  42.3945574  77.8951103 116.7629400  43.2564738  78.2206002 117.0225218
  42.5795918  77.1082599 116.2502466  50.5478211  76.7679630 123.9064623
  49.9676880  77.4264434 123.5242676  50.2814143  75.9456974 123.4952041
  48.9981777  76.1684687 126.1085944  49.4981555  76.2801222 125.3000263
  49.6417385  75.8645740 126.7486752  49.3303089  78.9279720 122.9620972
  48.4428944  79.2129371 122.7441166  49.7457078  78.7673483 122.1148249
  52.6817625  78.9526241 126.6775311  53.4578015  79.4422693 126.9499928
  51.9565759  79.3784295 127.1347180  55.1190183  79.6653860 127.7349252
  55.7134674  79.4249596 127.0242560  55.1916767  78.9460991 128.3622788
  48.4746302  88.6924395 117.0568992  49.1782152  88.8974397 117.6726647
  47.7508951  89.2601157 117.3218075  49.3044112  84.4434256 123.1771262
  49.2479314  84.9002807 122.3378894  49.8572455  83.6824941 122.9994105
  53.1148918  80.2323988 124.0021381  52.8585852  79.8320624 124.8329589
  52.4901786  80.9467782 123.8771520  50.3832999  89.1306924 119.1067452
  51.2178603  88.6988122 118.9244927  50.2217342  88.9588938 120.0344346
  50.0378892  85.6339037 120.4723791  49.9827695  85.4683309 119.5312235
  49.4124947  86.3415070 120.6285981  43.3475017  75.1347146 120.0509109
  43.3353687  76.0788986 120.2077380  44.2398439  74.9517292 119.7568571
  47.1627137  71.7289923 124.3055046  46.3959532  71.1748410 124.4511729
  47.5737842  71.8011792 125.1669198  51.8446855  95.5844471 119.6202404
  51.0084167  95.9219158 119.9411679  51.7051624  95.4493451 118.6829541
  51.7185235  95.4291699 116.8200311  50.8414701  95.3080499 116.4562558
  52.1942988  94.6377777 116.5679200  49.4203703  96.3690701 120.3781966
  48.7272948  96.4435056 119.7222002  49.1755455  95.6051045 120.9003483
  54.4640544  96.3656086 116.6217421  53.5571999  96.0689198 116.6980135
  54.7416525  96.0685904 115.7551707  53.2339329  93.2243021 116.7629400
  54.0958493  93.5497919 117.0225218  53.4189673  92.4374517 116.2502466
  54.1868772  90.4639064 120.0509109  54.1747441  91.4080904 120.2077380
  55.0792193  90.2809209 119.7568571  25.3197957  40.4384431 105.8876873
  24.6459656  40.7416128 106.4961831  25.7063779  41.2413511 105.5382330
  27.4105427  32.2292644 104.4224313  26.7934598  31.5039472 104.3257366
  26.9421915  32.9902004 104.0791388  29.2854698  38.0169914 107.1616697
  29.9805602  38.6376607 107.3804011  29.6277848  37.1665266 107.4369074
  23.3769566  38.1231666 106.0691790  22.8043533  38.7421853 105.6162262
  23.9502360  38.6731028 106.6031712  26.5966826  38.4068816 107.2000372
  27.5297499  38.3414378 107.4033248  26.5090039  39.2425083 106.7414905
  29.2254843  37.7234687 104.1604320  29.1468474  37.3894550 105.0540078
  30.0464509  38.2156454 104.1595792  26.7958794  35.0402682 103.7814298
  27.4994644  35.2452684 104.3971954  26.0721443  35.6079444 104.0463382
  28.7045492  35.4785211 105.8312758  29.5391096  35.0466410 105.6490233
  28.5429835  35.3067225 106.7589653  37.3329767  45.9954862 115.9267935
  37.9708177  45.8761610 115.2231275  37.2150610  46.9435706 115.9855887
  34.1419473  45.9482290 115.8629460  33.8037985  45.8323355 114.9749995
  35.0109241  45.5473455 115.8430466  30.0006289  47.8017767 111.8526351
  29.4371154  47.7107704 111.0842638  29.8858684  46.9817671 112.3328843
  35.5805848  51.4688734 107.1640816  34.9293827  52.0542815 106.7774829
  36.3750210  51.9994929 107.2235853  29.5061475  48.5577872 107.5627950
  30.2792351  48.0106859 107.4240826  29.8586874  49.4222121 107.7742411
  31.8427752  44.7170538 105.1946400  32.0953273  44.1952059 104.4329863
  30.9052312  44.5536683 105.2973084  36.8871035  43.7206316 113.0021143
  37.6734125  43.3025739 112.6511560  37.1509740  44.6252408 113.1702792
  37.0581113  49.1579166 107.7009800  36.4226946  49.2313793 108.4130705
  36.7278519  49.7472765 107.0228879  42.2879462  43.6581549 113.9054122
  43.0204634  43.0880766 114.1391951  41.5318818  43.2703150 114.3460627
  31.5624041  46.6198644 107.3970775  31.4460299  45.9443547 108.0651859
  31.6726301  46.1331018 106.5802928  33.9055582  46.0808791 111.1017464
  33.5413789  45.5539412 111.8130386  34.7622698  45.6907260 110.9283950
  33.5461069  41.1098690 106.0978813  33.7135471  41.9778927 106.4649284
  33.3558238  41.2725972 105.1740102  36.3036402  49.5715669 117.7644643
  36.0037125  50.4740708 117.6560450  35.9587462  49.3047853 118.6165796
  39.7033546  42.0898210 115.4442080  38.7950423  42.0213618 115.1500841
  39.6521142  42.5670155 116.2723906  33.5250290  43.5656348 107.0825479
  33.4049915  44.0113399 107.9210960  32.8302878  43.9141666 106.5239018
  31.2857182  56.3359990 110.7315611  31.2081212  57.2867815 110.8104091
  30.6818826  55.9905862 111.3890537  39.2235356  44.0377821 107.9105813
  40.1353212  44.2705208 107.7353511  38.7145003  44.6214865 107.3480892
  37.8304938  49.0203640 115.3019395  37.2013801  49.1849354 114.5995463
  37.4430601  49.4345249 116.0730359  41.7094170  49.9558077 112.6563759
  41.0245209  50.3356979 112.1060792  41.7938020  50.5653404 113.3895706
  33.3832900  48.7578048 112.5669480  33.8471246  49.0365751 111.7774103
  33.1189698  47.8561492 112.3842571  32.3201786  44.8801200 109.3759045
  33.0225830  45.3322244 109.8432972  31.9882415  44.2385019 110.0038938
  40.0790930  50.4789992 117.4281460  40.9008374  50.0770179 117.1464141
  40.0753333  50.3758226 118.3797575  48.1696923  46.8228740 113.7766431
  47.4160631  46.2536138 113.6210435  48.3044464  46.7891405 114.7237066
  33.5595551  51.6942143 109.4521150  33.4241226  52.5393678 109.8805998
  34.1005364  51.8961420 108.6887084  27.0124948  49.2117581 110.0249075
  27.5249469  50.0060831 110.1754640  27.6647661  48.5143871 109.9582677
  28.8219833  52.3283337 112.1071829  28.9986461  53.2501302 111.9192813
  29.6176667  52.0141756 112.5366208  29.9451149  53.8461511 118.1082171
  30.4958574  53.7178574 117.3359165  29.1062624  54.1456400 117.7577064
  24.9773865  47.5406235 110.8008646  25.8149087  47.9503243 110.5842354
  25.1552133  46.6005677 110.7708840  36.8738297  45.2081316 106.4892479
  36.3584921  45.9785920 106.7280866  36.6015606  44.5346452 107.1125540
  34.4585408  40.0531016 111.5477717  33.6027005  39.6637867 111.3683356
  34.8712360  40.1322977 110.6877503  41.8472571  47.9613670 108.4245652
  41.0702014  47.6224830 107.9800815  42.5264052  47.9666294 107.7500618
  36.6624600  43.0808408 108.3152260  36.3574736  43.3954557 109.1662403
  37.6155043  43.1589828 108.3579593  35.1071032  49.2398631 109.9645214
  34.5792394  48.5051391 109.6518452  34.6058535  50.0173307 109.7185182
  40.0863878  47.4347652 115.0812260  39.4287553  48.1246913 115.1692389
  40.8904278  47.8244084 115.4246247  38.8969337  45.7892024 113.1316202
  39.4101219  46.4222016 113.6337912  39.5470561  45.1893220 112.7659562
  30.1659347  41.9322758 106.3447711  29.3296659  42.2697445 106.6656986
  30.0264117  41.7971738 105.4074848  33.2523633  47.0578841 102.9680187
  32.3450694  46.8268095 103.1671336  33.7494665  46.2616461 103.1554169
  36.1591711  55.7676349 105.8876873  35.4853410  56.0708045 106.4961831
  36.5457533  56.5705429 105.5382330  36.1585216  44.6632896 110.5077223
  36.9057035  45.1754293 110.1984345  36.4276805  44.3416948 111.3681617
  34.4311866  47.1591436 107.4904177  33.5223085  46.8750469 107.5876647
  34.4606950  47.5790515 106.6307484  39.6631133  50.7698026 111.2595345
  39.2093460  49.9288936 111.3160535  39.0325100  51.4059424 111.5970125
  38.6064053  41.6990012 112.4896012  37.8686810  41.1867398 112.8206255
  38.8590826  41.2590393 111.6779289  38.1064073  52.6074522 112.1945163
  38.3987047  53.1679580 111.4757529  38.6162693  52.9003083 112.9498322
  32.9796760  44.7720057 113.5913973  33.0345370  43.8193893 113.5156449
  32.1687962  44.9279496 114.0755271  34.1287954  48.7000180 104.8292256
  33.6907384  47.9836039 104.3697893  34.8698395  48.9276295 104.2677347
  30.9189120  43.3897117 111.3504351  30.1056985  43.6891287 111.7569544
  31.4148114  42.9952805 112.0678834  33.0697698  53.3854874 113.2838616
  33.0273877  53.6115720 112.3547148  33.9860397  53.1518248 113.4324417
  42.2461069  46.9757377 110.8868574  42.1078967  47.1658973 109.9589764
  41.8897287  47.7376760 111.3436626  42.2730448  49.0433904 115.8979846
  42.7066955  48.9509193 116.7462900  42.9862029  49.0191404 115.2599862
  31.1863499  50.2617903 113.0800579  31.9804097  49.7668223 112.8783154
  30.4755191  49.7335766 112.7168284  36.0058343  52.6435998 117.4312947
  36.0595365  53.2126934 118.1990662  35.1373124  52.8137883 117.0666984
  27.4946262  44.4060984 109.1560332  26.5643850  44.3445440 109.3730294
  27.5903734  43.8836937 108.3596973  43.1345998  49.0857605 118.4312731
  43.3281888  49.9903415 118.6772006  43.0346616  48.6265024 119.2651316
  33.7634775  50.8346925 116.7598416  33.6245860  50.4665709 117.6324354
  32.9749371  51.3494564 116.5882374  34.3582927  55.9356021 108.1023953
  34.5334682  55.4644064 108.9169575  33.6715715  56.5621787 108.3305213
  35.3139990  50.2128527 114.1487254  34.9789822  50.1729297 115.0444904
  34.8143935  49.5473243 113.6757664  38.2499181  47.5584562 104.4224313
  37.6328352  46.8331390 104.3257366  37.7815670  48.3193922 104.0791388
  28.9244012  59.0845384 114.8763813  29.1640610  59.7163908 115.5542831
  28.0813208  58.7333424 115.1629172  30.0397727  41.7769986 103.5445618
  29.1627194  41.6558787 103.1807864  30.5155480  40.9856064 103.2924506
  33.4371874  54.8924506 117.2805317  33.3642045  55.6979478 117.7924621
  32.9949267  55.0916472 116.4553338  33.2261653  54.1296276 110.7908138
  32.4429175  54.6717956 110.8846363  33.9254398  54.6470256 111.1902379
  36.5358303  39.9390906 113.4342344  37.0327003  39.1860868 113.1143414
  35.7645285  39.9755222 112.8685553  44.3888061  45.6431271 115.0760635
  44.3777937  46.5255987 114.7054568  43.5205440  45.2902822 114.8815172
  35.8970557  54.7911340 119.4363475  36.6098529  55.4258805 119.3639377
  35.4060586  54.8875206 118.6203477  37.6188084  48.6962593 111.0080767
  36.6844363  48.8164055 110.8385471  37.7964753  47.7935060 110.7440777
  41.0060635  44.5379912 111.5430801  41.4721088  45.3707904 111.4691104
  41.4568136  44.0724894 112.2476060  39.0736867  50.8823733 108.5416953
  39.3496710  50.7680328 109.4510827  38.2041365  50.4841218 108.5029126
  35.7090931  55.1310084 112.1849767  35.8913325  54.3131740 112.6477519
  36.5323917  55.3477777 111.7474657  36.0433096  54.0578269 109.4464815
  36.5720863  53.5470724 108.8334977  36.3061316  53.7420800 110.3110348
  29.3988844  55.1093386 112.2062591  28.7299219  55.5939514 111.7226631
  29.2601714  55.3562607 113.1205970  33.5394113  57.1437130 118.8045250
  34.0912421  57.3068751 119.5694335  33.8800306  57.7341567 118.1325274
  24.7676421  43.3711841 108.9858523  25.0629862  42.4622520 108.9325577
  23.8664457  43.3499581 108.6639526  36.6762500  55.0919105 115.7908932
  36.5513639  54.2908845 115.2819877  37.3341591  55.5865299 115.3022902
  38.7397408  52.8928125 117.4188482  37.7927744  52.7733476 117.3466809
  39.0880181  52.0050623 117.5014743  26.4964263  41.0525939 109.1097849
  26.1676969  40.1723318 108.9272954  26.8503633  40.9973607 109.9974238
  35.7443842  52.6880841 113.6192834  35.5968804  51.7597549 113.8000404
  36.5697335  52.7100932 113.1349909  29.6106086  41.3398909 109.4773326
  29.9502158  41.8684830 108.7551935  30.0578206  41.6779315 110.2531893
  39.3477963  53.5109400 114.7057707  40.2724511  53.3052262 114.5682158
  39.1793267  53.2625801 115.6147048  31.5974233  39.8373530 107.6766619
  32.3182596  40.2154783 107.1730336  30.9739537  40.5562407 107.7801597
  35.7405356  40.5418679 108.6124951  35.9568970  41.4243317 108.3113779
  35.2599423  40.1504893 107.8830593  39.1373280  54.0295068 110.0619798
  39.3110157  53.4641490 109.3093651  39.6302171  54.8295963 109.8799288
  31.7437856  39.3721321 110.5064156  31.8653767  38.4437967 110.7055043
  31.4539898  39.3860007 109.5942471  44.9912671  46.7931491 111.6810098
  45.4343817  46.0438816 111.2829221  44.1139181  46.7841627 111.2983830
  40.1248452  53.3461832 107.1616697  40.8199357  53.9668525 107.3804011
  40.4671602  52.4957183 107.4369074  42.0239875  50.7961538 108.6904027
  42.5491199  51.1348810 107.9653347  41.9362228  49.8608553 108.5067162
  33.7080536  56.8633521 113.0499280  33.2685526  56.3709900 113.7432137
  34.4588653  56.3206489 112.8091356  26.1872875  53.0545062 113.0523909
  27.0130895  52.7548834 112.6722552  25.8366927  52.2852684 113.5013697
  31.1554408  52.4071530 115.1221582  30.5334417  51.7442235 114.8223810
  31.8259275  52.4332662 114.4395230  24.3881480  50.9731388 114.0112842
  23.5513388  50.5453563 113.8296843  24.3605125  51.1663832 114.9483633
  30.7167915  50.9575453 108.5980043  30.8656035  51.6410918 107.9446715
  31.5234359  50.9380543 109.1129498  43.3349853  50.6983849 121.5529975
  43.0434661  51.0613830 122.3893436  42.7221984  49.9850857 121.3743307
  44.5345535  48.2636729 114.0732546  45.3692427  48.7026533 114.2370106
  44.6704664  47.7875382 113.2540791  28.4720548  46.9840631 109.6041112
  28.2266590  46.0802961 109.8021322  28.6416463  46.9857781 108.6620590
  27.7416196  42.7168989 107.1027273  27.0485441  42.7913344 106.4467309
  27.4967947  41.9529332 107.6248790  34.2163321  53.4523584 106.0691790
  33.6437288  54.0713771 105.6162262  34.7896114  54.0022945 106.6031712
  37.4360580  53.7360734 107.2000372  38.3691254  53.6706296 107.4033248
  37.3483793  54.5717001 106.7414905  40.0648597  53.0526604 104.1604320
  39.9862229  52.7186468 105.0540078  40.8858264  53.5448372 104.1595792
  42.7626788  45.9188344 117.3680639  42.7303108  44.9804344 117.5540322
  43.3727412  45.9972380 116.6346463  34.6010119  44.7884397 103.4107843
  35.5469224  44.6590605 103.4796261  34.2224364  44.0499058 103.8877271
  48.5803338  46.9804350 116.5086675  49.3106727  46.7189639 117.0694379
  47.9710284  46.2433072 116.5488743  46.6618635  45.1212213 117.1061127
  45.9351799  44.9868178 116.4977618  46.2465922  45.4289042 117.9117845
  32.7853036  42.7134373 103.3462728  31.8784492  42.4167486 103.4225441
  33.0629017  42.4164191 102.4797014  34.4015102  37.2571263 109.5006969
  33.5915830  36.9118348 109.8762215  35.0899519  36.9478806 110.0894581
  31.5551821  39.5721308 103.4874707  32.4170985  39.8976206 103.7470524
  31.7402165  38.7852804 102.9747773  39.7084457  38.4449835 110.6309930
  39.1283126  39.1034639 110.2487982  39.4420390  37.6227179 110.2197348
  38.4909335  40.6049925 109.6866278  37.6035190  40.8899576 109.4686473
  38.9063324  40.4443688 108.8393555  41.8423871  40.6296446 113.4020618
  42.6184262  41.1192898 113.6745234  41.1172006  41.0554500 113.8592487
  44.2796430  41.3424065 114.4594558  44.8740921  41.1019801 113.7487866
  44.3523014  40.6231196 115.0868094  26.4993586  55.1857676 114.7737723
  26.3648054  54.4258077 114.2075721  26.0825648  55.9098576 114.3066512
  37.6352549  50.3694600 103.7814298  38.3388399  50.5744602 104.3971954
  36.9115198  50.9371362 104.0463382  38.4650359  46.1204461 109.9016568
  38.4085560  46.5773012 109.0624201  39.0178702  45.3595145 109.7239411
  42.2755165  41.9094193 110.7266688  42.0192099  41.5090828 111.5574896
  41.6508033  42.6237987 110.6016827  46.5867503  44.6490266 113.2337979
  46.0267061  44.7183455 114.0069541  45.9811006  44.4731251 112.5137476
  29.6562712  56.0826993 114.9856166  29.5395096  57.0272426 114.8834856
  28.8355158  55.7800555 115.3741965  39.5439246  50.8077129 105.8312758
  40.3784850  50.3758327 105.6490233  39.3823589  50.6359143 106.7589653
  39.1985138  47.3109242 107.1969098  39.1433942  47.1453514 106.2557542
  38.5731194  48.0185275 107.3531287  32.5081264  36.8117351 106.7754416
  32.4959934  37.7559191 106.9322687  33.4004686  36.6287497 106.4813877
  30.6817226  56.7355255 118.2012094  31.5844473  56.7678865 118.5178589
  30.4554596  55.8055706 118.2158430  32.4370828  55.4886242 114.8622173
  31.4866459  55.4888103 114.7486545  32.7403314  54.7418976 114.3458207
  48.1723521  61.3246780 115.9267935  48.8101931  61.2053527 115.2231275
  48.0544364  62.2727624 115.9855887  44.9813228  61.2774208 115.8629460
  44.6431739  61.1615273 114.9749995  45.8502996  60.8765373 115.8430466
  40.8400043  63.1309684 111.8526351  40.2764908  63.0399621 111.0842638
  40.7252438  62.3109589 112.3328843  45.4633011  62.4309060 121.8215665
  45.4521651  62.0361858 120.9496169  45.6253650  61.6975132 122.4149437
  38.3864475  64.6260876 114.6910571  39.1785767  64.2851701 114.2756871
  38.6261125  64.7355851 115.6112725  46.4199602  66.7980652 107.1640816
  45.7687582  67.3834733 106.7774829  47.2143965  67.3286847 107.2235853
  40.3455229  63.8869789 107.5627950  41.1186105  63.3398776 107.4240826
  40.6980628  64.7514039 107.7742411  42.1840272  65.2146172 120.7694849
  41.8930138  66.1191802 120.6541516  42.8197256  65.2562699 121.4838919
  43.1096479  62.5923020 117.3596209  43.7060051  62.3679042 116.6453172
  43.1671450  61.8507766 117.9621657  42.6821507  60.0462455 105.1946400
  42.9347028  59.5243977 104.4329863  41.7446066  59.8828601 105.2973084
  47.7264790  59.0498234 113.0021143  48.5127879  58.6317657 112.6511560
  47.9903494  59.9544326 113.1702792  47.8974867  64.4871084 107.7009800
  47.2620700  64.5605711 108.4130705  47.5672274  65.0764683 107.0228879
  53.1273217  58.9873467 113.9054122  53.8598389  58.4172684 114.1391951
  52.3712573  58.5995067 114.3460627  42.4017796  61.9490561 107.3970775
  42.2854054  61.2735465 108.0651859  42.5120056  61.4622935 106.5802928
  44.7449337  61.4100708 111.1017464  44.3807544  60.8831329 111.8130386
  45.6016453  61.0199178 110.9283950  50.6498637  52.6995041 118.3648730
  50.3181962  53.5690452 118.1409945  50.0544251  52.3831325 119.0442761
  44.3854824  56.4390608 106.0978813  44.5529226  57.3070845 106.4649284
  44.1951993  56.6017890 105.1740102  47.1430157  64.9007587 117.7644643
  46.8430880  65.8032626 117.6560450  46.7981216  64.6339770 118.6165796
  40.5942638  61.3521384 113.7981347  39.6693135  61.2197598 114.0059039
  40.8427051  62.1315603 114.2951290  50.5427301  57.4190127 115.4442080
  49.6344178  57.3505536 115.1500841  50.4914896  57.8962072 116.2723906
  44.3644045  58.8948266 107.0825479  44.2443670  59.3405316 107.9210960
  43.6696633  59.2433583 106.5239018  37.9551449  60.9954657 114.6325136
  38.0843830  61.2489136 115.5464548  37.2748901  61.5882365 114.3129792
  42.1250937  71.6651907 110.7315611  42.0474966  72.6159733 110.8104091
  41.5212580  71.3197780 111.3890537  44.6168166  58.8379773 123.3876978
  43.8401500  59.3973693 123.3779842  45.2558729  59.3236556 123.9091848
  52.4088947  55.6206566 117.2219954  51.7663327  55.9139099 116.5759749
  51.9043876  55.5059486 118.0273151  50.0629111  59.3669739 107.9105813
  50.9746967  59.5997126 107.7353511  49.5538758  59.9506783 107.3480892
  42.8714539  61.6465226 122.9494945  43.6129223  62.1850270 122.6729768
  42.1651524  62.2731515 123.1066496  48.3469878  63.7894367 121.5467106
  48.7553234  63.3476777 120.8021738  47.6247140  63.2146994 121.8001299
  44.7000948  58.7266973 118.9200663  45.5462144  59.1506387 119.0635312
  44.6399586  58.0700598 119.6139226  48.6698693  64.3495557 115.3019395
  48.0407555  64.5141271 114.5995463  48.2824355  64.7637167 116.0730359
  52.5487925  65.2849995 112.6563759  51.8638963  65.6648897 112.1060792
  52.6331774  65.8945322 113.3895706  47.8500394  56.3871342 120.5781837
  47.6061326  57.1413402 120.0416112  48.1260324  56.7656689 121.4129084
  49.8038856  62.9309954 119.2559102  50.0155752  63.5741714 118.5793483
  49.7568605  62.0972271 118.7881032  47.4065085  55.5427775 116.1595674
  46.5449564  55.8409028 116.4512412  47.4327520  55.7598174 115.2276707
  44.2226655  64.0869965 112.5669480  44.6865000  64.3657668 111.7774103
  43.9583453  63.1853410 112.3842571  41.1150736  63.6341447 115.5049243
  41.6852093  64.0628715 114.8666728  41.7058848  63.3524032 116.2033429
  43.1595541  60.2093118 109.3759045  43.8619584  60.6614161 109.8432972
  42.8276169  59.5676937 110.0038938  41.6075902  58.8004874 123.7510255
  40.9774563  59.4821155 123.9845651  41.5011990  58.6887956 122.8063393
  36.9020875  58.4676670 114.6776179  36.1119929  58.7234199 114.2016289
  37.3932122  59.2825008 114.7828219  50.9184684  65.8081910 117.4281460
  51.7402128  65.4062097 117.1464141  50.9147087  65.7050144 118.3797575
  38.8535620  58.8321250 111.6359655  38.0566784  58.9439944 112.1543151
  38.6261212  59.1707902 110.7700546  44.6841288  65.3565953 119.5842170
  44.7485720  65.8186360 120.4200342  43.9752212  64.7263318 119.7124480
  35.1858578  58.7207161 117.1091170  35.4366616  59.6054171 117.3748745
  35.7218126  58.5411762 116.3366261  59.0090677  62.1520658 113.7766431
  58.2554386  61.5828056 113.6210435  59.1438219  62.1183323 114.7237066
  44.3989306  67.0234060 109.4521150  44.2634980  67.8685596 109.8805998
  44.9399118  67.2253338 108.6887084  37.8518703  64.5409498 110.0249075
  38.3643223  65.3352749 110.1754640  38.5041416  63.8435789 109.9582677
  39.6613588  67.6575255 112.1071829  39.8380216  68.5793219 111.9192813
  40.4570421  67.3433674 112.5366208  43.8024606  54.5183519 123.7055762
  44.5434320  55.1190672 123.6260225  44.0342529  53.7761157 123.1473805
  38.9465944  59.7039887 121.9833992  38.8319459  58.8025144 122.2841091
  38.0910462  59.9503583 121.6318808  46.0257782  67.6457627 123.5821492
  45.5821636  66.8594005 123.2642397  46.6874995  67.8336777 122.9165383
  40.7844903  69.1753428 118.1082171  41.3352328  69.0470492 117.3359165
  39.9456379  69.4748318 117.7577064  48.1239020  67.9260427 121.6102894
  48.1057495  68.7469308 121.1183163  49.0458940  67.8014502 121.8353035
  44.5812074  65.4404556 122.4526402  45.1140411  64.6792844 122.2225710
  44.0526155  65.1478208 123.1950557  47.7481769  50.5464622 117.9820044
  47.4046038  51.4366264 117.9059154  48.1160732  50.3566280 117.1189629
  35.8167620  62.8698153 110.8008646  36.6542842  63.2795161 110.5842354
  35.9945887  61.9297595 110.7708840  47.7132052  60.5373233 106.4892479
  47.1978675  61.3077838 106.7280866  47.4409360  59.8638370 107.1125540
  45.2979163  55.3822934 111.5477717  44.4420759  54.9929785 111.3683356
  45.7106115  55.4614895 110.6877503  46.8278309  52.9169277 115.9469277
  46.3243105  52.8799413 115.1337082  47.1208916  53.8262020 116.0065934
  43.0721195  53.0008007 114.9535459  43.9374192  52.8050816 114.5941348
  43.1398704  52.7718359 115.8804816  52.6866326  63.2905588 108.4245652
  51.9095769  62.9516748 107.9800815  53.3657807  63.2958211 107.7500618
  47.5018355  58.4100325 108.3152260  47.1968491  58.7246475 109.1662403
  48.4548797  58.4881745 108.3579593  45.9464787  64.5690549 109.9645214
  45.4186148  63.8343308 109.6518452  45.4452290  65.3465225 109.7185182
  50.9257633  62.7639569 115.0812260  50.2681307  63.4538831 115.1692389
  51.7298032  63.1536001 115.4246247  40.6783514  55.2310215 112.3251826
  41.2527266  55.0085397 111.5925019  41.2654497  55.2998910 113.0780427
  49.7363092  61.1183942 113.1316202  50.2494973  61.7513934 113.6337912
  50.3864316  60.5185137 112.7659562  41.0053102  57.2614676 106.3447711
  40.1690414  57.5989363 106.6656986  40.8657871  57.1263656 105.4074848
  42.9806182  52.1051464 111.0526895  42.3270594  51.7900481 110.4283510
  42.9386656  51.4827204 111.7786718  44.0917387  62.3870759 102.9680187
  43.1844449  62.1560013 103.1671336  44.5888419  61.5908378 103.1554169
  46.9985466  71.0968266 105.8876873  46.3247165  71.3999963 106.4961831
  47.3851288  71.8997347 105.5382330  46.2143923  58.5933398 115.3774543
  45.2966484  58.8148345 115.2196231  46.6304066  58.6679708 114.5186250
  46.9978970  59.9924813 110.5077223  47.7450789  60.5046210 110.1984345
  47.2670560  59.6708866 111.3681617  45.2705620  62.4883354 107.4904177
  44.3616840  62.2042387 107.5876647  45.3000704  62.9082432 106.6307484
  50.5024888  66.0989943 111.2595345  50.0487215  65.2580853 111.3160535
  49.8718855  66.7351342 111.5970125  49.4457807  57.0281929 112.4896012
  48.7080564  56.5159316 112.8206255  49.6984581  56.5882311 111.6779289
  48.9457827  67.9366440 112.1945163  49.2380801  68.4971497 111.4757529
  49.4556448  68.2295001 112.9498322  49.5469435  49.8058181 113.0837782
  49.8528312  48.9455545 112.7963697  50.2722040  50.3975802 112.8836775
  35.8393791  60.2088868 111.4719379  35.6418191  59.6158229 110.7470446
  35.2840455  59.9041078 112.1895318  43.8190514  60.1011975 113.5913973
  43.8739124  59.1485811 113.5156449  43.0081717  60.2571414 114.0755271
  44.9681708  64.0292098 104.8292256  44.5301138  63.3127957 104.3697893
  45.7092149  64.2568212 104.2677347  41.7582874  58.7189034 111.3504351
  40.9450740  59.0183205 111.7569544  42.2541869  58.3244723 112.0678834
  43.9091452  68.7146791 113.2838616  43.8667631  68.9407638 112.3547148
  44.8254151  68.4810166 113.4324417  47.3557086  59.1830859 120.1819245
  47.7106474  59.4102332 121.0413711  48.0029217  59.5149236 119.5596501
  53.0854823  62.3049295 110.8868574  52.9472722  62.4950891 109.9589764
  52.7291042  63.0668677 111.3436626  41.2496949  56.2907390 116.9665586
  41.8896328  56.1496149 116.2688550  40.4174480  56.0041903 116.5904188
  53.1124203  64.3725822 115.8979846  53.5460709  64.2801111 116.7462900
  53.8255783  64.3483322 115.2599862  42.0257253  65.5909820 113.0800579
  42.8197852  65.0960140 112.8783154  41.3148945  65.0627683 112.7168284
  46.8452098  67.9727916 117.4312947  46.8989120  68.5418852 118.1990662
  45.9766879  68.1429801 117.0666984  38.3340017  59.7352902 109.1560332
  37.4037605  59.6737357 109.3730294  38.4297489  59.2128855 108.3596973
  38.2525566  56.2607715 111.7438573  38.5132383  57.1753048 111.6347734
  39.0742738  55.7932157 111.8935186  39.7250491  57.6745472 118.9137398
  40.3973544  57.4662834 118.2650047  38.8980277  57.4767558 118.4742630
  53.9739752  64.4149522 118.4312731  54.1675642  65.3195333 118.6772006
  53.8740370  63.9556941 119.2651316  45.6276063  54.3007413 120.9303059
  44.9803978  54.9997363 120.8367535  46.3977078  54.7343557 121.2979307
  49.0354861  64.5656265 124.0053612  48.8840367  64.3366817 123.0883696
  49.0259540  65.5226866 124.0184957  45.8040197  62.1388178 118.9899878
  46.7332257  62.2899337 118.8168846  45.3831227  62.2272199 118.1348525
  44.6028529  66.1638842 116.7598416  44.4639615  65.7957627 117.6324354
  43.8143125  66.6786482 116.5882374  45.1976681  71.2647939 108.1023953
  45.3728437  70.7935982 108.9169575  44.5109469  71.8913705 108.3305213
  46.1533744  65.5420445 114.1487254  45.8183577  65.5021215 115.0444904
  45.6537690  64.8765161 113.6757664  40.1277988  60.9488075 119.6739835
  39.9897786  60.2168314 120.2751374  41.0382912  60.8596975 119.3924023
  49.0892936  62.8876479 104.4224313  48.4722106  62.1623307 104.3257366
  48.6209424  63.6485840 104.0791388  42.7560289  60.6608034 119.1623515
  43.4659907  60.0201226 119.1210133  42.7129597  60.9120929 120.0849695
  50.7447068  67.5975388 122.0830094  50.6859614  66.9134608 121.4160677
  51.1466586  68.3394378 121.6310720  41.4689223  57.6473252 120.9819154
  40.9326580  57.1963991 121.6340750  40.8805931  57.7819161 120.2389618
  39.7637766  74.4137301 114.8763813  40.0034365  75.0455826 115.5542831
  38.9206963  74.0625341 115.1629172  40.8791482  57.1061904 103.5445618
  40.0020948  56.9850704 103.1807864  41.3549235  56.3147982 103.2924506
  50.7464475  65.5614972 120.3144073  49.8591254  65.2240893 120.4370472
  51.3163026  64.8298003 120.5512839  32.3993622  61.8939063 113.6387125
  33.0864662  61.5800793 113.0508140  32.2441751  62.7980428 113.3654376
  37.2028344  56.7829260 118.0672149  37.1186533  56.1754929 117.3322558
  36.3811050  57.2738278 118.0681645  44.2765628  70.2216424 117.2805317
  44.2035800  71.0271395 117.7924621  43.8343021  70.4208390 116.4553338
  44.0655408  69.4588194 110.7908138  43.2822930  70.0009874 110.8846363
  44.7648153  69.9762174 111.1902379  47.3752058  55.2682823 113.4342344
  47.8720757  54.5152786 113.1143414  46.6039039  55.3047140 112.8685553
  55.2281815  60.9723189 115.0760635  55.2171692  61.8547904 114.7054568
  54.3599195  60.6194740 114.8815172  46.7364312  70.1203258 119.4363475
  47.4492284  70.7550723 119.3639377  46.2454340  70.2167124 118.6203477
  48.4581839  64.0254511 111.0080767  47.5238117  64.1455973 110.8385471
  48.6358507  63.1226977 110.7440777  43.9587027  57.4100206 113.1614028
  43.5884814  56.8571247 113.8494934  44.4546119  56.8058340 112.6089028
  51.8454390  59.8671830 111.5430801  52.3114842  60.6999821 111.4691104
  52.2961890  59.4016811 112.2476060  41.7876225  67.8697701 120.2569046
  42.4885685  68.5034184 120.4098440  41.3171340  68.2112433 119.4964685
  49.9130621  66.2115651 108.5416953  50.1890465  66.0972246 109.4510827
  49.0435120  65.8133136 108.5029126  49.8171053  52.2352417 115.5821702
  48.9034133  52.4656644 115.7503909  50.2464154  52.3190861 116.4335735
  49.5877511  60.4242309 118.0821597  48.9348961  60.6718216 117.4274049
  49.9657891  59.6106447 117.7484074  46.5484685  70.4602002 112.1849767
  46.7307080  69.6423658 112.6477519  47.3717671  70.6769694 111.7474657
  46.8826851  69.3870187 109.4464815  47.4114617  68.8762642 108.8334977
  47.1455070  69.0712717 110.3110348  45.6365084  61.1662120 124.5687634
  44.9605721  61.0656249 125.2390009  46.4592718  61.0101334 125.0323631
  37.3843943  67.4034056 117.1900149  37.9697380  66.6577744 117.3228053
  37.1868782  67.7138013 118.0736813  40.2382599  70.4385304 112.2062591
  39.5692974  70.9231431 111.7226631  40.0995468  70.6854524 113.1205970
  31.9761598  59.9739657 115.9104592  32.0145698  59.4403247 116.7041710
  31.4701891  59.4474862 115.2915569  44.3787867  72.4729047 118.8045250
  44.9306175  72.6360669 119.5694335  44.7194061  73.0633485 118.1325274
  39.3552360  54.8204197 119.4067134  39.4193687  55.6819028 118.9944532
  39.2919481  54.2078199 118.6739493  38.8304633  56.8927330 123.0540169
  39.4576672  56.5104407 123.6677693  37.9732552  56.6741532 123.4195861
  49.2298741  67.2990305 124.6593904  49.7738645  67.9120263 124.1648859
  48.6485586  67.8569883 125.1760917  35.6070176  58.7003759 108.9858523
  35.9023617  57.7914437 108.9325577  34.7058211  58.6791498 108.6639526
  47.5156254  70.4211023 115.7908932  47.3907394  69.6200763 115.2819877
  48.1735345  70.9157216 115.3022902  39.1364423  56.7759755 114.9686072
  38.4151008  57.3895723 114.8293545  39.9257678  57.3117520 114.8902718
  49.5791163  68.2220043 117.4188482  48.6321498  68.1025394 117.3466809
  49.9273936  67.3342541 117.5014743  41.9390736  54.1114182 121.2426724
  42.4625138  54.3576478 122.0053033  41.7203069  54.9434217 120.8229861
  37.3358017  56.3817856 109.1097849  37.0070723  55.5015235 108.9272954
  37.6897388  56.3265525 109.9974238  46.5837596  68.0172759 113.6192834
  46.4362558  67.0889467 113.8000404  47.4091090  68.0392850 113.1349909
  40.4499840  56.6690826 109.4773326  40.7895913  57.1976747 108.7551935
  40.8971961  57.0071232 110.2531893  50.1871718  68.8401318 114.7057707
  51.1118265  68.6344179 114.5682158  50.0187021  68.5917719 115.6147048
  43.1443281  55.0527877 118.9276394  42.8040102  54.2535690 119.3297074
  42.4382287  55.3529588 118.3553227  43.7959753  52.1377189 117.3803717
  44.6185822  51.6637668 117.2582608  44.0397817  52.9167673 117.8802404
  42.4367988  55.1665448 107.6766619  43.1576350  55.5446701 107.1730336
  41.8133292  55.8854325 107.7801597  46.5799110  55.8710597 108.6124951
  46.7962725  56.7535235 108.3113779  46.0993178  55.4796810 107.8830593
  41.3198332  58.8296310 115.1895696  41.1742912  59.1436613 116.0819977
  40.8423535  59.4481210 114.6366595  43.1794715  55.8198858 115.2376585
  43.1656283  54.9239951 114.9008883  43.8967143  55.8269522 115.8714871
  45.0320845  56.2536198 117.2829713  44.7738623  57.1753269 117.2814043
  44.5005886  55.8566633 117.9730177  49.9767034  69.3586985 110.0619798
  50.1503912  68.7933408 109.3093651  50.4695925  70.1587880 109.8799288
  35.7943994  61.3701654 118.1283357  35.2497462  62.1461462 118.2603631
  36.6723344  61.7172459 117.9702479  42.5831611  54.7013238 110.5064156
  42.7047522  53.7729884 110.7055043  42.2933653  54.7151924 109.5942471
  45.4522801  52.3868149 113.6430875  45.4744498  52.4507482 112.6882855
  45.8690860  51.5472657 113.8371382  55.8306425  62.1223408 111.6810098
  56.2737571  61.3730733 111.2829221  54.9532936  62.1133545 111.2983830
  50.9642207  68.6753750 107.1616697  51.6593111  69.2960442 107.3804011
  51.3065357  67.8249101 107.4369074  36.5810016  60.4971551 121.0213514
  35.8391752  60.6454186 121.6078144  36.2602760  60.7579816 120.1580263
  52.8633630  66.1253455 108.6904027  53.3884954  66.4640728 107.9653347
  52.7755982  65.1900471 108.5067162  44.5253678  70.0387529 120.8193904
  44.8340805  69.7936676 121.6916604  45.3229160  70.2434167 120.3312774
  44.5474290  72.1925439 113.0499280  44.1079281  71.7001817 113.7432137
  45.2982407  71.6498406 112.8091356  37.0266629  68.3836979 113.0523909
  37.8524649  68.0840751 112.6722552  36.6760681  67.6144602 113.5013697
  41.9948163  67.7363448 115.1221582  41.3728172  67.0734153 114.8223810
  42.6653030  67.7624580 114.4395230  35.2275235  66.3023306 114.0112842
  34.3907143  65.8745480 113.8296843  35.1998880  66.4955749 114.9483633
  42.0672690  56.2145236 124.7154088  42.1160846  57.0907358 124.3331858
  42.6095204  55.6722629 124.1425731  52.5527536  66.7586359 123.9955225
  51.7623080  66.7410498 123.4559725  52.3160890  67.2974653 124.7504262
  52.6725411  63.6078825 121.3087954  52.7223416  63.4428833 122.2503477
  52.5639334  62.7406084 120.9185835  41.5561670  66.2867371 108.5980043
  41.7049790  66.9702835 107.9446715  42.3628113  66.2672461 109.1129498
  49.9629173  59.5909753 122.6247261  50.8639036  59.4516218 122.3331258
  50.0377148  59.7564208 123.5645438  44.2971979  56.9676608 121.4700447
  43.4275288  57.2610174 121.1983035  44.5331459  57.5517053 122.1907710
  54.1743608  66.0275767 121.5529975  53.8828416  66.3905747 122.3893436
  53.5615739  65.3142775 121.3743307  55.3739290  63.5928647 114.0732546
  56.2086181  64.0318451 114.2370106  55.5098419  63.1167300 113.2540791
  52.4230796  61.1508381 120.0210033  52.8984918  61.3436028 119.2128885
  51.4996361  61.2067567 119.7753417  39.3114303  62.3132549 109.6041112
  39.0660344  61.4094879 109.8021322  39.4810217  62.3149699 108.6620590
  47.0011012  53.1856225 118.9865867  47.5192956  53.9217252 118.6612356
  46.6466145  53.4920218 119.8212626  38.5809950  58.0460906 107.1027273
  37.8879195  58.1205261 106.4467309  38.3361702  57.2821250 107.6248790
  47.2523607  49.6056508 114.5066764  47.5325360  48.9379697 115.1327190
  48.0374213  49.7985603 113.9941428  45.0557075  68.7815501 106.0691790
  44.4831042  69.4005689 105.6162262  45.6289869  69.3314863 106.6031712
  51.1232465  58.0274142 118.2538339  52.0749888  58.1272239 118.2750563
  50.9535915  57.2352410 118.7636423  49.1446844  55.1129725 118.4397740
  48.5496776  55.3934737 117.7444228  48.8596541  55.6023626 119.2114481
  48.2754335  69.0652652 107.2000372  49.2085008  68.9998213 107.4033248
  48.1877548  69.9008918 106.7414905  50.9042352  68.3818522 104.1604320
  50.8255983  68.0478386 105.0540078  51.7252018  68.8740290 104.1595792
  53.6020543  61.2480261 117.3680639  53.5696863  60.3096262 117.5540322
  54.2121166  61.3264298 116.6346463  45.4403874  60.1176314 103.4107843
  46.3862978  59.9882522 103.4796261  45.0618119  59.3790976 103.8877271
  53.7515031  58.0391305 117.4138922  53.2354080  57.2549761 117.2268851
  54.6354980  57.7110021 117.5785441  51.4125758  51.7832320 113.3734734
  51.2150579  51.4747408 114.2578066  52.0225464  52.5093959 113.5032664
  59.4197093  62.3096268 116.5086675  60.1500481  62.0481556 117.0694379
  58.8104038  61.5724990 116.5488743  57.5012390  60.4504131 117.1061127
  56.7745553  60.3160096 116.4977618  57.0859677  60.7580959 117.9117845
  45.3242566  64.1694060 124.8708500  46.2445576  64.3472659 125.0648546
  45.2892149  63.2250106 124.7188199  43.6246791  58.0426291 103.3462728
  42.7178246  57.7459403 103.4225441  43.9022772  57.7456109 102.4797014
  34.5424731  59.3632654 113.7961774  34.2227515  58.5097962 113.5036148
  33.9958159  59.5781232 114.5519742  38.3204639  62.0795095 117.5131281
  38.5390648  63.0112203 117.5319315  38.7330412  61.7203069 118.2986085
  45.2408856  52.5863180 109.5006969  44.4309585  52.2410265 109.8762215
  45.9293273  52.2770724 110.0894581  47.1699405  51.6641227 111.1231266
  47.7230443  52.0836681 111.7821289  47.4069491  50.7376975 111.1654222
  42.3945575  54.9013226 103.4874707  43.2564739  55.2268124 103.7470524
  42.5795919  54.1144722 102.9747773  34.4112991  62.9835565 115.7654896
  33.7176463  62.5689518 115.2524850  35.1585982  63.0256102 115.1688315
  50.5478212  53.7741752 110.6309930  49.9676881  54.4326556 110.2487982
  50.2814145  52.9519097 110.2197348  48.9981778  53.1746810 112.8331250
  49.4981557  53.2863344 112.0245569  49.6417386  52.8707863 113.4732059
  43.0563774  61.0825440 125.7199091  42.5730856  61.8825800 125.9262980
  43.1424713  61.0933384 124.7666535  36.3249734  62.9153819 113.6420911
  36.3020422  63.0141507 112.6902794  36.6350370  63.7618970 113.9638077
  38.9837112  64.9729974 117.7567525  39.9380365  64.9413917 117.6897457
  38.7849635  64.5120598 118.5717751  39.5736494  63.5431090 120.3238323
  40.3929383  64.0375169 120.3473160  39.8473301  62.6263058 120.2955890
  49.3303090  55.9341843 109.6866278  48.4428945  56.2191493 109.4686473
  49.7457079  55.7735606 108.8393555  52.6817626  55.9588364 113.4020618
  53.4578016  56.4484816 113.6745234  51.9565760  56.3846418 113.8592487
  55.1190185  56.6715983 114.4594558  55.7134675  56.4311719 113.7487866
  55.1916768  55.9523113 115.0868094  37.3387340  70.5149594 114.7737723
  37.2041808  69.7549995 114.2075721  36.9219403  71.2390494 114.3066512
  48.4746303  65.6986517 103.7814298  49.1782153  65.9036520 104.3971954
  47.7508952  66.2663279 104.0463382  49.3044114  61.4496379 109.9016568
  49.2479315  61.9064930 109.0624201  49.8572456  60.6887063 109.7239411
  53.1148919  57.2386110 110.7266688  52.8585854  56.8382746 111.5574896
  52.4901788  57.9529904 110.6016827  57.4261257  59.9782184 113.2337979
  56.8660815  60.0475373 114.0069541  56.8204761  59.8023168 112.5137476
  40.4956466  71.4118911 114.9856166  40.3788850  72.3564343 114.8834856
  39.6748912  71.1092472 115.3741965  50.3833001  66.1369047 105.8312758
  51.2178605  65.7050245 105.6490233  50.2217344  65.9651060 106.7589653
  50.0378893  62.6401160 107.1969098  49.9827697  62.4745431 106.2557542
  49.4124948  63.3477193 107.3531287  34.8271408  57.8769224 121.0230520
  35.4730271  57.3668178 121.5117745  34.6188559  58.6137906 121.5973945
  47.3524800  64.9450072 126.5222660  48.2215960  65.1190724 126.1609295
  46.8731552  65.7644489 126.3998390  43.3475018  52.1409269 106.7754416
  43.3353688  53.0851109 106.9322687  44.2398440  51.9579414 106.4813877
  41.5210980  72.0647173 118.2012094  42.4238227  72.0970783 118.5178589
  41.2948350  71.1347624 118.2158430  43.2764582  70.8178159 114.8622173
  42.3260213  70.8180021 114.7486545  43.5797068  70.0710894 114.3458207
  47.1627138  48.7352045 111.0300353  46.3959534  48.1810532 111.1757035
  47.5737843  48.8073914 111.8914504  59.0117276  76.6538698 115.9267935
  59.6495686  76.5345445 115.2231275  58.8938119  77.6019542 115.9855887
  55.8206982  76.6066126 115.8629460  55.4825494  76.4907190 114.9749995
  56.6896750  76.2057291 115.8430466  51.6793798  78.4601602 111.8526351
  51.1158663  78.3691539 111.0842638  51.5646193  77.6401507 112.3328843
  56.3026765  77.7600977 121.8215665  56.2915406  77.3653776 120.9496169
  56.4647405  77.0267050 122.4149437  49.2258230  79.9552794 114.6910571
  50.0179522  79.6143618 114.2756871  49.4654880  80.0647769 115.6112725
  57.2593357  82.1272570 107.1640816  56.6081336  82.7126650 106.7774829
  58.0537719  82.6578765 107.2235853  51.1848984  79.2161707 107.5627950
  51.9579860  78.6690694 107.4240826  51.5374383  80.0805956 107.7742411
  53.0234026  80.5438089 120.7694849  52.7323892  81.4483720 120.6541516
  53.6591011  80.5854617 121.4838919  53.9490233  77.9214938 117.3596209
  54.5453805  77.6970960 116.6453172  54.0065205  77.1799683 117.9621657
  53.5215261  75.3754373 105.1946400  53.7740782  74.8535894 104.4329863
  52.5839821  75.2120519 105.2973084  58.5658544  74.3790151 113.0021143
  59.3521634  73.9609575 112.6511560  58.8297249  75.2836244 113.1702792
  58.7368622  79.8163002 107.7009800  58.1014455  79.8897628 108.4130705
  58.4066028  80.4056601 107.0228879  63.9666971  74.3165385 113.9054122
  64.6992143  73.7464601 114.1391951  63.2106327  73.9286985 114.3460627
  53.2411550  77.2782479 107.3970775  53.1247808  76.6027382 108.0651859
  53.3513810  76.7914853 106.5802928  55.5843091  76.7392626 111.1017464
  55.2201298  76.2123247 111.8130386  56.4410207  76.3491095 110.9283950
  61.4892392  68.0286959 118.3648730  61.1575717  68.8982370 118.1409945
  60.8938005  67.7123243 119.0442761  55.2248578  71.7682526 106.0978813
  55.3922980  72.6362762 106.4649284  55.0345747  71.9309808 105.1740102
  57.9823911  80.2299505 117.7644643  57.6824634  81.1324544 117.6560450
  57.6374971  79.9631688 118.6165796  51.4336393  76.6813302 113.7981347
  50.5086889  76.5489516 114.0059039  51.6820806  77.4607521 114.2951290
  61.3821055  72.7482045 115.4442080  60.4737932  72.6797453 115.1500841
  61.3308651  73.2253990 116.2723906  55.2037799  74.2240183 107.0825479
  55.0837424  74.6697234 107.9210960  54.5090387  74.5725501 106.5239018
  48.7945204  76.3246575 114.6325136  48.9237585  76.5781054 115.5464548
  48.1142655  76.9174283 114.3129792  52.9644691  86.9943825 110.7315611
  52.8868721  87.9451650 110.8104091  52.3606335  86.6489698 111.3890537
  55.4561921  74.1671691 123.3876978  54.6795255  74.7265611 123.3779842
  56.0952484  74.6528474 123.9091848  63.2482701  70.9498483 117.2219954
  62.6057082  71.2431017 116.5759749  62.7437630  70.8351404 118.0273151
  60.9022865  74.6961657 107.9105813  61.8140721  74.9289043 107.7353511
  60.3932512  75.2798701 107.3480892  53.7108293  76.9757144 122.9494945
  54.4522978  77.5142188 122.6729768  53.0045279  77.6023433 123.1066496
  59.1863633  79.1186284 121.5467106  59.5946989  78.6768695 120.8021738
  58.4640894  78.5438912 121.8001299  55.5394703  74.0558891 118.9200663
  56.3855898  74.4798305 119.0635312  55.4793341  73.3992515 119.6139226
  59.5092447  79.6787475 115.3019395  58.8801310  79.8433189 114.5995463
  59.1218110  80.0929085 116.0730359  63.3881679  80.6141913 112.6563759
  62.7032718  80.9940814 112.1060792  63.4725529  81.2237239 113.3895706
  58.6894148  71.7163259 120.5781837  58.4455080  72.4705320 120.0416112
  58.9654079  72.0948607 121.4129084  60.6432611  78.2601872 119.2559102
  60.8549506  78.9033632 118.5793483  60.5962359  77.4264188 118.7881032
  58.2458840  70.8719693 116.1595674  57.3843319  71.1700946 116.4512412
  58.2721275  71.0890091 115.2276707  55.0620409  79.4161883 112.5669480
  55.5258755  79.6949586 111.7774103  54.7977207  78.5145328 112.3842571
  51.9544490  78.9633365 115.5049243  52.5245847  79.3920633 114.8666728
  52.5452602  78.6815949 116.2033429  53.9989295  75.5385035 109.3759045
  54.7013339  75.9906079 109.8432972  53.6669924  74.8968854 110.0038938
  52.4469657  74.1296792 123.7510255  51.8168317  74.8113073 123.9845651
  52.3405745  74.0179874 122.8063393  47.7414629  73.7968588 114.6776179
  46.9513683  74.0526117 114.2016289  48.2325877  74.6116926 114.7828219
  61.7578439  81.1373827 117.4281460  62.5795883  80.7354015 117.1464141
  61.7540842  81.0342061 118.3797575  49.6929375  74.1613167 111.6359655
  48.8960538  74.2731862 112.1543151  49.4654967  74.4999820 110.7700546
  55.5235042  80.6857871 119.5842170  55.5879475  81.1478278 120.4200342
  54.8145966  80.0555235 119.7124480  46.0252332  74.0499079 117.1091170
  46.2760371  74.9346088 117.3748745  46.5611881  73.8703680 116.3366261
  69.8484432  77.4812576 113.7766431  69.0948140  76.9119974 113.6210435
  69.9831973  77.4475240 114.7237066  55.2383060  82.3525978 109.4521150
  55.1028735  83.1977514 109.8805998  55.7792873  82.5545256 108.6887084
  51.7250400  68.4317558 126.1135506  51.3317345  67.8783756 126.7883150
  52.5416540  68.7428136 126.5042023  48.6912457  79.8701416 110.0249075
  49.2036978  80.6644666 110.1754640  49.3435170  79.1727707 109.9582677
  50.5007342  82.9867172 112.1071829  50.6773970  83.9085137 111.9192813
  51.2964176  82.6725592 112.5366208  54.6418361  69.8475437 123.7055762
  55.3828074  70.4482590 123.6260225  54.8736283  69.1053075 123.1473805
  49.7859699  75.0331804 121.9833992  49.6713214  74.1317062 122.2841091
  48.9304216  75.2795501 121.6318808  56.8651536  82.9749545 123.5821492
  56.4215391  82.1885923 123.2642397  57.5268750  83.1628695 122.9165383
  51.6238658  84.5045346 118.1082171  52.1746083  84.3762410 117.3359165
  50.7850133  84.8040235 117.7577064  58.9632774  83.2552345 121.6102894
  58.9451250  84.0761226 121.1183163  59.8852695  83.1306420 121.8353035
  55.4205829  80.7696474 122.4526402  55.9534165  80.0084762 122.2225710
  54.8919910  80.4770126 123.1950557  58.5875524  65.8756540 117.9820044
  58.2439793  66.7658182 117.9059154  58.9554486  65.6858198 117.1189629
  46.6561374  78.1990070 110.8008646  47.4936596  78.6087079 110.5842354
  46.8339642  77.2589513 110.7708840  58.5525806  75.8665151 106.4892479
  58.0372430  76.6369756 106.7280866  58.2803115  75.1930287 107.1125540
  56.1372917  70.7114852 111.5477717  55.2814514  70.3221702 111.3683356
  56.5499869  70.7906813 110.6877503  57.6672064  68.2461195 115.9469277
  57.1636860  68.2091330 115.1337082  57.9602671  69.1553938 116.0065934
  53.9114950  68.3299925 114.9535459  54.7767947  68.1342734 114.5941348
  53.9792459  68.1010277 115.8804816  63.5260080  78.6197506 108.4245652
  62.7489523  78.2808665 107.9800815  64.2051561  78.6250129 107.7500618
  58.3412109  73.7392243 108.3152260  58.0362245  74.0538392 109.1662403
  59.2942552  73.8173663 108.3579593  56.7858541  79.8982466 109.9645214
  56.2579903  79.1635226 109.6518452  56.2846044  80.6757143 109.7185182
  61.7651387  78.0931487 115.0812260  61.1075062  78.7830748 115.1692389
  62.5691787  78.4827919 115.4246247  51.5177269  70.5602133 112.3251826
  52.0921021  70.3377314 111.5925019  52.1048251  70.6290827 113.0780427
  60.5756846  76.4475860 113.1316202  61.0888728  77.0805851 113.6337912
  61.2258070  75.8477055 112.7659562  51.8446856  72.5906594 106.3447711
  51.0084168  72.9281280 106.6656986  51.7051626  72.4555574 105.4074848
  53.8199937  67.4343382 111.0526895  53.1664349  67.1192399 110.4283510
  53.7780411  66.8119122 111.7786718  54.9311141  77.7162677 102.9680187
  54.0238203  77.4851930 103.1671336  55.4282173  76.9200296 103.1554169
  57.8379220  86.4260184 105.8876873  57.1640919  86.7291881 106.4961831
  58.2245042  87.2289264 105.5382330  57.0537677  73.9225315 115.3774543
  56.1360238  74.1440262 115.2196231  57.4697821  73.9971626 114.5186250
  57.8372725  75.3216731 110.5077223  58.5844544  75.8338128 110.1984345
  58.1064314  75.0000784 111.3681617  56.1099375  77.8175272 107.4904177
  55.2010594  77.5334304 107.5876647  56.1394459  78.2374350 106.6307484
  61.3418642  81.4281861 111.2595345  60.8880969  80.5872771 111.3160535
  60.7112609  82.0643259 111.5970125  60.2851562  72.3573847 112.4896012
  59.5474319  71.8451233 112.8206255  60.5378335  71.9174229 111.6779289
  59.7851582  83.2658358 112.1945163  60.0774556  83.8263415 111.4757529
  60.2950202  83.5586919 112.9498322  60.3863189  65.1350099 113.0837782
  60.6922066  64.2747463 112.7963697  61.1115794  65.7267719 112.8836775
  46.6787545  75.5380786 111.4719379  46.4811945  74.9450146 110.7470446
  46.1234209  75.2332996 112.1895318  54.6584269  75.4303892 113.5913973
  54.7132879  74.4777729 113.5156449  53.8475471  75.5863331 114.0755271
  55.8075463  79.3584015 104.8292256  55.3694893  78.6419874 104.3697893
  56.5485904  79.5860130 104.2677347  52.5976629  74.0480952 111.3504351
  51.7844494  74.3475122 111.7569544  53.0935623  73.6536641 112.0678834
  54.7485207  84.0438709 113.2838616  54.7061386  84.2699555 112.3547148
  55.6647906  83.8102083 113.4324417  58.1950841  74.5122776 120.1819245
  58.5500228  74.7394250 121.0413711  58.8422972  74.8441153 119.5596501
  63.9248578  77.6341212 110.8868574  63.7866476  77.8242808 109.9589764
  63.5684796  78.3960595 111.3436626  52.0890704  71.6199307 116.9665586
  52.7290083  71.4788067 116.2688550  51.2568234  71.3333821 116.5904188
  63.9517957  79.7017739 115.8979846  64.3854464  79.6093028 116.7462900
  64.6649538  79.6775240 115.2599862  52.8651008  80.9201738 113.0800579
  53.6591606  80.4252058 112.8783154  52.1542700  80.3919601 112.7168284
  57.6845852  83.3019833 117.4312947  57.7382874  83.8710770 118.1990662
  56.8160633  83.4721718 117.0666984  49.1733771  75.0644820 109.1560332
  48.2431359  75.0029275 109.3730294  49.2691243  74.5420772 108.3596973
  49.0919320  71.5899632 111.7438573  49.3526137  72.5044966 111.6347734
  49.9136492  71.1224075 111.8935186  50.5644245  73.0037390 118.9137398
  51.2367299  72.7954752 118.2650047  49.7374032  72.8059476 118.4742630
  64.8133507  79.7441440 118.4312731  65.0069397  80.6487250 118.6772006
  64.7134125  79.2848859 119.2651316  56.4669817  69.6299331 120.9303059
  55.8197732  70.3289280 120.8367535  57.2370833  70.0635474 121.2979307
  59.8748615  79.8948183 124.0053612  59.7234122  79.6658734 123.0883696
  59.8653295  80.8518784 124.0184957  56.6433952  77.4680095 118.9899878
  57.5726012  77.6191255 118.8168846  56.2224982  77.5564116 118.1348525
  55.4422284  81.4930760 116.7598416  55.3033369  81.1249544 117.6324354
  54.6536880  82.0078399 116.5882374  56.0370436  86.5939856 108.1023953
  56.2122191  86.1227900 108.9169575  55.3503224  87.2205623 108.3305213
  56.9927499  80.8712363 114.1487254  56.6577331  80.8313133 115.0444904
  56.4931444  80.2057078 113.6757664  50.9671743  76.2779993 119.6739835
  50.8291541  75.5460231 120.2751374  51.8776666  76.1888893 119.3924023
  59.9286690  78.2168397 104.4224313  59.3115861  77.4915225 104.3257366
  59.4603179  78.9777757 104.0791388  53.5954043  75.9899952 119.1623515
  54.3053662  75.3493144 119.1210133  53.5523351  76.2412847 120.0849695
  61.5840822  82.9267305 122.0830094  61.5253368  82.2426525 121.4160677
  61.9860340  83.6686295 121.6310720  52.3082977  72.9765170 120.9819154
  51.7720334  72.5255908 121.6340750  51.7199686  73.1111079 120.2389618
  50.6031521  89.7429219 114.8763813  50.8428119  90.3747743 115.5542831
  49.7600717  89.3917259 115.1629172  51.7185236  72.4353821 103.5445618
  50.8414703  72.3142622 103.1807864  52.1942989  71.6439900 103.2924506
  61.5858229  80.8906889 120.3144073  60.6985008  80.5532811 120.4370472
  62.1556780  80.1589920 120.5512839  43.2387376  77.2230981 113.6387125
  43.9258416  76.9092711 113.0508140  43.0835505  78.1272346 113.3654376
  48.0422099  72.1121178 118.0672149  47.9580287  71.5046847 117.3322558
  47.2204805  72.6030196 118.0681645  55.1159383  85.5508342 117.2805317
  55.0429554  86.3563313 117.7924621  54.6736776  85.7500307 116.4553338
  54.9049162  84.7880112 110.7908138  54.1216684  85.3301792 110.8846363
  55.6041907  85.3054091 111.1902379  58.2145812  70.5974741 113.4342344
  58.7114512  69.8444703 113.1143414  57.4432794  70.6339058 112.8685553
  66.0675570  76.3015107 115.0760635  66.0565446  77.1839822 114.7054568
  65.1992949  75.9486657 114.8815172  57.5758066  85.4495176 119.4363475
  58.2886038  86.0842640 119.3639377  57.0848095  85.5459042 118.6203477
  59.2975593  79.3546428 111.0080767  58.3631872  79.4747891 110.8385471
  59.4752262  78.4518895 110.7440777  54.7980781  72.7392124 113.1614028
  54.4278569  72.1863164 113.8494934  55.2939874  72.1350258 112.6089028
  62.6848144  75.1963748 111.5430801  63.1508597  76.0291739 111.4691104
  63.1355645  74.7308729 112.2476060  52.6269980  83.1989619 120.2569046
  53.3279439  83.8326102 120.4098440  52.1565095  83.5404351 119.4964685
  60.7524376  81.5407569 108.5416953  61.0284219  81.4264163 109.4510827
  59.8828874  81.1425054 108.5029126  60.6564807  67.5644335 115.5821702
  59.7427887  67.7948561 115.7503909  61.0857909  67.6482779 116.4335735
  60.4271266  75.7534226 118.0821597  59.7742716  76.0010134 117.4274049
  60.8051646  74.9398365 117.7484074  57.3878440  85.7893920 112.1849767
  57.5700834  84.9715576 112.6477519  58.2111426  86.0061612 111.7474657
  57.7220605  84.7162105 109.4464815  58.2508371  84.2054559 108.8334977
  57.9848825  84.4004635 110.3110348  56.4758839  76.4954038 124.5687634
  55.7999476  76.3948167 125.2390009  57.2986473  76.3393251 125.0323631
  48.2237698  82.7325974 117.1900149  48.8091135  81.9869662 117.3228053
  48.0262536  83.0429931 118.0736813  51.0776353  85.7677221 112.2062591
  50.4086728  86.2523349 111.7226631  50.9389223  86.0146442 113.1205970
  42.8155353  75.3031574 115.9104592  42.8539452  74.7695165 116.7041710
  42.3095645  74.7766780 115.2915569  55.2181622  87.8020965 118.8045250
  55.7699930  87.9652587 119.5694335  55.5587815  88.3925403 118.1325274
  50.1946115  70.1496115 119.4067134  50.2587441  71.0110946 118.9944532
  50.1313235  69.5370116 118.6739493  49.6698387  72.2219247 123.0540169
  50.2970426  71.8396325 123.6677693  48.8126306  72.0033449 123.4195861
  46.4463930  74.0295676 108.9858523  46.7417371  73.1206355 108.9325577
  45.5451966  74.0083416 108.6639526  58.3550009  85.7502941 115.7908932
  58.2301148  84.9492680 115.2819877  59.0129100  86.2449134 115.3022902
  49.9758177  72.1051673 114.9686072  49.2544763  72.7187641 114.8293545
  50.7651433  72.6409438 114.8902718  60.4184917  83.5511961 117.4188482
  59.4715253  83.4317312 117.3466809  60.7667690  82.6634459 117.5014743
  52.7784491  69.4406100 121.2426724  53.3018892  69.6868396 122.0053033
  52.5596824  70.2726134 120.8229861  48.1751772  71.7109774 109.1097849
  47.8464478  70.8307153 108.9272954  48.5291142  71.6557443 109.9974238
  57.4231351  83.3464677 113.6192834  57.2756313  82.4181384 113.8000404
  58.2484844  83.3684768 113.1349909  51.2893595  71.9982744 109.4773326
  51.6289667  72.5268665 108.7551935  51.7365715  72.3363150 110.2531893
  61.0265472  84.1693236 114.7057707  61.9512020  83.9636097 114.5682158
  60.8580776  83.9209637 115.6147048  53.9837036  70.3819795 118.9276394
  53.6433856  69.5827608 119.3297074  53.2776042  70.6821505 118.3553227
  54.6353507  67.4669107 117.3803717  55.4579577  66.9929585 117.2582608
  54.8791571  68.2459591 117.8802404  53.2761742  70.4957366 107.6766619
  53.9970104  70.8738618 107.1730336  52.6527046  71.2146242 107.7801597
  57.4192865  71.2002514 108.6124951  57.6356479  72.0827152 108.3113779
  56.9386932  70.8088728 107.8830593  52.1592086  74.1588228 115.1895696
  52.0136667  74.4728531 116.0819977  51.6817290  74.7773128 114.6366595
  54.0188469  71.1490776 115.2376585  54.0050038  70.2531869 114.9008883
  54.7360897  71.1561439 115.8714871  55.8714600  71.5828116 117.2829713
  55.6132378  72.5045187 117.2814043  55.3399640  71.1858550 117.9730177
  60.8160789  84.6878903 110.0619798  60.9897666  84.1225325 109.3093651
  61.3089680  85.4879798 109.8799288  46.6337748  76.6993572 118.1283357
  46.0891216  77.4753380 118.2603631  47.5117098  77.0464377 117.9702479
  53.4225365  70.0305156 110.5064156  53.5441276  69.1021802 110.7055043
  53.1327407  70.0443842 109.5942471  56.2916555  67.7160066 113.6430875
  56.3138252  67.7799399 112.6882855  56.7084614  66.8764575 113.8371382
  66.6700180  77.4515326 111.6810098  67.1131326  76.7022651 111.2829221
  65.7926690  77.4425462 111.2983830  61.8035961  84.0045667 107.1616697
  62.4986866  84.6252360 107.3804011  62.1459111  83.1541019 107.4369074
  47.4203770  75.8263468 121.0213514  46.6785506  75.9746104 121.6078144
  47.0996515  76.0871734 120.1580263  63.7027384  81.4545373 108.6904027
  64.2278708  81.7932646 107.9653347  63.6149737  80.5192388 108.5067162
  55.3647433  85.3679447 120.8193904  55.6734559  85.1228593 121.6916604
  56.1622915  85.5726085 120.3312774  55.3868045  87.5217356 113.0499280
  54.9473035  87.0293735 113.7432137  56.1376162  86.9790324 112.8091356
  47.8660384  83.7128897 113.0523909  48.6918404  83.4132669 112.6722552
  47.5154436  82.9436520 113.5013697  52.8341917  83.0655365 115.1221582
  52.2121926  82.4026070 114.8223810  53.5046784  83.0916497 114.4395230
  46.0668989  81.6315224 114.0112842  45.2300897  81.2037398 113.8296843
  46.0392634  81.8247667 114.9483633  52.9066445  71.5437153 124.7154088
  52.9554600  72.4199276 124.3331858  53.4488959  71.0014546 124.1425731
  63.5119165  78.9370743 121.3087954  63.5617170  78.7720750 122.2503477
  63.4033089  78.0698002 120.9185835  52.3955424  81.6159289 108.5980043
  52.5443544  82.2994753 107.9446715  53.2021867  81.5964379 109.1129498
  60.8022928  74.9201671 122.6247261  61.7032790  74.7808136 122.3331258
  60.8770902  75.0856126 123.5645438  55.1365733  72.2968526 121.4700447
  54.2669042  72.5902092 121.1983035  55.3725213  72.8808971 122.1907710
  65.0137362  81.3567684 121.5529975  64.7222170  81.7197665 122.3893436
  64.4009493  80.6434693 121.3743307  66.2133044  78.9220564 114.0732546
  67.0479936  79.3610368 114.2370106  66.3492173  78.4459217 113.2540791
  63.2624550  76.4800299 120.0210033  63.7378672  76.6727945 119.2128885
  62.3390116  76.5359485 119.7753417  50.1508057  77.6424466 109.6041112
  49.9054099  76.7386796 109.8021322  50.3203972  77.6441617 108.6620590
  57.8404767  68.5148143 118.9865867  58.3586711  69.2509170 118.6612356
  57.4859900  68.8212136 119.8212626  49.4203705  73.3752824 107.1027273
  48.7272949  73.4497179 106.4467309  49.1755456  72.6113168 107.6248790
  58.0917361  64.9348425 114.5066764  58.3719115  64.2671614 115.1327190
  58.8767968  65.1277521 113.9941428  55.8950830  84.1107419 106.0691790
  55.3224797  84.7297606 105.6162262  56.4683623  84.6606781 106.6031712
  61.9626219  73.3566059 118.2538339  62.9143642  73.4564157 118.2750563
  61.7929670  72.5644328 118.7636423  59.9840599  70.4421642 118.4397740
  59.3890531  70.7226655 117.7444228  59.6990296  70.9315543 119.2114481
  59.1148089  84.3944569 107.2000372  60.0478762  84.3290131 107.4033248
  59.0271302  85.2300836 106.7414905  61.7436106  83.7110440 104.1604320
  61.6649738  83.3770303 105.0540078  62.5645773  84.2032207 104.1595792
  64.4414297  76.5772179 117.3680639  64.4090617  75.6388180 117.5540322
  65.0514921  76.6556216 116.6346463  56.2797628  75.4468232 103.4107843
  57.2256733  75.3174440 103.4796261  55.9011873  74.7082894 103.8877271
  64.5908786  73.3683222 117.4138922  64.0747834  72.5841679 117.2268851
  65.4748734  73.0401939 117.5785441  62.2519513  67.1124238 113.3734734
  62.0544334  66.8039326 114.2578066  62.8619218  67.8385877 113.5032664
  70.2590847  77.6388186 116.5086675  70.9894236  77.3773474 117.0694379
  69.6497793  76.9016908 116.5488743  68.3406144  75.7796048 117.1061127
  67.6139308  75.6452013 116.4977618  67.9253431  76.0872877 117.9117845
  56.1636321  79.4985978 124.8708500  57.0839330  79.6764577 125.0648546
  56.1285904  78.5542023 124.7188199  54.4640545  73.3718208 103.3462728
  53.5572001  73.0751321 103.4225441  54.7416526  73.0748026 102.4797014
  45.3818486  74.6924572 113.7961774  45.0621270  73.8389880 113.5036148
  44.8351914  74.9073150 114.5519742  49.1598393  77.4087013 117.5131281
  49.3784403  78.3404120 117.5319315  49.5724167  77.0494987 118.2986085
  56.0802611  67.9155098 109.5006969  55.2703339  67.5702183 109.8762215
  56.7687028  67.6062642 110.0894581  58.0093159  66.9933145 111.1231266
  58.5624198  67.4128598 111.7821289  58.2463246  66.0668893 111.1654222
  54.0326258  72.9820218 126.9034030  53.9322985  73.9314575 126.8346121
  53.8147800  72.6538457 126.0310100  53.2339330  70.2305143 103.4874707
  54.0958494  70.5560042 103.7470524  53.4189674  69.4436639 102.9747773
  45.2506746  78.3127483 115.7654896  44.5570217  77.8981436 115.2524850
  45.9979737  78.3548020 115.1688315  61.3871966  69.1033670 110.6309930
  60.8070635  69.7618474 110.2487982  61.1207899  68.2811015 110.2197348
  59.8375533  68.5038728 112.8331250  60.3375311  68.6155262 112.0245569
  60.4811141  68.1999780 113.4732059  53.8957529  76.4117357 125.7199091
  53.4124610  77.2117717 125.9262980  53.9818468  76.4225302 124.7666535
  47.1643488  78.2445737 113.6420911  47.1414176  78.3433424 112.6902794
  47.4744125  79.0910888 113.9638077  49.8230866  80.3021892 117.7567525
  50.7774120  80.2705834 117.6897457  49.6243390  79.8412516 118.5717751
  50.4130248  78.8723008 120.3238323  51.2323137  79.3667087 120.3473160
  50.6867056  77.9554976 120.2955890  60.1696844  71.2633760 109.6866278
  59.2822699  71.5483411 109.4686473  60.5850833  71.1027524 108.8393555
  63.5211380  71.2880281 113.4020618  64.2971771  71.7776734 113.6745234
  62.7959515  71.7138335 113.8592487  65.9583939  72.0007901 114.4594558
  66.5528430  71.7603636 113.7487866  66.0310523  71.2815031 115.0868094
  48.1781095  85.8441511 114.7737723  48.0435563  85.0841912 114.2075721
  47.7613157  86.5682411 114.3066512  59.3140058  81.0278435 103.7814298
  60.0175908  81.2328437 104.3971954  58.5902707  81.5955197 104.0463382
  60.1437868  76.7788296 109.9016568  60.0873069  77.2356848 109.0624201
  60.6966211  76.0178981 109.7239411  63.9542674  72.5678028 110.7266688
  63.6979608  72.1674664 111.5574896  63.3295542  73.2821822 110.6016827
  68.2655012  75.3074101 113.2337979  67.7054570  75.3767291 114.0069541
  67.6598515  75.1315086 112.5137476  51.3350221  86.7410828 114.9856166
  51.2182605  87.6856261 114.8834856  50.5142667  86.4384390 115.3741965
  61.2226755  81.4660964 105.8312758  62.0572359  81.0342163 105.6490233
  61.0611098  81.2942978 106.7589653  60.8772647  77.9693077 107.1969098
  60.8221451  77.8037349 106.2557542  60.2518703  78.6769110 107.3531287
  45.6665162  73.2061142 121.0230520  46.3124026  72.6960096 121.5117745
  45.4582313  73.9429824 121.5973945  54.1868773  67.4701186 106.7754416
  54.1747443  68.4143026 106.9322687  55.0792195  67.2871332 106.4813877
  52.3604735  87.3939090 118.2012094  53.2631981  87.4262701 118.5178589
  52.1342105  86.4639541 118.2158430  54.1158337  86.1470077 114.8622173
  53.1653968  86.1471939 114.7486545  54.4190823  85.4002811 114.3458207
  58.0020892  64.0643963 111.0300353  57.2353288  63.5102450 111.1757035
  58.4131597  64.1365832 111.8914504  50.0062653  70.3528759 125.1205534
  50.8694115  69.9965564 125.3308859  49.4328064  70.0142654 125.8080938
  66.6600737  91.9358043 115.8629460  66.3219248  91.8199108 114.9749995
  67.5290505  91.5349208 115.8430466  62.5187552  93.7893520 111.8526351
  61.9552417  93.6983457 111.0842638  62.4039947  92.9693424 112.3328843
  60.0651984  95.2844711 114.6910571  60.8573276  94.9435536 114.2756871
  60.3048634  95.3939686 115.6112725  68.0987111  97.4564488 107.1640816
  67.4475091  98.0418568 106.7774829  68.8931474  97.9870682 107.2235853
  62.0242738  94.5453625 107.5627950  62.7973614  93.9982612 107.4240826
  62.3768137  95.4097874 107.7742411  64.3609016  90.7046291 105.1946400
  64.6134537  90.1827812 104.4329863  63.4233575  90.5412436 105.2973084
  69.4052299  89.7082069 113.0021143  70.1915388  89.2901492 112.6511560
  69.6691003  90.6128161 113.1702792  69.5762376  95.1454919 107.7009800
  68.9408209  95.2189546 108.4130705  69.2459783  95.7348518 107.0228879
  74.8060726  89.6457302 113.9054122  75.5385898  89.0756519 114.1391951
  74.0500082  89.2578903 114.3460627  64.0805305  92.6074397 107.3970775
  63.9641563  91.9319300 108.0651859  64.1907565  92.1206771 106.5802928
  66.4236846  92.0684544 111.1017464  66.0595053  91.5415165 111.8130386
  67.2803962  91.6783013 110.9283950  72.3286146  83.3578876 118.3648730
  71.9969471  84.2274287 118.1409945  71.7331760  83.0415160 119.0442761
  66.0642333  87.0974444 106.0978813  66.2316735  87.9654680 106.4649284
  65.8739502  87.2601725 105.1740102  62.2730147  92.0105219 113.7981347
  61.3480644  91.8781433 114.0059039  62.5214560  92.7899439 114.2951290
  66.0431553  89.5532101 107.0825479  65.9231179  89.9989152 107.9210960
  65.3484142  89.9017419 106.5239018  59.6338958  91.6538493 114.6325136
  59.7631339  91.9072972 115.5464548  58.9536410  92.2466201 114.3129792
  63.8038446 102.3235743 110.7315611  63.7262475 103.2743568 110.8104091
  63.2000089 101.9781615 111.3890537  71.7416620  90.0253574 107.9105813
  72.6534476  90.2580961 107.7353511  71.2326267  90.6090618 107.3480892
  69.0852594  86.2011610 116.1595674  68.2237073  86.4992864 116.4512412
  69.1115029  86.4182009 115.2276707  65.9014164  94.7453801 112.5669480
  66.3652509  95.0241504 111.7774103  65.6370962  93.8437245 112.3842571
  62.7938245  94.2925282 115.5049243  63.3639602  94.7212551 114.8666728
  63.3846357  94.0107867 116.2033429  64.8383050  90.8676953 109.3759045
  65.5407093  91.3197997 109.8432972  64.5063678  90.2260772 110.0038938
  58.5808384  89.1260506 114.6776179  57.7907438  89.3818034 114.2016289
  59.0719631  89.9408844 114.7828219  60.5323129  89.4905085 111.6359655
  59.7354292  89.6023779 112.1543151  60.3048721  89.8291737 110.7700546
  56.8646087  89.3790996 117.1091170  57.1154125  90.2638006 117.3748745
  57.4005635  89.1995598 116.3366261  66.0776814  97.6817896 109.4521150
  65.9422489  98.5269431 109.8805998  66.6186627  97.8837173 108.6887084
  59.5306212  95.1993334 110.0249075  60.0430732  95.9936584 110.1754640
  60.1828925  94.5019624 109.9582677  61.3401097  98.3159090 112.1071829
  61.5167725  99.2377055 111.9192813  62.1357930  98.0017509 112.5366208
  69.4269278  81.2048458 117.9820044  69.0833547  82.0950099 117.9059154
  69.7948241  81.0150115 117.1189629  57.4955129  93.5281988 110.8008646
  58.3330351  93.9378996 110.5842354  57.6733396  92.5881430 110.7708840
  69.3919561  91.1957069 106.4892479  68.8766184  91.9661673 106.7280866
  69.1196869  90.5222205 107.1125540  66.9766672  86.0406770 111.5477717
  66.1208268  85.6513620 111.3683356  67.3893624  86.1198730 110.6877503
  68.5065818  83.5753113 115.9469277  68.0030614  83.5383248 115.1337082
  68.7996425  84.4845855 116.0065934  64.7508704  83.6591843 114.9535459
  65.6161701  83.4634651 114.5941348  64.8186213  83.4302194 115.8804816
  74.3653835  93.9489423 108.4245652  73.5883278  93.6100583 107.9800815
  75.0445316  93.9542047 107.7500618  69.1805864  89.0684161 108.3152260
  68.8756000  89.3830310 109.1662403  70.1336306  89.1465581 108.3579593
  67.6252296  95.2274384 109.9645214  67.0973657  94.4927144 109.6518452
  67.1239799  96.0049060 109.7185182  62.3571023  85.8894050 112.3251826
  62.9314775  85.6669232 111.5925019  62.9442006  85.9582745 113.0780427
  71.4150601  91.7767777 113.1316202  71.9282482  92.4097769 113.6337912
  72.0651825  91.1768973 112.7659562  62.6840611  87.9198511 106.3447711
  61.8477923  88.2573198 106.6656986  62.5445380  87.7847491 105.4074848
  64.6593691  82.7635299 111.0526895  64.0058103  82.4484317 110.4283510
  64.6174165  82.1411040 111.7786718  65.7704896  93.0454594 102.9680187
  64.8631958  92.8143848 103.1671336  66.2675928  92.2492214 103.1554169
  68.6772975 101.7552102 105.8876873  68.0034674 102.0583798 106.4961831
  69.0638797 102.5581182 105.5382330  67.8931431  89.2517233 115.3774543
  66.9753993  89.4732180 115.2196231  68.3091575  89.3263543 114.5186250
  68.6766479  90.6508649 110.5077223  69.4238298  91.1630046 110.1984345
  68.9458069  90.3292701 111.3681617  66.9493129  93.1467189 107.4904177
  66.0404349  92.8626222 107.5876647  66.9788213  93.5666268 106.6307484
  71.1245316  87.6865765 112.4896012  70.3868073  87.1743151 112.8206255
  71.3772090  87.2466146 111.6779289  71.2256944  80.4642017 113.0837782
  71.5315821  79.6039380 112.7963697  71.9509549  81.0559637 112.8836775
  57.5181300  90.8672703 111.4719379  57.3205700  90.2742064 110.7470446
  56.9627964  90.5624914 112.1895318  65.4978023  90.7595810 113.5913973
  65.5526633  89.8069646 113.5156449  64.6869225  90.9155249 114.0755271
  66.6469217  94.6875933 104.8292256  66.2088647  93.9711792 104.3697893
  67.3879658  94.9152048 104.2677347  63.4370383  89.3772870 111.3504351
  62.6238249  89.6767040 111.7569544  63.9329378  88.9828558 112.0678834
  74.7642332  92.9633130 110.8868574  74.6260231  93.1534726 109.9589764
  74.4078551  93.7252513 111.3436626  62.9284458  86.9491225 116.9665586
  63.5683837  86.8079984 116.2688550  62.0961989  86.6625739 116.5904188
  63.7044762  96.2493656 113.0800579  64.4985361  95.7543976 112.8783154
  62.9936454  95.7211519 112.7168284  60.0127526  90.3936737 109.1560332
  59.0825114  90.3321193 109.3730294  60.1084998  89.8712690 108.3596973
  59.9313075  86.9191550 111.7438573  60.1919892  87.8336883 111.6347734
  60.7530247  86.4515993 111.8935186  61.4038000  88.3329307 118.9137398
  62.0761053  88.1246669 118.2650047  60.5767786  88.1351393 118.4742630
  66.8764190 101.9231774 108.1023953  67.0515946 101.4519817 108.9169575
  66.1896978 102.5497540 108.3305213  70.7680445  93.5460315 104.4224313
  70.1509615  92.8207143 104.3257366  70.2996933  94.3069675 104.0791388
  62.5578991  87.7645739 103.5445618  61.6808457  87.6434540 103.1807864
  63.0336744  86.9731817 103.2924506  54.0781131  92.5522899 113.6387125
  54.7652171  92.2384629 113.0508140  53.9229260  93.4564263 113.3654376
  58.8815853  87.4413095 118.0672149  58.7974042  86.8338765 117.3322558
  58.0598559  87.9322113 118.0681645  65.7442917 100.1172029 110.7908138
  64.9610439 100.6593709 110.8846363  66.4435662 100.6346009 111.1902379
  69.0539567  85.9266659 113.4342344  69.5508266  85.1736621 113.1143414
  68.2826548  85.9630975 112.8685553  70.1369348  94.6838346 111.0080767
  69.2025626  94.8039808 110.8385471  70.3146016  93.7810813 110.7440777
  65.6374536  88.0684042 113.1614028  65.2672323  87.5155082 113.8494934
  66.1333628  87.4642175 112.6089028  73.5241899  90.5255665 111.5430801
  73.9902351  91.3583657 111.4691104  73.9749399  90.0600647 112.2476060
  71.5918130  96.8699487 108.5416953  71.8677974  96.7556081 109.4510827
  70.7222629  96.4716971 108.5029126  71.4958562  82.8936252 115.5821702
  70.5821641  83.1240479 115.7503909  71.9251663  82.9774696 116.4335735
  68.5614360 100.0454022 109.4464815  69.0902126  99.5346477 108.8334977
  68.8242579  99.7296553 110.3110348  53.6549107  90.6323492 115.9104592
  53.6933207  90.0987083 116.7041710  53.1489400  90.1058697 115.2915569
  61.0339869  85.4788032 119.4067134  61.0981196  86.3402863 118.9944532
  60.9706990  84.8662034 118.6739493  57.2857685  89.3587594 108.9858523
  57.5811126  88.4498273 108.9325577  56.3845720  89.3375334 108.6639526
  60.8151932  87.4343591 114.9686072  60.0938517  88.0479558 114.8293545
  61.6045187  87.9701356 114.8902718  59.0145526  87.0401692 109.1097849
  58.6858232  86.1599071 108.9272954  59.3684897  86.9849360 109.9974238
  62.1287349  87.3274662 109.4773326  62.4683422  87.8560583 108.7551935
  62.5759470  87.6655068 110.2531893  64.8230790  85.7111712 118.9276394
  64.4827611  84.9119525 119.3297074  64.1169796  86.0113423 118.3553227
  65.4747262  82.7961025 117.3803717  66.2973331  82.3221503 117.2582608
  65.7185326  83.5751508 117.8802404  64.1155496  85.8249283 107.6766619
  64.8363859  86.2030536 107.1730336  63.4920801  86.5438160 107.7801597
  68.2586619  86.5294432 108.6124951  68.4750234  87.4119070 108.3113779
  67.7780687  86.1380646 107.8830593  62.9985841  89.4880145 115.1895696
  62.8530421  89.8020448 116.0819977  62.5211044  90.1065046 114.6366595
  64.8582224  86.4782693 115.2376585  64.8443792  85.5823787 114.9008883
  65.5754652  86.4853357 115.8714871  66.7108354  86.9120034 117.2829713
  66.4526132  87.8337104 117.2814043  66.1793395  86.5150468 117.9730177
  57.4731503  92.0285490 118.1283357  56.9284971  92.8045298 118.2603631
  58.3510853  92.3756294 117.9702479  64.2619120  85.3597074 110.5064156
  64.3835031  84.4313720 110.7055043  63.9721162  85.3735760 109.5942471
  67.1310310  83.0451984 113.6430875  67.1532007  83.1091317 112.6882855
  67.5478369  82.2056493 113.8371382  72.6429716  99.3337585 107.1616697
  73.3380620  99.9544278 107.3804011  72.9852866  98.4832936 107.4369074
  74.5421139  96.7837291 108.6904027  75.0672463  97.1224563 107.9653347
  74.4543491  95.8484306 108.5067162  58.7054138  99.0420815 113.0523909
  59.5312158  98.7424587 112.6722552  58.3548190  98.2728437 113.5013697
  56.9062743  96.9607141 114.0112842  56.0694652  96.5329316 113.8296843
  56.8786389  97.1539585 114.9483633  63.2349179  96.9451206 108.5980043
  63.3837299  97.6286671 107.9446715  64.0415622  96.9256296 109.1129498
  60.9901811  92.9716384 109.6041112  60.7447853  92.0678714 109.8021322
  61.1597726  92.9733534 108.6620590  68.6798521  83.8440060 118.9865867
  69.1980465  84.5801087 118.6612356  68.3253654  84.1504054 119.8212626
  60.2597459  88.7044742 107.1027273  59.5666704  88.7789097 106.4467309
  60.0149211  87.9405085 107.6248790  68.9311116  80.2640343 114.5066764
  69.2112869  79.5963532 115.1327190  69.7161722  80.4569438 113.9941428
  66.7344584  99.4399337 106.0691790  66.1618551 100.0589524 105.6162262
  67.3077378  99.9898698 106.6031712  69.9541844  99.7236487 107.2000372
  70.8872517  99.6582049 107.4033248  69.8665057 100.5592754 106.7414905
  72.5829860  99.0402357 104.1604320  72.5043492  98.7062221 105.0540078
  73.4039527  99.5324125 104.1595792  67.1191383  90.7760150 103.4107843
  68.0650487  90.6466358 103.4796261  66.7405627  90.0374811 103.8877271
  73.0913267  82.4416156 113.3734734  72.8938088  82.1331244 114.2578066
  73.7012973  83.1677794 113.5032664  65.3034300  88.7010126 103.3462728
  64.3965755  88.4043239 103.4225441  65.5810281  88.4039944 102.4797014
  56.2212240  90.0216489 113.7961774  55.9015024  89.1681798 113.5036148
  55.6745668  90.2365067 114.5519742  59.9992148  92.7378930 117.5131281
  60.2178157  93.6696038 117.5319315  60.4117921  92.3786905 118.2986085
  66.9196365  83.2447016 109.5006969  66.1097094  82.8994101 109.8762215
  67.6080782  82.9354559 110.0894581  68.8486914  82.3225062 111.1231266
  69.4017952  82.7420516 111.7821289  69.0857000  81.3960811 111.1654222
  64.0733084  85.5597061 103.4874707  64.9352248  85.8851959 103.7470524
  64.2583428  84.7728557 102.9747773  56.0900500  93.6419401 115.7654896
  55.3963972  93.2273354 115.2524850  56.8373491  93.6839937 115.1688315
  72.2265721  84.4325588 110.6309930  71.6464390  85.0910392 110.2487982
  71.9601653  83.6102932 110.2197348  70.6769287  83.8330645 112.8331250
  71.1769066  83.9447180 112.0245569  71.3204895  83.5291698 113.4732059
  58.0037243  93.5737655 113.6420911  57.9807931  93.6725342 112.6902794
  58.3137879  94.4202805 113.9638077  71.0090599  86.5925678 109.6866278
  70.1216454  86.8775329 109.4686473  71.4244588  86.4319441 108.8393555
  74.3605135  86.6172199 113.4020618  75.1365525  87.1068651 113.6745234
  73.6353269  87.0430253 113.8592487  76.7977694  87.3299818 114.4594558
  77.3922184  87.0895554 113.7487866  76.8704277  86.6106949 115.0868094
  70.1533812  96.3570353 103.7814298  70.8569662  96.5620355 104.3971954
  69.4296461  96.9247115 104.0463382  70.9831623  92.1080214 109.9016568
  70.9266824  92.5648765 109.0624201  71.5359965  91.3470899 109.7239411
  74.7936428  87.8969946 110.7266688  74.5373363  87.4966581 111.5574896
  74.1689297  88.6113740 110.6016827  72.0620510  96.7952882 105.8312758
  72.8966114  96.3634080 105.6490233  71.9004853  96.6234896 106.7589653
  71.7166402  93.2984995 107.1969098  71.6615206  93.1329267 106.2557542
  71.0912457  94.0061028 107.3531287  56.5058917  88.5353060 121.0230520
  57.1517780  88.0252014 121.5117745  56.2976068  89.2721741 121.5973945
  65.0262527  82.7993104 106.7754416  65.0141197  83.7434944 106.9322687
  65.9185949  82.6163250 106.4813877  68.8414647  79.3935881 111.0300353
  68.0747043  78.8394368 111.1757035  69.2525352  79.4657750 111.8914504
  73.5234365 103.2490429 106.3447711  72.6871677 103.5865116 106.6656986
  73.3839135 103.1139409 105.4074848  73.3972745 103.0937657 103.5445618
  72.5202212 102.9726457 103.1807864  73.8730498 102.3023735 103.2924506
  71.0991214 104.0336659 107.1027273  70.4060458 104.1081014 106.4467309
  70.8542965 103.2697003 107.6248790  76.1428054 104.0302044 103.3462728
  75.2359510 103.7335156 103.4225441  76.4204035 103.7331862 102.4797014
  74.9126839 100.8888979 103.4874707  75.7746003 101.2143877 103.7470524
  75.0977183 100.1020475 102.9747773  75.8656282  98.1285022 106.7754416
  75.8534952  99.0726862 106.9322687  76.7579704  97.9455167 106.4813877
  25.3197958  17.4446553  92.6122180  24.6459657  17.7478250  93.2207138
  25.7063780  18.2475634  92.2627637  27.4105428   9.2354766  91.1469620
  26.7934599   8.5101595  91.0502673  26.9421917   9.9964127  90.8036694
  29.2854699  15.0232037  93.8862003  29.9805604  15.6438730  94.1049318
  29.6277849  14.1727388  94.1614381  23.3769567  15.1293789  92.7937097
  22.8043534  15.7483976  92.3407569  23.9502361  15.6793150  93.3277019
  26.5966827  15.4130939  93.9245679  27.5297500  15.3476500  94.1278555
  26.5090040  16.2487206  93.4660212  29.2254844  14.7296809  90.8849627
  29.1468475  14.3956673  91.7785385  30.0464511  15.2218577  90.8841099
  26.7958796  12.0464805  90.5059605  27.4994646  12.2514807  91.1217261
  26.0721444  12.6141566  90.7708688  28.7045493  12.4847334  92.5558065
  29.5391097  12.0528532  92.3735540  28.5429836  12.3129347  93.4834959
  37.3329768  23.0016985 102.6513242  37.9708178  22.8823732 101.9476582
  37.2150611  23.9497829 102.7101194  34.1419474  22.9544413 102.5874766
  33.8037986  22.8385478 101.6995301  35.0109243  22.5535578 102.5675773
  30.0006290  24.8079889  98.5771657  29.4371155  24.7169826  97.8087945
  29.8858685  23.9879794  99.0574150  35.5805849  28.4750857  93.8886122
  34.9293829  29.0604937  93.5020136  36.3750212  29.0057052  93.9481160
  29.5061476  25.5639994  94.2873257  30.2792352  25.0168981  94.1486132
  29.8586875  26.4284244  94.4987718  31.8427754  21.7232660  91.9191707
  32.0953274  21.2014182  91.1575170  30.9052313  21.5598806  92.0218390
  36.8871037  20.7268439  99.7266450  37.6734126  20.3087862  99.3756867
  37.1509741  21.6314531  99.8948098  37.0581114  26.1641289  94.4255107
  36.4226947  26.2375916  95.1376011  36.7278520  26.7534888  93.7474186
  42.2879464  20.6643672 100.6299428  43.0204636  20.0942889 100.8637258
  41.5318819  20.2765272 101.0705934  31.5624042  23.6260766  94.1216082
  31.4460301  22.9505670  94.7897166  31.6726302  23.1393140  93.3048235
  33.9055583  23.0870913  97.8262771  33.5413791  22.5601534  98.5375692
  34.7622699  22.6969382  97.6529256  33.5461070  18.1160813  92.8224119
  33.7135473  18.9841050  93.1894590  33.3558239  18.2788095  91.8985409
  36.3036404  26.5777792 104.4889950  36.0037127  27.4802831 104.3805757
  35.9587463  26.3109975 105.3411103  39.7033547  19.0960332 102.1687387
  38.7950425  19.0275741 101.8746148  39.6521143  19.5732277 102.9969212
  33.5250291  20.5718471  93.8070786  33.4049916  21.0175521  94.6456266
  32.8302880  20.9203788  93.2484324  31.2857183  33.3422112  97.4560917
  31.2081213  34.2929937  97.5349398  30.6818827  32.9967985  98.1135844
  39.2235357  21.0439944  94.6351120  40.1353214  21.2767331  94.4598818
  38.7145004  21.6276988  94.0726199  37.8304940  26.0265762 102.0264702
  37.2013802  26.1911476 101.3240769  37.4430602  26.4407372 102.7975666
  41.7094172  26.9620200  99.3809065  41.0245210  27.3419101  98.8306099
  41.7938021  27.5715527 100.1141013  33.3832902  25.7640170  99.2914787
  33.8471247  26.0427873  98.5019409  33.1189700  24.8623615  99.1087877
  32.3201788  21.8863323  96.1004352  33.0225831  22.3384366  96.5678278
  31.9882416  21.2447142  96.7284245  40.0790931  27.4852115 104.1526766
  40.9008375  27.0832302 103.8709448  40.0753334  27.3820349 105.1042882
  48.1696924  23.8290863 100.5011738  47.4160633  23.2598261 100.3455742
  48.3044465  23.7953528 101.4482372  33.5595552  28.7004265  96.1766457
  33.4241227  29.5455801  96.6051305  34.1005365  28.9023543  95.4132391
  27.0124950  26.2179703  96.7494382  27.5249470  27.0122954  96.8999947
  27.6647663  25.5205994  96.6827984  28.8219834  29.3345460  98.8317135
  28.9986463  30.2563424  98.6438119  29.6176668  29.0203879  99.2611515
  29.9451150  30.8523633 104.8327478  30.4958575  30.7240697 104.0604472
  29.1062626  31.1518522 104.4822370  24.9773866  24.5468358  97.5253953
  25.8149088  24.9565366  97.3087660  25.1552134  23.6067800  97.4954147
  36.8738299  22.2143438  93.2137786  36.3584922  22.9848043  93.4526173
  36.6015607  21.5408574  93.8370847  34.4585410  17.0593139  98.2723024
  33.6027006  16.6699989  98.0928663  34.8712361  17.1385100  97.4122810
  41.8472573  24.9675793  95.1490959  41.0702015  24.6286952  94.7046121
  42.5264054  24.9728416  94.4745924  36.6624602  20.0870530  95.0397567
  36.3574737  20.4016680  95.8907710  37.6155044  20.1651950  95.0824900
  35.1071034  26.2460754  96.6890521  34.5792395  25.5113513  96.3763758
  34.6058536  27.0235430  96.4430489  40.0863880  24.4409774 101.8057567
  39.4287554  25.1309036 101.8937696  40.8904279  24.8306206 102.1491553
  38.8969338  22.7954147  99.8561509  39.4101220  23.4284139 100.3583219
  39.5470562  22.1955342  99.4904869  30.1659348  18.9384881  93.0693018
  29.3296661  19.2759568  93.3902292  30.0264118  18.8033861  92.1320155
  33.2523634  24.0640964  89.6925494  32.3450696  23.8330217  89.8916643
  33.7494666  23.2678583  89.8799475  36.1591713  32.7738471  92.6122180
  35.4853411  33.0770168  93.2207138  36.5457535  33.5767552  92.2627637
  36.1585217  21.6695018  97.2322530  36.9057036  22.1816415  96.9229652
  36.4276807  21.3479071  98.0926923  34.4311867  24.1653559  94.2149484
  33.5223086  23.8812592  94.3121954  34.4606951  24.5852637  93.3552791
  39.6631135  27.7760148  97.9840651  39.2093462  26.9351058  98.0405842
  39.0325101  28.4121547  98.3215432  38.6064054  18.7052134  99.2141319
  37.8686811  18.1929521  99.5451561  38.8590828  18.2652516  98.4024596
  38.1064074  29.6136645  98.9190470  38.3987048  30.1741702  98.2002835
  38.6162694  29.9065206  99.6743629  32.9796761  21.7782179 100.3159279
  33.0345371  20.8256016 100.2401756  32.1687963  21.9341619 100.8000578
  34.1287955  25.7062303  91.5537562  33.6907385  24.9898161  91.0943200
  34.8698396  25.9338417  90.9922654  30.9189121  20.3959239  98.0749658
  30.1056987  20.6953410  98.4814850  31.4148115  20.0014928  98.7924140
  33.0697699  30.3916996 100.0083923  33.0273878  30.6177842  99.0792455
  33.9860398  30.1580371 100.1569724  42.2461070  23.9819500  97.6113881
  42.1078968  24.1721096  96.6835070  41.8897289  24.7438882  98.0681932
  42.2730449  26.0496027 102.6225153  42.7066956  25.9571316 103.4708207
  42.9862030  26.0253527 101.9845169  31.1863500  27.2680025  99.8045886
  31.9804098  26.7730345  99.6028461  30.4755192  26.7397888  99.4413591
  36.0058344  29.6498121 104.1558253  36.0595367  30.2189057 104.9235969
  35.1373126  29.8200006 103.7912290  27.4946263  21.4123107  95.8805638
  26.5643851  21.3507562  96.0975600  27.5903735  20.8899060  95.0842279
  43.1345999  26.0919727 105.1558038  43.3281889  26.9965538 105.4017313
  43.0346617  25.6327146 105.9896623  33.7634776  27.8409047 103.4843723
  33.6245862  27.4727832 104.3569661  32.9749372  28.3556687 103.3127680
  34.3582928  32.9418144  94.8269259  34.5334683  32.4706187  95.6414882
  33.6715716  33.5683910  95.0550520  35.3139991  27.2190650 100.8732560
  34.9789824  27.1791420 101.7690210  34.8143937  26.5535366 100.4002971
  38.2499183  24.5646684  91.1469620  37.6328353  23.8393512  91.0502673
  37.7815671  25.3256044  90.8036694  28.9244013  36.0907506 101.6009119
  29.1640611  36.7226031 102.2788138  28.0813210  35.7395546 101.8874479
  30.0397729  18.7832108  90.2690924  29.1627195  18.6620909  89.9053171
  30.5155482  17.9918187  90.0169813  33.4371875  31.8986629 104.0050623
  33.3642046  32.7041600 104.5169928  32.9949268  32.0978595 103.1798645
  33.2261655  31.1358399  97.5153445  32.4429176  31.6780079  97.6091669
  33.9254400  31.6532378  97.9147686  36.5358305  16.9453028 100.1587650
  37.0327004  16.1922991  99.8388720  35.7645286  16.9817345  99.5930860
  44.3888062  22.6493394 101.8005942  44.3777938  23.5318109 101.4299875
  43.5205442  22.2964945 101.6060479  35.8970558  31.7973463 106.1608782
  36.6098531  32.4320928 106.0884683  35.4060587  31.8937329 105.3448784
  37.6188085  25.7024716  97.7326074  36.6844364  25.8226178  97.5630778
  37.7964754  24.7997182  97.4686083  41.0060637  21.5442035  98.2676108
  41.4721089  22.3770026  98.1936410  41.4568137  21.0787016  98.9721366
  39.0736868  27.8885856  95.2662260  39.3496712  27.7742451  96.1756134
  38.2041367  27.4903341  95.2274433  35.7090932  32.1372207  98.9095073
  35.8913326  31.3193863  99.3722826  36.5323918  32.3539899  98.4719963
  36.0433097  31.0640392  96.1710122  36.5720864  30.5532847  95.5580284
  36.3061317  30.7482922  97.0355655  29.3988845  32.1155509  98.9307898
  28.7299221  32.6001636  98.4471938  29.2601715  32.3624729  99.8451276
  33.5394114  34.1499252 105.5290556  34.0912422  34.3130874 106.2939641
  33.8800307  34.7403690 104.8570581  24.7676422  20.3773964  95.7103830
  25.0629863  19.4684642  95.6570884  23.8664458  20.3561703  95.3884832
  36.6762501  32.0981228 102.5154238  36.5513641  31.2970968 102.0065184
  37.3341592  32.5927421 102.0268208  38.7397410  29.8990248 104.1433788
  37.7927745  29.7795599 104.0712115  39.0880183  29.0112746 104.2260050
  26.4964264  18.0588061  95.8343155  26.1676970  17.1785440  95.6518261
  26.8503635  18.0035730  96.7219544  35.7443843  29.6942964 100.3438141
  35.5968805  28.7659671 100.5245711  36.5697336  29.7163055  99.8595216
  29.6106087  18.3461031  96.2018633  29.9502160  18.8746952  95.4797241
  30.0578208  18.6841437  96.9777199  39.3477965  30.5171523 101.4303013
  40.2724512  30.3114384 101.2927465  39.1793268  30.2687924 102.3392355
  31.5974234  16.8435653  94.4011926  32.3182597  17.2216906  93.8975642
  30.9739538  17.5624530  94.5046904  35.7405357  17.5480802  95.3370258
  35.9568972  18.4305440  95.0359086  35.2599424  17.1567015  94.6075900
  39.1373281  31.0357190  96.7865105  39.3110158  30.4703613  96.0338957
  39.6302172  31.8358085  96.6044595  31.7437857  16.3783443  97.2309462
  31.8653769  15.4500089  97.4300350  31.4539900  16.3922129  96.3187778
  44.9912672  23.7993613  98.4055405  45.4343818  23.0500938  98.0074528
  44.1139182  23.7903750  98.0229137  40.1248453  30.3523955  93.8862003
  40.8199358  30.9730647  94.1049318  40.4671604  29.5019306  94.1614381
  42.0239877  27.8023660  95.4149334  42.5491201  28.1410933  94.6898654
  41.9362229  26.8670676  95.2312469  33.7080537  33.8695643  99.7744587
  33.2685528  33.3772022 100.4677444  34.4588654  33.3268611  99.5336662
  26.1872876  30.0607184  99.7769215  27.0130896  29.7610956  99.3967859
  25.8366928  29.2914807 100.2259004  31.1554409  29.4133653 101.8466889
  30.5334419  28.7504358 101.5469117  31.8259276  29.4394784 101.1640537
  24.3881481  27.9793511 100.7358149  23.5513390  27.5515685 100.5542150
  24.3605127  28.1725954 101.6728940  30.7167916  27.9637576  95.3225349
  30.8656037  28.6473040  94.6692022  31.5234360  27.9442666  95.8374805
  43.3349854  27.7045972 108.2775282  43.0434663  28.0675952 109.1138743
  42.7221986  26.9912980 108.0988614  44.5345537  25.2698852 100.7977852
  45.3692428  25.7088656 100.9615413  44.6704666  24.7937505  99.9786098
  28.4720549  23.9902754  96.3286418  28.2266591  23.0865084  96.5266628
  28.6416464  23.9919904  95.3865896  27.7416197  19.7231111  93.8272580
  27.0485442  19.7975466  93.1712616  27.4967949  18.9591455  94.3494097
  34.2163322  30.4585706  92.7937097  33.6437289  31.0775893  92.3407569
  34.7896116  31.0085068  93.3277019  37.4360582  30.7422856  93.9245679
  38.3691255  30.6768418  94.1278555  37.3483794  31.5779123  93.4660212
  40.0648598  30.0588727  90.8849627  39.9862230  29.7248590  91.7785385
  40.8858265  30.5510495  90.8841099  42.7626789  22.9250466 104.0925945
  42.7303110  21.9866467 104.2785629  43.3727413  23.0034503 103.3591770
  34.6010120  21.7946519  90.1353149  35.5469225  21.6652727  90.2041567
  34.2224365  21.0561181  90.6122577  48.5803339  23.9866473 103.2331982
  49.3106728  23.7251761 103.7939685  47.9710285  23.2495195 103.2734050
  46.6618636  22.1274336 103.8306433  45.9351800  21.9930300 103.2222925
  46.2465923  22.4351164 104.6363151  32.7853037  19.7196495  90.0708034
  31.8784493  19.4229608  90.1470748  33.0629018  19.4226314  89.2042321
  34.4015103  14.2633385  96.2252276  33.5915832  13.9180470  96.6007522
  35.0899520  13.9540929  96.8139887  31.5551822  16.5783431  90.2120014
  32.4170986  16.9038329  90.4715831  31.7402166  15.7914927  89.6993079
  39.7084459  15.4511957  97.3555237  39.1283128  16.1096761  96.9733289
  39.4420391  14.6289302  96.9442654  38.4909337  17.6112048  96.4111585
  37.6035192  17.8961698  96.1931780  38.9063326  17.4505811  95.5638862
  41.8423873  17.6358569 100.1265924  42.6184263  18.1255021 100.3990541
  41.1172007  18.0616623 100.5837794  44.2796431  18.3486188 101.1839865
  44.8740922  18.1081924 100.4733173  44.3523015  17.6293318 101.8113401
  26.4993587  32.1919799 101.4983030  26.3648055  31.4320200 100.9321028
  26.0825649  32.9160699 101.0311819  37.6352550  27.3756722  90.5059605
  38.3388400  27.5806725  91.1217261  36.9115199  27.9433484  90.7708688
  38.4650360  23.1266583  96.6261875  38.4085562  23.5835135  95.7869508
  39.0178703  22.3657268  96.4484718  42.2755166  18.9156315  97.4511995
  42.0192100  18.5152951  98.2820202  41.6508034  19.6300109  97.3262134
  46.5867504  21.6552389  99.9583286  46.0267062  21.7245578 100.7314848
  45.9811007  21.4793373  99.2382782  29.6562713  33.0889116 101.7101472
  29.5395097  34.0334548 101.6080163  28.8355159  32.7862677 102.0987271
  39.5439247  27.8139251  92.5558065  40.3784851  27.3820450  92.3735540
  39.3823590  27.6421265  93.4834959  39.1985140  24.3171365  93.9214404
  39.1433943  24.1515636  92.9802848  38.5731195  25.0247398  94.0776594
  32.5081265  13.8179474  93.4999723  32.4959935  14.7621314  93.6567994
  33.4004687  13.6349619  93.2059184  30.6817227  33.7417378 104.9257401
  31.5844474  33.7740988 105.2423896  30.4554597  32.8117829 104.9403737
  32.4370829  32.4948364 101.5867479  31.4866460  32.4950226 101.4731852
  32.7403315  31.7481099 101.0703514  48.1723523  38.3308903 102.6513242
  48.8101933  38.2115650 101.9476582  48.0544365  39.2789746 102.7101194
  44.9813229  38.2836331 102.5874766  44.6431740  38.1677395 101.6995301
  45.8502997  37.8827496 102.5675773  40.8400045  40.1371807  98.5771657
  40.2764910  40.0461744  97.8087945  40.7252440  39.3171712  99.0574150
  45.4633012  39.4371182 108.5460972  45.4521653  39.0423981 107.6741476
  45.6253651  38.7037255 109.1394743  38.3864476  41.6322999 101.4155878
  39.1785768  41.2913823 101.0002177  38.6261127  41.7417974 102.3358031
  46.4199603  43.8042775  93.8886122  45.7687583  44.3896855  93.5020136
  47.2143966  44.3348970  93.9481160  40.3455230  40.8931912  94.2873257
  41.1186106  40.3460899  94.1486132  40.6980629  41.7576161  94.4987718
  42.1840273  42.2208294 107.4940156  41.8930139  43.1253925 107.3786822
  42.8197257  42.2624822 108.2084226  43.1096480  39.5985143 104.0841516
  43.7060052  39.3741165 103.3698479  43.1671451  38.8569888 104.6866963
  42.6821508  37.0524578  91.9191707  42.9347029  36.5306099  91.1575170
  41.7446067  36.8890723  92.0218390  47.7264791  36.0560356  99.7266450
  48.5127880  35.6379780  99.3756867  47.9903495  36.9606449  99.8948098
  47.8974868  41.4933207  94.4255107  47.2620701  41.5667833  95.1376011
  47.5672275  42.0826806  93.7474186  53.1273218  35.9935590 100.6299428
  53.8598390  35.4234806 100.8637258  52.3712574  35.6057190 101.0705934
  42.4017797  38.9552684  94.1216082  42.2854055  38.2797587  94.7897166
  42.5120057  38.4685058  93.3048235  44.7449338  38.4162831  97.8262771
  44.3807545  37.8893452  98.5375692  45.6016454  38.0261300  97.6529256
  50.6498639  29.7057164 105.0894037  50.3181963  30.5752575 104.8655252
  50.0544252  29.3893448 105.7688067  44.3854825  33.4452731  92.8224119
  44.5529227  34.3132967  93.1894590  44.1951994  33.6080012  91.8985409
  47.1430158  41.9069710 104.4889950  46.8430881  42.8094748 104.3805757
  46.7981218  41.6401893 105.3411103  40.5942640  38.3583507 100.5226654
  39.6693136  38.2259721 100.7304346  40.8427053  39.1377726 101.0196596
  50.5427302  34.4252250 102.1687387  49.6344179  34.3567658 101.8746148
  50.4914898  34.9024195 102.9969212  44.3644046  35.9010388  93.8070786
  44.2443671  36.3467439  94.6456266  43.6696634  36.2495706  93.2484324
  37.9551451  38.0016780 101.3570443  38.0843832  38.2551259 102.2709855
  37.2748902  38.5944488 101.0375098  42.1250938  48.6714030  97.4560917
  42.0474968  49.6221855  97.5349398  41.5212581  48.3259903  98.1135844
  44.6168168  35.8441895 110.1122284  43.8401502  36.4035816 110.1025149
  45.2558731  36.3298678 110.6337154  52.4088948  32.6268688 103.9465261
  51.7663328  32.9201221 103.3005055  51.9043877  32.5121609 104.7518458
  50.0629112  36.3731861  94.6351120  50.9746968  36.6059248  94.4598818
  49.5538759  36.9568906  94.0726199  42.8714540  38.6527349 109.6740251
  43.6129224  39.1912393 109.3975075  42.1651525  39.2793638 109.8311803
  48.3469880  40.7956489 108.2712413  48.7553236  40.3538900 107.5267045
  47.6247141  40.2209117 108.5246606  44.7000950  35.7329096 105.6445970
  45.5462145  36.1568510 105.7880619  44.6399587  35.0762720 106.3384533
  48.6698694  41.3557680 102.0264702  48.0407557  41.5203394 101.3240769
  48.2824356  41.7699289 102.7975666  52.5487926  42.2912118  99.3809065
  51.8638964  42.6711019  98.8306099  52.6331775  42.9007444 100.1141013
  47.8500395  33.3933464 107.3027143  47.6061327  34.1475525 106.7661419
  48.1260325  33.7718812 108.1374390  49.8038858  39.9372077 105.9804409
  50.0155753  40.5803837 105.3038790  49.7568606  39.1034393 105.5126339
  47.4065087  32.5489897 102.8840981  46.5449566  32.8471151 103.1757719
  47.4327521  32.7660296 101.9522014  44.2226656  41.0932088  99.2914787
  44.6865002  41.3719791  98.5019409  43.9583454  40.1915533  99.1087877
  41.1150737  40.6403570 102.2294550  41.6852094  41.0690838 101.5912034
  41.7058849  40.3586154 102.9278736  43.1595542  37.2155240  96.1004352
  43.8619585  37.6676284  96.5678278  42.8276171  36.5739059  96.7284245
  41.6075904  35.8066997 110.4755561  40.9774564  36.4883278 110.7090958
  41.5011992  35.6950079 109.5308699  36.9020876  35.4738793 101.4021485
  36.1119930  35.7296322 100.9261596  37.3932123  36.2887131 101.5073526
  50.9184686  42.8144032 104.1526766  51.7402129  42.4124219 103.8709448
  50.9147089  42.7112266 105.1042882  38.8535621  35.8383372  98.3604962
  38.0566785  35.9502067  98.8788458  38.6261214  36.1770024  97.4945853
  44.6841289  42.3628075 106.3087477  44.7485722  42.8248483 107.1445649
  43.9752213  41.7325440 106.4369787  35.1858579  35.7269283 103.8336476
  35.4366618  36.6116293 104.0994052  35.7218128  35.5473885 103.0611568
  59.0090679  39.1582781 100.5011738  58.2554387  38.5890179 100.3455742
  59.1438220  39.1245445 101.4482372  44.3989307  44.0296183  96.1766457
  44.2634982  44.8747719  96.6051305  44.9399119  44.2315461  95.4132391
  37.8518704  41.5471621  96.7494382  38.3643225  42.3414871  96.8999947
  38.5041417  40.8497911  96.6827984  39.6613589  44.6637377  98.8317135
  39.8380217  45.5855342  98.6438119  40.4570422  44.3495797  99.2611515
  43.8024607  31.5245642 110.4301069  44.5434321  32.1252795 110.3505531
  44.0342530  30.7823280 109.8719111  38.9465945  36.7102009 108.7079299
  38.8319461  35.8087266 109.0086397  38.0910463  36.9565706 108.3564115
  46.0257783  44.6519749 110.3066799  45.5821637  43.8656128 109.9887704
  46.6874997  44.8398900 109.6410690  40.7844904  46.1815551 104.8327478
  41.3352329  46.0532614 104.0604472  39.9456380  46.4810440 104.4822370
  48.1239021  44.9322549 108.3348200  48.1057497  45.7531430 107.8428470
  49.0458941  44.8076625 108.5598342  44.5812075  42.4466679 109.1771709
  45.1140412  41.6854967 108.9471017  44.0526156  42.1540331 109.9195863
  47.7481770  27.5526745 104.7065351  47.4046040  28.4428387 104.6304461
  48.1160733  27.3628403 103.8434936  35.8167621  39.8760275  97.5253953
  36.6542843  40.2857284  97.3087660  35.9945889  38.9359717  97.4954147
  47.7132053  37.5435356  93.2137786  47.1978677  38.3139961  93.4526173
  47.4409362  36.8700492  93.8370847  45.2979164  32.3885057  98.2723024
  44.4420760  31.9991907  98.0928663  45.7106116  32.4677018  97.4122810
  46.8278311  29.9231400 102.6714584  46.3243106  29.8861535 101.8582389
  47.1208918  30.8324143 102.7311240  43.0721197  30.0070130 101.6780766
  43.9374193  29.8112938 101.3186655  43.1398706  29.7780482 102.6050122
  52.6866327  40.2967711  95.1490959  51.9095770  39.9578870  94.7046121
  53.3657808  40.3020334  94.4745924  47.5018356  35.4162448  95.0397567
  47.1968492  35.7308597  95.8907710  48.4548798  35.4943868  95.0824900
  45.9464788  41.5752671  96.6890521  45.4186150  40.8405431  96.3763758
  45.4452291  42.3527348  96.4430489  50.9257634  39.7701692 101.8057567
  50.2681309  40.4600953 101.8937696  51.7298033  40.1598124 102.1491553
  40.6783516  32.2372338  99.0497132  41.2527268  32.0147519  98.3170325
  41.2654498  32.3061032  99.8025734  49.7363093  38.1246065  99.8561509
  50.2494975  38.7576056 100.3583219  50.3864317  37.5247260  99.4904869
  41.0053103  34.2676799  93.0693018  40.1690415  34.6051485  93.3902292
  40.8657872  34.1325778  92.1320155  42.9806183  29.1113587  97.7772202
  42.3270596  28.7962604  97.1528817  42.9386658  28.4889327  98.5032025
  44.0917388  39.3932882  89.6925494  43.1844450  39.1622135  89.8916643
  44.5888420  38.5970501  89.8799475  46.9985467  48.1030389  92.6122180
  46.3247166  48.4062086  93.2207138  47.3851289  48.9059469  92.2627637
  46.2143924  35.5995520 102.1019849  45.2966485  35.8210467 101.9441537
  46.6304067  35.6741831 101.2431557  46.9978972  36.9986936  97.2322530
  47.7450790  37.5108333  96.9229652  47.2670561  36.6770989  98.0926923
  45.2705622  39.4945477  94.2149484  44.3616841  39.2104509  94.3121954
  45.3000706  39.9144555  93.3552791  50.5024889  43.1052066  97.9840651
  50.0487216  42.2642976  98.0405842  49.8718856  43.7413464  98.3215432
  49.4457809  34.0344052  99.2141319  48.7080565  33.5221438  99.5451561
  49.6984582  33.5944434  98.4024596  48.9457828  44.9428563  98.9190470
  49.2380803  45.5033620  98.2002835  49.4556449  45.2357124  99.6743629
  49.5469436  26.8120304  99.8083088  49.8528313  25.9517667  99.5209003
  50.2722041  27.4037924  99.6082082  35.8393792  37.2150991  98.1964686
  35.6418192  36.6220351  97.4715753  35.2840456  36.9103201  98.9140625
  43.8190516  37.1074097 100.3159279  43.8739126  36.1547934 100.2401756
  43.0081718  37.2633536 100.8000578  44.9681710  41.0354220  91.5537562
  44.5301139  40.3190079  91.0943200  45.7092150  41.2630335  90.9922654
  41.7582876  35.7251157  98.0749658  40.9450741  36.0245327  98.4814850
  42.2541870  35.3306846  98.7924140  43.9091454  45.7208914 100.0083923
  43.8667632  45.9469760  99.0792455  44.8254152  45.4872288 100.1569724
  47.3557087  36.1892981 106.9064552  47.7106475  36.4164454 107.7659018
  48.0029219  36.5211358 106.2841807  53.0854824  39.3111417  97.6113881
  52.9472723  39.5013013  96.6835070  52.7291043  40.0730800  98.0681932
  41.2496950  33.2969512 103.6910893  41.8896330  33.1558271 102.9933856
  40.4174481  33.0104026 103.3149495  53.1124204  41.3787944 102.6225153
  53.5460711  41.2863233 103.4708207  53.8255785  41.3545445 101.9845169
  42.0257254  42.5971943  99.8045886  42.8197853  42.1022263  99.6028461
  41.3148947  42.0689806  99.4413591  46.8452099  44.9790038 104.1558253
  46.8989121  45.5480975 104.9235969  45.9766880  45.1491923 103.7912290
  38.3340018  36.7415025  95.8805638  37.4037606  36.6799480  96.0975600
  38.4297490  36.2190977  95.0842279  38.2525567  33.2669837  98.4683880
  38.5132384  34.1815171  98.3593040  39.0742739  32.7994280  98.6180493
  39.7250492  34.6807595 105.6382704  40.3973546  34.4724957 104.9895353
  38.8980279  34.4829681 105.1987937  53.9739753  41.4211645 105.1558038
  54.1675644  42.3257455 105.4017313  53.8740372  40.9619064 105.9896623
  45.6276064  31.3069535 107.6548365  44.9803979  32.0059485 107.5612842
  46.3977080  31.7405679 108.0224613  49.0354862  41.5718388 110.7298919
  48.8840369  41.3428939 109.8129002  49.0259542  42.5288989 110.7430264
  45.8040199  39.1450300 105.7145185  46.7332259  39.2961460 105.5414152
  45.3831229  39.2334321 104.8593832  44.6028530  43.1700965 103.4843723
  44.4639616  42.8019749 104.3569661  43.8143127  43.6848604 103.3127680
  45.1976682  48.2710061  94.8269259  45.3728438  47.7998104  95.6414882
  44.5109470  48.8975827  95.0550520  46.1533745  42.5482567 100.8732560
  45.8183578  42.5083337 101.7690210  45.6537691  41.8827283 100.4002971
  40.1277989  37.9550198 106.3985142  39.9897787  37.2230436 106.9996681
  41.0382913  37.8659098 106.1169329  49.0892937  39.8938602  91.1469620
  48.4722108  39.1685430  91.0502673  48.6209426  40.6547962  90.8036694
  42.7560290  37.6670157 105.8868821  43.4659909  37.0263349 105.8455440
  42.7129598  37.9183052 106.8095002  50.7447069  44.6037510 108.8075400
  50.6859615  43.9196730 108.1405983  51.1466587  45.3456500 108.3556026
  41.4689224  34.6535375 107.7064461  40.9326581  34.2026113 108.3586057
  40.8805933  34.7881284 106.9634925  39.7637768  51.4199424 101.6009119
  40.0034366  52.0517948 102.2788138  38.9206964  51.0687464 101.8874479
  40.8791483  34.1124026  90.2690924  40.0020949  33.9912827  89.9053171
  41.3549236  33.3210104  90.0169813  50.7464476  42.5677094 107.0389380
  49.8591255  42.2303016 107.1615779  51.3163027  41.8360125 107.2758146
  32.3993623  38.9001186 100.3632431  33.0864663  38.5862916  99.7753447
  32.2441752  39.8042551 100.0899683  37.2028345  33.7891382 104.7917455
  37.1186534  33.1817052 104.0567865  36.3811052  34.2800401 104.7926952
  44.2765629  47.2278546 104.0050623  44.2035801  48.0333518 104.5169928
  43.8343023  47.4270512 103.1798645  44.0655409  46.4650316  97.5153445
  43.2822931  47.0071997  97.6091669  44.7648154  46.9824296  97.9147686
  47.3752059  32.2744946 100.1587650  47.8720759  31.5214908  99.8388720
  46.6039041  32.3109263  99.5930860  55.2281817  37.9785311 101.8005942
  55.2171693  38.8610027 101.4299875  54.3599196  37.6256862 101.6060479
  46.7364313  47.1265380 106.1608782  47.4492285  47.7612845 106.0884683
  46.2454342  47.2229246 105.3448784  48.4581840  41.0316633  97.7326074
  47.5238119  41.1518096  97.5630778  48.6358508  40.1289100  97.4686083
  43.9587028  34.4162329  99.8859335  43.5884815  33.8633369 100.5740240
  44.4546120  33.8120462  99.3334335  51.8454391  36.8733952  98.2676108
  52.3114843  37.7061944  98.1936410  52.2961892  36.4078934  98.9721366
  41.7876226  44.8759824 106.9814353  42.4885686  45.5096307 107.1343747
  41.3171341  45.2174556 106.2209992  49.9130622  43.2177774  95.2662260
  50.1890466  43.1034368  96.1756134  49.0435121  42.8195259  95.2274433
  49.8171054  29.2414539 102.3067009  48.9034134  29.4718766 102.4749216
  50.2464155  29.3252984 103.1581041  49.5877512  37.4304431 104.8066903
  48.9348963  37.6780339 104.1519356  49.9657892  36.6168570 104.4729380
  46.5484686  47.4664125  98.9095073  46.7307081  46.6485781  99.3722826
  47.3717672  47.6831817  98.4719963  46.8826852  46.3932310  96.1710122
  47.4114618  45.8824764  95.5580284  47.1455071  46.0774840  97.0355655
  45.6365085  38.1724242 111.2932940  44.9605723  38.0718372 111.9635315
  46.4592719  38.0163456 111.7568937  37.3843945  44.4096179 103.9145455
  37.9697381  43.6639867 104.0473360  37.1868783  44.7200136 104.7982119
  40.2382600  47.4447426  98.9307898  39.5692975  47.9293554  98.4471938
  40.0995469  47.6916647  99.8451276  31.9761599  36.9801779 102.6349899
  32.0145699  36.4465370 103.4287017  31.4701892  36.4536985 102.0160876
  44.3787868  49.4791170 105.5290556  44.9306176  49.6422791 106.2939641
  44.7194062  50.0695608 104.8570581  39.3552362  31.8266320 106.1312441
  39.4193688  32.6881151 105.7189839  39.2919482  31.2140321 105.3984799
  38.8304634  33.8989452 109.7785475  39.4576673  33.5166530 110.3923000
  37.9732553  33.6803654 110.1441168  49.2298743  44.3052427 111.3839211
  49.7738647  44.9182386 110.8894165  48.6485588  44.8632006 111.9006224
  35.6070177  35.7065881  95.7103830  35.9023618  34.7976560  95.6570884
  34.7058213  35.6853621  95.3884832  47.5156256  47.4273145 102.5154238
  47.3907395  46.6262885 102.0065184  48.1735347  47.9219339 102.0268208
  39.1364424  33.7821878 101.6931379  38.4151010  34.3957846 101.5538852
  39.9257680  34.3179643 101.6148025  49.5791164  45.2282166 104.1433788
  48.6321500  45.1087517 104.0712115  49.9273937  44.3404664 104.2260050
  41.9390737  31.1176304 107.9672030  42.4625139  31.3638601 108.7298340
  41.7203071  31.9496339 107.5475168  37.3358018  33.3879979  95.8343155
  37.0070725  32.5077358  95.6518261  37.6897389  33.3327648  96.7219544
  46.5837597  45.0234882 100.3438141  46.4362560  44.0951589 100.5245711
  47.4091091  45.0454972  99.8595216  40.4499842  33.6752949  96.2018633
  40.7895914  34.2038870  95.4797241  40.8971962  34.0133355  96.9777199
  50.1871719  45.8463440 101.4303013  51.1118267  45.6406302 101.2927465
  50.0187023  45.5979842 102.3392355  43.1443282  32.0590000 105.6521701
  42.8040103  31.2597813 106.0542381  42.4382289  32.3591710 105.0798534
  43.7959754  29.1439312 104.1049024  44.6185824  28.6699790 103.9827914
  44.0397818  29.9229796 104.6047710  42.4367989  32.1727570  94.4011926
  43.1576351  32.5508823  93.8975642  41.8133293  32.8916447  94.5046904
  46.5799112  32.8772719  95.3370258  46.7962726  33.7597357  95.0359086
  46.0993179  32.4858933  94.6075900  41.3198333  35.8358433 101.9141003
  41.1742914  36.1498736 102.8065284  40.8423537  36.4543333 101.3611901
  43.1794716  32.8260981 101.9621892  43.1656285  31.9302074 101.6254190
  43.8967144  32.8331644 102.5960178  45.0320847  33.2598321 104.0075020
  44.7738624  34.1815391 104.0059350  44.5005887  32.8628755 104.6975484
  49.9767035  46.3649108  96.7865105  50.1503913  45.7995530  96.0338957
  50.4695927  47.1650003  96.6044595  35.7943995  38.3763777 104.8528664
  35.2497463  39.1523585 104.9848938  36.6723345  38.7234581 104.6947785
  42.5831612  31.7075361  97.2309462  42.7047523  30.7792007  97.4300350
  42.2933654  31.7214047  96.3187778  45.4522802  29.3930271 100.3676182
  45.4744499  29.4569604  99.4128162  45.8690861  28.5534780 100.5616688
  55.8306427  39.1285531  98.4055405  56.2737573  38.3792856  98.0074528
  54.9532937  39.1195667  98.0229137  50.9642208  45.6815872  93.8862003
  51.6593112  46.3022565  94.1049318  51.3065358  44.8311224  94.1614381
  36.5810017  37.5033673 107.7458821  35.8391753  37.6516309 108.3323451
  36.2602761  37.7641939 106.8825570  52.8633631  43.1315578  95.4149334
  53.3884955  43.4702851  94.6898654  52.7755984  42.1962593  95.2312469
  44.5253680  47.0449652 107.5439211  44.8340806  46.7998798 108.4161910
  45.3229162  47.2496290 107.0558081  44.5474292  49.1987561  99.7744587
  44.1079282  48.7063940 100.4677444  45.2982409  48.6560529  99.5336662
  37.0266631  45.3899102  99.7769215  37.8524651  45.0902874  99.3967859
  36.6760683  44.6206724 100.2259004  41.9948164  44.7425570 101.8466889
  41.3728173  44.0796275 101.5469117  42.6653031  44.7686702 101.1640537
  35.2275236  43.3085428 100.7358149  34.3907144  42.8807603 100.5542150
  35.1998881  43.5017872 101.6728940  42.0672691  33.2207358 111.4399395
  42.1160847  34.0969481 111.0577164  42.6095206  32.6784751 110.8671038
  52.5527537  43.7648482 110.7200532  51.7623081  43.7472620 110.1805031
  52.3160892  44.3036775 111.4749568  52.6725412  40.6140948 108.0333260
  52.7223417  40.4490955 108.9748783  52.5639335  39.7468207 107.6431141
  41.5561671  43.2929494  95.3225349  41.7049791  43.9764958  94.6692022
  42.3628114  43.2734584  95.8374805  49.9629175  36.5971876 109.3492567
  50.8639037  36.4578341 109.0576565  50.0377149  36.7626331 110.2890745
  44.2971980  33.9738731 108.1945753  43.4275289  34.2672297 107.9228342
  44.5331460  34.5579176 108.9153017  54.1743609  43.0337889 108.2775282
  53.8828417  43.3967870 109.1138743  53.5615740  42.3204898 108.0988614
  55.3739291  40.5990769 100.7977852  56.2086183  41.0380573 100.9615413
  55.5098420  40.1229422  99.9786098  52.4230797  38.1570504 106.7455340
  52.8984919  38.3498150 105.9374191  51.4996363  38.2129690 106.4998724
  39.3114304  39.3194671  96.3286418  39.0660346  38.4157001  96.5266628
  39.4810218  39.3211822  95.3865896  47.0011014  30.1918348 105.7111174
  47.5192958  30.9279375 105.3857662  46.6466146  30.4982341 106.5457933
  38.5809951  35.0523029  93.8272580  37.8879196  35.1267384  93.1712616
  38.3361703  34.2883372  94.3494097  47.2523608  26.6118630 101.2312070
  47.5325362  25.9441819 101.8572497  48.0374215  26.8047726 100.7186734
  45.0557076  45.7877624  92.7937097  44.4831043  46.4067811  92.3407569
  45.6289870  46.3376986  93.3277019  51.1232466  35.0336264 104.9783646
  52.0749889  35.1334362 104.9995870  50.9535917  34.2414533 105.4881730
  49.1446846  32.1191847 105.1643047  48.5496778  32.3996860 104.4689535
  48.8596542  32.6085748 105.9359788  48.2754336  46.0714774  93.9245679
  49.2085009  46.0060336  94.1278555  48.1877549  46.9071041  93.4660212
  53.6020544  38.2542384 104.0925945  53.5696864  37.3158385 104.2785629
  54.2121168  38.3326421 103.3591770  45.4403875  37.1238437  90.1353149
  46.3862980  36.9944645  90.2041567  45.0618120  36.3853099  90.6122577
  53.7515032  35.0453427 104.1384228  53.2354081  34.2611884 103.9514157
  54.6354981  34.7172144 104.3030748  51.4125759  28.7894443 100.0980041
  51.2150581  28.4809531 100.9823373  52.0225465  29.5156082 100.2277971
  59.4197094  39.3158391 103.2331982  60.1500482  39.0543679 103.7939685
  58.8104039  38.5787113 103.2734050  57.5012391  37.4566253 103.8306433
  56.7745555  37.3222218 103.2222925  57.0859678  37.7643082 104.6363151
  45.3242567  41.1756183 111.5953806  46.2445577  41.3534782 111.7893853
  45.2892150  40.2312228 111.4433506  43.6246792  35.0488413  90.0708034
  42.7178247  34.7521526  90.1470748  43.9022773  34.7518231  89.2042321
  34.5424732  36.3694777 100.5207081  34.2227517  35.5160085 100.2281455
  33.9958161  36.5843355 101.2765048  38.3204640  39.0857218 104.2376587
  38.5390650  40.0174325 104.2564621  38.7330414  38.7265192 105.0231391
  45.2408858  29.5925303  96.2252276  44.4309586  29.2472388  96.6007522
  45.9293275  29.2832847  96.8139887  47.1699406  28.6703350  97.8476572
  47.7230445  29.0898803  98.5066596  47.4069492  27.7439098  97.8899528
  42.3945577  31.9075348  90.2120014  43.2564741  32.2330247  90.4715831
  42.5795921  31.1206844  89.6993079  34.4112992  39.9897688 102.4900202
  33.7176464  39.5751641 101.9770157  35.1585983  40.0318225 101.8933621
  50.5478213  30.7803875  97.3555237  49.9676882  31.4388679  96.9733289
  50.2814146  29.9581219  96.9442654  48.9981779  30.1808933  99.5576557
  49.4981558  30.2925467  98.7490876  49.6417387  29.8769985 100.1977365
  43.0563775  38.0887562 112.4444398  42.5730857  38.8887922 112.6508287
  43.1424714  38.0995507 111.4911842  36.3249735  39.9215942 100.3666217
  36.3020423  40.0203629  99.4148100  36.6350371  40.7681093 100.6883383
  38.9837113  41.9792097 104.4812832  39.9380366  41.9476039 104.4142763
  38.7849636  41.5182721 105.2963058  39.5736495  40.5493213 107.0483629
  40.3929384  41.0437292 107.0718467  39.8473303  39.6325181 107.0201197
  49.3303091  32.9403965  96.4111585  48.4428946  33.2253616  96.1931780
  49.7457080  32.7797729  95.5638862  52.6817627  32.9650486 100.1265924
  53.4578017  33.4546939 100.3990541  51.9565761  33.3908540 100.5837794
  55.1190186  33.6778105 101.1839865  55.7134677  33.4373841 100.4733173
  55.1916770  32.9585236 101.8113401  37.3387342  47.5211716 101.4983030
  37.2041809  46.7612117 100.9321028  36.9219404  48.2452616 101.0311819
  49.3044115  38.4558501  96.6261875  49.2479316  38.9127053  95.7869508
  49.8572457  37.6949186  96.4484718  53.1148921  34.2448233  97.4511995
  52.8585855  33.8444869  98.2820202  52.4901789  34.9592027  97.3262134
  57.4261259  36.9844306  99.9583286  56.8660817  37.0537496 100.7314848
  56.8204762  36.8085291  99.2382782  40.4956467  48.4181033 101.7101472
  40.3788852  49.3626466 101.6080163  39.6748914  48.1154595 102.0987271
  50.3833002  43.1431169  92.5558065  51.2178606  42.7112368  92.3735540
  50.2217345  42.9713183  93.4834959  50.0378894  39.6463282  93.9214404
  49.9827698  39.4807554  92.9802848  49.4124949  40.3539315  94.0776594
  34.8271409  34.8831347 107.7475826  35.4730273  34.3730301 108.2363052
  34.6188560  35.6200028 108.3219252  47.3524801  41.9512194 113.2467967
  48.2215961  42.1252847 112.8854602  46.8731553  42.7706611 113.1243696
  43.3475020  29.1471391  93.4999723  43.3353689  30.0913231  93.6567994
  44.2398441  28.9641537  93.2059184  41.5210982  49.0709295 104.9257401
  42.4238228  49.1032906 105.2423896  41.2948352  48.1409746 104.9403737
  43.2764584  47.8240282 101.5867479  42.3260215  47.8242143 101.4731852
  43.5797070  47.0773016 101.0703514  47.1627139  25.7414168  97.7545659
  46.3959535  25.1872655  97.9002342  47.5737844  25.8136037  98.6159811
  59.0117277  53.6600820 102.6513242  59.6495687  53.5407568 101.9476582
  58.8938120  54.6081664 102.7101194  55.8206983  53.6128248 102.5874766
  55.4825495  53.4969313 101.6995301  56.6896752  53.2119413 102.5675773
  51.6793799  55.4663725  98.5771657  51.1158664  55.3753662  97.8087945
  51.5646194  54.6463629  99.0574150  56.3026766  54.7663100 108.5460972
  56.2915407  54.3715898 107.6741476  56.4647406  54.0329173 109.1394743
  49.2258231  56.9614916 101.4155878  50.0179523  56.6205741 101.0002177
  49.4654881  57.0709891 102.3358031  57.2593358  59.1334692  93.8886122
  56.6081338  59.7188773  93.5020136  58.0537721  59.6640887  93.9481160
  51.1848985  56.2223830  94.2873257  51.9579861  55.6752817  94.1486132
  51.5374384  57.0868079  94.4987718  53.0234027  57.5500212 107.4940156
  52.7323893  58.4545843 107.3786822  53.6591012  57.5916739 108.2084226
  53.9490234  54.9277060 104.0841516  54.5453807  54.7033083 103.3698479
  54.0065206  54.1861806 104.6866963  53.5215263  52.3816496  91.9191707
  53.7740783  51.8598017  91.1575170  52.5839822  52.2182641  92.0218390
  58.5658546  51.3852274  99.7266450  59.3521635  50.9671697  99.3756867
  58.8297250  52.2898366  99.8948098  58.7368623  56.8225124  94.4255107
  58.1014456  56.8959751  95.1376011  58.4066029  57.4118723  93.7474186
  63.9666973  51.3227507 100.6299428  64.6992145  50.7526724 100.8637258
  63.2106328  50.9349108 101.0705934  53.2411551  54.2844602  94.1216082
  53.1247810  53.6089505  94.7897166  53.3513811  53.7976976  93.3048235
  55.5843092  53.7454749  97.8262771  55.2201300  53.2185370  98.5375692
  56.4410208  53.3553218  97.6529256  61.4892393  45.0349081 105.0894037
  61.1575718  45.9044492 104.8655252  60.8938006  44.7185365 105.7688067
  55.2248579  48.7744648  92.8224119  55.3922982  49.6424885  93.1894590
  55.0345748  48.9371930  91.8985409  57.9823913  57.2361627 104.4889950
  57.6824636  58.1386666 104.3805757  57.6374972  56.9693811 105.3411103
  51.4336394  53.6875424 100.5226654  50.5086891  53.5551638 100.7304346
  51.6820807  54.4669643 101.0196596  61.3821056  49.7544168 102.1687387
  60.4737934  49.6859576 101.8746148  61.3308652  50.2316112 102.9969212
  55.2037800  51.2302306  93.8070786  55.0837425  51.6759357  94.6456266
  54.5090389  51.5787624  93.2484324  48.7945205  53.3308698 101.3570443
  48.9237586  53.5843177 102.2709855  48.1142656  53.9236406 101.0375098
  52.9644692  64.0005948  97.4560917  52.8868722  64.9513773  97.5349398
  52.3606336  63.6551820  98.1135844  55.4561922  51.1733813 110.1122284
  54.6795256  51.7327733 110.1025149  56.0952485  51.6590596 110.6337154
  63.2482703  47.9560606 103.9465261  62.6057083  48.2493139 103.3005055
  62.7437631  47.8413526 104.7518458  60.9022866  51.7023779  94.6351120
  61.8140723  51.9351166  94.4598818  60.3932513  52.2860823  94.0726199
  53.7108294  53.9819266 109.6740251  54.4522979  54.5204310 109.3975075
  53.0045280  54.6085555 109.8311803  59.1863634  56.1248407 108.2712413
  59.5946990  55.6830817 107.5267045  58.4640896  55.5501034 108.5246606
  55.5394704  51.0621014 105.6445970  56.3855899  51.4860427 105.7880619
  55.4793342  50.4054638 106.3384533  59.5092449  56.6849598 102.0264702
  58.8801311  56.8495312 101.3240769  59.1218111  57.0991207 102.7975666
  63.3881681  57.6204035  99.3809065  62.7032719  58.0002937  98.8306099
  63.4725530  58.2299362 100.1141013  58.6894149  48.7225382 107.3027143
  58.4455081  49.4767443 106.7661419  58.9654080  49.1010730 108.1374390
  60.6432612  55.2663994 105.9804409  60.8549507  55.9095754 105.3038790
  60.5962360  54.4326311 105.5126339  58.2458841  47.8781815 102.8840981
  57.3843320  48.1763069 103.1757719  58.2721276  48.0952214 101.9522014
  55.0620411  56.4224006  99.2914787  55.5258756  56.7011709  98.5019409
  54.7977209  55.5207450  99.1087877  51.9544492  55.9695487 102.2294550
  52.5245849  56.3982756 101.5912034  52.5452604  55.6878072 102.9278736
  53.9989297  52.5447158  96.1004352  54.7013340  52.9968202  96.5678278
  53.6669925  51.9030977  96.7284245  52.4469658  51.1358915 110.4755561
  51.8168319  51.8175196 110.7090958  52.3405746  51.0241996 109.5308699
  47.7414631  50.8030711 101.4021485  46.9513685  51.0588239 100.9261596
  48.2325878  51.6179049 101.5073526  61.7578440  58.1435950 104.1526766
  62.5795884  57.7416137 103.8709448  61.7540843  58.0404184 105.1042882
  49.6929376  51.1675290  98.3604962  48.8960539  51.2793984  98.8788458
  49.4654968  51.5061942  97.4945853  55.5235044  57.6919993 106.3087477
  55.5879476  58.1540400 107.1445649  54.8145967  57.0617358 106.4369787
  46.0252334  51.0561201 103.8336476  46.2760372  51.9408211 104.0994052
  46.5611882  50.8765803 103.0611568  69.8484433  54.4874698 100.5011738
  69.0948142  53.9182096 100.3455742  69.9831974  54.4537363 101.4482372
  55.2383061  59.3588101  96.1766457  55.1028736  60.2039636  96.6051305
  55.7792874  59.5607378  95.4132391  51.7250401  45.4379681 112.8380812
  51.3317346  44.8845879 113.5128457  52.5416541  45.7490259 113.2287330
  48.6912459  56.8763539  96.7494382  49.2036979  57.6706789  96.8999947
  49.3435171  56.1789829  96.6827984  50.5007343  59.9929295  98.8317135
  50.6773972  60.9147260  98.6438119  51.2964177  59.6787714  99.2611515
  54.6418362  46.8537560 110.4301069  55.3828075  47.4544713 110.3505531
  54.8736285  46.1115197 109.8719111  49.7859700  52.0393927 108.7079299
  49.6713215  51.1379184 109.0086397  48.9304218  52.2857624 108.3564115
  56.8651538  59.9811667 110.3066799  56.4215392  59.1948046 109.9887704
  57.5268751  60.1690818 109.6410690  51.6238659  61.5107469 104.8327478
  52.1746084  61.3824532 104.0604472  50.7850135  61.8102358 104.4822370
  58.9632776  60.2614467 108.3348200  58.9451251  61.0823348 107.8428470
  59.8852696  60.1368542 108.5598342  55.4205830  57.7758597 109.1771709
  55.9534167  57.0146885 108.9471017  54.8919911  57.4832248 109.9195863
  58.5875525  42.8818663 104.7065351  58.2439794  43.7720304 104.6304461
  58.9554487  42.6920320 103.8434936  46.6561375  55.2052193  97.5253953
  47.4936597  55.6149201  97.3087660  46.8339643  54.2651635  97.4954147
  58.5525808  52.8727274  93.2137786  58.0372431  53.6431878  93.4526173
  58.2803116  52.1992410  93.8370847  56.1372919  47.7176974  98.2723024
  55.2814515  47.3283825  98.0928663  56.5499870  47.7968935  97.4122810
  57.6672065  45.2523318 102.6714584  57.1636861  45.2153453 101.8582389
  57.9602672  46.1616060 102.7311240  53.9114951  45.3362047 101.6780766
  54.7767948  45.1404856 101.3186655  53.9792460  45.1072399 102.6050122
  63.5260082  55.6259628  95.1490959  62.7489524  55.2870788  94.7046121
  64.2051563  55.6312251  94.4745924  58.3412111  50.7454366  95.0397567
  58.0362246  51.0600515  95.8907710  59.2942553  50.8235786  95.0824900
  56.7858543  56.9044589  96.6890521  56.2579904  56.1697349  96.3763758
  56.2846045  57.6819265  96.4430489  61.7651389  55.0993610 101.8057567
  61.1075063  55.7892871 101.8937696  62.5691788  55.4890041 102.1491553
  51.5177270  47.5664255  99.0497132  52.0921022  47.3439437  98.3170325
  52.1048253  47.6352950  99.8025734  60.5756847  53.4537982  99.8561509
  61.0888729  54.0867974 100.3583219  61.2258071  52.8539178  99.4904869
  51.8446857  49.5968716  93.0693018  51.0084170  49.9343403  93.3902292
  51.7051627  49.4617696  92.1320155  53.8199938  44.4405504  97.7772202
  53.1664350  44.1254521  97.1528817  53.7780412  43.8181245  98.5032025
  54.9311143  54.7224799  89.6925494  54.0238204  54.4914053  89.8916643
  55.4282175  53.9262419  89.8799475  57.8379222  63.4322307  92.6122180
  57.1640920  63.7354003  93.2207138  58.2245044  64.2351387  92.2627637
  57.0537678  50.9287438 102.1019849  56.1360240  51.1502385 101.9441537
  57.4697822  51.0033748 101.2431557  57.8372726  52.3278853  97.2322530
  58.5844545  52.8400251  96.9229652  58.1064316  52.0062906  98.0926923
  56.1099376  54.8237394  94.2149484  55.2010595  54.5396427  94.3121954
  56.1394460  55.2436473  93.3552791  61.3418644  58.4343984  97.9840651
  60.8880971  57.5934894  98.0405842  60.7112610  59.0705382  98.3215432
  60.2851563  49.3635970  99.2141319  59.5474320  48.8513356  99.5451561
  60.5378337  48.9236351  98.4024596  59.7851583  60.2720480  98.9190470
  60.0774557  60.8325537  98.2002835  60.2950203  60.5649041  99.6743629
  60.3863190  42.1412222  99.8083088  60.6922067  41.2809585  99.5209003
  61.1115795  42.7329842  99.6082082  46.6787547  52.5442908  98.1964686
  46.4811946  51.9512269  97.4715753  46.1234211  52.2395119  98.9140625
  54.6584270  52.4366015 100.3159279  54.7132880  51.4839851 100.2401756
  53.8475472  52.5925454 100.8000578  55.8075464  56.3646138  91.5537562
  55.3694894  55.6481997  91.0943200  56.5485905  56.5922253  90.9922654
  52.5976630  51.0543075  98.0749658  51.7844496  51.3537245  98.4814850
  53.0935624  50.6598763  98.7924140  54.7485208  61.0500831 100.0083923
  54.7061387  61.2761678  99.0792455  55.6647907  60.8164206 100.1569724
  58.1950842  51.5184899 106.9064552  58.5500230  51.7456372 107.7659018
  58.8422973  51.8503276 106.2841807  63.9248579  54.6403335  97.6113881
  63.7866477  54.8304931  96.6835070  63.5684798  55.4022718  98.0681932
  52.0890705  48.6261430 103.6910893  52.7290084  48.4850189 102.9933856
  51.2568235  48.3395943 103.3149495  63.9517958  56.7079862 102.6225153
  64.3854465  56.6155151 103.4708207  64.6649539  56.6837362 101.9845169
  52.8651009  57.9263860  99.8045886  53.6591607  57.4314181  99.6028461
  52.1542701  57.3981724  99.4413591  57.6845853  60.3081956 104.1558253
  57.7382876  60.8772892 104.9235969  56.8160635  60.4783841 103.7912290
  49.1733772  52.0706942  95.8805638  48.2431360  52.0091398  96.0975600
  49.2691244  51.5482895  95.0842279  49.0919321  48.5961755  98.4683880
  49.3526139  49.5107088  98.3593040  49.9136494  48.1286198  98.6180493
  50.5644247  50.0099512 105.6382704  51.2367300  49.8016874 104.9895353
  49.7374033  49.8121598 105.1987937  64.8133508  56.7503563 105.1558038
  65.0069398  57.6549373 105.4017313  64.7134126  56.2910982 105.9896623
  56.4669819  46.6361453 107.6548365  55.8197734  47.3351403 107.5612842
  57.2370834  47.0697597 108.0224613  59.8748617  56.9010305 110.7298919
  59.7234123  56.6720857 109.8129002  59.8653296  57.8580907 110.7430264
  56.6433953  54.4742218 105.7145185  57.5726013  54.6253378 105.5414152
  56.2224983  54.5626239 104.8593832  55.4422285  58.4992882 103.4843723
  55.3033371  58.1311667 104.3569661  54.6536881  59.0140522 103.3127680
  56.0370437  63.6001979  94.8269259  56.2122192  63.1290022  95.6414882
  55.3503225  64.2267745  95.0550520  56.9927500  57.8774485 100.8732560
  56.6577333  57.8375255 101.7690210  56.4931446  57.2119201 100.4002971
  50.9671744  53.2842115 106.3985142  50.8291542  52.5522354 106.9996681
  51.8776667  53.1951015 106.1169329  59.9286692  55.2230520  91.1469620
  59.3115862  54.4977348  91.0502673  59.4603180  55.9839880  90.8036694
  53.5954045  52.9962075 105.8868821  54.3053663  52.3555267 105.8455440
  53.5523353  53.2474969 106.8095002  61.5840823  59.9329428 108.8075400
  61.5253369  59.2488648 108.1405983  61.9860342  60.6748418 108.3556026
  52.3082979  49.9827292 107.7064461  51.7720336  49.5318031 108.3586057
  51.7199687  50.1173201 106.9634925  50.6031522  66.7491342 101.6009119
  50.8428120  67.3809866 102.2788138  49.7600719  66.3979382 101.8874479
  51.7185238  49.4415944  90.2690924  50.8414704  49.3204745  89.9053171
  52.1942991  48.6502022  90.0169813  61.5858231  57.8969012 107.0389380
  60.6985009  57.5594934 107.1615779  62.1556782  57.1652043 107.2758146
  43.2387378  54.2293104 100.3632431  43.9258417  53.9154834  99.7753447
  43.0835506  55.1334468 100.0899683  48.0422100  49.1183300 104.7917455
  47.9580289  48.5108970 104.0567865  47.2204806  49.6092318 104.7926952
  55.1159384  62.5570464 104.0050623  55.0429555  63.3625436 104.5169928
  54.6736777  62.7562430 103.1798645  54.9049164  61.7942234  97.5153445
  54.1216685  62.3363914  97.6091669  55.6041909  62.3116214  97.9147686
  58.2145814  47.6036864 100.1587650  58.7114513  46.8506826  99.8388720
  57.4432795  47.6401180  99.5930860  66.0675571  53.3077229 101.8005942
  66.0565447  54.1901945 101.4299875  65.1992951  52.9548780 101.6060479
  57.5758067  62.4557298 106.1608782  58.2886040  63.0904763 106.0884683
  57.0848096  62.5521164 105.3448784  59.2975594  56.3608551  97.7326074
  58.3631873  56.4810013  97.5630778  59.4752263  55.4581018  97.4686083
  54.7980782  49.7454247  99.8859335  54.4278570  49.1925287 100.5740240
  55.2939875  49.1412380  99.3334335  62.6848146  52.2025870  98.2676108
  63.1508598  53.0353862  98.1936410  63.1355646  51.7370852  98.9721366
  52.6269981  60.2051742 106.9814353  53.3279440  60.8388225 107.1343747
  52.1565096  60.5466473 106.2209992  60.7524377  58.5469691  95.2662260
  61.0284221  58.4326286  96.1756134  59.8828876  58.1487176  95.2274433
  60.6564808  44.5706457 102.3067009  59.7427888  44.8010684 102.4749216
  61.0857910  44.6544901 103.1581041  60.4271267  52.7596349 104.8066903
  59.7742717  53.0072257 104.1519356  60.8051647  51.9460487 104.4729380
  57.3878441  62.7956042  98.9095073  57.5700835  61.9777698  99.3722826
  58.2111427  63.0123735  98.4719963  57.7220606  61.7224227  96.1710122
  58.2508373  61.2116682  95.5580284  57.9848826  61.4066758  97.0355655
  56.4758840  53.5016160 111.2932940  55.7999477  53.4010289 111.9635315
  57.2986474  53.3455374 111.7568937  48.2237699  59.7388097 103.9145455
  48.8091136  58.9931785 104.0473360  48.0262538  60.0492053 104.7982119
  51.0776354  62.7739344  98.9307898  50.4086730  63.2585472  98.4471938
  50.9389224  63.0208565  99.8451276  42.8155354  52.3093697 102.6349899
  42.8539453  51.7757288 103.4287017  42.3095647  51.7828902 102.0160876
  55.2181623  64.8083088 105.5290556  55.7699931  64.9714709 106.2939641
  55.5587816  65.3987525 104.8570581  50.1946116  47.1558237 106.1312441
  50.2587443  48.0173068 105.7189839  50.1313236  46.5432239 105.3984799
  49.6698389  49.2281370 109.7785475  50.2970427  48.8458447 110.3923000
  48.8126307  49.0095572 110.1441168  60.0692497  59.6344345 111.3839211
  60.6132401  60.2474303 110.8894165  59.4879342  60.1923924 111.9006224
  46.4463931  51.0357799  95.7103830  46.7417372  50.1268477  95.6570884
  45.5451967  51.0145539  95.3884832  58.3550010  62.7565063 102.5154238
  58.2301150  61.9554803 102.0065184  59.0129101  63.2511256 102.0268208
  49.9758178  49.1113796 101.6931379  49.2544764  49.7249763 101.5538852
  50.7651434  49.6471560 101.6148025  60.4184919  60.5574083 104.1433788
  59.4715254  60.4379434 104.0712115  60.7667692  59.6696581 104.2260050
  52.7784492  46.4468222 107.9672030  53.3018894  46.6930519 108.7298340
  52.5596825  47.2788257 107.5475168  48.1751773  48.7171897  95.8343155
  47.8464479  47.8369276  95.6518261  48.5291144  48.6619565  96.7219544
  57.4231352  60.3526799 100.3438141  57.2756314  59.4243507 100.5245711
  58.2484845  60.3746890  99.8595216  51.2893596  49.0044867  96.2018633
  51.6289669  49.5330788  95.4797241  51.7365717  49.3425273  96.9777199
  61.0265474  61.1755358 101.4303013  61.9512021  60.9698220 101.2927465
  60.8580777  60.9271759 102.3392355  53.9837037  47.3881917 105.6521701
  53.6433857  46.5889730 106.0542381  53.2776043  47.6883628 105.0798534
  54.6353509  44.4731230 104.1049024  55.4579578  43.9991708 103.9827914
  54.8791572  45.2521713 104.6047710  53.2761743  47.5019488  94.4011926
  53.9970106  47.8800741  93.8975642  52.6527047  48.2208365  94.5046904
  57.4192866  48.2064637  95.3370258  57.6356481  49.0889275  95.0359086
  56.9386933  47.8150850  94.6075900  52.1592088  51.1650350 101.9141003
  52.0136668  51.4790653 102.8065284  51.6817291  51.7835251 101.3611901
  54.0188470  48.1552898 101.9621892  54.0050039  47.2593992 101.6254190
  54.7360899  48.1623562 102.5960178  55.8714601  48.5890238 104.0075020
  55.6132379  49.5107309 104.0059350  55.3399641  48.1920673 104.6975484
  60.8160790  61.6941026  96.7865105  60.9897667  61.1287448  96.0338957
  61.3089681  62.4941920  96.6044595  46.6337750  53.7055695 104.8528664
  46.0891218  54.4815503 104.9848938  47.5117100  54.0526499 104.6947785
  53.4225366  47.0367279  97.2309462  53.5441278  46.1083925  97.4300350
  53.1327409  47.0505965  96.3187778  56.2916557  44.7222189 100.3676182
  56.3138254  44.7861522  99.4128162  56.7084616  43.8826698 100.5616688
  66.6700181  54.4577449  98.4055405  67.1131327  53.7084774  98.0074528
  65.7926691  54.4487585  98.0229137  61.8035962  61.0107790  93.8862003
  62.4986867  61.6314483  94.1049318  62.1459112  60.1603141  94.1614381
  47.4203772  52.8325591 107.7458821  46.6785508  52.9808226 108.3323451
  47.0996516  53.0933857 106.8825570  63.7027385  58.4607496  95.4149334
  64.2278710  58.7994768  94.6898654  63.6149738  57.5254511  95.2312469
  55.3647434  62.3741569 107.5439211  55.6734561  62.1290716 108.4161910
  56.1622916  62.5788208 107.0558081  55.3868046  64.5279479  99.7744587
  54.9473037  64.0355858 100.4677444  56.1376163  63.9852446  99.5336662
  47.8660385  60.7191020  99.7769215  48.6918405  60.4194792  99.3967859
  47.5154437  59.9498642 100.2259004  52.8341918  60.0717488 101.8466889
  52.2121928  59.4088193 101.5469117  53.5046785  60.0978620 101.1640537
  46.0668990  58.6377346 100.7358149  45.2300899  58.2099520 100.5542150
  46.0392636  58.8309789 101.6728940  52.9066446  48.5499276 111.4399395
  52.9554601  49.4261399 111.0577164  53.4488960  48.0076669 110.8671038
  63.3921292  59.0940399 110.7200532  62.6016835  59.0764538 110.1805031
  63.1554646  59.6328693 111.4749568  63.5119167  55.9432866 108.0333260
  63.5617172  55.7782873 108.9748783  63.4033090  55.0760125 107.6431141
  52.3955425  58.6221411  95.3225349  52.5443546  59.3056876  94.6692022
  53.2021869  58.6026501  95.8374805  60.8022929  51.9263794 109.3492567
  61.7032792  51.7870258 109.0576565  60.8770903  52.0918248 110.2890745
  55.1365734  49.3030648 108.1945753  54.2669044  49.5964214 107.9228342
  55.3725215  49.8871093 108.9153017  65.0137363  58.3629807 108.2775282
  64.7222172  58.7259788 109.1138743  64.4009495  57.6496815 108.0988614
  66.2133046  55.9282687 100.7977852  67.0479937  56.3672491 100.9615413
  66.3492175  55.4521340  99.9786098  63.2624552  53.4862422 106.7455340
  63.7378673  53.6790068 105.9374191  62.3390117  53.5421608 106.4998724
  50.1508058  54.6486589  96.3286418  49.9054100  53.7448919  96.5266628
  50.3203973  54.6503739  95.3865896  57.8404768  45.5210265 105.7111174
  58.3586712  46.2571292 105.3857662  57.4859901  45.8274259 106.5457933
  49.4203706  50.3814946  93.8272580  48.7272951  50.4559301  93.1712616
  49.1755458  49.6175290  94.3494097  58.0917362  41.9410548 101.2312070
  58.3719116  41.2733737 101.8572497  58.8767969  42.1339643 100.7186734
  55.8950831  61.1169542  92.7937097  55.3224798  61.7359729  92.3407569
  56.4683624  61.6668903  93.3277019  61.9626221  50.3628182 104.9783646
  62.9143644  50.4626279 104.9995870  61.7929671  49.5706450 105.4881730
  59.9840600  47.4483765 105.1643047  59.3890532  47.7288778 104.4689535
  59.6990297  47.9377666 105.9359788  59.1148091  61.4006692  93.9245679
  60.0478764  61.3352254  94.1278555  59.0271303  62.2362959  93.4660212
  61.7436107  60.7172562  90.8849627  61.6649739  60.3832426  91.7785385
  62.5645774  61.2094330  90.8841099  64.4414298  53.5834301 104.0925945
  64.4090619  52.6450302 104.2785629  65.0514922  53.6618338 103.3591770
  56.2797629  52.4530354  90.1353149  57.2256734  52.3236563  90.2041567
  55.9011874  51.7145016  90.6122577  64.5908787  50.3745345 104.1384228
  64.0747836  49.5903802 103.9514157  65.4748735  50.0464062 104.3030748
  62.2519514  44.1186360 100.0980041  62.0544335  43.8101449 100.9823373
  62.8619219  44.8447999 100.2277971  70.2590848  54.6450308 103.2331982
  70.9894237  54.3835596 103.7939685  69.6497794  53.9079030 103.2734050
  68.3406145  52.7858171 103.8306433  67.6139309  52.6514136 103.2222925
  67.9253432  53.0935000 104.6363151  56.1636322  56.5048101 111.5953806
  57.0839331  56.6826700 111.7893853  56.1285905  55.5604146 111.4433506
  54.4640546  50.3780331  90.0708034  53.5572002  50.0813444  90.1470748
  54.7416527  50.0810149  89.2042321  45.3818487  51.6986694 100.5207081
  45.0621271  50.8452002 100.2281455  44.8351915  51.9135272 101.2765048
  49.1598394  54.4149135 104.2376587  49.3784404  55.3466243 104.2564621
  49.5724168  54.0557110 105.0231391  56.0802612  44.9217221  96.2252276
  55.2703341  44.5764306  96.6007522  56.7687029  44.6124764  96.8139887
  58.0093160  43.9995267  97.8476572  58.5624199  44.4190721  98.5066596
  58.2463247  43.0731015  97.8899528  54.0326260  49.9882341 113.6279336
  53.9322987  50.9376698 113.5591427  53.8147802  49.6600580 112.7555406
  53.2339331  47.2367266  90.2120014  54.0958495  47.5622164  90.4715831
  53.4189675  46.4498762  89.6993079  45.2506747  55.3189606 102.4900202
  44.5570218  54.9043559 101.9770157  45.9979738  55.3610142 101.8933621
  61.3871968  46.1095793  97.3555237  60.8070637  46.7680597  96.9733289
  61.1207900  45.2873137  96.9442654  59.8375534  45.5100850  99.5576557
  60.3375312  45.6217385  98.7490876  60.4811142  45.2061903 100.1977365
  53.8957530  53.4179480 112.4444398  53.4124611  54.2179840 112.6508287
  53.9818469  53.4287425 111.4911842  47.1643489  55.2507860 100.3666217
  47.1414177  55.3495547  99.4148100  47.4744126  56.0973010 100.6883383
  49.8230867  57.3084015 104.4812832  50.7774121  57.2767957 104.4142763
  49.6243391  56.8474638 105.2963058  50.4130249  55.8785131 107.0483629
  51.2323138  56.3729209 107.0718467  50.6867057  54.9617099 107.0201197
  63.5211382  48.2942404 100.1265924  64.2971772  48.7838856 100.3990541
  62.7959516  48.7200458 100.5837794  65.9583940  49.0070023 101.1839865
  66.5528431  48.7665759 100.4733173  66.0310524  48.2877154 101.8113401
  48.1781096  62.8503634 101.4983030  48.0435564  62.0904035 100.9321028
  47.7613158  63.5744534 101.0311819  59.3140059  58.0340558  90.5059605
  60.0175909  58.2390560  91.1217261  58.5902708  58.6017319  90.7708688
  60.1437869  53.7850419  96.6261875  60.0873071  54.2418970  95.7869508
  60.6966212  53.0241103  96.4484718  63.9542675  49.5740151  97.4511995
  63.6979609  49.1736786  98.2820202  63.3295543  50.2883945  97.3262134
  68.2655013  52.3136224  99.9583286  67.7054571  52.3829413 100.7314848
  67.6598516  52.1377209  99.2382782  51.3350222  63.7472951 101.7101472
  51.2182606  64.6918384 101.6080163  50.5142668  63.4446513 102.0987271
  61.2226756  58.4723087  92.5558065  62.0572360  58.0404285  92.3735540
  61.0611099  58.3005100  93.4834959  60.8772649  54.9755200  93.9214404
  60.8221452  54.8099472  92.9802848  60.2518704  55.6831233  94.0776594
  45.6665164  50.2123264 107.7475826  46.3124027  49.7022218 108.2363052
  45.4582315  50.9491946 108.3219252  58.1918556  57.2804112 113.2467967
  59.0609715  57.4544764 112.8854602  57.7125307  58.0998529 113.1243696
  54.1868774  44.4763309  93.4999723  54.1747444  45.4205149  93.6567994
  55.0792196  44.2933454  93.2059184  52.3604736  64.4001213 104.9257401
  53.2631983  64.4324823 105.2423896  52.1342106  63.4701664 104.9403737
  54.1158338  63.1532199 101.5867479  53.1653969  63.1534061 101.4731852
  54.4190824  62.4064934 101.0703514  58.0020894  41.0706086  97.7545659
  57.2353289  40.5164572  97.9002342  58.4131599  41.1427954  98.6159811
  50.0062655  47.3590882 111.8450841  50.8694116  47.0027686 112.0554165
  49.4328065  47.0204776 112.5326245  69.8511032  68.9892738 102.6513242
  70.4889442  68.8699485 101.9476582  69.7331874  69.9373582 102.7101194
  66.6600738  68.9420166 102.5874766  66.3219249  68.8261231 101.6995301
  67.5290506  68.5411331 102.5675773  62.5187554  70.7955642  98.5771657
  61.9552419  70.7045579  97.8087945  62.4039949  69.9755547  99.0574150
  67.1420521  70.0955018 108.5460972  67.1309162  69.7007816 107.6741476
  67.3041160  69.3621090 109.1394743  60.0651985  72.2906834 101.4155878
  60.8573277  71.9497659 101.0002177  60.3048636  72.4001809 102.3358031
  62.0242739  71.5515747  94.2873257  62.7973615  71.0044734  94.1486132
  62.3768138  72.4159997  94.4987718  63.8627782  72.8792130 107.4940156
  63.5717648  73.7837760 107.3786822  64.4984766  72.9208657 108.2084226
  64.7883989  70.2568978 104.0841516  65.3847561  70.0325000 103.3698479
  64.8458960  69.5153724 104.6866963  64.3609017  67.7108413  91.9191707
  64.6134538  67.1889935  91.1575170  63.4233576  67.5474559  92.0218390
  69.4052300  66.7144192  99.7266450  70.1915389  66.2963615  99.3756867
  69.6691004  67.6190284  99.8948098  74.8060727  66.6519425 100.6299428
  75.5385899  66.0818642 100.8637258  74.0500083  66.2641025 101.0705934
  72.3286148  60.3640999 105.0894037  71.9969472  61.2336410 104.8655252
  71.7331761  60.0477283 105.7688067  66.0642334  64.1036566  92.8224119
  66.2316736  64.9716803  93.1894590  65.8739503  64.2663848  91.8985409
  68.8217667  72.5653545 104.4889950  68.5218390  73.4678584 104.3805757
  68.4768727  72.2985728 105.3411103  62.2730149  69.0167342 100.5226654
  61.3480645  68.8843556 100.7304346  62.5214562  69.7961561 101.0196596
  72.2214811  65.0836085 102.1687387  71.3131688  65.0151494 101.8746148
  72.1702407  65.5608030 102.9969212  66.0431555  66.5594224  93.8070786
  65.9231180  67.0051274  94.6456266  65.3484143  66.9079541  93.2484324
  59.6338960  68.6600615 101.3570443  59.7631341  68.9135094 102.2709855
  58.9536411  69.2528323 101.0375098  63.8038447  79.3297865  97.4560917
  63.7262477  80.2805690  97.5349398  63.2000090  78.9843738  98.1135844
  66.2955677  66.5025731 110.1122284  65.5189011  67.0619651 110.1025149
  66.9346240  66.9882514 110.6337154  74.0876457  63.2852524 103.9465261
  73.4450837  63.5785057 103.3005055  73.5831386  63.1705444 104.7518458
  71.7416621  67.0315697  94.6351120  72.6534477  67.2643084  94.4598818
  71.2326268  67.6152741  94.0726199  64.5502049  69.3111184 109.6740251
  65.2916733  69.8496228 109.3975075  63.8439034  69.9377473 109.8311803
  70.0257389  71.4540325 108.2712413  70.4340745  71.0122735 107.5267045
  69.3034650  70.8792952 108.5246606  66.3788459  66.3912931 105.6445970
  67.2249654  66.8152345 105.7880619  66.3187096  65.7346556 106.3384533
  70.3486203  72.0141515 102.0264702  69.7195066  72.1787229 101.3240769
  69.9611865  72.4283125 102.7975666  74.2275435  72.9495953  99.3809065
  73.5426473  73.3294854  98.8306099  74.3119284  73.5591280 100.1141013
  69.5287904  64.0517300 107.3027143  69.2848836  64.8059360 106.7661419
  69.8047834  64.4302647 108.1374390  71.4826367  70.5955912 105.9804409
  71.6943262  71.2387672 105.3038790  71.4356115  69.7618229 105.5126339
  69.0852596  63.2073733 102.8840981  68.2237075  63.5054986 103.1757719
  69.1115030  63.4244132 101.9522014  62.7938246  71.2987405 102.2294550
  63.3639603  71.7274673 101.5912034  63.3846358  71.0169990 102.9278736
  63.2863413  66.4650832 110.4755561  62.6562073  67.1467113 110.7090958
  63.1799501  66.3533914 109.5308699  58.5808385  66.1322628 101.4021485
  57.7907439  66.3880157 100.9261596  59.0719632  66.9470966 101.5073526
  72.5972195  73.4727868 104.1526766  73.4189638  73.0708055 103.8709448
  72.5934598  73.3696102 105.1042882  60.5323130  66.4967208  98.3604962
  59.7354294  66.6085902  98.8788458  60.3048723  66.8353860  97.4945853
  66.3628798  73.0211911 106.3087477  66.4273231  73.4832318 107.1445649
  65.6539722  72.3909276 106.4369787  56.8646088  66.3853119 103.8336476
  57.1154126  67.2700129 104.0994052  57.4005636  66.2057720 103.0611568
  80.6878188  69.8166616 100.5011738  79.9341896  69.2474014 100.3455742
  80.8225729  69.7829281 101.4482372  62.5644155  60.7671598 112.8380812
  62.1711101  60.2137797 113.5128457  63.3810296  61.0782177 113.2287330
  59.5306213  72.2055456  96.7494382  60.0430734  72.9998707  96.8999947
  60.1828926  71.5081747  96.6827984  61.3401098  75.3221213  98.8317135
  61.5167726  76.2439177  98.6438119  62.1357931  75.0079632  99.2611515
  65.4812116  62.1829477 110.4301069  66.2221830  62.7836630 110.3505531
  65.7130039  61.4407115 109.8719111  60.6253454  67.3685845 108.7079299
  60.5106970  66.4671102 109.0086397  59.7697972  67.6149541 108.3564115
  67.7045292  75.3103585 110.3066799  67.2609146  74.5239963 109.9887704
  68.3662506  75.4982735 109.6410690  62.4632413  76.8399386 104.8327478
  63.0139838  76.7116450 104.0604472  61.6243889  77.1394275 104.4822370
  69.8026530  75.5906385 108.3348200  69.7845006  76.4115266 107.8428470
  70.7246450  75.4660460 108.5598342  66.2599584  73.1050514 109.1771709
  66.7927921  72.3438802 108.9471017  65.7313665  72.8124166 109.9195863
  69.4269279  58.2110580 104.7065351  69.0833549  59.1012222 104.6304461
  69.7948242  58.0212238 103.8434936  57.4955130  70.5344111  97.5253953
  58.3330352  70.9441119  97.3087660  57.6733398  69.5943553  97.4954147
  66.9766673  63.0468892  98.2723024  66.1208269  62.6575743  98.0928663
  67.3893625  63.1260853  97.4122810  68.5065820  60.5815235 102.6714584
  68.0030615  60.5445371 101.8582389  68.7996427  61.4907978 102.7311240
  64.7508706  60.6653965 101.6780766  65.6161702  60.4696774 101.3186655
  64.8186215  60.4364317 102.6050122  69.1805865  66.0746283  95.0397567
  68.8756001  66.3892433  95.8907710  70.1336307  66.1527703  95.0824900
  72.6045143  70.4285527 101.8057567  71.9468818  71.1184789 101.8937696
  73.4085542  70.8181959 102.1491553  62.3571025  62.8956173  99.0497132
  62.9314777  62.6731355  98.3170325  62.9442007  62.9644868  99.8025734
  71.4150602  68.7829900  99.8561509  71.9282484  69.4159892 100.3583219
  72.0651826  68.1831095  99.4904869  62.6840612  64.9260634  93.0693018
  61.8477924  65.2635321  93.3902292  62.5445381  64.7909614  92.1320155
  64.6593692  59.7697422  97.7772202  64.0058105  59.4546439  97.1528817
  64.6174167  59.1473162  98.5032025  68.6772976  78.7614224  92.6122180
  68.0034675  79.0645921  93.2207138  69.0638798  79.5643305  92.2627637
  67.8931433  66.2579355 102.1019849  66.9753994  66.4794302 101.9441537
  68.3091576  66.3325666 101.2431557  72.1812398  73.7635901  97.9840651
  71.7274725  72.9226811  98.0405842  71.5506365  74.3997300  98.3215432
  71.1245318  64.6927887  99.2141319  70.3868074  64.1805274  99.5451561
  71.3772091  64.2528269  98.4024596  70.6245337  75.6012398  98.9190470
  70.9168312  76.1617455  98.2002835  71.1343958  75.8940959  99.6743629
  71.2256945  57.4704139  99.8083088  71.5315822  56.6101503  99.5209003
  71.9509550  58.0621760  99.6082082  57.5181301  67.8734826  98.1964686
  57.3205701  67.2804187  97.4715753  56.9627965  67.5687036  98.9140625
  65.4978025  67.7657932 100.3159279  65.5526635  66.8131769 100.2401756
  64.6869227  67.9217372 100.8000578  63.4370385  66.3834992  98.0749658
  62.6238250  66.6829163  98.4814850  63.9329379  65.9890681  98.7924140
  65.5878963  76.3792749 100.0083923  65.5455141  76.6053595  99.0792455
  66.5041661  76.1456124 100.1569724  69.0344596  66.8476817 106.9064552
  69.3893984  67.0748290 107.7659018  69.6816728  67.1795193 106.2841807
  74.7642333  69.9695253  97.6113881  74.6260232  70.1596849  96.6835070
  74.4078552  70.7314635  98.0681932  62.9284459  63.9553348 103.6910893
  63.5683839  63.8142107 102.9933856  62.0961990  63.6687861 103.3149495
  74.7911713  72.0371780 102.6225153  75.2248220  71.9447069 103.4708207
  75.5043294  72.0129280 101.9845169  63.7044763  73.2555778  99.8045886
  64.4985362  72.7606098  99.6028461  62.9936456  72.7273641  99.4413591
  68.5239608  75.6373874 104.1558253  68.5776630  76.2064810 104.9235969
  67.6554389  75.8075759 103.7912290  60.0127527  67.3998860  95.8805638
  59.0825115  67.3383315  96.0975600  60.1084999  66.8774813  95.0842279
  59.9313076  63.9253673  98.4683880  60.1919893  64.8399006  98.3593040
  60.7530248  63.4578115  98.6180493  61.4038001  65.3391430 105.6382704
  62.0761055  65.1308792 104.9895353  60.5767788  65.1413516 105.1987937
  75.6527262  72.0795480 105.1558038  75.8463153  72.9841291 105.4017313
  75.5527881  71.6202899 105.9896623  67.3063573  61.9653371 107.6548365
  66.6591488  62.6643320 107.5612842  68.0764589  62.3989515 108.0224613
  70.7142371  72.2302223 110.7298919  70.5627878  72.0012775 109.8129002
  70.7047051  73.1872824 110.7430264  67.4827708  69.8034136 105.7145185
  68.4119768  69.9545295 105.5414152  67.0618738  69.8918157 104.8593832
  66.2816039  73.8284800 103.4843723  66.1427125  73.4603585 104.3569661
  65.4930636  74.3432440 103.3127680  66.8764191  78.9293897  94.8269259
  67.0515947  78.4581940  95.6414882  66.1896979  79.5559663  95.0550520
  67.8321254  73.2066403 100.8732560  67.4971087  73.1667173 101.7690210
  67.3325200  72.5411119 100.4002971  61.8065498  68.6134033 106.3985142
  61.6685296  67.8814272 106.9996681  62.7170422  68.5242933 106.1169329
  64.4347799  68.3253992 105.8868821  65.1447418  67.6847184 105.8455440
  64.3917107  68.5766887 106.8095002  72.4234578  75.2621346 108.8075400
  72.3647124  74.5780566 108.1405983  72.8254096  76.0040336 108.3556026
  63.1476733  65.3119210 107.7064461  62.6114090  64.8609949 108.3586057
  62.5593442  65.4465119 106.9634925  61.4425277  82.0783259 101.6009119
  61.6821875  82.7101784 102.2788138  60.5994473  81.7271299 101.8874479
  62.5578992  64.7707861  90.2690924  61.6808458  64.6496662  89.9053171
  63.0336745  63.9793940  90.0169813  72.4251985  73.2260929 107.0389380
  71.5378764  72.8886851 107.1615779  72.9950536  72.4943961 107.2758146
  54.0781132  69.5585021 100.3632431  54.7652172  69.2446751  99.7753447
  53.9229261  70.4626386 100.0899683  58.8815854  64.4475218 104.7917455
  58.7974043  63.8400887 104.0567865  58.0598561  64.9384236 104.7926952
  65.9553138  77.8862382 104.0050623  65.8823310  78.6917353 104.5169928
  65.5130532  78.0854348 103.1798645  65.7442918  77.1234152  97.5153445
  64.9610440  77.6655832  97.6091669  66.4435663  77.6408131  97.9147686
  69.0539568  62.9328781 100.1587650  69.5508268  62.1798744  99.8388720
  68.2826550  62.9693098  99.5930860  76.9069326  68.6369147 101.8005942
  76.8959202  69.5193862 101.4299875  76.0386705  68.2840698 101.6060479
  68.4151822  77.7849216 106.1608782  69.1279794  78.4196681 106.0884683
  67.9241851  77.8813082 105.3448784  65.6374537  65.0746164  99.8859335
  65.2672324  64.5217205 100.5740240  66.1333629  64.4704298  99.3334335
  73.5241900  67.5317788  98.2676108  73.9902352  68.3645779  98.1936410
  73.9749401  67.0662769  98.9721366  63.4663735  75.5343659 106.9814353
  64.1673195  76.1680142 107.1343747  62.9958850  75.8758391 106.2209992
  71.4958563  59.8998375 102.3067009  70.5821643  60.1302602 102.4749216
  71.9251664  59.9836819 103.1581041  71.2665021  68.0888267 104.8066903
  70.6136472  68.3364174 104.1519356  71.6445401  67.2752405 104.4729380
  68.2272195  78.1247960  98.9095073  68.4094590  77.3069616  99.3722826
  69.0505181  78.3415652  98.4719963  68.5614361  77.0516145  96.1710122
  69.0902127  76.5408600  95.5580284  68.8242580  76.7358675  97.0355655
  67.3152594  68.8308078 111.2932940  66.6393231  68.7302207 111.9635315
  68.1380228  68.6747292 111.7568937  59.0631454  75.0680014 103.9145455
  59.6484890  74.3223702 104.0473360  58.8656292  75.3783971 104.7982119
  61.9170109  78.1031262  98.9307898  61.2480484  78.5877389  98.4471938
  61.7782978  78.3500482  99.8451276  53.6549108  67.6385615 102.6349899
  53.6933208  67.1049205 103.4287017  53.1489401  67.1120820 102.0160876
  66.0575377  80.1375005 105.5290556  66.6093685  80.3006627 106.2939641
  66.3981571  80.7279443 104.8570581  61.0339871  62.4850155 106.1312441
  61.0981197  63.3464986 105.7189839  60.9706991  61.8724157 105.3984799
  60.5092143  64.5573288 109.7785475  61.1364182  64.1750365 110.3923000
  59.6520062  64.3387490 110.1441168  70.9086252  74.9636263 111.3839211
  71.4526156  75.5766221 110.8894165  70.3273097  75.5215841 111.9006224
  57.2857686  66.3649717  95.7103830  57.5811127  65.4560395  95.6570884
  56.3845722  66.3437456  95.3884832  69.1943765  78.0856981 102.5154238
  69.0694904  77.2846721 102.0065184  69.8522856  78.5803174 102.0268208
  60.8151933  64.4405713 101.6931379  60.0938519  65.0541681 101.5538852
  61.6045189  64.9763478 101.6148025  71.2578673  75.8866001 104.1433788
  70.3109009  75.7671352 104.0712115  71.6061446  74.9988499 104.2260050
  63.6178246  61.7760140 107.9672030  64.1412648  62.0222436 108.7298340
  63.3990580  62.6080175 107.5475168  59.0145527  64.0463814  95.8343155
  58.6858234  63.1661193  95.6518261  59.3684898  63.9911483  96.7219544
  68.2625106  75.6818717 100.3438141  68.1150069  74.7535425 100.5245711
  69.0878600  75.7038808  99.8595216  62.1287351  64.3336784  96.2018633
  62.4683423  64.8622705  95.4797241  62.5759471  64.6717190  96.9777199
  71.8659228  76.5047276 101.4303013  72.7905776  76.2990137 101.2927465
  71.6974532  76.2563677 102.3392355  64.8230791  62.7173835 105.6521701
  64.4827612  61.9181648 106.0542381  64.1169798  63.0175546 105.0798534
  65.4747263  59.8023147 104.1049024  66.2973333  59.3283626 103.9827914
  65.7185327  60.5813631 104.6047710  64.1155498  62.8311406  94.4011926
  64.8363860  63.2092659  93.8975642  63.4920802  63.5500283  94.5046904
  68.2586621  63.5356555  95.3370258  68.4750235  64.4181193  95.0359086
  67.7780688  63.1442768  94.6075900  62.9985842  66.4942268 101.9141003
  62.8530423  66.8082571 102.8065284  62.5211046  67.1127168 101.3611901
  64.8582225  63.4844816 101.9621892  64.8443794  62.5885909 101.6254190
  65.5754653  63.4915480 102.5960178  66.7108356  63.9182156 104.0075020
  66.4526133  64.8399227 104.0059350  66.1793396  63.5212591 104.6975484
  71.6554544  77.0232943  96.7865105  71.8291422  76.4579366  96.0338957
  72.1483436  77.8233838  96.6044595  57.4731504  69.0347612 104.8528664
  56.9284972  69.8107420 104.9848938  58.3510854  69.3818417 104.6947785
  64.2619121  62.3659196  97.2309462  64.3835032  61.4375842  97.4300350
  63.9721163  62.3797882  96.3187778  67.1310311  60.0514107 100.3676182
  67.1532008  60.1153440  99.4128162  67.5478370  59.2118615 100.5616688
  77.5093936  69.7869366  98.4055405  77.9525082  69.0376691  98.0074528
  76.6320446  69.7779503  98.0229137  58.2597526  68.1617509 107.7458821
  57.5179262  68.3100144 108.3323451  57.9390270  68.4225774 106.8825570
  66.2041189  77.7033487 107.5439211  66.5128315  77.4582634 108.4161910
  67.0016671  77.9080125 107.0558081  66.2261801  79.8571397  99.7744587
  65.7866791  79.3647775 100.4677444  66.9769918  79.3144364  99.5336662
  58.7054140  76.0482937  99.7769215  59.5312160  75.7486709  99.3967859
  58.3548192  75.2790560 100.2259004  63.6735673  75.4009406 101.8466889
  63.0515682  74.7380111 101.5469117  64.3440540  75.4270537 101.1640537
  56.9062745  73.9669264 100.7358149  56.0694653  73.5391438 100.5542150
  56.8786390  74.1601707 101.6728940  63.7460200  63.8791194 111.4399395
  63.7948356  64.7553316 111.0577164  64.2882715  63.3368587 110.8671038
  74.2315046  74.4232317 110.7200532  73.4410590  74.4056456 110.1805031
  73.9948401  74.9620611 111.4749568  74.3512921  71.2724783 108.0333260
  74.4010926  71.1074791 108.9748783  74.2426844  70.4052042 107.6431141
  63.2349180  73.9513329  95.3225349  63.3837300  74.6348793  94.6692022
  64.0415623  73.9318419  95.8374805  71.6416683  67.2555711 109.3492567
  72.5426546  67.1162176 109.0576565  71.7164658  67.4210166 110.2890745
  65.9759489  64.6322566 108.1945753  65.1062798  64.9256132 107.9228342
  66.2118969  65.2163011 108.9153017  75.8531118  73.6921725 108.2775282
  75.5615926  74.0551705 109.1138743  75.2403249  72.9788733 108.0988614
  77.0526800  71.2574605 100.7977852  77.8873692  71.6964409 100.9615413
  77.1885929  70.7813258  99.9786098  74.1018306  68.8154339 106.7455340
  74.5772428  69.0081986 105.9374191  73.1783872  68.8713525 106.4998724
  60.9901813  69.9778507  96.3286418  60.7447855  69.0740837  96.5266628
  61.1597727  69.9795657  95.3865896  68.6798523  60.8502183 105.7111174
  69.1980467  61.5863210 105.3857662  68.3253655  61.1566176 106.5457933
  60.2597460  65.7106864  93.8272580  59.5666705  65.7851219  93.1712616
  60.0149212  64.9467208  94.3494097  68.9311117  57.2702465 101.2312070
  69.2112871  56.6025655 101.8572497  69.7161724  57.4631561 100.7186734
  66.7344585  76.4461459  92.7937097  66.1618552  77.0651647  92.3407569
  67.3077379  76.9960821  93.3277019  72.8019975  65.6920099 104.9783646
  73.7537398  65.7918197 104.9995870  72.6323426  64.8998368 105.4881730
  70.8234355  62.7775683 105.1643047  70.2284287  63.0580695 104.4689535
  70.5384051  63.2669584 105.9359788  69.9541845  76.7298610  93.9245679
  70.8872518  76.6644171  94.1278555  69.8665058  77.5654876  93.4660212
  75.2808053  68.9126219 104.0925945  75.2484373  67.9742220 104.2785629
  75.8908677  68.9910256 103.3591770  67.1191384  67.7822272  90.1353149
  68.0650489  67.6528480  90.2041567  66.7405629  67.0436934  90.6122577
  75.4302541  65.7037263 104.1384228  74.9141590  64.9195719 103.9514157
  76.3142490  65.3755979 104.3030748  73.0913268  59.4478278 100.0980041
  72.8938089  59.1393366 100.9823373  73.7012974  60.1739917 100.2277971
  81.0984603  69.9742226 103.2331982  81.8287991  69.7127514 103.7939685
  80.4891548  69.2370948 103.2734050  79.1799900  68.1150089 103.8306433
  78.4533063  67.9806054 103.2222925  78.7647187  68.4226917 104.6363151
  67.0030076  71.8340018 111.5953806  67.9233086  72.0118617 111.7893853
  66.9679659  70.8896064 111.4433506  65.3034301  65.7072249  90.0708034
  64.3965756  65.4105361  90.1470748  65.5810282  65.4102067  89.2042321
  56.2212241  67.0278612 100.5207081  55.9015026  66.1743920 100.2281455
  55.6745670  67.2427190 101.2765048  59.9992149  69.7441053 104.2376587
  60.2178159  70.6758161 104.2564621  60.4117923  69.3849027 105.0231391
  66.9196367  60.2509138  96.2252276  66.1097095  59.9056223  96.6007522
  67.6080784  59.9416682  96.8139887  68.8486915  59.3287185  97.8476572
  69.4017954  59.7482638  98.5066596  69.0857001  58.4022933  97.8899528
  64.8720014  65.3174259 113.6279336  64.7716741  66.2668616 113.5591427
  64.6541556  64.9892498 112.7555406  64.0733086  62.5659184  90.2120014
  64.9352250  62.8914082  90.4715831  64.2583430  61.7790680  89.6993079
  56.0900501  70.6481523 102.4900202  55.3963973  70.2335476 101.9770157
  56.8373492  70.6902060 101.8933621  72.2265722  61.4387710  97.3555237
  71.6464391  62.0972514  96.9733289  71.9601655  60.6165055  96.9442654
  70.6769288  60.8392768  99.5576557  71.1769067  60.9509302  98.7490876
  71.3204896  60.5353821 100.1977365  64.7351284  68.7471398 112.4444398
  64.2518366  69.5471758 112.6508287  64.8212223  68.7579342 111.4911842
  58.0037244  70.5799777 100.3666217  57.9807932  70.6787464  99.4148100
  58.3137880  71.4264928 100.6883383  60.6624622  72.6375932 104.4812832
  61.6167875  72.6059875 104.4142763  60.4637145  72.1766556 105.2963058
  61.2524004  71.2077048 107.0483629  62.0716893  71.7021127 107.0718467
  61.5260812  70.2909016 107.0201197  71.0090600  63.5987801  96.4111585
  70.1216455  63.8837451  96.1931780  71.4244589  63.4381564  95.5638862
  74.3605136  63.6234322 100.1265924  75.1365526  64.1130774 100.3990541
  73.6353270  64.0492376 100.5837794  76.7977695  64.3361941 101.1839865
  77.3922186  64.0957677 100.4733173  76.8704279  63.6169071 101.8113401
  59.0174851  78.1795552 101.4983030  58.8829318  77.4195953 100.9321028
  58.6006913  78.9036452 101.0311819  74.7936430  64.9032068  97.4511995
  74.5373364  64.5028704  98.2820202  74.1689298  65.6175862  97.3262134
  79.1048768  67.6428142  99.9583286  78.5448326  67.7121331 100.7314848
  78.4992271  67.4669126  99.2382782  62.1743976  79.0764869 101.7101472
  62.0576361  80.0210301 101.6080163  61.3536423  78.7738430 102.0987271
  56.5058918  65.5415182 107.7475826  57.1517782  65.0314136 108.2363052
  56.2976069  66.2783864 108.3219252  69.0312310  72.6096030 113.2467967
  69.9003470  72.7836682 112.8854602  68.5519062  73.4290446 113.1243696
  65.0262529  59.8055227  93.4999723  65.0141198  60.7497067  93.6567994
  65.9185950  59.6225372  93.2059184  63.1998491  79.7293131 104.9257401
  64.1025737  79.7616741 105.2423896  62.9735861  78.7993582 104.9403737
  64.9552093  78.4824117 101.5867479  64.0047724  78.4825979 101.4731852
  65.2584579  77.7356852 101.0703514  68.8414648  56.3998003  97.7545659
  68.0747044  55.8456490  97.9002342  69.2525353  56.4719872  98.6159811
  60.8456409  62.6882799 111.8450841  61.7087871  62.3319604 112.0554165
  60.2721820  62.3496694 112.5326245  80.6904786  84.3184656 102.6513242
  81.3283196  84.1991403 101.9476582  80.5725629  85.2665500 102.7101194
  77.4994492  84.2712084 102.5874766  77.1613004  84.1553148 101.6995301
  78.3684261  83.8703249 102.5675773  73.3581308  86.1247560  98.5771657
  72.7946173  86.0337497  97.8087945  73.2433703  85.3047465  99.0574150
  77.9814275  85.4246935 108.5460972  77.9702916  85.0299734 107.6741476
  78.1434915  84.6913008 109.1394743  70.9045740  87.6198752 101.4155878
  71.6967032  87.2789576 101.0002177  71.1442390  87.7293727 102.3358031
  78.9380867  89.7918528  93.8886122  78.2868846  90.3772608  93.5020136
  79.7325230  90.3224723  93.9481160  72.8636494  86.8807665  94.2873257
  73.6367370  86.3336652  94.1486132  73.2161893  87.7451914  94.4987718
  74.7021536  88.2084047 107.4940156  74.4111402  89.1129678 107.3786822
  75.3378521  88.2500575 108.2084226  75.6277743  85.5860896 104.0841516
  76.2241316  85.3616918 103.3698479  75.6852715  84.8445641 104.6866963
  75.2002772  83.0400331  91.9191707  75.4528292  82.5181852  91.1575170
  74.2627331  82.8766476  92.0218390  80.2446055  82.0436109  99.7266450
  81.0309144  81.6255533  99.3756867  80.5084759  82.9482202  99.8948098
  80.4156132  87.4808960  94.4255107  79.7801965  87.5543586  95.1376011
  80.0853538  88.0702559  93.7474186  85.6454482  81.9811343 100.6299428
  86.3779654  81.4110559 100.8637258  84.8893837  81.5932943 101.0705934
  74.9199060  84.9428437  94.1216082  74.8035319  84.2673340  94.7897166
  75.0301320  84.4560811  93.3048235  77.2630601  84.4038584  97.8262771
  76.8988809  83.8769205  98.5375692  78.1197717  84.0137053  97.6529256
  83.1679902  75.6932917 105.0894037  82.8363227  76.5628328 104.8655252
  82.5725515  75.3769201 105.7688067  76.9036088  79.4328484  92.8224119
  77.0710491  80.3008720  93.1894590  76.7133257  79.5955766  91.8985409
  79.6611422  87.8945463 104.4889950  79.3612145  88.7970502 104.3805757
  79.3162481  87.6277646 105.3411103  73.1123903  84.3459260 100.5226654
  72.1874399  84.2135474 100.7304346  73.3608316  85.1253479 101.0196596
  83.0608565  80.4128003 102.1687387  82.1525443  80.3443411 101.8746148
  83.0096161  80.8899948 102.9969212  76.8825309  81.8886141  93.8070786
  76.7624934  82.3343192  94.6456266  76.1877898  82.2371459  93.2484324
  70.4732714  83.9892533 101.3570443  70.6025095  84.2427012 102.2709855
  69.7930165  84.5820241 101.0375098  74.6432201  94.6589783  97.4560917
  74.5656231  95.6097608  97.5349398  74.0393845  94.3135656  98.1135844
  77.1349431  81.8317648 110.1122284  76.3582765  82.3911569 110.1025149
  77.7739994  82.3174431 110.6337154  84.9270212  78.6144441 103.9465261
  84.2844592  78.9076974 103.3005055  84.4225140  78.4997362 104.7518458
  82.5810375  82.3607614  94.6351120  83.4928231  82.5935001  94.4598818
  82.0720022  82.9444659  94.0726199  75.3895803  84.6403102 109.6740251
  76.1310488  85.1788146 109.3975075  74.6832789  85.2669391 109.8311803
  80.8651143  86.7832242 108.2712413  81.2734499  86.3414653 107.5267045
  80.1428405  86.2084870 108.5246606  77.2182213  81.7204849 105.6445970
  78.0643408  82.1444263 105.7880619  77.1580851  81.0638473 106.3384533
  81.1879958  87.3433433 102.0264702  80.5588820  87.5079147 101.3240769
  80.8005620  87.7575042 102.7975666  85.0669190  88.2787871  99.3809065
  84.3820228  88.6586772  98.8306099  85.1513039  88.8883197 100.1141013
  80.3681658  79.3809217 107.3027143  80.1242590  80.1351278 106.7661419
  80.6441589  79.7594565 108.1374390  82.3220121  85.9247830 105.9804409
  82.5337016  86.5679590 105.3038790  82.2749869  85.0910146 105.5126339
  79.9246350  78.5365650 102.8840981  79.0630829  78.8346904 103.1757719
  79.9508785  78.7536049 101.9522014  76.7407920  87.0807841  99.2914787
  77.2046265  87.3595544  98.5019409  76.4764718  86.1791286  99.1087877
  73.6332001  86.6279323 102.2294550  74.2033358  87.0566591 101.5912034
  74.2240112  86.3461907 102.9278736  75.6776806  83.2030993  96.1004352
  76.3800849  83.6552037  96.5678278  75.3457434  82.5614812  96.7284245
  74.1257167  81.7942750 110.4755561  73.4955828  82.4759031 110.7090958
  74.0193255  81.6825832 109.5308699  69.4202140  81.4614546 101.4021485
  68.6301194  81.7172075 100.9261596  69.9113387  82.2762884 101.5073526
  83.4365949  88.8019785 104.1526766  84.2583393  88.3999973 103.8709448
  83.4328352  88.6988019 105.1042882  71.3716885  81.8259125  98.3604962
  70.5748048  81.9377820  98.8788458  71.1442477  82.1645778  97.4945853
  77.2022553  88.3503829 106.3087477  77.2666985  88.8124236 107.1445649
  76.4933476  87.7201193 106.4369787  67.7039843  81.7145037 103.8336476
  67.9547881  82.5992046 104.0994052  68.2399391  81.5349638 103.0611568
  91.5271942  85.1458534 100.5011738  90.7735651  84.5765932 100.3455742
  91.6619483  85.1121198 101.4482372  76.9170570  90.0171936  96.1766457
  76.7816245  90.8623472  96.6051305  77.4580383  90.2191214  95.4132391
  73.4037910  76.0963516 112.8380812  73.0104855  75.5429714 113.5128457
  74.2204050  76.4074094 113.2287330  70.3699968  87.5347374  96.7494382
  70.8824488  88.3290624  96.8999947  71.0222680  86.8373665  96.6827984
  72.1794852  90.6513130  98.8317135  72.3561481  91.5731095  98.6438119
  72.9751686  90.3371550  99.2611515  76.3205871  77.5121395 110.4301069
  77.0615584  78.1128548 110.3505531  76.5523794  76.7699033 109.8719111
  71.4647209  82.6977762 108.7079299  71.3500724  81.7963019 109.0086397
  70.6091727  82.9441459 108.3564115  78.5439047  90.6395503 110.3066799
  78.1002901  89.8531881 109.9887704  79.2056260  90.8274653 109.6410690
  73.3026168  92.1691304 104.8327478  73.8533593  92.0408367 104.0604472
  72.4637644  92.4686193 104.4822370  80.6420285  90.9198302 108.3348200
  80.6238760  91.7407183 107.8428470  81.5640205  90.7952378 108.5598342
  77.0993339  88.4342432 109.1771709  77.6321676  87.6730720 108.9471017
  76.5707420  88.1416084 109.9195863  80.2663034  73.5402498 104.7065351
  79.9227303  74.4304140 104.6304461  80.6341996  73.3504156 103.8434936
  68.3348884  85.8636028  97.5253953  69.1724106  86.2733037  97.3087660
  68.5127152  84.9235471  97.4954147  80.2313317  83.5311109  93.2137786
  79.7159940  84.3015714  93.4526173  79.9590625  82.8576245  93.8370847
  77.8160428  78.3760810  98.2723024  76.9602024  77.9867660  98.0928663
  78.2287379  78.4552771  97.4122810  79.3459574  75.9107153 102.6714584
  78.8424370  75.8737288 101.8582389  79.6390181  76.8199896 102.7311240
  75.5902460  75.9945883 101.6780766  76.4555457  75.7988691 101.3186655
  75.6579969  75.7656235 102.6050122  85.2047591  86.2843464  95.1490959
  84.4277033  85.9454623  94.7046121  85.8839072  86.2896087  94.4745924
  80.0199620  81.4038201  95.0397567  79.7149755  81.7184350  95.8907710
  80.9730062  81.4819621  95.0824900  78.4646052  87.5628424  96.6890521
  77.9367413  86.8281184  96.3763758  77.9633554  88.3403101  96.4430489
  83.4438898  85.7577445 101.8057567  82.7862572  86.4476706 101.8937696
  84.2479297  86.1473877 102.1491553  73.1964779  78.2248091  99.0497132
  73.7708531  78.0023272  98.3170325  73.7835762  78.2936785  99.8025734
  82.2544356  84.1121818  99.8561509  82.7676238  84.7451809 100.3583219
  82.9045580  83.5123013  99.4904869  73.5234366  80.2552552  93.0693018
  72.6871679  80.5927238  93.3902292  73.3839136  80.1201532  92.1320155
  75.4987447  75.0989340  97.7772202  74.8451859  74.7838357  97.1528817
  75.4567921  74.4765080  98.5032025  76.6098652  85.3808635  89.6925494
  75.7025713  85.1497888  89.8916643  77.1069684  84.5846254  89.8799475
  79.5166731  94.0906142  92.6122180  78.8428429  94.3937839  93.2207138
  79.9032553  94.8935222  92.2627637  78.7325187  81.5871273 102.1019849
  77.8147749  81.8086220 101.9441537  79.1485331  81.6617584 101.2431557
  79.5160235  82.9862689  97.2322530  80.2632054  83.4984086  96.9229652
  79.7851825  82.6646742  98.0926923  77.7886885  85.4821230  94.2149484
  76.8798104  85.1980262  94.3121954  77.8181969  85.9020308  93.3552791
  83.0206153  89.0927819  97.9840651  82.5668480  88.2518729  98.0405842
  82.3900119  89.7289217  98.3215432  81.9639072  80.0219805  99.2141319
  81.2261829  79.5097191  99.5451561  82.2165846  79.5820187  98.4024596
  81.4639092  90.9304316  98.9190470  81.7562066  91.4909373  98.2002835
  81.9737712  91.2232877  99.6743629  82.0650699  72.7996057  99.8083088
  82.3709576  71.9393421  99.5209003  82.7903304  73.3913677  99.6082082
  68.3575056  83.2026744  98.1964686  68.1599455  82.6096104  97.4715753
  67.8021720  82.8978954  98.9140625  76.3371779  83.0949850 100.3159279
  76.3920389  82.1423687 100.2401756  75.5262981  83.2509289 100.8000578
  77.4862973  87.0229973  91.5537562  77.0482403  86.3065832  91.0943200
  78.2273414  87.2506088  90.9922654  74.2764139  81.7126910  98.0749658
  73.4632005  82.0121080  98.4814850  74.7723133  81.3182599  98.7924140
  76.4272717  91.7084667 100.0083923  76.3848896  91.9345513  99.0792455
  77.3435416  91.4748041 100.1569724  79.8738351  82.1768734 106.9064552
  80.2287739  82.4040208 107.7659018  80.5210482  82.5087111 106.2841807
  85.6036088  85.2987170  97.6113881  85.4653986  85.4888766  96.6835070
  85.2472307  86.0606553  98.0681932  73.7678214  79.2845265 103.6910893
  74.4077593  79.1434025 102.9933856  72.9355744  78.9979779 103.3149495
  85.6305467  87.3663697 102.6225153  86.0641974  87.2738986 103.4708207
  86.3437048  87.3421198 101.9845169  74.5438518  88.5847696  99.8045886
  75.3379116  88.0898016  99.6028461  73.8330210  88.0565559  99.4413591
  79.3633362  90.9665791 104.1558253  79.4170385  91.5356728 104.9235969
  78.4948144  91.1367676 103.7912290  70.8521281  82.7290778  95.8805638
  69.9218869  82.6675233  96.0975600  70.9478753  82.2066730  95.0842279
  70.7706830  79.2545590  98.4683880  71.0313648  80.1690924  98.3593040
  71.5924003  78.7870033  98.6180493  72.2431756  80.6683348 105.6382704
  72.9154809  80.4600710 104.9895353  71.4161542  80.4705434 105.1987937
  86.4921017  87.4087398 105.1558038  86.6856907  88.3133208 105.4017313
  86.3921635  86.9494817 105.9896623  78.1457328  77.2945288 107.6548365
  77.4985243  77.9935238 107.5612842  78.9158343  77.7281432 108.0224613
  81.5536126  87.5594141 110.7298919  81.4021632  87.3304692 109.8129002
  81.5440805  88.5164742 110.7430264  78.3221462  85.1326053 105.7145185
  79.2513522  85.2837213 105.5414152  77.9012492  85.2210074 104.8593832
  77.1209794  89.1576718 103.4843723  76.9820879  88.7895502 104.3569661
  76.3324390  89.6724357 103.3127680  77.7157946  94.2585814  94.8269259
  77.8909701  93.7873857  95.6414882  77.0290734  94.8851580  95.0550520
  78.6715009  88.5358321 100.8732560  78.3364842  88.4959090 101.7690210
  78.1718955  87.8703036 100.4002971  72.6459253  83.9425951 106.3985142
  72.5079051  83.2106189 106.9996681  73.5564176  83.8534851 106.1169329
  81.6074201  85.8814355  91.1469620  80.9903371  85.1561183  91.0502673
  81.1390689  86.6423715  90.8036694  75.2741554  83.6545910 105.8868821
  75.9841172  83.0139102 105.8455440  75.2310862  83.9058805 106.8095002
  83.2628332  90.5913263 108.8075400  83.2040878  89.9072483 108.1405983
  83.6647851  91.3332253 108.3556026  73.9870488  80.6411128 107.7064461
  73.4507845  80.1901866 108.3586057  73.3987196  80.7757037 106.9634925
  72.2819031  97.4075177 101.6009119  72.5215629  98.0393701 102.2788138
  71.4388228  97.0563217 101.8874479  73.3972747  80.0999779  90.2690924
  72.5202213  79.9788580  89.9053171  73.8730500  79.3085857  90.0169813
  83.2645740  88.5552847 107.0389380  82.3772518  88.2178769 107.1615779
  83.8344291  87.8235878 107.2758146  64.9174887  84.8876939 100.3632431
  65.6045926  84.5738669  99.7753447  64.7623015  85.7918304 100.0899683
  69.7209609  79.7767135 104.7917455  69.6367798  79.1692805 104.0567865
  68.8992315  80.2676154 104.7926952  76.7946893  93.2154299 104.0050623
  76.7217064  94.0209271 104.5169928  76.3524286  93.4146265 103.1798645
  76.5836673  92.4526070  97.5153445  75.8004194  92.9947750  97.6091669
  77.2829418  92.9700049  97.9147686  79.8933323  78.2620699 100.1587650
  80.3902022  77.5090661  99.8388720  79.1220304  78.2985016  99.5930860
  87.7463080  83.9661065 101.8005942  87.7352956  84.8485780 101.4299875
  86.8780459  83.6132615 101.6060479  79.2545576  93.1141134 106.1608782
  79.9673549  93.7488598 106.0884683  78.7635605  93.2105000 105.3448784
  80.9763103  87.0192386  97.7326074  80.0419382  87.1393849  97.5630778
  81.1539772  86.1164853  97.4686083  76.4768291  80.4038082  99.8859335
  76.1066079  79.8509122 100.5740240  76.9727384  79.7996215  99.3334335
  84.3635655  82.8609705  98.2676108  84.8296107  83.6937697  98.1936410
  84.8143155  82.3954687  98.9721366  74.3057490  90.8635577 106.9814353
  75.0066949  91.4972060 107.1343747  73.8352605  91.2050309 106.2209992
  82.4311886  89.2053527  95.2662260  82.7071730  89.0910121  96.1756134
  81.5616385  88.8071012  95.2274433  82.3352317  75.2290292 102.3067009
  81.4215397  75.4594519 102.4749216  82.7645419  75.3128737 103.1581041
  82.1058776  83.4180184 104.8066903  81.4530226  83.6656092 104.1519356
  82.4839156  82.6044323 104.4729380  79.0665950  93.4539878  98.9095073
  79.2488344  92.6361534  99.3722826  79.8898936  93.6707570  98.4719963
  79.4008115  92.3808063  96.1710122  79.9295882  91.8700517  95.5580284
  79.6636335  92.0650593  97.0355655  78.1546349  84.1599995 111.2932940
  77.4786986  84.0594125 111.9635315  78.9773983  84.0039209 111.7568937
  69.9025208  90.3971932 103.9145455  70.4878645  89.6515620 104.0473360
  69.7050046  90.7075889 104.7982119  72.7563863  93.4323179  98.9307898
  72.0874239  93.9169307  98.4471938  72.6176733  93.6792400  99.8451276
  64.4942863  82.9677532 102.6349899  64.5326962  82.4341123 103.4287017
  63.9883156  82.4412738 102.0160876  76.8969132  95.4666923 105.5290556
  77.4487440  95.6298544 106.2939641  77.2375325  96.0571361 104.8570581
  71.8733625  77.8142073 106.1312441  71.9374952  78.6756904 105.7189839
  71.8100745  77.2016074 105.3984799  71.3485898  79.8865205 109.7785475
  71.9757936  79.5042283 110.3923000  70.4913816  79.6679407 110.1441168
  68.1251440  81.6941634  95.7103830  68.4204881  80.7852313  95.6570884
  67.2239476  81.6729374  95.3884832  80.0337519  93.4148898 102.5154238
  79.9088659  92.6138638 102.0065184  80.6916610  93.9095092 102.0268208
  71.6545687  79.7697631 101.6931379  70.9332273  80.3833599 101.5538852
  72.4438943  80.3055396 101.6148025  82.0972427  91.2157919 104.1433788
  81.1502763  91.0963270 104.0712115  82.4455201  90.3280417 104.2260050
  74.4572001  77.1052057 107.9672030  74.9806403  77.3514354 108.7298340
  74.2384334  77.9372092 107.5475168  69.8539282  79.3755732  95.8343155
  69.5251988  78.4953111  95.6518261  70.2078653  79.3203401  96.7219544
  79.1018861  91.0110635 100.3438141  78.9543823  90.0827342 100.5245711
  79.9272354  91.0330725  99.8595216  72.9681105  79.6628702  96.2018633
  73.3077178  80.1914623  95.4797241  73.4153226  80.0009108  96.9777199
  82.7052983  91.8339194 101.4303013  83.6299530  91.6282055 101.2927465
  82.5368286  91.5855595 102.3392355  75.6624546  78.0465753 105.6521701
  75.3221366  77.2473566 106.0542381  74.9563552  78.3467463 105.0798534
  76.3141018  75.1315065 104.1049024  77.1367087  74.6575543 103.9827914
  76.5579081  75.9105549 104.6047710  74.9549252  78.1603323  94.4011926
  75.6757615  78.5384576  93.8975642  74.3314556  78.8792200  94.5046904
  79.0980375  78.8648472  95.3370258  79.3143989  79.7473110  95.0359086
  78.6174442  78.4734686  94.6075900  73.8379596  81.8234186 101.9141003
  73.6924177  82.1374489 102.8065284  73.3604800  82.4419086 101.3611901
  75.6975979  78.8136734 101.9621892  75.6837548  77.9177827 101.6254190
  76.4148407  78.8207397 102.5960178  77.5502110  79.2474074 104.0075020
  77.2919888  80.1691144 104.0059350  77.0187150  78.8504508 104.6975484
  82.4948299  92.3524861  96.7865105  82.6685176  91.7871283  96.0338957
  82.9877190  93.1525756  96.6044595  68.3125259  84.3639530 104.8528664
  67.7678727  85.1399338 104.9848938  69.1904609  84.7110335 104.6947785
  75.1012875  77.6951114  97.2309462  75.2228787  76.7667760  97.4300350
  74.8114918  77.7089800  96.3187778  77.9704066  75.3806024 100.3676182
  77.9925763  75.4445357  99.4128162  78.3872125  74.5410533 100.5616688
  88.3487690  85.1161284  98.4055405  88.7918836  84.3668609  98.0074528
  87.4714200  85.1071420  98.0229137  83.4823471  91.6691625  93.8862003
  84.1774376  92.2898318  94.1049318  83.8246621  90.8186977  94.1614381
  69.0991281  83.4909426 107.7458821  68.3573017  83.6392062 108.3323451
  68.7784025  83.7517692 106.8825570  85.3814894  89.1191331  95.4149334
  85.9066219  89.4578604  94.6898654  85.2937247  88.1838346  95.2312469
  77.0434943  93.0325405 107.5439211  77.3522070  92.7874551 108.4161910
  77.8410425  93.2372043 107.0558081  77.0655555  95.1863314  99.7744587
  76.6260545  94.6939693 100.4677444  77.8163672  94.6436282  99.5336662
  69.5447894  91.3774855  99.7769215  70.3705914  91.0778627  99.3967859
  69.1941946  90.6082477 100.2259004  74.5129427  90.7301323 101.8466889
  73.8909437  90.0672028 101.5469117  75.1834294  90.7562455 101.1640537
  67.7456499  89.2961181 100.7358149  66.9088408  88.8683356 100.5542150
  67.7180145  89.4893625 101.6728940  74.5853955  79.2083111 111.4399395
  74.6342110  80.0845234 111.0577164  75.1276469  78.6660504 110.8671038
  85.1906676  86.6016701 108.0333260  85.2404681  86.4366708 108.9748783
  85.0820599  85.7343960 107.6431141  74.0742934  89.2805247  95.3225349
  74.2231055  89.9640711  94.6692022  74.8809378  89.2610337  95.8374805
  82.4810438  82.5847629 109.3492567  83.3820301  82.4454094 109.0576565
  82.5558412  82.7502084 110.2890745  76.8153243  79.9614484 108.1945753
  75.9456553  80.2548050 107.9228342  77.0512724  80.5454929 108.9153017
  86.6924872  89.0213642 108.2775282  86.4009681  89.3843623 109.1138743
  86.0797004  88.3080651 108.0988614  87.8920555  86.5866522 100.7977852
  88.7267446  87.0256326 100.9615413  88.0279684  86.1105175  99.9786098
  84.9412061  84.1446257 106.7455340  85.4166182  84.3373903 105.9374191
  84.0177626  84.2005443 106.4998724  71.8295567  85.3070424  96.3286418
  71.5841609  84.4032754  96.5266628  71.9991482  85.3087575  95.3865896
  79.5192277  76.1794101 105.7111174  80.0374221  76.9155128 105.3857662
  79.1647410  76.4858094 106.5457933  71.0991215  81.0398782  93.8272580
  70.4060460  81.1143137  93.1712616  70.8542967  80.2759125  94.3494097
  79.7704871  72.5994383 101.2312070  80.0506625  71.9317572 101.8572497
  80.5555478  72.7923479 100.7186734  77.5738340  91.7753377  92.7937097
  77.0012307  92.3943564  92.3407569  78.1471133  92.3252739  93.3277019
  83.6413730  81.0212017 104.9783646  84.5931153  81.1210115 104.9995870
  83.4717180  80.2290286 105.4881730  81.6628109  78.1067600 105.1643047
  81.0678041  78.3872613 104.4689535  81.3777806  78.5961501 105.9359788
  80.7935600  92.0590527  93.9245679  81.7266273  91.9936089  94.1278555
  80.7058812  92.8946794  93.4660212  83.4223616  91.3756398  90.8849627
  83.3437248  91.0416261  91.7785385  84.2433283  91.8678165  90.8841099
  86.1201807  84.2418137 104.0925945  86.0878128  83.3034138 104.2785629
  86.7302431  84.3202174 103.3591770  77.9585138  83.1114190  90.1353149
  78.9044243  82.9820398  90.2041567  77.5799383  82.3728852  90.6122577
  86.2696296  81.0329180 104.1384228  85.7535345  80.2487637 103.9514157
  87.1536244  80.7047897 104.3030748  83.9307023  74.7770196 100.0980041
  83.7331844  74.4685284 100.9823373  84.5406728  75.5031835 100.2277971
  91.9378357  85.3034144 103.2331982  92.6681746  85.0419432 103.7939685
  91.3285303  84.5662866 103.2734050  90.0193654  83.4442006 103.8306433
  89.2926818  83.3097971 103.2222925  89.6040941  83.7518835 104.6363151
  77.8423831  87.1631936 111.5953806  78.7626840  87.3410535 111.7893853
  77.8073414  86.2187981 111.4433506  76.1428055  81.0364166  90.0708034
  75.2359511  80.7397279  90.1470748  76.4204036  80.7393984  89.2042321
  67.0605996  82.3570530 100.5207081  66.7408780  81.5035838 100.2281455
  66.5139424  82.5719108 101.2765048  70.8385903  85.0732971 104.2376587
  71.0571913  86.0050078 104.2564621  71.2511677  84.7140945 105.0231391
  77.7590121  75.5801056  96.2252276  76.9490849  75.2348141  96.6007522
  78.4474538  75.2708600  96.8139887  79.6880669  74.6579103  97.8476572
  80.2411708  75.0774556  98.5066596  79.9250756  73.7314851  97.8899528
  75.7113769  80.6466176 113.6279336  75.6110496  81.5960533 113.5591427
  75.4935311  80.3184415 112.7555406  66.9294256  85.9773441 102.4900202
  66.2357727  85.5627394 101.9770157  67.6767247  86.0193978 101.8933621
  83.0659477  76.7679628  97.3555237  82.4858146  77.4264432  96.9733289
  82.7995409  75.9456972  96.9442654  81.5163043  76.1684686  99.5576557
  82.0162821  76.2801220  98.7490876  82.1598651  75.8645738 100.1977365
  75.5745039  84.0763315 112.4444398  75.0912120  84.8763675 112.6508287
  75.6605978  84.0871260 111.4911842  68.8430998  85.9091695 100.3666217
  68.8201686  86.0079382  99.4148100  69.1531635  86.7556846 100.6883383
  71.5018376  87.9667850 104.4812832  72.4561630  87.9351792 104.4142763
  71.3030900  87.5058474 105.2963058  72.0917758  86.5368966 107.0483629
  72.9110647  87.0313045 107.0718467  72.3654566  85.6200934 107.0201197
  81.8484355  78.9279718  96.4111585  80.9610210  79.2129369  96.1931780
  82.2638344  78.7673482  95.5638862  85.1998891  78.9526239 100.1265924
  85.9759281  79.4422692 100.3990541  84.4747025  79.3784293 100.5837794
  87.6371449  79.6653858 101.1839865  88.2315940  79.4249594 100.4733173
  87.7098033  78.9460989 101.8113401  69.8568605  93.5087469 101.4983030
  69.7223073  92.7487870 100.9321028  69.4400667  94.2328369 101.0311819
  80.9927568  88.6924393  90.5059605  81.6963418  88.8974395  91.1217261
  80.2690217  89.2601155  90.7708688  81.8225378  84.4434254  96.6261875
  81.7660580  84.9002806  95.7869508  82.3753721  83.6824939  96.4484718
  85.6330184  80.2323986  97.4511995  85.3767118  79.8320622  98.2820202
  85.0083052  80.9467780  97.3262134  89.9442522  82.9720059  99.9583286
  89.3842080  83.0413249 100.7314848  89.3386025  82.7961044  99.2382782
  73.0137731  94.4056786 101.7101472  72.8970115  95.3502219 101.6080163
  72.1930177  94.1030348 102.0987271  82.9014265  89.1306922  92.5558065
  83.7359869  88.6988121  92.3735540  82.7398608  88.9588936  93.4834959
  82.5560158  85.6339035  93.9214404  82.5008961  85.4683307  92.9802848
  81.9306213  86.3415068  94.0776594  67.3452673  80.8707100 107.7475826
  67.9911536  80.3606054 108.2363052  67.1369824  81.6075781 108.3219252
  74.0392245  95.0585048 104.9257401  74.9419492  95.0908659 105.2423896
  73.8129615  94.1285499 104.9403737  75.7945847  93.8116035 101.5867479
  74.8441478  93.8117896 101.4731852  76.0978333  93.0648769 101.0703514
  79.6808403  71.7289921  97.7545659  78.9140798  71.1748408  97.9002342
  80.0919108  71.8011790  98.6159811  71.6850164  78.0174717 111.8450841
  72.5481625  77.6611522 112.0554165  71.1115574  77.6788612 112.5326245
  88.3388247  99.6004001 102.5874766  88.0006758  99.4845066 101.6995301
  89.2078015  99.1995166 102.5675773  84.1975062 101.4539478  98.5771657
  83.6339928 101.3629415  97.8087945  84.0827458 100.6339382  99.0574150
  81.7439494 102.9490669 101.4155878  82.5360786 102.6081494 101.0002177
  81.9836145 103.0585644 102.3358031  89.7774621 105.1210445  93.8886122
  89.1262601 105.7064526  93.5020136  90.5718984 105.6516640  93.9481160
  83.7030248 102.2099583  94.2873257  84.4761124 101.6628570  94.1486132
  84.0555647 103.0743832  94.4987718  86.0396526  98.3692249  91.9191707
  86.2922047  97.8473770  91.1575170  85.1021085  98.2058394  92.0218390
  91.0839809  97.3728027  99.7266450  91.8702898  96.9547450  99.3756867
  91.3478513  98.2774119  99.8948098  91.2549886 102.8100877  94.4255107
  90.6195719 102.8835504  95.1376011  90.9247293 103.3994476  93.7474186
  96.4848236  97.3103260 100.6299428  97.2173408  96.7402477 100.8637258
  95.7287592  96.9224861 101.0705934  85.7592815 100.2720355  94.1216082
  85.6429073  99.5965258  94.7897166  85.8695075  99.7852729  93.3048235
  88.1024356  99.7330502  97.8262771  87.7382563  99.2061123  98.5375692
  88.9591472  99.3428971  97.6529256  94.0073656  91.0224834 105.0894037
  93.6756981  91.8920245 104.8655252  93.4119270  90.7061118 105.7688067
  87.7429843  94.7620401  92.8224119  87.9104245  95.6300638  93.1894590
  87.5527012  94.9247683  91.8985409  83.9517657  99.6751177 100.5226654
  83.0268154  99.5427391 100.7304346  84.2002071 100.4545396 101.0196596
  87.7219064  97.2178059  93.8070786  87.6018689  97.6635110  94.6456266
  87.0271652  97.5663377  93.2484324  81.3126469  99.3184451 101.3570443
  81.4418850  99.5718930 102.2709855  80.6323920  99.9112159 101.0375098
  85.4825956 109.9881701  97.4560917  85.4049986 110.9389526  97.5349398
  84.8787599 109.6427573  98.1135844  93.4204130  97.6899532  94.6351120
  94.3321986  97.9226919  94.4598818  92.9113777  98.2736576  94.0726199
  90.7640105  93.8657568 102.8840981  89.9024584  94.1638822 103.1757719
  90.7902539  94.0827967 101.9522014  87.5801674 102.4099759  99.2914787
  88.0440020 102.6887462  98.5019409  87.3158472 101.5083203  99.1087877
  84.4725755 101.9571240 102.2294550  85.0427112 102.3858509 101.5912034
  85.0633867 101.6753825 102.9278736  86.5170560  98.5322911  96.1004352
  87.2194603  98.9843955  96.5678278  86.1851189  97.8906730  96.7284245
  80.2595894  96.7906464 101.4021485  79.4694948  97.0463992 100.9261596
  80.7507141  97.6054802 101.5073526  82.2110639  97.1551043  98.3604962
  81.4141803  97.2669737  98.8788458  81.9836232  97.4937695  97.4945853
  78.5433597  97.0436954 103.8336476  78.7941635  97.9283964 104.0994052
  79.0793145  96.8641556 103.0611568  87.7564325 105.3463854  96.1766457
  87.6210000 106.1915389  96.6051305  88.2974137 105.5483131  95.4132391
  81.2093722 102.8639292  96.7494382  81.7218243 103.6582542  96.8999947
  81.8616435 102.1665582  96.6827984  83.0188607 105.9805048  98.8317135
  83.1955235 106.9023013  98.6438119  83.8145440 105.6663467  99.2611515
  91.1056788  88.8694416 104.7065351  90.7621058  89.7596057 104.6304461
  91.4735751  88.6796073 103.8434936  79.1742639 101.1927946  97.5253953
  80.0117861 101.6024954  97.3087660  79.3520907 100.2527388  97.4954147
  91.0707071  98.8603027  93.2137786  90.5553694  99.6307631  93.4526173
  90.7984379  98.1868163  93.8370847  88.6554182  93.7052727  98.2723024
  87.7995778  93.3159578  98.0928663  89.0681134  93.7844688  97.4122810
  90.1853329  91.2399071 102.6714584  89.6818124  91.2029206 101.8582389
  90.4783936  92.1491813 102.7311240  86.4296215  91.3237800 101.6780766
  87.2949211  91.1280609 101.3186655  86.4973723  91.0948152 102.6050122
  96.0441345 101.6135381  95.1490959  95.2670788 101.2746541  94.7046121
  96.7232826 101.6188004  94.4745924  90.8593374  96.7330119  95.0397567
  90.5543510  97.0476268  95.8907710  91.8123816  96.8111539  95.0824900
  89.3039806 102.8920342  96.6890521  88.7761168 102.1573102  96.3763758
  88.8027309 103.6695018  96.4430489  84.0358534  93.5540008  99.0497132
  84.6102286  93.3315190  98.3170325  84.6229516  93.6228703  99.8025734
  93.0938111  99.4413735  99.8561509  93.6069993 100.0743727 100.3583219
  93.7439335  98.8414931  99.4904869  84.3628121  95.5844469  93.0693018
  83.5265433  95.9219156  93.3902292  84.2232890  95.4493449  92.1320155
  86.3381201  90.4281257  97.7772202  85.6845614  90.1130274  97.1528817
  86.2961676  89.8056998  98.5032025  87.4492406 100.7100552  89.6925494
  86.5419468 100.4789806  89.8916643  87.9463438  99.9138172  89.8799475
  90.3560485 109.4198060  92.6122180  89.6822184 109.7229756  93.2207138
  90.7426307 110.2227140  92.2627637  89.5718942  96.9163191 102.1019849
  88.6541503  97.1378138 101.9441537  89.9879085  96.9909501 101.2431557
  90.3553989  98.3154607  97.2322530  91.1025808  98.8276004  96.9229652
  90.6245579  97.9938659  98.0926923  88.6280640 100.8113147  94.2149484
  87.7191859 100.5272180  94.3121954  88.6575723 101.2312226  93.3552791
  92.8032827  95.3511723  99.2141319  92.0655583  94.8389109  99.5451561
  93.0559600  94.9112104  98.4024596  92.9044454  88.1287975  99.8083088
  93.2103331  87.2685338  99.5209003  93.6297059  88.7205595  99.6082082
  79.1968810  98.5318661  98.1964686  78.9993210  97.9388022  97.4715753
  78.6415474  98.2270872  98.9140625  87.1765534  98.4241768 100.3159279
  87.2314143  97.4715604 100.2401756  86.3656736  98.5801207 100.8000578
  88.3256727 102.3521891  91.5537562  87.8876157 101.6357750  91.0943200
  89.0667168 102.5798006  90.9922654  85.1157894  97.0418828  98.0749658
  84.3025759  97.3412998  98.4814850  85.6116888  96.6474516  98.7924140
  96.4429842 100.6279088  97.6113881  96.3047741 100.8180684  96.6835070
  96.0866061 101.3898471  98.0681932  84.6071968  94.6137183 103.6910893
  85.2471348  94.4725942 102.9933856  83.7749499  94.3271696 103.3149495
  85.3832272 103.9139614  99.8045886  86.1772871 103.4189934  99.6028461
  84.6723965 103.3857477  99.4413591  81.6915036  98.0582695  95.8805638
  80.7612624  97.9967151  96.0975600  81.7872508  97.5358648  95.0842279
  81.6100585  94.5837508  98.4683880  81.8707402  95.4982841  98.3593040
  82.4317757  94.1161951  98.6180493  83.0825510  95.9975265 105.6382704
  83.7548564  95.7892627 104.9895353  82.2555297  95.7997351 105.1987937
  88.5551700 109.5877732  94.8269259  88.7303456 109.1165775  95.6414882
  87.8684488 110.2143498  95.0550520  92.4467955 101.2106273  91.1469620
  91.8297126 100.4853101  91.0502673  91.9784444 101.9715633  90.8036694
  84.2366501  95.4291697  90.2690924  83.3595967  95.3080498  89.9053171
  84.7124254  94.6377775  90.0169813  75.7568641 100.2168857 100.3632431
  76.4439681  99.9030587  99.7753447  75.6016770 101.1210221 100.0899683
  80.5603363  95.1059053 104.7917455  80.4761552  94.4984723 104.0567865
  79.7386070  95.5968071 104.7926952  87.4230427 107.7817987  97.5153445
  86.6397949 108.3239667  97.6091669  88.1223172 108.2991967  97.9147686
  90.7327077  93.5912617 100.1587650  91.2295777  92.8382579  99.8388720
  89.9614059  93.6276933  99.5930860  91.8156858 102.3484304  97.7326074
  90.8813137 102.4685766  97.5630778  91.9933526 101.4456771  97.4686083
  87.3162046  95.7330000  99.8859335  86.9459833  95.1801040 100.5740240
  87.8121138  95.1288133  99.3334335  95.2029409  98.1901623  98.2676108
  95.6689861  99.0229615  98.1936410  95.6536910  97.7246605  98.9721366
  93.2705640 104.5345444  95.2662260  93.5465484 104.4202039  96.1756134
  92.4010139 104.1362929  95.2274433  93.1746072  90.5582210 102.3067009
  92.2609152  90.7886437 102.4749216  93.6039173  90.6420654 103.1581041
  90.2401870 107.7099980  96.1710122  90.7689636 107.1992435  95.5580284
  90.5030089 107.3942511  97.0355655  75.3336617  98.2969450 102.6349899
  75.3720717  97.7633041 103.4287017  74.8276910  97.7704655 102.0160876
  82.7127380  93.1433990 106.1312441  82.7768706  94.0048821 105.7189839
  82.6494500  92.5307992 105.3984799  78.9645195  97.0233552  95.7103830
  79.2598636  96.1144230  95.6570884  78.0633231  97.0021292  95.3884832
  82.4939442  95.0989549 101.6931379  81.7726028  95.7125516 101.5538852
  83.2832698  95.6347313 101.6148025  80.6933036  94.7047650  95.8343155
  80.3645743  93.8245029  95.6518261  81.0472407  94.6495318  96.7219544
  83.8074860  94.9920620  96.2018633  84.1470932  95.5206541  95.4797241
  84.2546980  95.3301026  96.9777199  86.5018300  93.3757670 105.6521701
  86.1615121  92.5765483 106.0542381  85.7957307  93.6759381 105.0798534
  87.1534772  90.4606983 104.1049024  87.9760842  89.9867461 103.9827914
  87.3972836  91.2397466 104.6047710  85.7943007  93.4895241  94.4011926
  86.5151369  93.8676494  93.8975642  85.1708311  94.2084118  94.5046904
  89.9374130  94.1940390  95.3370258  90.1537744  95.0765028  95.0359086
  89.4568197  93.8026604  94.6075900  84.6773351  97.1526103 101.9141003
  84.5317932  97.4666406 102.8065284  84.1998555  97.7711004 101.3611901
  86.5369734  94.1428651 101.9621892  86.5231303  93.2469745 101.6254190
  87.2542162  94.1499315 102.5960178  88.3895865  94.5765992 104.0075020
  88.1313642  95.4983062 104.0059350  87.8580905  94.1796426 104.6975484
  79.1519013  99.6931448 104.8528664  78.6072481 100.4691256 104.9848938
  80.0298363 100.0402252 104.6947785  85.9406630  93.0243032  97.2309462
  86.0622541  92.0959678  97.4300350  85.6508672  93.0381718  96.3187778
  88.8097820  90.7097942 100.3676182  88.8319517  90.7737275  99.4128162
  89.2265879  89.8702451 100.5616688  94.3217226 106.9983543  93.8862003
  95.0168130 107.6190236  94.1049318  94.6640376 106.1478894  94.1614381
  96.2208649 104.4483249  95.4149334  96.7459973 104.7870521  94.6898654
  96.1331002 103.5130264  95.2312469  80.3841649 106.7066773  99.7769215
  81.2099669 106.4070545  99.3967859  80.0335701 105.9374395 100.2259004
  78.5850254 104.6253099 100.7358149  77.7482162 104.1975274 100.5542150
  78.5573899 104.8185543 101.6728940  84.9136689 104.6097164  95.3225349
  85.0624809 105.2932629  94.6692022  85.7203132 104.5902254  95.8374805
  82.6689322 100.6362342  96.3286418  82.4235364  99.7324672  96.5266628
  82.8385236 100.6379492  95.3865896  90.3586032  91.5086018 105.7111174
  90.8767975  92.2447045 105.3857662  90.0041164  91.8150012 106.5457933
  81.9384969  96.3690699  93.8272580  81.2454214  96.4435054  93.1712616
  81.6936721  95.6051043  94.3494097  90.6098626  87.9286301 101.2312070
  90.8900380  87.2609490 101.8572497  91.3949233  88.1215396 100.7186734
  88.4132094 107.1045295  92.7937097  87.8406061 107.7235482  92.3407569
  88.9864888 107.6544656  93.3277019  91.6329354 107.3882445  93.9245679
  92.5660027 107.3228007  94.1278555  91.5452567 108.2238712  93.4660212
  94.2617371 106.7048315  90.8849627  94.1831002 106.3708179  91.7785385
  95.0827038 107.1970083  90.8841099  88.7978893  98.4406107  90.1353149
  89.7437998  98.3112316  90.2041567  88.4193138  97.7020769  90.6122577
  94.7700777  90.1062114 100.0980041  94.5725598  89.7977202 100.9823373
  95.3800483  90.8323752 100.2277971  86.9821810  96.3656084  90.0708034
  86.0753265  96.0689197  90.1470748  87.2597791  96.0685902  89.2042321
  77.8999750  97.6862447 100.5207081  77.5802535  96.8327755 100.2281455
  77.3533179  97.9011025 101.2765048  81.6779658 100.4024888 104.2376587
  81.8965668 101.3341996 104.2564621  82.0905432 100.0432863 105.0231391
  88.5983876  90.9092974  96.2252276  87.7884604  90.5640059  96.6007522
  89.2868293  90.6000517  96.8139887  90.5274424  89.9871020  97.8476572
  91.0805463  90.4066474  98.5066596  90.7644510  89.0606769  97.8899528
  85.7520595  93.2243019  90.2120014  86.6139759  93.5497917  90.4715831
  85.9370939  92.4374515  89.6993079  77.7688010 101.3065359 102.4900202
  77.0751482 100.8919312 101.9770157  78.5161001 101.3485895 101.8933621
  93.9053231  92.0971546  97.3555237  93.3251900  92.7556350  96.9733289
  93.6389164  91.2748890  96.9442654  92.3556797  91.4976603  99.5576557
  92.8556576  91.6093138  98.7490876  92.9992405  91.1937656 100.1977365
  79.6824753 101.2383613 100.3666217  79.6595441 101.3371300  99.4148100
  79.9925389 102.0848763 100.6883383  92.6878109  94.2571636  96.4111585
  91.8003964  94.5421287  96.1931780  93.1032098  94.0965399  95.5638862
  96.0392645  94.2818157 100.1265924  96.8153035  94.7714609 100.3990541
  95.3140779  94.7076211 100.5837794  98.4765204  94.9945776 101.1839865
  99.0709695  94.7541512 100.4733173  98.5491788  94.2752907 101.8113401
  91.8321323 104.0216311  90.5059605  92.5357173 104.2266313  91.1217261
  91.1083971 104.5893072  90.7708688  92.6619133  99.7726172  96.6261875
  92.6054334 100.2294723  95.7869508  93.2147475  99.0116856  96.4484718
  96.4723939  95.5615904  97.4511995  96.2160873  95.1612539  98.2820202
  95.8476807  96.2759698  97.3262134  93.7408020 104.4598840  92.5558065
  94.5753624 104.0280038  92.3735540  93.5792363 104.2880853  93.4834959
  93.3953912 100.9630953  93.9214404  93.3402716 100.7975225  92.9802848
  92.7699967 101.6706986  94.0776594  78.1846427  96.1999017 107.7475826
  78.8305291  95.6897971 108.2363052  77.9763578  96.9367699 108.3219252
  86.7050038  90.4639062  93.4999723  86.6928707  91.4080902  93.6567994
  87.5973459  90.2809208  93.2059184  90.5202157  87.0581839  97.7545659
  89.7534553  86.5040325  97.9002342  90.9312862  87.1303708  98.6159811
  95.2021875 110.9136387  93.0693018  94.3659188 111.2511074  93.3902292
  95.0626645 110.7785367  92.1320155  95.0760255 110.7583615  90.2690924
  94.1989722 110.6372415  89.9053171  95.5518009 109.9669693  90.0169813
  92.7778724 111.6982617  93.8272580  92.0847969 111.7726972  93.1712616
  92.5330476 110.9342961  94.3494097  97.8215564 111.6948002  90.0708034
  96.9147020 111.3981114  90.1470748  98.0991545 111.3977820  89.2042321
  96.5914349 108.5534937  90.2120014  97.4533513 108.8789835  90.4715831
  96.7764693 107.7666433  89.6993079  97.5443792 105.7930980  93.4999723
  97.5322462 106.7372820  93.6567994  98.4367214 105.6101125  93.2059184
  37.3329769   0.0079107  89.3758548  37.9708179  -0.1114145  88.6721888
  37.2150612   0.9559951  89.4346501  34.1419476  -0.0393464  89.3120073
  33.8037987  -0.1552400  88.4240608  35.0109244  -0.4402299  89.2921079
  30.0006291   1.8142012  85.3016964  29.4371156   1.7231949  84.5333252
  29.8858686   0.9941916  85.7819457  35.5805850   5.4812980  80.6131429
  34.9293830   6.0667060  80.2265443  36.3750213   6.0119175  80.6726466
  29.5061477   2.5702117  81.0118563  30.2792353   2.0231104  80.8731439
  29.8586876   3.4346366  81.2233025  31.8427755  -1.2705217  78.6437013
  32.0953276  -1.7923696  77.8820476  30.9052314  -1.4339072  78.7463697
  36.8871038  -2.2669439  86.4511756  37.6734127  -2.6850016  86.1002173
  37.1509742  -1.3623347  86.6193405  37.0581115   3.1703412  81.1500413
  36.4226948   3.2438038  81.8621318  36.7278522   3.7597010  80.4719492
  42.2879465  -2.3294205  87.3544735  43.0204637  -2.8994989  87.5882564
  41.5318821  -2.7172605  87.7951241  31.5624044   0.6322889  80.8461388
  31.4460302  -0.0432208  81.5142472  31.6726304   0.1455263  80.0293541
  33.9055585   0.0933036  84.5508077  33.5413792  -0.4336343  85.2620999
  34.7622701  -0.2968495  84.3774563  33.5461072  -4.8777064  79.5469426
  33.7135474  -4.0096828  79.9139897  33.3558241  -4.7149783  78.6230715
  36.3036405   3.5839915  91.2135256  36.0037128   4.4864953  91.1051063
  35.9587464   3.3172098  92.0656409  39.7033549  -3.8977545  88.8932694
  38.7950426  -3.9662137  88.5991455  39.6521144  -3.4205600  89.7214519
  33.5250293  -2.4219407  80.5316093  33.4049918  -1.9762356  81.3701573
  32.8302881  -2.0734089  79.9729631  31.2857185  10.3484235  84.1806224
  31.2081214  11.2992060  84.2594705  30.6818828  10.0030107  84.8381150
  39.2235359  -1.9497934  81.3596427  40.1353215  -1.7170547  81.1844124
  38.7145006  -1.3660889  80.7971505  37.8304941   3.0327885  88.7510008
  37.2013803   3.1973599  88.0486076  37.4430603   3.4469494  89.5220972
  41.7094173   3.9682323  86.1054372  41.0245211   4.3481224  85.5551405
  41.7938022   4.5777649  86.8386320  33.3832903   2.7702293  86.0160093
  33.8471248   3.0489996  85.2264716  33.1189701   1.8685737  85.8333184
  32.3201789  -1.1074555  82.8249658  33.0225832  -0.6553511  83.2923585
  31.9882417  -1.7490736  83.4529552  40.0790932   4.4914237  90.8772073
  40.9008376   4.0894424  90.5954754  40.0753335   4.3882471  91.8288189
  48.1696925   0.8352986  87.2257044  47.4160634   0.2660384  87.0701049
  48.3044467   0.8015650  88.1727679  33.5595554   5.7066388  82.9011764
  33.4241228   6.5517924  83.3296611  34.1005366   5.9085666  82.1377697
  27.0124951   3.2241826  83.4739689  27.5249472   4.0185076  83.6245253
  27.6647664   2.5268116  83.4073290  28.8219836   6.3407582  85.5562442
  28.9986464   7.2625547  85.3683426  29.6176669   6.0266001  85.9856822
  29.9451151   7.8585756  91.5572784  30.4958576   7.7302819  90.7849778
  29.1062627   8.1580645  91.2067677  36.8738300  -0.7794439  79.9383092
  36.3584923  -0.0089834  80.1771480  36.6015608  -1.4529303  80.5616154
  41.8472574   1.9737916  81.8736266  41.0702017   1.6349075  81.4291428
  42.5264055   1.9790539  81.1991231  36.6624603  -2.9067347  81.7642873
  36.3574739  -2.5921198  82.6153017  37.6155045  -2.8285927  81.8070206
  35.1071035   3.2522876  83.4135827  34.5792396   2.5175636  83.1009065
  34.6058538   4.0297553  83.1675796  40.0863881   1.4471897  88.5302874
  39.4287555   2.1371158  88.6183002  40.8904280   1.8368329  88.8736860
  38.8969340  -0.1983731  86.5806815  39.4101221   0.4346261  87.0828525
  39.5470564  -0.7982535  86.2150175  33.2523635   1.0703087  76.4170800
  32.3450697   0.8392340  76.6161949  33.7494667   0.2740706  76.6044782
  36.1591714   9.7800594  79.3367487  35.4853413  10.0832291  79.9452444
  36.5457536  10.5829674  78.9872944  36.1585218  -1.3242859  83.9567836
  36.9057037  -0.8121462  83.6474958  36.4276808  -1.6458807  84.8172230
  34.4311868   1.1715681  80.9394791  33.5223088   0.8874714  81.0367260
  34.4606952   1.5914760  80.0798097  39.6631136   4.7822271  84.7085958
  39.2093463   3.9413181  84.7651149  39.0325103   5.4183669  85.0460738
  38.6064055  -4.2885743  85.9386626  37.8686812  -4.8008357  86.2696868
  38.8590829  -4.7285361  85.1269902  38.1064075   6.6198768  85.6435776
  38.3987050   7.1803825  84.9248142  38.6162696   6.9127329  86.3988935
  32.9796763  -1.2155698  87.0404586  33.0345372  -2.1681862  86.9647062
  32.1687965  -1.0596259  87.5245884  34.1287956   2.7124425  78.2782869
  33.6907386   1.9960284  77.8188506  34.8698397   2.9400540  77.7167961
  30.9189122  -2.5978638  84.7994965  30.1056988  -2.2984468  85.2060157
  31.4148117  -2.9922949  85.5169447  33.0697700   7.3979119  86.7329229
  33.0273879   7.6239965  85.8037761  33.9860399   7.1642493  86.8815031
  42.2461071   0.9881622  84.3359188  42.1078970   1.1783218  83.4080377
  41.8897290   1.7501005  84.7927239  42.2730451   3.0558149  89.3470459
  42.7066957   2.9633438  90.1953513  42.9862031   3.0315650  88.7090475
  31.1863501   4.2742148  86.5291192  31.9804100   3.7792468  86.3273767
  30.4755193   3.7460011  86.1658898  36.0058346   6.6560243  90.8803560
  36.0595368   7.2251180  91.6481276  35.1373127   6.8262128  90.5157597
  43.1346000   3.0981850  91.8803345  43.3281890   4.0027660  92.1262620
  43.0346618   2.6389269  92.7141930  33.7634777   4.8471170  90.2089029
  33.6245863   4.4789954  91.0814967  32.9749373   5.3618809  90.0372987
  34.3582929   9.9480266  81.5514566  34.5334685   9.4768309  82.3660188
  33.6715717  10.5746032  81.7795827  35.3139992   4.2252772  87.5977867
  34.9789825   4.1853542  88.4935517  34.8143938   3.5597488  87.1248277
  38.2499184   1.5708807  77.8714927  37.6328355   0.8455635  77.7747979
  37.7815672   2.3318167  77.5282001  28.9244014  13.0969629  88.3254426
  29.1640613  13.7288153  89.0033445  28.0813211  12.7457669  88.6119785
  33.4371876   8.9048751  90.7295930  33.3642048   9.7103723  91.2415235
  32.9949269   9.1040717  89.9043951  33.2261656   8.1420521  84.2398751
  32.4429178   8.6842202  84.3336976  33.9254401   8.6594501  84.6392993
  36.5358306  -6.0484849  86.8832957  37.0327005  -6.8014887  86.5634027
  35.7645287  -6.0120532  86.3176166  44.3888063  -0.3444484  88.5251248
  44.3777940   0.5380232  88.1545181  43.5205443  -0.6972933  88.3305785
  35.8970560   8.8035585  92.8854089  36.6098532   9.4383050  92.8129990
  35.4060588   8.8999451  92.0694090  37.6188087   2.7086838  84.4571380
  36.6844365   2.8288301  84.2876085  37.7964755   1.8059305  84.1931390
  41.0060638  -1.4495843  84.9921414  41.4721090  -0.6167851  84.9181717
  41.4568138  -1.9150861  85.6966673  39.0736869   4.8947979  81.9907566
  39.3496713   4.7804573  82.9001441  38.2041368   4.4965464  81.9519740
  35.7090933   9.1434330  85.6340380  35.8913328   8.3255985  86.0968132
  36.5323919   9.3602022  85.1965270  36.0433099   8.0702515  82.8955429
  36.5720865   7.5594969  82.2825591  36.3061318   7.7545045  83.7600962
  29.3988847   9.1217631  85.6553204  28.7299222   9.6063759  85.1717245
  29.2601716   9.3686852  86.5696583  33.5394115  11.1561375  92.2535863
  34.0912423  11.3192996  93.0184948  33.8800309  11.7465813  91.5815888
  36.6762502   9.1043350  89.2399545  36.5513642   8.3033090  88.7310491
  37.3341594   9.5989544  88.7513515  38.7397411   6.9052370  90.8679095
  37.7927746   6.7857722  90.7957422  39.0880184   6.0174868  90.9505357
  35.7443844   6.7005087  87.0683447  35.5968807   5.7721794  87.2491017
  36.5697338   6.7225177  86.5840523  39.3477966   7.5233645  88.1548320
  40.2724513   7.3176507  88.0172771  39.1793269   7.2750047  89.0637662
  35.7405358  -5.4457076  82.0615565  35.9568973  -4.5632438  81.7604393
  35.2599426  -5.8370862  81.3321207  39.1373282   8.0419313  83.5110412
  39.3110160   7.4765735  82.7584264  39.6302173   8.8420208  83.3289901
  44.9912673   0.8055736  85.1300711  45.4343819   0.0563061  84.7319835
  44.1139184   0.7965872  84.7474443  40.1248455   7.3586077  80.6107310
  40.8199359   7.9792770  80.8294624  40.4671605   6.5081428  80.8859688
  42.0239878   4.8085783  82.1394641  42.5491202   5.1473056  81.4143961
  41.9362230   3.8732798  81.9557775  33.7080539  10.8757766  86.4989894
  33.2685529  10.3834145  87.1922750  34.4588655  10.3330734  86.2581969
  26.1872877   7.0669307  86.5014522  27.0130897   6.7673079  86.1213165
  25.8366929   6.2976929  86.9504311  31.1554411   6.4195775  88.5712195
  30.5334420   5.7566480  88.2714423  31.8259278   6.4456907  87.8885843
  24.3881483   4.9855633  87.4603455  23.5513391   4.5577808  87.2787457
  24.3605128   5.1788077  88.3974247  30.7167918   4.9699699  82.0470656
  30.8656038   5.6535163  81.3937329  31.5234361   4.9504789  82.5620112
  43.3349856   4.7108094  95.0020589  43.0434664   5.0738075  95.8384050
  42.7221987   3.9975103  94.8233921  44.5345538   2.2760974  87.5223159
  45.3692429   2.7150778  87.6860719  44.6704667   1.7999627  86.7031405
  28.4720551   0.9964876  83.0531725  28.2266592   0.0927206  83.2511935
  28.6416465   0.9982027  82.1111203  34.2163323   7.4647829  79.5182403
  33.6437290   8.0838016  79.0652875  34.7896117   8.0147191  80.0522325
  37.4360583   7.7484979  80.6490986  38.3691256   7.6830541  80.8523861
  37.3483796   8.5841246  80.1905518  40.0648600   7.0650849  77.6094933
  39.9862231   6.7310713  78.5030691  40.8858266   7.5572617  77.6086406
  42.7626791  -0.0687411  90.8171252  42.7303111  -1.0071411  91.0030936
  43.3727414   0.0096625  90.0837077  34.6010122  -1.1991358  76.8598456
  35.5469226  -1.3285150  76.9286874  34.2224367  -1.9376696  77.3367884
  48.5803341   0.9928596  89.9577289  49.3106729   0.7313884  90.5184992
  47.9710286   0.2557318  89.9979357  46.6618638  -0.8663542  90.5551740
  45.9351801  -1.0007577  89.9468231  46.2465925  -0.5586713  91.3608458
  32.7853039  -3.2741382  76.7953341  31.8784494  -3.5708269  76.8716055
  33.0629020  -3.5711564  75.9287627  39.7084460  -7.5425920  84.0800543
  39.1283129  -6.8841116  83.6978596  39.4420393  -8.3648576  83.6687961
  38.4909338  -5.3825830  83.1356892  37.6035193  -5.0976179  82.9177086
  38.9063327  -5.5432066  82.2884168  41.8423874  -5.3579309  86.8511231
  42.6184264  -4.8682856  87.1235848  41.1172008  -4.9321255  87.3083100
  44.2796433  -4.6451690  87.9085171  44.8740923  -4.8855954  87.1978480
  44.3523016  -5.3644559  88.5358708  26.4993588   9.1981921  88.2228336
  26.3648056   8.4382322  87.6566334  26.0825651   9.9222821  87.7557125
  37.6352551   4.3818845  77.2304912  38.3388401   4.5868847  77.8462567
  36.9115200   4.9495607  77.4953995  38.4650362   0.1328706  83.3507182
  38.4085563   0.5897258  82.5114814  39.0178704  -0.6280609  83.1730025
  42.2755168  -4.0781562  84.1757301  42.0192102  -4.4784926  85.0065509
  41.6508036  -3.3637768  84.0507440  46.5867505  -1.3385489  86.6828593
  46.0267063  -1.2692299  87.4560155  45.9811009  -1.5144504  85.9628089
  29.6562714  10.0951238  88.4346779  29.5395098  11.0396671  88.3325469
  28.8355160   9.7924800  88.8232578  39.5439249   4.8201374  79.2803372
  40.3784853   4.3882572  79.0980846  39.3823592   4.6483388  80.2080266
  39.1985141   1.3233487  80.6459711  39.1433945   1.1577759  79.7048155
  38.5731196   2.0309520  80.8021901  30.6817228  10.7479500  91.6502707
  31.5844475  10.7803110  91.9669202  30.4554598   9.8179951  91.6649043
  32.4370830   9.5010487  88.3112786  31.4866461   9.5012348  88.1977158
  32.7403316   8.7543221  87.7948821  48.1723524  15.3371025  89.3758548
  48.8101934  15.2177772  88.6721888  48.0544367  16.2851869  89.4346501
  44.9813230  15.2898453  89.3120073  44.6431742  15.1739518  88.4240608
  45.8502998  14.8889618  89.2921079  40.8400046  17.1433930  85.3016964
  40.2764911  17.0523867  84.5333252  40.7252441  16.3233834  85.7819457
  45.4633013  16.4433305  95.2706279  45.4521654  16.0486103  94.3986782
  45.6253653  15.7099378  95.8640050  38.3864478  18.6385121  88.1401184
  39.1785770  18.2975946  87.7247484  38.6261128  18.7480096  89.0603338
  46.4199605  20.8104897  80.6131429  45.7687584  21.3958978  80.2265443
  47.2143967  21.3411092  80.6726466  40.3455232  17.8994035  81.0118563
  41.1186108  17.3523022  80.8731439  40.6980631  18.7638284  81.2233025
  42.1840274  19.2270417  94.2185463  41.8930140  20.1316048  94.1032129
  42.8197259  19.2686944  94.9329532  43.1096481  16.6047265  90.8086822
  43.7060053  16.3803288  90.0943785  43.1671453  15.8632011  91.4112270
  42.6821510  14.0586701  78.6437013  42.9347030  13.5368222  77.8820476
  41.7446069  13.8952846  78.7463697  47.7264792  13.0622479  86.4511756
  48.5127882  12.6441902  86.1002173  47.9903497  13.9668571  86.6193405
  47.8974870  18.4995329  81.1500413  47.2620703  18.5729956  81.8621318
  47.5672276  19.0888928  80.4719492  53.1273219  12.9997712  87.3544735
  53.8598391  12.4296929  87.5882564  52.3712575  12.6119313  87.7951241
  42.4017798  15.9614807  80.8461388  42.2854056  15.2859710  81.5142472
  42.5120058  15.4747181  80.0293541  44.7449339  15.4224954  84.5508077
  44.3807546  14.8955575  85.2620999  45.6016455  15.0323423  84.3774563
  50.6498640   6.7119286  91.8139344  50.3181965   7.5814697  91.5900559
  50.0544253   6.3955570  92.4933374  44.3854826  10.4514853  79.5469426
  44.5529228  11.3195090  79.9139897  44.1951995  10.6142135  78.6230715
  47.1430159  18.9131832  91.2135256  46.8430882  19.8156871  91.1051063
  46.7981219  18.6464015  92.0656409  40.5942641  15.3645629  87.2471961
  39.6693137  15.2321843  87.4549652  40.8427054  16.1439848  87.7441903
  50.5427303  11.4314372  88.8932694  49.6344180  11.3629781  88.5991455
  50.4914899  11.9086317  89.7214519  44.3644047  12.9072511  80.5316093
  44.2443672  13.3529562  81.3701573  43.6696635  13.2557829  79.9729631
  37.9551452  15.0078903  88.0815750  38.0843833  15.2613382  88.9955161
  37.2748903  15.6006611  87.7620405  42.1250939  25.6776153  84.1806224
  42.0474969  26.6283978  84.2594705  41.5212583  25.3322025  84.8381150
  44.6168169  12.8504018  96.8367591  43.8401503  13.4097938  96.8270455
  45.2558732  13.3360801  97.3582461  52.4088950   9.6330811  90.6710568
  51.7663330   9.9263344  90.0250362  51.9043878   9.5183731  91.4763764
  50.0629113  13.3793984  81.3596427  50.9746969  13.6121371  81.1844124
  49.5538760  13.9631028  80.7971505  42.8714541  15.6589471  96.3985558
  43.6129226  16.1974515  96.1220381  42.1651527  16.2855760  96.5557110
  48.3469881  17.8018612  94.9957719  48.7553237  17.3601022  94.2512352
  47.6247142  17.2271239  95.2491912  44.7000951  12.7391219  92.3691276
  45.5462146  13.1630632  92.5125925  44.6399589  12.0824843  93.0629839
  48.6698695  18.3619803  88.7510008  48.0407558  18.5265517  88.0486076
  48.2824358  18.7761412  89.5220972  52.5487927  19.2974240  86.1054372
  51.8638966  19.6773142  85.5551405  52.6331777  19.9069567  86.8386320
  47.8500396  10.3995587  94.0272450  47.6061328  11.1537648  93.4906726
  48.1260327  10.7780935  94.8619697  49.8038859  16.9434199  92.7049716
  50.0155754  17.5865959  92.0284097  49.7568607  16.1096516  92.2371646
  47.4065088   9.5552020  89.6086288  46.5449567   9.8533274  89.9003025
  47.4327523   9.7722419  88.6767320  44.2226657  18.0994211  86.0160093
  44.6865003  18.3781914  85.2264716  43.9583455  17.1977655  85.8333184
  41.1150738  17.6465692  88.9539857  41.6852095  18.0752961  88.3157341
  41.7058850  17.3648277  89.6524042  43.1595543  14.2217363  82.8249658
  43.8619587  14.6738407  83.2923585  42.8276172  13.5801182  83.4529552
  41.6075905  12.8129120  97.2000868  40.9774566  13.4945400  97.4336265
  41.5011993  12.7012201  96.2554006  36.9020877  12.4800916  88.1266792
  36.1119931  12.7358444  87.6506903  37.3932125  13.2949253  88.2318833
  50.9184687  19.8206155  90.8772073  51.7402131  19.4186342  90.5954754
  50.9147090  19.7174389  91.8288189  38.8535623  12.8445495  85.0850269
  38.0566786  12.9564189  85.6033764  38.6261215  13.1832147  84.2191159
  44.6841290  19.3690198  93.0332783  44.7485723  19.8310605  93.8690955
  43.9752214  18.7387563  93.1615093  35.1858580  12.7331406  90.5581783
  35.4366619  13.6178416  90.8239359  35.7218129  12.5536008  89.7856875
  59.0090680  16.1644903  87.2257044  58.2554388  15.5952301  87.0701049
  59.1438221  16.1307568  88.1727679  44.3989308  21.0358306  82.9011764
  44.2634983  21.8809841  83.3296611  44.9399121  21.2377583  82.1377697
  37.8518705  18.5533744  83.4739689  38.3643226  19.3476994  83.6245253
  38.5041418  17.8560034  83.4073290  39.6613590  21.6699500  85.5562442
  39.8380218  22.5917465  85.3683426  40.4570424  21.3557919  85.9856822
  43.8024609   8.5307765  97.1546375  44.5434322   9.1314918  97.0750838
  44.0342531   7.7885402  96.5964418  38.9465947  13.7164132  95.4324605
  38.8319462  12.8149389  95.7331704  38.0910464  13.9627829  95.0809422
  46.0257784  21.6581872  97.0312106  45.5821639  20.8718251  96.7133010
  46.6874998  21.8461023  96.3655997  40.7844906  23.1877674  91.5572784
  41.3352331  23.0594737  90.7849778  39.9456381  23.4872563  91.2067677
  48.1239022  21.9384672  95.0593507  48.1057498  22.7593553  94.5673776
  49.0458943  21.8138747  95.2843648  44.5812077  19.4528802  95.9017015
  45.1140413  18.6917090  95.6716323  44.0526158  19.1602453  96.6441170
  47.7481772   4.5588867  91.4310657  47.4046041   5.4490509  91.3549768
  48.1160734   4.3690525  90.5680242  35.8167622  16.8822398  84.2499259
  36.6542844  17.2919406  84.0332967  35.9945890  15.9421840  84.2199453
  47.7132054  14.5497479  79.9383092  47.1978678  15.3202083  80.1771480
  47.4409363  13.8762615  80.5616154  45.2979165   9.3947179  84.9968331
  44.4420762   9.0054030  84.8173969  45.7106117   9.4739140  84.1368116
  46.8278312   6.9293523  89.3959890  46.3243108   6.8923658  88.5827696
  47.1208919   7.8386265  89.4556547  43.0721198   7.0132252  88.4026072
  43.9374195   6.8175061  88.0431962  43.1398707   6.7842604  89.3295429
  52.6866328  17.3029833  81.8736266  51.9095771  16.9640993  81.4291428
  53.3657809  17.3082456  81.1991231  47.5018357  12.4224571  81.7642873
  47.1968493  12.7370720  82.6153017  48.4548800  12.5005991  81.8070206
  45.9464789  18.5814794  83.4135827  45.4186151  17.8467554  83.1009065
  45.4452292  19.3589470  83.1675796  50.9257635  16.7763814  88.5302874
  50.2681310  17.4663076  88.6183002  51.7298035  17.1660246  88.8736860
  40.6783517   9.2434460  85.7742439  41.2527269   9.0209642  85.0415632
  41.2654499   9.3123155  86.5271040  49.7363094  15.1308187  86.5806815
  50.2494976  15.7638179  87.0828525  50.3864318  14.5309383  86.2150175
  41.0053104  11.2738921  79.7938324  40.1690416  11.6113608  80.1147599
  40.8657874  11.1387901  78.8565461  42.9806185   6.1175709  84.5017508
  42.3270597   5.8024726  83.8774123  42.9386659   5.4951450  85.2277331
  44.0917390  16.3995004  76.4170800  43.1844451  16.1684258  76.6161949
  44.5888422  15.6032624  76.6044782  46.2143925  12.6057643  88.8265156
  45.2966486  12.8272590  88.6686844  46.6304069  12.6803953  87.9676863
  46.9978973  14.0049058  83.9567836  47.7450792  14.5170456  83.6474958
  47.2670562  13.6833111  84.8172230  45.2705623  16.5007599  80.9394791
  44.3616842  16.2166632  81.0367260  45.3000707  16.9206678  80.0798097
  50.5024890  20.1114189  84.7085958  50.0487217  19.2705098  84.7651149
  49.8718857  20.7475587  85.0460738  49.4457810  11.0406175  85.9386626
  48.7080567  10.5283561  86.2696868  49.6984583  10.6006556  85.1269902
  48.9457830  21.9490685  85.6435776  49.2380804  22.5095742  84.9248142
  49.4556450  22.2419246  86.3988935  49.5469437   3.8182427  86.5328395
  49.8528314   2.9579790  86.2454310  50.2722042   4.4100047  86.3327389
  35.8393793  14.2213113  84.9209993  35.6418193  13.6282474  84.1961059
  35.2840457  13.9165323  85.6385932  43.8190517  14.1136220  87.0404586
  43.8739127  13.1610056  86.9647062  43.0081719  14.2695659  87.5245884
  44.9681711  18.0416343  78.2782869  44.5301141  17.3252202  77.8188506
  45.7092152  18.2692458  77.7167961  41.7582877  12.7313279  84.7994965
  40.9450742  13.0307450  85.2060157  42.2541871  12.3368968  85.5169447
  43.9091455  22.7271036  86.7329229  43.8667634  22.9531883  85.8037761
  44.8254154  22.4934411  86.8815031  47.3557089  13.1955104  93.6309859
  47.7106476  13.4226577  94.4904324  48.0029220  13.5273481  93.0087114
  53.0854826  16.3173540  84.3359188  52.9472724  16.5075136  83.4080377
  52.7291044  17.0792923  84.7927239  41.2496952  10.3031635  90.4156200
  41.8896331  10.1620394  89.7179163  40.4174482  10.0166148  90.0394802
  53.1124205  18.3850067  89.3470459  53.5460712  18.2925356  90.1953513
  53.8255786  18.3607567  88.7090475  42.0257256  19.6034065  86.5291192
  42.8197854  19.1084386  86.3273767  41.3148948  19.0751929  86.1658898
  46.8452100  21.9852161  90.8803560  46.8989122  22.5543097  91.6481276
  45.9766881  22.1554046  90.5157597  38.3340019  13.7477147  82.6050945
  37.4037607  13.6861603  82.8220907  38.4297491  13.2253100  81.8087586
  38.2525568  10.2731960  85.1929187  38.5132385  11.1877293  85.0838347
  39.0742740   9.8056403  85.3425799  39.7250493  11.6869717  92.3628011
  40.3973547  11.4787079  91.7140660  38.8980280  11.4891803  91.9233243
  53.9739755  18.4273767  91.8803345  54.1675645  19.3319578  92.1262620
  53.8740373  17.9681187  92.7141930  45.6276065   8.3131658  94.3793672
  44.9803980   9.0121608  94.2858148  46.3977081   8.7467802  94.7469920
  49.0354863  18.5780510  97.4544225  48.8840370  18.3491062  96.5374309
  49.0259543  19.5351112  97.4675570  45.8040200  16.1512423  92.4390492
  46.7332260  16.3023583  92.2659459  45.3831230  16.2396444  91.5839138
  44.6028532  20.1763087  90.2089029  44.4639617  19.8081872  91.0814967
  43.8143128  20.6910727  90.0372987  46.1533747  19.5544690  87.5977867
  45.8183579  19.5145460  88.4935517  45.6537692  18.8889406  87.1248277
  40.1277991  14.9612320  93.1230448  39.9897789  14.2292559  93.7241987
  41.0382914  14.8721220  92.8414636  49.0892938  16.9000724  77.8714927
  48.4722109  16.1747553  77.7747979  48.6209427  17.6610085  77.5282001
  42.7560291  14.6732279  92.6114128  43.4659910  14.0325472  92.5700746
  42.7129600  14.9245174  93.5340309  50.7447070  21.6099633  95.5320707
  50.6859616  20.9258853  94.8651290  51.1466588  22.3518623  95.0801333
  41.4689225  11.6597497  94.4309767  40.9326582  11.2088236  95.0831364
  40.8805934  11.7943406  93.6880232  39.7637769  28.4261547  88.3254426
  40.0034367  29.0580071  89.0033445  38.9206965  28.0749587  88.6119785
  40.8791484  11.1186149  76.9936231  40.0020951  10.9974950  76.6298478
  41.3549237  10.3272227  76.7415120  50.7464477  19.5739217  93.7634687
  49.8591256  19.2365139  93.8861086  51.3163028  18.8422248  94.0003452
  32.3993624  15.9063308  87.0877738  33.0864664  15.5925038  86.4998753
  32.2441753  16.8104673  86.8144990  37.2028347  10.7953505  91.5162762
  37.1186535  10.1879175  90.7813172  36.3811053  11.2862523  91.5172258
  44.2765631  24.2340669  90.7295930  44.2035802  25.0395641  91.2415235
  43.8343024  24.4332635  89.9043951  44.0655410  23.4712439  84.2398751
  43.2822932  24.0134119  84.3336976  44.7648155  23.9886419  84.6392993
  47.3752060   9.2807069  86.8832957  47.8720760   8.5277031  86.5634027
  46.6039042   9.3171385  86.3176166  55.2281818  14.9847434  88.5251248
  55.2171694  15.8672150  88.1545181  54.3599197  14.6318985  88.3305785
  46.7364314  24.1327503  92.8854089  47.4492286  24.7674968  92.8129990
  46.2454343  24.2291369  92.0694090  48.4581841  18.0378756  84.4571380
  47.5238120  18.1580218  84.2876085  48.6358510  17.1351223  84.1931390
  43.9587029  11.4224452  86.6104641  43.5884817  10.8695492  87.2985547
  44.4546122  10.8182585  86.0579642  51.8454392  13.8796075  84.9921414
  52.3114845  14.7124067  84.9181717  52.2961893  13.4141057  85.6966673
  41.7876228  21.8821947  93.7059659  42.4885687  22.5158430  93.8589054
  41.3171343  22.2236678  92.9455299  49.9130624  20.2239896  81.9907566
  50.1890467  20.1096491  82.9001441  49.0435122  19.8257381  81.9519740
  49.8171055   6.2476662  89.0312316  48.9034135   6.4780889  89.1994523
  50.2464157   6.3315106  89.8826348  49.5877514  14.4366554  91.5312210
  48.9348964  14.6842461  90.8764663  49.9657894  13.6230692  91.1974687
  46.5484688  24.4726247  85.6340380  46.7307082  23.6547903  86.0968132
  47.3717674  24.6893939  85.1965270  46.8826853  23.3994432  82.8955429
  47.4114620  22.8886887  82.2825591  47.1455073  23.0836963  83.7600962
  45.6365087  15.1786365  98.0178247  44.9605724  15.0780494  98.6880622
  46.4592721  15.0225579  98.4814244  37.3843946  21.4158302  90.6390762
  37.9697383  20.6701990  90.7718666  37.1868784  21.7262258  91.5227426
  40.2382601  24.4509549  85.6553204  39.5692976  24.9355677  85.1717245
  40.0995471  24.6978769  86.5696583  31.9761601  13.9863902  89.3595205
  32.0145700  13.4527493  90.1532323  31.4701893  13.4599107  88.7406182
  44.3787870  26.4853293  92.2535863  44.9306178  26.6484914  93.0184948
  44.7194063  27.0757730  91.5815888  39.3552363   8.8328442  92.8557748
  39.4193689   9.6943273  92.4435145  39.2919483   8.2202444  92.1230106
  38.8304635  10.9051575  96.5030782  39.4576674  10.5228652  97.1168306
  37.9732554  10.6865777  96.8686474  49.2298744  21.3114550  98.1084517
  49.7738648  21.9244508  97.6139472  48.6485589  21.8694128  98.6251530
  35.6070178  12.7128004  82.4349137  35.9023619  11.8038682  82.3816190
  34.7058214  12.6915743  82.1130139  47.5156257  24.4335268  89.2399545
  47.3907396  23.6325008  88.7310491  48.1735348  24.9281461  88.7513515
  39.1364425  10.7884001  88.4176685  38.4151011  11.4019968  88.2784159
  39.9257681  11.3241765  88.3393331  49.5791165  22.2344288  90.8679095
  48.6321501  22.1149639  90.7957422  49.9273938  21.3466786  90.9505357
  41.9390739   8.1238427  94.6917337  42.4625140   8.3700724  95.4543646
  41.7203072   8.9558462  94.2720474  37.3358020  10.3942102  82.5588462
  37.0070726   9.5139481  82.3763568  37.6897390  10.3389770  83.4464851
  46.5837599  22.0297004  87.0683447  46.4362561  21.1013712  87.2491017
  47.4091092  22.0517095  86.5840523  40.4499843  10.6815071  82.9263939
  40.7895915  11.2100993  82.2042548  40.8971963  11.0195478  83.7022506
  50.1871720  22.8525563  88.1548320  51.1118268  22.6468424  88.0172771
  50.0187024  22.6041964  89.0637662  43.1443284   9.0652122  92.3767008
  42.8040104   8.2659935  92.7787687  42.4382290   9.3653833  91.8043841
  43.7959756   6.1501435  90.8294331  44.6185825   5.6761913  90.7073221
  44.0397819   6.9291918  91.3293017  42.4367990   9.1789693  81.1257232
  43.1576353   9.5570946  80.6220949  41.8133294   9.8978570  81.2292210
  46.5799113   9.8834842  82.0615565  46.7962727  10.7659480  81.7604393
  46.0993180   9.4921055  81.3321207  41.3198334  12.8420555  88.6386309
  41.1742915  13.1560858  89.5310591  40.8423538  13.4605456  88.0857208
  43.1794717   9.8323103  88.6867199  43.1656286   8.9364197  88.3499497
  43.8967145   9.8393767  89.3205485  45.0320848  10.2660443  90.7320326
  44.7738626  11.1877514  90.7304657  44.5005888   9.8690878  91.4220790
  49.9767037  23.3711231  83.5110412  50.1503914  22.8057653  82.7584264
  50.4695928  24.1712125  83.3289901  35.7943996  15.3825900  91.5773970
  35.2497465  16.1585708  91.7094245  36.6723346  15.7296704  91.4193092
  42.5831613   8.7137483  83.9554769  42.7047524   7.7854130  84.1545656
  42.2933655   8.7276169  83.0433084  45.4522803   6.3992394  87.0921489
  45.4744500   6.4631727  86.1373468  45.8690862   5.5596903  87.2861995
  55.8306428  16.1347653  85.1300711  56.2737574  15.3854979  84.7319835
  54.9532938  16.1257790  84.7474443  50.9642209  22.6877995  80.6107310
  51.6593114  23.3084688  80.8294624  51.3065359  21.8373346  80.8859688
  36.5810018  14.5095796  94.4704127  35.8391754  14.6578431  95.0568758
  36.2602763  14.7704061  93.6070877  52.8633632  20.1377700  82.1394641
  53.3884956  20.4764973  81.4143961  52.7755985  19.2024716  81.9557775
  44.5253681  24.0511774  94.2684517  44.8340807  23.8060921  95.1407217
  45.3229163  24.2558413  93.7803387  44.5474293  26.2049684  86.4989894
  44.1079283  25.7126062  87.1922750  45.2982410  25.6622651  86.2581969
  37.0266632  22.3961225  86.5014522  37.8524652  22.0964996  86.1213165
  36.6760684  21.6268847  86.9504311  41.9948165  21.7487693  88.5712195
  41.3728174  21.0858398  88.2714423  42.6653032  21.7748825  87.8885843
  35.2275237  20.3147551  87.4603455  34.3907145  19.8869725  87.2787457
  35.1998882  20.5079994  88.3974247  42.0672693  10.2269481  98.1644701
  42.1160848  11.1031604  97.7822471  42.6095207   9.6846874  97.5916345
  52.5527538  20.7710604  97.4445839  51.7623082  20.7534743  96.9050338
  52.3160893  21.3098898  98.1994875  52.6725413  17.6203070  94.7578567
  52.7223418  17.4553078  95.6994090  52.5639337  16.7530330  94.3676448
  41.5561672  20.2991616  82.0470656  41.7049792  20.9827081  81.3937329
  42.3628116  20.2796706  82.5620112  49.9629176  13.6033999  96.0737874
  50.8639039  13.4640463  95.7821872  50.0377150  13.7688453  97.0136051
  44.2971981  10.9800853  94.9191060  43.4275290  11.2734419  94.6473649
  44.5331461  11.5641298  95.6398324  54.1743610  20.0400012  95.0020589
  53.8828418  20.4029993  95.8384050  53.5615741  19.3267020  94.8233921
  55.3739293  17.6052892  87.5223159  56.2086184  18.0442696  87.6860719
  55.5098421  17.1291545  86.7031405  52.4230798  15.1632627  93.4700647
  52.8984920  15.3560273  92.6619498  51.4996364  15.2191812  93.2244030
  39.3114305  16.3256794  83.0531725  39.0660347  15.4219124  83.2511935
  39.4810220  16.3273944  82.1111203  47.0011015   7.1980470  92.4356481
  47.5192959   7.9341497  92.1102969  46.6466148   7.5044463  93.2703240
  38.5809953  12.0585151  80.5517886  37.8879198  12.1329506  79.8957922
  38.3361704  11.2945495  81.0739403  47.2523609   3.6180753  87.9557377
  47.5325363   2.9503942  88.5817804  48.0374216   3.8109848  87.4432041
  45.0557078  22.7939747  79.5182403  44.4831045  23.4129934  79.0652875
  45.6289871  23.3439108  80.0522325  51.1232467  12.0398387  91.7028952
  52.0749890  12.1396484  91.7241176  50.9535918  11.2476655  92.2127037
  49.1446847   9.1253970  91.8888353  48.5496779   9.4058983  91.1934842
  48.8596544   9.6147871  92.6605094  48.2754337  23.0776897  80.6490986
  49.2085011  23.0122458  80.8523861  48.1877550  23.9133164  80.1905518
  50.9042354  22.3942767  77.6094933  50.8255986  22.0602631  78.5030691
  51.7252021  22.8864535  77.6086406  53.6020545  15.2604506  90.8171252
  53.5696865  14.3220507  91.0030936  54.2121169  15.3388543  90.0837077
  45.4403876  14.1300559  76.8598456  46.3862981  14.0006767  76.9286874
  45.0618121  13.3915221  77.3367884  53.7515034  12.0515550  90.8629535
  53.2354082  11.2674006  90.6759464  54.6354982  11.7234266  91.0276055
  51.4125761   5.7956565  86.8225348  51.2150582   5.4871654  87.7068680
  52.0225466   6.5218204  86.9523278  59.4197095  16.3220513  89.9577289
  60.1500484  16.0605801  90.5184992  58.8104041  15.5849235  89.9979357
  57.5012392  14.4628376  90.5551740  56.7745556  14.3284341  89.9468231
  57.0859679  14.7705204  91.3608458  45.3242569  18.1818305  98.3199113
  46.2445578  18.3596905  98.5139159  45.2892152  17.2374351  98.1678812
  43.6246793  12.0550536  76.7953341  42.7178249  11.7583648  76.8716055
  43.9022774  11.7580354  75.9287627  34.5424734  13.3756899  87.2452388
  34.2227518  12.5222207  86.9526762  33.9958162  13.5905477  88.0010355
  38.3204641  16.0919340  90.9621894  38.5390651  17.0236448  90.9809928
  38.7330415  15.7327315  91.7476698  45.2408859   6.5987425  82.9497582
  44.4309587   6.2534510  83.3252829  45.9293276   6.2894969  83.5385194
  47.1699407   5.6765472  84.5721879  47.7230446   6.0960926  85.2311902
  47.4069494   4.7501220  84.6144835  42.3945578   8.9137471  76.9365320
  43.2564742   9.2392369  77.1961138  42.5795922   8.1268967  76.4238386
  34.4112994  16.9959811  89.2145509  33.7176465  16.5813763  88.7015464
  35.1585985  17.0380347  88.6178928  50.5478214   7.7865997  84.0800543
  49.9676883   8.4450801  83.6978596  50.2814147   6.9643342  83.6687961
  48.9981781   7.1871055  86.2821864  49.4981559   7.2987590  85.4736183
  49.6417389   6.8832108  86.9222672  43.0563777  15.0949685  99.1689705
  42.5730858  15.8950045  99.3753594  43.1424716  15.1057630  98.2157149
  36.3249736  16.9278064  87.0911524  36.3020424  17.0265752  86.1393407
  36.6350373  17.7743215  87.4128690  38.9837114  18.9854219  91.2058138
  39.9380368  18.9538162  91.1388070  38.7849638  18.5244843  92.0208364
  39.5736496  17.5555336  93.7728936  40.3929385  18.0499414  93.7963773
  39.8473304  16.6387304  93.7446504  49.3303092   9.9466088  83.1356892
  48.4428947  10.2315738  82.9177086  49.7457081   9.7859851  82.2884168
  52.6817628   9.9712609  86.8511231  53.4578019  10.4609061  87.1235848
  51.9565763  10.3970663  87.3083100  55.1190187  10.6840228  87.9085171
  55.7134678  10.4435964  87.1978480  55.1916771   9.9647359  88.5358708
  37.3387343  24.5273839  88.2228336  37.2041811  23.7674240  87.6566334
  36.9219405  25.2514739  87.7557125  48.4746306  19.7110762  77.2304912
  49.1782156  19.9160765  77.8462567  47.7508955  20.2787524  77.4953995
  49.3044116  15.4620624  83.3507182  49.2479317  15.9189175  82.5114814
  49.8572459  14.7011308  83.1730025  53.1148922  11.2510356  84.1757301
  52.8585856  10.8506991  85.0065509  52.4901790  11.9654150  84.0507440
  57.4261260  13.9906429  86.6828593  56.8660818  14.0599618  87.4560155
  56.8204763  13.8147413  85.9628089  40.4956469  25.4243156  88.4346779
  40.3788853  26.3688588  88.3325469  39.6748915  25.1216718  88.8232578
  50.3833003  20.1493292  79.2803372  51.2178607  19.7174490  79.0980846
  50.2217346  19.9775305  80.2080266  50.0378895  16.6525405  80.6459711
  49.9827699  16.4869676  79.7048155  49.4124951  17.3601438  80.8021901
  34.8271410  11.8893469  94.4721133  35.4730274  11.3792423  94.9608358
  34.6188562  12.6262151  95.0464558  47.3524803  18.9574317  99.9713274
  48.2215962  19.1314969  99.6099909  46.8731554  19.7768734  99.8489003
  43.3475021   6.1533514  80.2245029  43.3353691   7.0975354  80.3813300
  44.2398443   5.9703659  79.9304491  41.5210983  26.0771418  91.6502707
  42.4238230  26.1095028  91.9669202  41.2948353  25.1471869  91.6649043
  43.2764585  24.8302404  88.3112786  42.3260216  24.8304266  88.1977158
  43.5797071  24.0835139  87.7948821  47.1627140   2.7476291  84.4790966
  46.3959536   2.1934777  84.6247648  47.5737845   2.8198159  85.3405118
  59.0117278  30.6662943  89.3758548  59.6495688  30.5469690  88.6721888
  58.8938121  31.6143787  89.4346501  55.8206985  30.6190371  89.3120073
  55.4825496  30.5031436  88.4240608  56.6896753  30.2181536  89.2921079
  51.6793800  32.4725847  85.3016964  51.1158665  32.3815784  84.5333252
  51.5646195  31.6525752  85.7819457  56.3026768  31.7725223  95.2706279
  56.2915408  31.3778021  94.3986782  56.4647407  31.0391295  95.8640050
  49.2258232  33.9677039  88.1401184  50.0179524  33.6267864  87.7247484
  49.4654882  34.0772014  89.0603338  53.0234029  34.5562334  94.2185463
  52.7323895  35.4607965  94.1032129  53.6591013  34.5978862  94.9329532
  53.9490236  31.9339183  90.8086822  54.5453808  31.7095205  90.0943785
  54.0065207  31.1923928  91.4112270  58.5658547  28.3914397  86.4511756
  59.3521636  27.9733820  86.1002173  58.8297251  29.2960489  86.6193405
  63.9666974  28.3289630  87.3544735  64.6992146  27.7588847  87.5882564
  63.2106330  27.9411230  87.7951241  61.4892394  22.0411204  91.8139344
  61.1575719  22.9106615  91.5900559  60.8938008  21.7247488  92.4933374
  55.2248581  25.7806771  79.5469426  55.3922983  26.6487007  79.9139897
  55.0345750  25.9434053  78.6230715  57.9823914  34.2423750  91.2135256
  57.6824637  35.1448789  91.1051063  57.6374973  33.9755933  92.0656409
  51.4336395  30.6937547  87.2471961  50.5086892  30.5613761  87.4549652
  51.6820808  31.4731766  87.7441903  61.3821058  26.7606290  88.8932694
  60.4737935  26.6921699  88.5991455  61.3308653  27.2378235  89.7214519
  48.7945206  30.3370820  88.0815750  48.9237588  30.5905299  88.9955161
  48.1142658  30.9298528  87.7620405  55.4561923  28.1795936  96.8367591
  54.6795257  28.7389856  96.8270455  56.0952486  28.6652719  97.3582461
  63.2482704  24.9622729  90.6710568  62.6057084  25.2555262  90.0250362
  62.7437633  24.8475649  91.4763764  60.9022868  28.7085902  81.3596427
  61.8140724  28.9413288  81.1844124  60.3932515  29.2922946  80.7971505
  53.7108296  30.9881389  96.3985558  54.4522980  31.5266433  96.1220381
  53.0045281  31.6147678  96.5557110  59.1863635  33.1310530  94.9957719
  59.5946991  32.6892940  94.2512352  58.4640897  32.5563157  95.2491912
  55.5394705  28.0683136  92.3691276  56.3855901  28.4922550  92.5125925
  55.4793343  27.4116761  93.0629839  59.5092450  33.6911720  88.7510008
  58.8801312  33.8557434  88.0486076  59.1218112  34.1053330  89.5220972
  63.3881682  34.6266158  86.1054372  62.7032720  35.0065059  85.5551405
  63.4725531  35.2361485  86.8386320  58.6894151  25.7287505  94.0272450
  58.4455083  26.4829565  93.4906726  58.9654081  26.1072852  94.8619697
  60.6432613  32.2726117  92.7049716  60.8549509  32.9157877  92.0284097
  60.5962362  31.4388434  92.2371646  58.2458842  24.8843938  89.6086288
  57.3843321  25.1825191  89.9003025  58.2721277  25.1014337  88.6767320
  55.0620412  33.4286128  86.0160093  55.5258757  33.7073831  85.2264716
  54.7977210  32.5269573  85.8333184  51.9544493  32.9757610  88.9539857
  52.5245850  33.4044878  88.3157341  52.5452605  32.6940195  89.6524042
  53.9989298  29.5509281  82.8249658  54.7013341  30.0030324  83.2923585
  53.6669926  28.9093099  83.4529552  52.4469659  28.1421037  97.2000868
  51.8168320  28.8237318  97.4336265  52.3405747  28.0304119  96.2554006
  47.7414632  27.8092833  88.1266792  46.9513686  28.0650362  87.6506903
  48.2325879  28.6241171  88.2318833  61.7578441  35.1498072  90.8772073
  62.5795885  34.7478260  90.5954754  61.7540844  35.0466307  91.8288189
  49.6929377  28.1737413  85.0850269  48.8960541  28.2856107  85.6033764
  49.4654969  28.5124065  84.2191159  55.5235045  34.6982116  93.0332783
  55.5879477  35.1602523  93.8690955  54.8145969  34.0679481  93.1615093
  46.0252335  28.0623324  90.5581783  46.2760373  28.9470334  90.8239359
  46.5611883  27.8827925  89.7856875  69.8484434  31.4936821  87.2257044
  69.0948143  30.9244219  87.0701049  69.9831976  31.4599485  88.1727679
  51.7250402  22.4441803  99.5626119  51.3317348  21.8908002 100.2373763
  52.5416542  22.7552382  99.9532636  54.6418363  23.8599682  97.1546375
  55.3828077  24.4606835  97.0750838  54.8736286  23.1177320  96.5964418
  49.7859701  29.0456049  95.4324605  49.6713216  28.1441307  95.7331704
  48.9304219  29.2919746  95.0809422  56.8651539  36.9873790  97.0312106
  56.4215393  36.2010168  96.7133010  57.5268752  37.1752940  96.3655997
  51.6238660  38.5169591  91.5572784  52.1746085  38.3886655  90.7849778
  50.7850136  38.8164480  91.2067677  58.9632777  37.2676590  95.0593507
  58.9451252  38.0885471  94.5673776  59.8852697  37.1430665  95.2843648
  55.4205831  34.7820719  95.9017015  55.9534168  34.0209007  95.6716323
  54.8919912  34.4894371  96.6441170  58.5875526  19.8880785  91.4310657
  58.2439795  20.7782427  91.3549768  58.9554489  19.6982443  90.5680242
  56.1372920  24.7239097  84.9968331  55.2814516  24.3345947  84.8173969
  56.5499872  24.8031058  84.1368116  57.6672066  22.2585440  89.3959890
  57.1636862  22.2215575  88.5827696  57.9602673  23.1678183  89.4556547
  53.9114952  22.3424170  88.4026072  54.7767949  22.1466979  88.0431962
  53.9792461  22.1134522  89.3295429  63.5260083  32.6321751  81.8736266
  62.7489526  32.2932910  81.4291428  64.2051564  32.6374374  81.1991231
  58.3412112  27.7516488  81.7642873  58.0362248  28.0662638  82.6153017
  59.2942554  27.8297908  81.8070206  61.7651390  32.1055732  88.5302874
  61.1075064  32.7954994  88.6183002  62.5691789  32.4952164  88.8736860
  51.5177271  24.5726378  85.7742439  52.0921023  24.3501559  85.0415632
  52.1048254  24.6415072  86.5271040  60.5756849  30.4600105  86.5806815
  61.0888730  31.0930097  87.0828525  61.2258073  29.8601300  86.2150175
  51.8446859  26.6030839  79.7938324  51.0084171  26.9405526  80.1147599
  51.7051628  26.4679819  78.8565461  53.8199939  21.4467627  84.5017508
  53.1664351  21.1316644  83.8774123  53.7780413  20.8243367  85.2277331
  57.0537680  27.9349560  88.8265156  56.1360241  28.1564507  88.6686844
  57.4697823  28.0095871  87.9676863  57.8372727  29.3340976  83.9567836
  58.5844546  29.8462373  83.6474958  58.1064317  29.0125029  84.8172230
  61.3418645  35.4406106  84.7085958  60.8880972  34.5997016  84.7651149
  60.7112612  36.0767505  85.0460738  60.2851564  26.3698092  85.9386626
  59.5474321  25.8575479  86.2696868  60.5378338  25.9298474  85.1269902
  60.3863192  19.1474344  86.5328395  60.6922069  18.2871708  86.2454310
  61.1115797  19.7391965  86.3327389  54.6584271  29.4428137  87.0404586
  54.7132881  28.4901974  86.9647062  53.8475474  29.5987576  87.5245884
  52.5976631  28.0605197  84.7994965  51.7844497  28.3599368  85.2060157
  53.0935626  27.6660886  85.5169447  58.1950843  28.5247022  93.6309859
  58.5500231  28.7518495  94.4904324  58.8422974  28.8565398  93.0087114
  63.9248580  31.6465457  84.3359188  63.7866479  31.8367053  83.4080377
  63.5684799  32.4084840  84.7927239  52.0890706  25.6323553  90.4156200
  52.7290085  25.4912312  89.7179163  51.2568237  25.3458066  90.0394802
  63.9517960  33.7141985  89.3470459  64.3854466  33.6217274  90.1953513
  64.6649540  33.6899485  88.7090475  52.8651010  34.9325983  86.5291192
  53.6591609  34.4376303  86.3273767  52.1542702  34.4043846  86.1658898
  57.6845855  37.3144079  90.8803560  57.7382877  37.8835015  91.6481276
  56.8160636  37.4845964  90.5157597  49.0919323  25.6023878  85.1929187
  49.3526140  26.5169211  85.0838347  49.9136495  25.1348320  85.3425799
  50.5644248  27.0161635  92.3628011  51.2367301  26.8078997  91.7140660
  49.7374034  26.8183721  91.9233243  64.8133509  33.7565685  91.8803345
  65.0069399  34.6611496  92.1262620  64.7134127  33.2973104  92.7141930
  56.4669820  23.6423576  94.3793672  55.8197735  24.3413525  94.2858148
  57.2370835  24.0759720  94.7469920  59.8748618  33.9072428  97.4544225
  59.7234124  33.6782980  96.5374309  59.8653297  34.8643029  97.4675570
  56.6433954  31.4804341  92.4390492  57.5726014  31.6315500  92.2659459
  56.2224984  31.5688361  91.5839138  55.4422286  35.5055005  90.2089029
  55.3033372  35.1373789  91.0814967  54.6536882  36.0202644  90.0372987
  50.9671745  30.2904238  93.1230448  50.8291543  29.5584477  93.7241987
  51.8776669  30.2013138  92.8414636  53.5954046  30.0024197  92.6114128
  54.3053664  29.3617389  92.5700746  53.5523354  30.2537092  93.5340309
  61.5840825  36.9391550  95.5320707  61.5253371  36.2550771  94.8651290
  61.9860343  37.6810540  95.0801333  52.3082980  26.9889415  94.4309767
  51.7720337  26.5380153  95.0831364  51.7199688  27.1235324  93.6880232
  61.5858232  34.9031134  93.7634687  60.6985011  34.5657056  93.8861086
  62.1556783  34.1714166  94.0003452  43.2387379  31.2355226  87.0877738
  43.9258419  30.9216956  86.4998753  43.0835508  32.1396591  86.8144990
  48.0422101  26.1245423  91.5162762  47.9580290  25.5171092  90.7813172
  47.2204807  26.6154441  91.5172258  55.1159385  39.5632587  90.7295930
  55.0429557  40.3687558  91.2415235  54.6736778  39.7624553  89.9043951
  58.2145815  24.6098986  86.8832957  58.7114514  23.8568949  86.5634027
  57.4432796  24.6463303  86.3176166  66.0675572  30.3139352  88.5251248
  66.0565449  31.1964067  88.1545181  65.1992952  29.9610903  88.3305785
  57.5758069  39.4619421  92.8854089  58.2886041  40.0966886  92.8129990
  57.0848097  39.5583287  92.0694090  54.7980784  26.7516369  86.6104641
  54.4278571  26.1987410  87.2985547  55.2939876  26.1474503  86.0579642
  62.6848147  29.2087993  84.9921414  63.1508599  30.0415984  84.9181717
  63.1355647  28.7432974  85.6966673  52.6269982  37.2113864  93.7059659
  53.3279442  37.8450347  93.8589054  52.1565097  37.5528596  92.9455299
  60.6564810  21.5768580  89.0312316  59.7427890  21.8072807  89.1994523
  61.0857911  21.6607024  89.8826348  60.4271268  29.7658472  91.5312210
  59.7742718  30.0134379  90.8764663  60.8051648  28.9522610  91.1974687
  56.4758841  30.5078283  98.0178247  55.7999478  30.4072412  98.6880622
  57.2986475  30.3517496  98.4814244  48.2237700  36.7450219  90.6390762
  48.8091137  35.9993907  90.7718666  48.0262539  37.0554176  91.5227426
  42.8155355  29.3155819  89.3595205  42.8539455  28.7819410  90.1532323
  42.3095648  28.7891025  88.7406182  55.2181624  41.8145210  92.2535863
  55.7699932  41.9776832  93.0184948  55.5587818  42.4049648  91.5815888
  50.1946117  24.1620360  92.8557748  50.2587444  25.0235191  92.4435145
  50.1313238  23.5494362  92.1230106  49.6698390  26.2343493  96.5030782
  50.2970429  25.8520570  97.1168306  48.8126309  26.0157694  96.8686474
  60.0692498  36.6406468  98.1084517  60.6132402  37.2536426  97.6139472
  59.4879343  37.1986046  98.6251530  49.9758180  26.1175918  88.4176685
  49.2544765  26.7311886  88.2784159  50.7651435  26.6533683  88.3393331
  60.4184920  37.5636206  90.8679095  59.4715255  37.4441557  90.7957422
  60.7667693  36.6758704  90.9505357  52.7784493  23.4530345  94.6917337
  53.3018895  23.6992641  95.4543646  52.5596826  24.2850380  94.2720474
  48.1751774  25.7234019  82.5588462  47.8464480  24.8431398  82.3763568
  48.5291145  25.6681688  83.4464851  51.2893597  26.0106989  82.9263939
  51.6289670  26.5392910  82.2042548  51.7365718  26.3487395  83.7022506
  61.0265475  38.1817481  88.1548320  61.9512022  37.9760342  88.0172771
  60.8580778  37.9333882  89.0637662  53.9837038  24.3944040  92.3767008
  53.6433859  23.5951853  92.7787687  53.2776044  24.6945751  91.8043841
  54.6353510  21.4793352  90.8294331  55.4579579  21.0053830  90.7073221
  54.8791574  22.2583836  91.3293017  53.2761745  24.5081611  81.1257232
  53.9970107  24.8862863  80.6220949  52.6527049  25.2270488  81.2292210
  57.4192867  25.2126760  82.0615565  57.6356482  26.0951398  81.7604393
  56.9386935  24.8212973  81.3321207  52.1592089  28.1712473  88.6386309
  52.0136669  28.4852776  89.5310591  51.6817292  28.7897373  88.0857208
  54.0188472  25.1615021  88.6867199  54.0050040  24.2656114  88.3499497
  54.7360900  25.1685685  89.3205485  55.8714602  25.5952361  90.7320326
  55.6132380  26.5169432  90.7304657  55.3399643  25.1982796  91.4220790
  46.6337751  30.7117817  91.5773970  46.0891219  31.4877625  91.7094245
  47.5117101  31.0588622  91.4193092  53.4225368  24.0429401  83.9554769
  53.5441279  23.1146047  84.1545656  53.1327410  24.0568087  83.0433084
  56.2916558  21.7284312  87.0921489  56.3138255  21.7923645  86.1373468
  56.7084617  20.8888820  87.2861995  66.6700182  31.4639571  85.1300711
  67.1131328  30.7146896  84.7319835  65.7926693  31.4549708  84.7474443
  47.4203773  29.8387714  94.4704127  46.6785509  29.9870349  95.0568758
  47.0996517  30.0995979  93.6070877  63.7027387  35.4669618  82.1394641
  64.2278711  35.8056891  81.4143961  63.6149739  34.5316633  81.9557775
  55.3647435  39.3803692  94.2684517  55.6734562  39.1352839  95.1407217
  56.1622917  39.5850330  93.7803387  52.8341920  37.0779611  88.5712195
  52.2121929  36.4150316  88.2714423  53.5046787  37.1040742  87.8885843
  46.0668992  35.6439469  87.4603455  45.2300900  35.2161643  87.2787457
  46.0392637  35.8371912  88.3974247  52.9066447  25.5561399  98.1644701
  52.9554603  26.4323521  97.7822471  53.4488961  25.0138792  97.5916345
  63.3921293  36.1002522  97.4445839  62.6016837  36.0826661  96.9050338
  63.1554647  36.6390815  98.1994875  63.5119168  32.9494988  94.7578567
  63.5617173  32.7844996  95.6994090  63.4033091  32.0822247  94.3676448
  60.8022930  28.9325916  96.0737874  61.7032793  28.7932381  95.7821872
  60.8770905  29.0980371  97.0136051  55.1365736  26.3092771  94.9191060
  54.2669045  26.6026337  94.6473649  55.3725216  26.8933216  95.6398324
  65.0137365  35.3691930  95.0020589  64.7222173  35.7321910  95.8384050
  64.4009496  34.6558938  94.8233921  66.2133047  32.9344809  87.5223159
  67.0479938  33.3734614  87.6860719  66.3492176  32.4583463  86.7031405
  63.2624553  30.4924544  93.4700647  63.7378675  30.6852191  92.6619498
  62.3390118  30.5483730  93.2244030  57.8404769  22.5272388  92.4356481
  58.3586713  23.2633415  92.1102969  57.4859902  22.8336381  93.2703240
  58.0917364  18.9472670  87.9557377  58.3719117  18.2795859  88.5817804
  58.8767971  19.1401766  87.4432041  61.9626222  27.3690304  91.7028952
  62.9143645  27.4688402  91.7241176  61.7929672  26.5768573  92.2127037
  59.9840601  24.4545888  91.8888353  59.3890534  24.7350900  91.1934842
  59.6990298  24.9439789  92.6605094  64.4414300  30.5896424  90.8171252
  64.4090620  29.6512425  91.0030936  65.0514923  30.6680461  90.0837077
  64.5908788  27.3807468  90.8629535  64.0747837  26.5965924  90.6759464
  65.4748737  27.0526184  91.0276055  62.2519515  21.1248483  86.8225348
  62.0544336  20.8163571  87.7068680  62.8619221  21.8510122  86.9523278
  70.2590850  31.6512431  89.9577289  70.9894238  31.3897719  90.5184992
  69.6497795  30.9141153  89.9979357  68.3406147  29.7920294  90.5551740
  67.6139310  29.6576258  89.9468231  67.9253434  30.0997122  91.3608458
  56.1636323  33.5110223  98.3199113  57.0839333  33.6888822  98.5139159
  56.1285906  32.5666269  98.1678812  54.4640548  27.3842453  76.7953341
  53.5572003  27.0875566  76.8716055  54.7416529  27.0872272  75.9287627
  45.3818488  28.7048817  87.2452388  45.0621272  27.8514125  86.9526762
  44.8351916  28.9197395  88.0010355  49.1598396  31.4211258  90.9621894
  49.3784405  32.3528366  90.9809928  49.5724169  31.0619232  91.7476698
  56.0802613  21.9279343  82.9497582  55.2703342  21.5826428  83.3252829
  56.7687030  21.6186887  83.5385194  58.0093162  21.0057390  84.5721879
  58.5624200  21.4252843  85.2311902  58.2463248  20.0793138  84.6144835
  54.0326261  26.9944464 100.3524643  53.9322988  27.9438821 100.2836734
  53.8147803  26.6662703  99.4800713  53.2339332  24.2429389  76.9365320
  54.0958496  24.5684287  77.1961138  53.4189677  23.4560885  76.4238386
  45.2506748  32.3251728  89.2145509  44.5570220  31.9105681  88.7015464
  45.9979739  32.3672265  88.6178928  61.3871969  23.1157915  84.0800543
  60.8070638  23.7742719  83.6978596  61.1207902  22.2935260  83.6687961
  59.8375535  22.5162973  86.2821864  60.3375314  22.6279507  85.4736183
  60.4811143  22.2124026  86.9222672  53.8957531  30.4241602  99.1689705
  53.4124613  31.2241963  99.3753594  53.9818470  30.4349547  98.2157149
  47.1643491  32.2569982  87.0911524  47.1414179  32.3557669  86.1393407
  47.4744127  33.1035133  87.4128690  49.8230869  34.3146137  91.2058138
  50.7774122  34.2830079  91.1388070  49.6243392  33.8536761  92.0208364
  50.4130251  32.8847253  93.7728936  51.2323140  33.3791332  93.7963773
  50.6867058  31.9679221  93.7446504  60.1696847  25.2758006  83.1356892
  59.2822702  25.5607656  82.9177086  60.5850836  25.1151769  82.2884168
  63.5211383  25.3004526  86.8511231  64.2971773  25.7900979  87.1235848
  62.7959517  25.7262581  87.3083100  65.9583942  26.0132146  87.9085171
  66.5528432  25.7727882  87.1978480  66.0310525  25.2939276  88.5358708
  60.1437871  30.7912541  83.3507182  60.0873072  31.2481093  82.5114814
  60.6966213  30.0303226  83.1730025  63.9542677  26.5802273  84.1757301
  63.6979611  26.1798909  85.0065509  63.3295545  27.2946067  84.0507440
  68.2655014  29.3198347  86.6828593  67.7054572  29.3891536  87.4560155
  67.6598518  29.1439331  85.9628089  60.8772650  31.9817323  80.6459711
  60.8221454  31.8161594  79.7048155  60.2518705  32.6893356  80.8021901
  45.6665165  27.2185387  94.4721133  46.3124028  26.7084341  94.9608358
  45.4582316  27.9554069  95.0464558  58.1918557  34.2866235  99.9713274
  59.0609717  34.4606887  99.6099909  57.7125309  35.1060651  99.8489003
  54.1868775  21.4825432  80.2245029  54.1747445  22.4267272  80.3813300
  55.0792197  21.2995577  79.9304491  52.3604737  41.4063336  91.6502707
  53.2631984  41.4386946  91.9669202  52.1342107  40.4763786  91.6649043
  58.0020895  18.0768208  84.4790966  57.2353291  17.5226695  84.6247648
  58.4131600  18.1490077  85.3405118  50.0062656  24.3653004  98.5696147
  50.8694117  24.0089809  98.7799472  49.4328067  24.0266899  99.2571552
  69.8511033  45.9954860  89.3758548  70.4889443  45.8761608  88.6721888
  69.7331876  46.9435704  89.4346501  66.6600739  45.9482289  89.3120073
  66.3219251  45.8323353  88.4240608  67.5290507  45.5473454  89.2921079
  67.1420522  47.1017140  95.2706279  67.1309163  46.7069939  94.3986782
  67.3041162  46.3683213  95.8640050  68.0987114  51.4688733  80.6131429
  67.4475093  52.0542813  80.2265443  68.8931476  51.9994928  80.6726466
  63.8627783  49.8854252  94.2185463  63.5717649  50.7899883  94.1032129
  64.4984768  49.9270780  94.9329532  64.3609018  44.7170536  78.6437013
  64.6134539  44.1952057  77.8820476  63.4233578  44.5536681  78.7463697
  69.4052301  43.7206314  86.4511756  70.1915391  43.3025737  86.1002173
  69.6691006  44.6252407  86.6193405  69.5762379  49.1579165  81.1500413
  68.9408212  49.2313791  81.8621318  69.2459785  49.7472763  80.4719492
  74.8060728  43.6581548  87.3544735  75.5385900  43.0880764  87.5882564
  74.0500084  43.2703148  87.7951241  72.3286149  37.3703122  91.8139344
  71.9969474  38.2398533  91.5900559  71.7331762  37.0539406  92.4933374
  66.0642335  41.1098689  79.5469426  66.2316737  41.9778925  79.9139897
  65.8739504  41.2725970  78.6230715  68.8217668  49.5715668  91.2135256
  68.5218391  50.4740706  91.1051063  68.4768728  49.3047851  92.0656409
  72.2214812  42.0898208  88.8932694  71.3131689  42.0213616  88.5991455
  72.1702408  42.5670153  89.7214519  66.0431556  43.5656346  80.5316093
  65.9231181  44.0113397  81.3701573  65.3484144  43.9141664  79.9729631
  63.8038448  56.3359988  84.1806224  63.7262478  57.2867813  84.2594705
  63.2000092  55.9905860  84.8381150  66.2955678  43.5087853  96.8367591
  65.5189012  44.0681774  96.8270455  66.9346241  43.9944636  97.3582461
  74.0876458  40.2914646  90.6710568  73.4450839  40.5847179  90.0250362
  73.5831387  40.1767567  91.4763764  71.7416622  44.0377819  81.3596427
  72.6534478  44.2705206  81.1844124  71.2326269  44.6214864  80.7971505
  64.5502050  46.3173307  96.3985558  65.2916735  46.8558351  96.1220381
  63.8439036  46.9439596  96.5557110  70.0257390  48.4602447  94.9957719
  70.4340746  48.0184858  94.2512352  69.3034651  47.8855075  95.2491912
  66.3788460  43.3975054  92.3691276  67.2249655  43.8214468  92.5125925
  66.3187098  42.7408678  93.0629839  70.3486204  49.0203638  88.7510008
  69.7195067  49.1849352  88.0486076  69.9611867  49.4345247  89.5220972
  74.2275436  49.9558076  86.1054372  73.5426475  50.3356977  85.5551405
  74.3119286  50.5653402  86.8386320  69.5287905  41.0579422  94.0272450
  69.2848837  41.8121483  93.4906726  69.8047836  41.4364770  94.8619697
  71.4826368  47.6018035  92.7049716  71.6943263  48.2449795  92.0284097
  71.4356116  46.7680351  92.2371646  69.0852597  40.2135855  89.6086288
  68.2237076  40.5117109  89.9003025  69.1115032  40.4306254  88.6767320
  65.9014166  48.7578046  86.0160093  66.3652512  49.0365749  85.2264716
  65.6370964  47.8561491  85.8333184  63.2863414  43.4712955  97.2000868
  62.6562075  44.1529236  97.4336265  63.1799502  43.3596037  96.2554006
  72.5972196  50.4789990  90.8772073  73.4189640  50.0770177  90.5954754
  72.5934599  50.3758224  91.8288189  66.3628799  50.0274033  93.0332783
  66.4273232  50.4894441  93.8690955  65.6539723  49.3971398  93.1615093
  80.6878189  46.8228739  87.2257044  79.9341897  46.2536137  87.0701049
  80.8225730  46.7891403  88.1727679  66.0776817  51.6942141  82.9011764
  65.9422492  52.5393677  83.3296611  66.6186630  51.8961419  82.1377697
  62.5644157  37.7733721  99.5626119  62.1711102  37.2199919 100.2373763
  63.3810297  38.0844299  99.9532636  61.3401099  52.3283335  85.5562442
  61.5167727  53.2501300  85.3683426  62.1357933  52.0141754  85.9856822
  65.4812118  39.1891600  97.1546375  66.2221831  39.7898753  97.0750838
  65.7130040  38.4469238  96.5964418  67.7045293  52.3165707  97.0312106
  67.2609148  51.5302086  96.7133010  68.3662507  52.5044858  96.3655997
  62.4632415  53.8461509  91.5572784  63.0139840  53.7178572  90.7849778
  61.6243890  54.1456398  91.2067677  69.8026531  52.5968507  95.0593507
  69.7845007  53.4177388  94.5673776  70.7246452  52.4722583  95.2843648
  66.2599586  50.1112637  95.9017015  66.7927922  49.3500925  95.6716323
  65.7313667  49.8186289  96.6441170  69.4269281  35.2172703  91.4310657
  69.0833550  36.1074344  91.3549768  69.7948243  35.0274360  90.5680242
  69.3919563  45.2081314  79.9383092  68.8766187  45.9785919  80.1771480
  69.1196872  44.5346450  80.5616154  66.9766674  40.0531015  84.9968331
  66.1208271  39.6637865  84.8173969  67.3893626  40.1322976  84.1368116
  68.5065821  37.5877358  89.3959890  68.0030617  37.5507493  88.5827696
  68.7996428  38.4970101  89.4556547  64.7508707  37.6716088  88.4026072
  65.6161704  37.4758896  88.0431962  64.8186216  37.4426439  89.3295429
  74.3653837  47.9613669  81.8736266  73.5883280  47.6224828  81.4291428
  75.0445318  47.9666292  81.1991231  69.1805866  43.0808406  81.7642873
  68.8756002  43.3954555  82.6153017  70.1336309  43.1589826  81.8070206
  67.6252298  49.2398629  83.4135827  67.0973660  48.5051389  83.1009065
  67.1239801  50.0173306  83.1675796  72.6045144  47.4347650  88.5302874
  71.9468819  48.1246911  88.6183002  73.4085544  47.8244082  88.8736860
  71.4150603  45.7892023  86.5806815  71.9282485  46.4222014  87.0828525
  72.0651827  45.1893218  86.2150175  62.6840613  41.9322757  79.7938324
  61.8477925  42.2697443  80.1147599  62.5445383  41.7971736  78.8565461
  64.6593694  36.7759545  84.5017508  64.0058106  36.4608562  83.8774123
  64.6174168  36.1535285  85.2277331  65.7704898  47.0578840  76.4170800
  64.8631960  46.8268093  76.6161949  66.2675930  46.2616459  76.6044782
  68.6772977  55.7676347  79.3367487  68.0034676  56.0708044  79.9452444
  69.0638799  56.5705427  78.9872944  67.8931434  43.2641478  88.8265156
  66.9753995  43.4856425  88.6686844  68.3091578  43.3387789  87.9676863
  68.6766482  44.6632894  83.9567836  69.4238301  45.1754291  83.6474958
  68.9458071  44.3416946  84.8172230  72.1812399  50.7698024  84.7085958
  71.7274726  49.9288934  84.7651149  71.5506366  51.4059422  85.0460738
  71.1245319  41.6990010  85.9386626  70.3868076  41.1867396  86.2696868
  71.3772092  41.2590392  85.1269902  70.6245339  52.6074521  85.6435776
  70.9168313  53.1679578  84.9248142  71.1343959  52.9003082  86.3988935
  71.2256946  34.4766262  86.5328395  71.5315823  33.6163625  86.2454310
  71.9509551  35.0683882  86.3327389  66.6469220  48.7000178  78.2782869
  66.2088650  47.9836037  77.8188506  67.3879661  48.9276293  77.7167961
  65.5878964  53.3854872  86.7329229  65.5455143  53.6115718  85.8037761
  66.5041663  53.1518246  86.8815031  69.0344598  43.8538939  93.6309859
  69.3893985  44.0810412  94.4904324  69.6816729  44.1857316  93.0087114
  74.7642335  46.9757375  84.3359188  74.6260233  47.1658971  83.4080377
  74.4078553  47.7376758  84.7927239  62.9284461  40.9615470  90.4156200
  63.5683840  40.8204229  89.7179163  62.0961991  40.6749984  90.0394802
  74.7911714  49.0433902  89.3470459  75.2248221  48.9509191  90.1953513
  75.5043295  49.0191403  88.7090475  68.5239609  52.6435996  90.8803560
  68.5776631  53.2126933  91.6481276  67.6554390  52.8137881  90.5157597
  75.6527264  49.0857603  91.8803345  75.8463154  49.9903413  92.1262620
  75.5527882  48.6265022  92.7141930  67.3063574  38.9715493  94.3793672
  66.6591489  39.6705443  94.2858148  68.0764590  39.4051637  94.7469920
  70.7142372  49.2364346  97.4544225  70.5627879  49.0074897  96.5374309
  70.7047052  50.1934947  97.4675570  67.4827709  46.8096258  92.4390492
  68.4119769  46.9607418  92.2659459  67.0618739  46.8980279  91.5839138
  66.2816041  50.8346923  90.2089029  66.1427126  50.4665707  91.0814967
  65.4930637  51.3494562  90.0372987  66.8764193  55.9356019  81.5514566
  67.0515948  55.4644062  82.3660188  66.1896981  56.5621785  81.7795827
  67.8321256  50.2128525  87.5977867  67.4971088  50.1729295  88.4935517
  67.3325201  49.5473241  87.1248277  70.7680447  47.5584560  77.8714927
  70.1509618  46.8331388  77.7747979  70.2996936  48.3193920  77.5282001
  64.4347800  45.3316115  92.6114128  65.1447419  44.6909307  92.5700746
  64.3917108  45.5829010  93.5340309  72.4234579  52.2683468  95.5320707
  72.3647125  51.5842688  94.8651290  72.8254097  53.0102458  95.0801333
  63.1476734  42.3181333  94.4309767  62.6114091  41.8672071  95.0831364
  62.5593443  42.4527242  93.6880232  61.4425278  59.0845382  88.3254426
  61.6821876  59.7163906  89.0033445  60.5994474  58.7333422  88.6119785
  72.4251986  50.2323052  93.7634687  71.5378765  49.8948974  93.8861086
  72.9950537  49.5006083  94.0003452  58.8815856  41.4537340  91.5162762
  58.7974044  40.8463010  90.7813172  58.0598562  41.9446359  91.5172258
  65.9553140  54.8924504  90.7295930  65.8823311  55.6979476  91.2415235
  65.5130533  55.0916470  89.9043951  65.7442919  54.1296274  84.2398751
  64.9610441  54.6717955  84.3336976  66.4435664  54.6470254  84.6392993
  69.0539569  39.9390904  86.8832957  69.5508269  39.1860866  86.5634027
  68.2826551  39.9755221  86.3176166  76.9069327  45.6431269  88.5251248
  76.8959203  46.5255985  88.1545181  76.0386706  45.2902820  88.3305785
  68.4151823  54.7911338  92.8854089  69.1279795  55.4258803  92.8129990
  67.9241852  54.8875204  92.0694090  70.1369350  48.6962591  84.4571380
  69.2025629  48.8164054  84.2876085  70.3146019  47.7935058  84.1931390
  65.6374538  42.0808287  86.6104641  65.2672326  41.5279327  87.2985547
  66.1333631  41.4766420  86.0579642  73.5241901  44.5379910  84.9921414
  73.9902354  45.3707902  84.9181717  73.9749402  44.0724892  85.6966673
  63.4663737  52.5405782  93.7059659  64.1673196  53.1742265  93.8589054
  62.9958852  52.8820513  92.9455299  71.5918133  50.8823732  81.9907566
  71.8677976  50.7680326  82.9001441  70.7222631  50.4841217  81.9519740
  71.4958564  36.9060497  89.0312316  70.5821644  37.1364724  89.1994523
  71.9251666  36.9898941  89.8826348  71.2665023  45.0950389  91.5312210
  70.6136473  45.3426297  90.8764663  71.6445403  44.2814528  91.1974687
  68.2272197  55.1310083  85.6340380  68.4094591  54.3131738  86.0968132
  69.0505183  55.3477775  85.1965270  68.5614362  54.0578268  82.8955429
  69.0902129  53.5470722  82.2825591  68.8242582  53.7420798  83.7600962
  67.3152596  45.8370200  98.0178247  66.6393233  45.7364330  98.6880622
  68.1380230  45.6809414  98.4814244  59.0631455  52.0742137  90.6390762
  59.6484892  51.3285825  90.7718666  58.8656293  52.3846094  91.5227426
  61.9170110  55.1093384  85.6553204  61.2480485  55.5939512  85.1717245
  61.7782980  55.3562605  86.5696583  66.0575379  57.1437128  92.2535863
  66.6093687  57.3068749  93.0184948  66.3981572  57.7341566  91.5815888
  61.0339872  39.4912278  92.8557748  61.0981198  40.3527109  92.4435145
  60.9706992  38.8786279  92.1230106  60.5092144  41.5635410  96.5030782
  61.1364183  41.1812488  97.1168306  59.6520063  41.3449612  96.8686474
  70.9086253  51.9698385  98.1084517  71.4526157  52.5828344  97.6139472
  70.3273098  52.5277964  98.6251530  69.1943766  55.0919103  89.2399545
  69.0694905  54.2908843  88.7310491  69.8522857  55.5865297  88.7513515
  71.2578674  52.8928123  90.8679095  70.3109010  52.7733475  90.7957422
  71.6061447  52.0050622  90.9505357  63.6178248  38.7822262  94.6917337
  64.1412649  39.0284559  95.4543646  63.3990581  39.6142297  94.2720474
  68.2625108  52.6880840  87.0683447  68.1150070  51.7597547  87.2491017
  69.0878601  52.7100930  86.5840523  71.8659229  53.5109398  88.1548320
  72.7905777  53.3052260  88.0172771  71.6974533  53.2625800  89.0637662
  64.8230793  39.7235958  92.3767008  64.4827613  38.9243771  92.7787687
  64.1169799  40.0237668  91.8043841  65.4747264  36.8085270  90.8294331
  66.2973334  36.3345748  90.7073221  65.7185328  37.5875754  91.3293017
  68.2586622  40.5418677  82.0615565  68.4750236  41.4243315  81.7604393
  67.7780689  40.1504891  81.3321207  64.8582226  40.4906939  88.6867199
  64.8443795  39.5948032  88.3499497  65.5754654  40.4977602  89.3205485
  66.7108357  40.9244279  90.7320326  66.4526135  41.8461349  90.7304657
  66.1793397  40.5274713  91.4220790  71.6554546  54.0295066  83.5110412
  71.8291423  53.4641488  82.7584264  72.1483437  54.8295961  83.3289901
  67.1310312  37.0576229  87.0921489  67.1532009  37.1215562  86.1373468
  67.5478371  36.2180738  87.2861995  77.5093937  46.7931489  85.1300711
  77.9525083  46.0438814  84.7319835  76.6320447  46.7841625  84.7474443
  72.6429718  53.3461830  80.6107310  73.3380623  53.9668523  80.8294624
  72.9852868  52.4957182  80.8859688  74.5421141  50.7961536  82.1394641
  75.0672465  51.1348809  81.4143961  74.4543494  49.8608551  81.9557775
  66.2041190  54.7095609  94.2684517  66.5128316  54.4644756  95.1407217
  67.0016672  54.9142248  93.7803387  66.2261802  56.8633519  86.4989894
  65.7866792  56.3709898  87.1922750  66.9769919  56.3206487  86.2581969
  58.7054141  53.0545060  86.5014522  59.5312161  52.7548832  86.1213165
  58.3548193  52.2852682  86.9504311  63.6735674  52.4071528  88.5712195
  63.0515683  51.7442233  88.2714423  64.3440541  52.4332660  87.8885843
  56.9062746  50.9731386  87.4603455  56.0694654  50.5453561  87.2787457
  56.8786391  51.1663830  88.3974247  63.7460202  40.8853316  98.1644701
  63.7948357  41.7615439  97.7822471  64.2882716  40.3430709  97.5916345
  74.2315047  51.4294439  97.4445839  73.4410591  51.4118578  96.9050338
  73.9948402  51.9682733  98.1994875  74.3512922  48.2786906  94.7578567
  74.4010927  48.1136913  95.6994090  74.2426846  47.4114165  94.3676448
  63.2349181  50.9575452  82.0470656  63.3837301  51.6410916  81.3937329
  64.0415624  50.9380542  82.5620112  71.6416685  44.2617834  96.0737874
  72.5426547  44.1224299  95.7821872  71.7164659  44.4272289  97.0136051
  65.9759490  41.6384689  94.9191060  65.1062799  41.9318255  94.6473649
  66.2118970  42.2225134  95.6398324  75.8531119  50.6983847  95.0020589
  75.5615927  51.0613828  95.8384050  75.2403250  49.9850856  94.8233921
  77.0526801  48.2636727  87.5223159  77.8873693  48.7026531  87.6860719
  77.1885930  47.7875380  86.7031405  74.1018307  45.8216462  93.4700647
  74.5772429  46.0144108  92.6619498  73.1783873  45.8775648  93.2244030
  68.6798524  37.8564306  92.4356481  69.1980468  38.5925332  92.1102969
  68.3253657  38.1628299  93.2703240  68.9311118  34.2764588  87.9557377
  69.2112872  33.6087777  88.5817804  69.7161725  34.4693684  87.4432041
  66.7344587  53.4523582  79.5182403  66.1618554  54.0713769  79.0652875
  67.3077380  54.0022944  80.0522325  72.8019976  42.6982222  91.7028952
  73.7537399  42.7980320  91.7241176  72.6323427  41.9060491  92.2127037
  70.8234356  39.7837805  91.8888353  70.2284288  40.0642818  91.1934842
  70.5384053  40.2731706  92.6605094  69.9541846  53.7360732  80.6490986
  70.8872519  53.6706294  80.8523861  69.8665059  54.5716999  80.1905518
  72.5829863  53.0526602  77.6094933  72.5043495  52.7186466  78.5030691
  73.4039530  53.5448370  77.6086406  75.2808054  45.9188342  90.8171252
  75.2484374  44.9804342  91.0030936  75.8908678  45.9972378  90.0837077
  67.1191385  44.7884395  76.8598456  68.0650490  44.6590603  76.9286874
  66.7405630  44.0499057  77.3367884  75.4302543  42.7099385  90.8629535
  74.9141591  41.9257842  90.6759464  76.3142491  42.3818102  91.0276055
  73.0913270  36.4540401  86.8225348  72.8938091  36.1455489  87.7068680
  73.7012975  37.1802040  86.9523278  81.0984604  46.9804349  89.9577289
  81.8287993  46.7189637  90.5184992  80.4891550  46.2433071  89.9979357
  79.1799901  45.1212211  90.5551740  78.4533065  44.9868176  89.9468231
  78.7647188  45.4289040  91.3608458  67.0030078  48.8402141  98.3199113
  67.9233087  49.0180740  98.5139159  66.9679661  47.8958186  98.1678812
  65.3034302  42.7134371  76.7953341  64.3965758  42.4167484  76.8716055
  65.5810283  42.4164189  75.9287627  66.9196368  37.2571261  82.9497582
  66.1097096  36.9118346  83.3252829  67.6080785  36.9478805  83.5385194
  68.8486916  36.3349308  84.5721879  69.4017955  36.7544761  85.2311902
  69.0857003  35.4085056  84.6144835  64.8720015  42.3236381 100.3524643
  64.7716742  43.2730738 100.2836734  64.6541558  41.9954620  99.4800713
  64.0733087  39.5721306  76.9365320  64.9352251  39.8976205  77.1961138
  64.2583431  38.7852802  76.4238386  72.2265723  38.4449833  84.0800543
  71.6464392  39.1034637  83.6978596  71.9601656  37.6227177  83.6687961
  70.6769290  37.8454891  86.2821864  71.1769068  37.9571425  85.4736183
  71.3204898  37.5415943  86.9222672  64.7351286  45.7533520  99.1689705
  64.2518367  46.5533880  99.3753594  64.8212225  45.7641465  98.2157149
  71.0090601  40.6049923  83.1356892  70.1216456  40.8899574  82.9177086
  71.4244590  40.4443687  82.2884168  74.3605137  40.6296444  86.8511231
  75.1365528  41.1192897  87.1235848  73.6353272  41.0554498  87.3083100
  76.7977696  41.3424063  87.9085171  77.3922187  41.1019799  87.1978480
  76.8704280  40.6231194  88.5358708  59.0174852  55.1857674  88.2228336
  58.8829320  54.4258075  87.6566334  58.6006914  55.9098574  87.7557125
  70.1533815  50.3694598  77.2304912  70.8569665  50.5744600  77.8462567
  69.4296464  50.9371360  77.4953995  70.9831625  46.1204459  83.3507182
  70.9266826  46.5773011  82.5114814  71.5359968  45.3595144  83.1730025
  74.7936431  41.9094191  84.1757301  74.5373365  41.5090827  85.0065509
  74.1689299  42.6237985  84.0507440  79.1048769  44.6490264  86.6828593
  78.5448327  44.7183454  87.4560155  78.4992272  44.4731249  85.9628089
  62.1743978  56.0826991  88.4346779  62.0576362  57.0272424  88.3325469
  61.3536424  55.7800553  88.8232578  72.0620512  50.8077127  79.2803372
  72.8966116  50.3758326  79.0980846  71.9004855  50.6359141  80.2080266
  71.7166404  47.3109240  80.6459711  71.6615208  47.1453512  79.7048155
  71.0912460  48.0185273  80.8021901  56.5058919  42.5477305  94.4721133
  57.1517783  42.0376259  94.9608358  56.2976070  43.2845986  95.0464558
  69.0312312  49.6158152  99.9713274  69.9003471  49.7898805  99.6099909
  68.5519063  50.4352569  99.8489003  65.0262530  36.8117349  80.2245029
  65.0141200  37.7559189  80.3813300  65.9185952  36.6287495  79.9304491
  63.1998492  56.7355253  91.6502707  64.1025738  56.7678863  91.9669202
  62.9735862  55.8055704  91.6649043  64.9552094  55.4886240  88.3112786
  64.0047725  55.4888101  88.1977158  65.2584580  54.7418974  87.7948821
  68.8414649  33.4060126  84.4790966  68.0747045  32.8518613  84.6247648
  69.2525354  33.4781995  85.3405118  60.8456410  39.6944922  98.5696147
  61.7087872  39.3381727  98.7799472  60.2721821  39.3558817  99.2571552
  80.6904787  61.3246778  89.3758548  81.3283197  61.2053526  88.6721888
  80.5725630  62.2727622  89.4346501  77.4994494  61.2774206  89.3120073
  77.1613005  61.1615271  88.4240608  78.3684262  60.8765371  89.2921079
  77.9814277  62.4309058  95.2706279  77.9702917  62.0361856  94.3986782
  78.1434916  61.6975131  95.8640050  78.9380868  66.7980650  80.6131429
  78.2868848  67.3834731  80.2265443  79.7325231  67.3286845  80.6726466
  74.7021538  65.2146170  94.2185463  74.4111404  66.1191801  94.1032129
  75.3378522  65.2562697  94.9329532  75.6277745  62.5923018  90.8086822
  76.2241317  62.3679041  90.0943785  75.6852716  61.8507764  91.4112270
  80.2446056  59.0498232  86.4511756  81.0309145  58.6317655  86.1002173
  80.5084760  59.9544324  86.6193405  80.4156133  64.4871082  81.1500413
  79.7801966  64.5605709  81.8621318  80.0853540  65.0764681  80.4719492
  85.6454483  58.9873465  87.3544735  86.3779655  58.4172682  87.5882564
  84.8893839  58.5995066  87.7951241  77.2630603  61.4100707  84.5508077
  76.8988810  60.8831328  85.2620999  78.1197719  61.0199176  84.3774563
  83.1679903  52.6995039  91.8139344  82.8363228  53.5690450  91.5900559
  82.5725517  52.3831323  92.4933374  76.9036090  56.4390606  79.5469426
  77.0710492  57.3070843  79.9139897  76.7133259  56.6017888  78.6230715
  79.6611423  64.9007585  91.2135256  79.3612146  65.8032624  91.1051063
  79.3162482  64.6339769  92.0656409  73.1123904  61.3521382  87.2471961
  72.1874401  61.2197596  87.4549652  73.3608317  62.1315601  87.7441903
  83.0608567  57.4190126  88.8932694  82.1525444  57.3505534  88.5991455
  83.0096162  57.8962070  89.7214519  76.8825310  58.8948264  80.5316093
  76.7624936  59.3405315  81.3701573  76.1877899  59.2433582  79.9729631
  70.4732715  60.9954656  88.0815750  70.6025096  61.2489135  88.9955161
  69.7930167  61.5882364  87.7620405  77.1349432  58.8379771  96.8367591
  76.3582766  59.3973691  96.8270455  77.7739995  59.3236554  97.3582461
  84.9270213  55.6206564  90.6710568  84.2844593  55.9139097  90.0250362
  84.4225142  55.5059484  91.4763764  82.5810377  59.3669737  81.3596427
  83.4928233  59.5997124  81.1844124  82.0720024  59.9506781  80.7971505
  75.3895805  61.6465224  96.3985558  76.1310489  62.1850268  96.1220381
  74.6832790  62.2731513  96.5557110  80.8651144  63.7894365  94.9957719
  81.2734500  63.3476775  94.2512352  80.1428406  63.2146992  95.2491912
  77.2182214  58.7266972  92.3691276  78.0643410  59.1506385  92.5125925
  77.1580852  58.0700596  93.0629839  81.1879959  64.3495556  88.7510008
  80.5588821  64.5141270  88.0486076  80.8005621  64.7637165  89.5220972
  85.0669191  65.2849993  86.1054372  84.3820229  65.6648895  85.5551405
  85.1513040  65.8945320  86.8386320  80.3681660  56.3871340  94.0272450
  80.1242592  57.1413401  93.4906726  80.6441590  56.7656688  94.8619697
  82.3220122  62.9309952  92.7049716  82.5337018  63.5741712  92.0284097
  82.2749871  62.0972269  92.2371646  79.9246351  55.5427773  89.6086288
  79.0630830  55.8409027  89.9003025  79.9508786  55.7598172  88.6767320
  76.7407921  64.0869964  86.0160093  77.2046266  64.3657667  85.2264716
  76.4764719  63.1853408  85.8333184  74.1257168  58.8004873  97.2000868
  73.4955829  59.4821153  97.4336265  74.0193256  58.6887954  96.2554006
  69.4202141  58.4676669  88.1266792  68.6301195  58.7234197  87.6506903
  69.9113388  59.2825007  88.2318833  83.4365950  65.8081908  90.8772073
  84.2583394  65.4062095  90.5954754  83.4328353  65.7050142  91.8288189
  71.3716886  58.8321248  85.0850269  70.5748050  58.9439942  85.6033764
  71.1442478  59.1707900  84.2191159  77.2022554  65.3565951  93.0332783
  77.2666986  65.8186358  93.8690955  76.4933478  64.7263316  93.1615093
  67.7039844  58.7207159  90.5581783  67.9547882  59.6054169  90.8239359
  68.2399392  58.5411761  89.7856875  91.5271943  62.1520656  87.2257044
  90.7735652  61.5828054  87.0701049  91.6619485  62.1183321  88.1727679
  73.4037911  53.1025638  99.5626119  73.0104857  52.5491837 100.2373763
  74.2204051  53.4136217  99.9532636  76.3205872  54.5183518  97.1546375
  77.0615586  55.1190671  97.0750838  76.5523795  53.7761155  96.5964418
  71.4647210  59.7039885  95.4324605  71.3500725  58.8025142  95.7331704
  70.6091728  59.9503582  95.0809422  78.5439048  67.6457625  97.0312106
  78.1002902  66.8594004  96.7133010  79.2056261  67.8336776  96.3655997
  80.6420286  67.9260425  95.0593507  80.6238761  68.7469306  94.5673776
  81.5640206  67.8014500  95.2843648  77.0993340  65.4404555  95.9017015
  77.6321677  64.6792843  95.6716323  76.5707421  65.1478206  96.6441170
  80.2663035  50.5464620  91.4310657  79.9227304  51.4366262  91.3549768
  80.6341998  50.3566278  90.5680242  68.3348886  62.8698151  84.2499259
  69.1724108  63.2795159  84.0332967  68.5127153  61.9297593  84.2199453
  80.2313318  60.5373232  79.9383092  79.7159941  61.3077836  80.1771480
  79.9590626  59.8638368  80.5616154  77.8160429  55.3822932  84.9968331
  76.9602025  54.9929783  84.8173969  78.2287381  55.4614893  84.1368116
  79.3459575  52.9169276  89.3959890  78.8424371  52.8799411  88.5827696
  79.6390182  53.8262018  89.4556547  75.5902461  53.0008005  88.4026072
  76.4555458  52.8050814  88.0431962  75.6579970  52.7718357  89.3295429
  85.2047592  63.2905586  81.8736266  84.4277035  62.9516746  81.4291428
  85.8839073  63.2958209  81.1991231  80.0199621  58.4100324  81.7642873
  79.7149757  58.7246473  82.6153017  80.9730063  58.4881744  81.8070206
  78.4646053  64.5690547  83.4135827  77.9367414  63.8343307  83.1009065
  77.9633556  65.3465223  83.1675796  83.4438899  62.7639568  88.5302874
  82.7862573  63.4538829  88.6183002  84.2479298  63.1535999  88.8736860
  73.1964780  55.2310213  85.7742439  73.7708532  55.0085395  85.0415632
  73.7835763  55.2998908  86.5271040  82.2544358  61.1183940  86.5806815
  82.7676239  61.7513932  87.0828525  82.9045582  60.5185136  86.2150175
  73.5234368  57.2614674  79.7938324  72.6871680  57.5989361  80.1147599
  73.3839137  57.1263654  78.8565461  75.4987448  52.1051462  84.5017508
  74.8451860  51.7900479  83.8774123  75.4567922  51.4827203  85.2277331
  78.7325188  58.5933396  88.8265156  77.8147750  58.8148343  88.6686844
  79.1485332  58.6679706  87.9676863  79.5160236  59.9924811  83.9567836
  80.2632055  60.5046209  83.6474958  79.7851826  59.6708864  84.8172230
  83.0206154  66.0989942  84.7085958  82.5668481  65.2580852  84.7651149
  82.3900121  66.7351340  85.0460738  81.9639073  57.0281928  85.9386626
  81.2261830  56.5159314  86.2696868  82.2165847  56.5882309  85.1269902
  81.4639093  67.9366438  85.6435776  81.7562067  68.4971495  84.9248142
  81.9737714  68.2294999  86.3988935  82.0650701  49.8058180  86.5328395
  82.3709578  48.9455543  86.2454310  82.7903306  50.3975800  86.3327389
  68.3575057  60.2088866  84.9209993  68.1599457  59.6158227  84.1961059
  67.8021721  59.9041076  85.6385932  76.3371780  60.1011973  87.0404586
  76.3920390  59.1485809  86.9647062  75.5262982  60.2571412  87.5245884
  74.2764140  58.7189032  84.7994965  73.4632006  59.0183203  85.2060157
  74.7723135  58.3244721  85.5169447  79.8738352  59.1830857  93.6309859
  80.2287740  59.4102330  94.4904324  80.5210483  59.5149234  93.0087114
  85.6036089  62.3049293  84.3359188  85.4653988  62.4950889  83.4080377
  85.2472308  63.0668676  84.7927239  73.7678215  56.2907388  90.4156200
  74.4077594  56.1496147  89.7179163  72.9355746  56.0041901  90.0394802
  85.6305469  64.3725820  89.3470459  86.0641975  64.2801109  90.1953513
  86.3437049  64.3483320  88.7090475  70.8521283  59.7352900  82.6050945
  69.9218871  59.6737356  82.8220907  70.9478755  59.2128853  81.8087586
  70.7706832  56.2607713  85.1929187  71.0313649  57.1753046  85.0838347
  71.5924004  55.7932156  85.3425799  72.2431757  57.6745470  92.3628011
  72.9154810  57.4662832  91.7140660  71.4161543  57.4767556  91.9233243
  86.4921018  64.4149521  91.8803345  86.6856908  65.3195331  92.1262620
  86.3921636  63.9556940  92.7141930  78.1457329  54.3007411  94.3793672
  77.4985244  54.9997361  94.2858148  78.9158344  54.7343555  94.7469920
  81.5536127  64.5656263  97.4544225  81.4021633  64.3366815  96.5374309
  81.5440806  65.5226865  97.4675570  78.3221463  62.1388176  92.4390492
  79.2513523  62.2899336  92.2659459  77.9012493  62.2272197  91.5839138
  78.6715010  65.5420443  87.5977867  78.3364843  65.5021213  88.4935517
  78.1718956  64.8765159  87.1248277  72.6459254  60.9488073  93.1230448
  72.5079052  60.2168312  93.7241987  73.5564178  60.8596973  92.8414636
  81.6074202  62.8876477  77.8714927  80.9903372  62.1623306  77.7747979
  81.1390690  63.6485838  77.5282001  75.2741555  60.6608032  92.6114128
  75.9841173  60.0201225  92.5700746  75.2310863  60.9120927  93.5340309
  83.2628334  67.5975386  95.5320707  83.2040880  66.9134606  94.8651290
  83.6647852  68.3394376  95.0801333  73.9870489  57.6473250  94.4309767
  73.4507846  57.1963989  95.0831364  73.3987197  57.7819159  93.6880232
  73.3972748  57.1061902  76.9936231  72.5202214  56.9850703  76.6298478
  73.8730501  56.3147980  76.7415120  83.2645741  65.5614970  93.7634687
  82.3772520  65.2240892  93.8861086  83.8344292  64.8298001  94.0003452
  64.9174888  61.8939061  87.0877738  65.6045928  61.5800792  86.4998753
  64.7623017  62.7980426  86.8144990  69.7209610  56.7829258  91.5162762
  69.6367799  56.1754928  90.7813172  68.8992316  57.2738276  91.5172258
  79.8933324  55.2682822  86.8832957  80.3902023  54.5152784  86.5634027
  79.1220305  55.3047138  86.3176166  87.7463081  60.9723187  88.5251248
  87.7352958  61.8547903  88.1545181  86.8780461  60.6194738  88.3305785
  79.2545578  70.1203256  92.8854089  79.9673550  70.7550721  92.8129990
  78.7635606  70.2167122  92.0694090  80.9763105  64.0254509  84.4571380
  80.0419383  64.1455971  84.2876085  81.1539773  63.1226976  84.1931390
  76.4768293  57.4100205  86.6104641  76.1066080  56.8571245  87.2985547
  76.9727385  56.8058338  86.0579642  84.3635656  59.8671828  84.9921414
  84.8296108  60.6999820  84.9181717  84.8143156  59.4016810  85.6966673
  82.4311887  66.2115649  81.9907566  82.7071731  66.0972244  82.9001441
  81.5616386  65.8133134  81.9519740  82.3352319  52.2352415  89.0312316
  81.4215398  52.4656642  89.1994523  82.7645420  52.3190859  89.8826348
  82.1058777  60.4242307  91.5312210  81.4530227  60.6718214  90.8764663
  82.4839157  59.6106445  91.1974687  78.1546350  61.1662118  98.0178247
  77.4786987  61.0656247  98.6880622  78.9773984  61.0101332  98.4814244
  64.4942864  59.9739655  89.3595205  64.5326964  59.4403246  90.1532323
  63.9883157  59.4474860  88.7406182  71.8733626  54.8204195  92.8557748
  71.9374953  55.6819026  92.4435145  71.8100747  54.2078197  92.1230106
  71.3485899  56.8927328  96.5030782  71.9757938  56.5104405  97.1168306
  70.4913818  56.6741530  96.8686474  81.7480007  67.2990303  98.1084517
  82.2919911  67.9120261  97.6139472  81.1666852  67.8569881  98.6251530
  68.1251442  58.7003757  82.4349137  68.4204883  57.7914435  82.3816190
  67.2239477  58.6791496  82.1130139  80.0337520  70.4211021  89.2399545
  79.9088660  69.6200761  88.7310491  80.6916611  70.9157214  88.7513515
  71.6545689  56.7759754  88.4176685  70.9332274  57.3895721  88.2784159
  72.4438944  57.3117518  88.3393331  82.0972429  68.2220041  90.8679095
  81.1502764  68.1025392  90.7957422  82.4455202  67.3342539  90.9505357
  74.4572002  54.1114180  94.6917337  74.9806404  54.3576477  95.4543646
  74.2384335  54.9434215  94.2720474  69.8539283  56.3817855  82.5588462
  69.5251989  55.5015234  82.3763568  70.2078654  56.3265523  83.4464851
  79.1018862  68.0172757  87.0683447  78.9543824  67.0889465  87.2491017
  79.9272356  68.0392848  86.5840523  72.9681106  56.6690824  82.9263939
  73.3077179  57.1976746  82.2042548  73.4153227  57.0071231  83.7022506
  82.7052984  68.8401316  88.1548320  83.6299531  68.6344177  88.0172771
  82.5368287  68.5917717  89.0637662  75.6624547  55.0527875  92.3767008
  75.3221368  54.2535688  92.7787687  74.9563553  55.3529586  91.8043841
  76.3141019  52.1377188  90.8294331  77.1367088  51.6637666  90.7073221
  76.5579083  52.9167671  91.3293017  74.9549253  55.1665446  81.1257232
  75.6757616  55.5446699  80.6220949  74.3314558  55.8854323  81.2292210
  79.0980376  55.8710595  82.0615565  79.3143991  56.7535233  81.7604393
  78.6174444  55.4796808  81.3321207  73.8379598  58.8296308  88.6386309
  73.6924178  59.1436611  89.5310591  73.3604801  59.4481209  88.0857208
  75.6975981  55.8198856  88.6867199  75.6837549  54.9239950  88.3499497
  76.4148409  55.8269520  89.3205485  77.5502111  56.2536196  90.7320326
  77.2919889  57.1753267  90.7304657  77.0187152  55.8566631  91.4220790
  82.4948300  69.3586984  83.5110412  82.6685178  68.7933406  82.7584264
  82.9877191  70.1587878  83.3289901  68.3125260  61.3701653  91.5773970
  67.7678728  62.1461461  91.7094245  69.1904610  61.7172457  91.4193092
  75.1012877  54.7013237  83.9554769  75.2228788  53.7729883  84.1545656
  74.8114919  54.7151922  83.0433084  77.9704067  52.3868147  87.0921489
  77.9925764  52.4507480  86.1373468  78.3872126  51.5472656  87.2861995
  88.3487691  62.1223407  85.1300711  88.7918837  61.3730732  84.7319835
  87.4714202  62.1133543  84.7474443  83.4823473  68.6753748  80.6107310
  84.1774377  69.2960441  80.8294624  83.8246623  67.8249099  80.8859688
  69.0991282  60.4971549  94.4704127  68.3573018  60.6454184  95.0568758
  68.7784026  60.7579815  93.6070877  85.3814896  66.1253453  82.1394641
  85.9066220  66.4640726  81.4143961  85.2937248  65.1900469  81.9557775
  74.5853956  56.2145234  98.1644701  74.6342112  57.0907357  97.7822471
  75.1276470  55.6722627  97.5916345  85.0708802  66.7586357  97.4445839
  84.2804345  66.7410496  96.9050338  84.8342156  67.2974651  98.1994875
  85.1906677  63.6078824  94.7578567  85.2404682  63.4428831  95.6994090
  85.0820600  62.7406083  94.3676448  82.4810439  59.5909752  96.0737874
  83.3820302  59.4516216  95.7821872  82.5558414  59.7564206  97.0136051
  76.8153245  56.9676606  94.9191060  75.9456554  57.2610172  94.6473649
  77.0512725  57.5517051  95.6398324  86.6924874  66.0275765  95.0020589
  86.4009682  66.3905746  95.8384050  86.0797005  65.3142773  94.8233921
  87.8920556  63.5928645  87.5223159  88.7267447  64.0318449  87.6860719
  88.0279685  63.1167298  86.7031405  84.9412062  61.1508380  93.4700647
  85.4166183  61.3436026  92.6619498  84.0177627  61.2067565  93.2244030
  79.5192278  53.1856223  92.4356481  80.0374222  53.9217250  92.1102969
  79.1647411  53.4920217  93.2703240  71.0991216  58.0460904  80.5517886
  70.4060461  58.1205259  79.8957922  70.8542968  57.2821248  81.0739403
  79.7704873  49.6056506  87.9557377  80.0506626  48.9379695  88.5817804
  80.5555479  49.7985601  87.4432041  83.6413731  58.0274140  91.7028952
  84.5931154  58.1272237  91.7241176  83.4717181  57.2352408  92.2127037
  81.6628110  55.1129723  91.8888353  81.0678042  55.3934736  91.1934842
  81.3777807  55.6023624  92.6605094  80.7935601  69.0652650  80.6490986
  81.7266274  68.9998211  80.8523861  80.7058814  69.9008917  80.1905518
  83.4223618  68.3818520  77.6094933  83.3437249  68.0478384  78.5030691
  84.2433284  68.8740288  77.6086406  86.1201809  61.2480259  90.8171252
  86.0878129  60.3096260  91.0030936  86.7302432  61.3264296  90.0837077
  86.2696297  58.0391303  90.8629535  85.7535346  57.2549759  90.6759464
  87.1536246  57.7110019  91.0276055  83.9307024  51.7832318  86.8225348
  83.7331845  51.4747407  87.7068680  84.5406730  52.5093957  86.9523278
  91.9378359  62.3096266  89.9577289  92.6681747  62.0481554  90.5184992
  91.3285304  61.5724988  89.9979357  90.0193656  60.4504129  90.5551740
  89.2926819  60.3160094  89.9468231  89.6040943  60.7580957  91.3608458
  77.8423832  64.1694059  98.3199113  78.7626842  64.3472658  98.5139159
  77.8073415  63.2250104  98.1678812  76.1428057  58.0426289  76.7953341
  75.2359512  57.7459402  76.8716055  76.4204038  57.7456107  75.9287627
  67.0605997  59.3632652  87.2452388  66.7408781  58.5097960  86.9526762
  66.5139425  59.5781230  88.0010355  70.8385905  62.0795093  90.9621894
  71.0571914  63.0112201  90.9809928  71.2511678  61.7203068  91.7476698
  77.7590122  52.5863179  82.9497582  76.9490851  52.2410263  83.3252829
  78.4474539  52.2770722  83.5385194  79.6880671  51.6641225  84.5721879
  80.2411709  52.0836679  85.2311902  79.9250757  50.7376973  84.6144835
  75.7113770  57.6528299 100.3524643  75.6110497  58.6022656 100.2836734
  75.4935312  57.3246538  99.4800713  74.9126841  54.9013224  76.9365320
  75.7746005  55.2268122  77.1961138  75.0977185  54.1144720  76.4238386
  66.9294257  62.9835564  89.2145509  66.2357729  62.5689516  88.7015464
  67.6767248  63.0256100  88.6178928  83.0659478  53.7741750  84.0800543
  82.4858147  54.4326554  83.6978596  82.7995410  52.9519095  83.6687961
  81.5163044  53.1746808  86.2821864  82.0162823  53.2863343  85.4736183
  82.1598652  52.8707861  86.9222672  75.5745040  61.0825438  99.1689705
  75.0912122  61.8825798  99.3753594  75.6605979  61.0933383  98.2157149
  68.8431000  62.9153817  87.0911524  68.8201688  63.0141505  86.1393407
  69.1531636  63.7618968  87.4128690  72.0917760  63.5431089  93.7728936
  72.9110649  64.0375167  93.7963773  72.3654567  62.6263057  93.7446504
  81.8484356  55.9341841  83.1356892  80.9610211  56.2191491  82.9177086
  82.2638345  55.7735604  82.2884168  85.1998892  55.9588362  86.8511231
  85.9759282  56.4484814  87.1235848  84.4747026  56.3846416  87.3083100
  87.6371451  56.6715981  87.9085171  88.2315941  56.4311717  87.1978480
  87.7098034  55.9523112  88.5358708  81.8225380  61.4496377  83.3507182
  81.7660581  61.9064928  82.5114814  82.3753722  60.6887061  83.1730025
  85.6330185  57.2386109  84.1757301  85.3767120  56.8382744  85.0065509
  85.0083054  57.9529903  84.0507440  89.9442523  59.9782182  86.6828593
  89.3842081  60.0475371  87.4560155  89.3386027  59.8023167  85.9628089
  82.9014267  66.1369045  79.2803372  83.7359871  65.7050243  79.0980846
  82.7398610  65.9651058  80.2080266  82.5560159  62.6401158  80.6459711
  82.5008963  62.4745429  79.7048155  81.9306214  63.3477191  80.8021901
  67.3452674  57.8769222  94.4721133  67.9911537  57.3668176  94.9608358
  67.1369825  58.6137904  95.0464558  79.8706066  64.9450070  99.9713274
  80.7397226  65.1190722  99.6099909  79.3912818  65.7644487  99.8489003
  75.8656284  52.1409267  80.2245029  75.8534954  53.0851107  80.3813300
  76.7579706  51.9579412  79.9304491  79.6808404  48.7352044  84.4790966
  78.9140800  48.1810530  84.6247648  80.0919109  48.8073912  85.3405118
  71.6850165  55.0236839  98.5696147  72.5481626  54.6673644  98.7799472
  71.1115576  54.6850734  99.2571552  91.5298542  76.6538696  89.3758548
  92.1676952  76.5345443  88.6721888  91.4119385  77.6019540  89.4346501
  88.3388248  76.6066124  89.3120073  88.0006760  76.4907189  88.4240608
  89.2078016  76.2057289  89.2921079  88.8208031  77.7600976  95.2706279
  88.8096672  77.3653774  94.3986782  88.9828671  77.0267048  95.8640050
  81.7439496  79.9552792  88.1401184  82.5360788  79.6143617  87.7247484
  81.9836146  80.0647767  89.0603338  89.7774622  82.1272568  80.6131429
  89.1262602  82.7126648  80.2265443  90.5718985  82.6578763  80.6726466
  85.5415292  80.5438087  94.2185463  85.2505158  81.4483718  94.1032129
  86.1772277  80.5854615  94.9329532  86.4671499  77.9214936  90.8086822
  87.0635071  77.6970958  90.0943785  86.5246471  77.1799681  91.4112270
  91.0839810  74.3790150  86.4511756  91.8702900  73.9609573  86.1002173
  91.3478515  75.2836242  86.6193405  91.2549888  79.8163000  81.1500413
  90.6195721  79.8897627  81.8621318  90.9247294  80.4056599  80.4719492
  96.4848237  74.3165383  87.3544735  97.2173409  73.7464600  87.5882564
  95.7287593  73.9286983  87.7951241  88.1024357  76.7392624  84.5508077
  87.7382564  76.2123245  85.2620999  88.9591473  76.3491093  84.3774563
  94.0073658  68.0286957  91.8139344  93.6756983  68.8982368  91.5900559
  93.4119271  67.7123241  92.4933374  87.7429844  71.7682524  79.5469426
  87.9104246  72.6362760  79.9139897  87.5527013  71.9309806  78.6230715
  90.5005177  80.2299503  91.2135256  90.2005900  81.1324542  91.1051063
  90.1556237  79.9631686  92.0656409  83.9517659  76.6813300  87.2471961
  83.0268155  76.5489514  87.4549652  84.2002072  77.4607519  87.7441903
  93.9002321  72.7482043  88.8932694  92.9919198  72.6797452  88.5991455
  93.8489917  73.2253988  89.7214519  81.3126470  76.3246573  88.0815750
  81.4418851  76.5781052  88.9955161  80.6323921  76.9174281  87.7620405
  85.4825957  86.9943823  84.1806224  85.4049987  87.9451648  84.2594705
  84.8787601  86.6489696  84.8381150  87.9743187  74.1671689  96.8367591
  87.1976521  74.7265609  96.8270455  88.6133750  74.6528472  97.3582461
  95.7663967  70.9498482  90.6710568  95.1238348  71.2431015  90.0250362
  95.2618896  70.8351402  91.4763764  93.4204131  74.6961655  81.3596427
  94.3321987  74.9289042  81.1844124  92.9113778  75.2798699  80.7971505
  86.2289559  76.9757142  96.3985558  86.9704244  77.5142186  96.1220381
  85.5226545  77.6023431  96.5557110  91.7044899  79.1186283  94.9957719
  92.1128255  78.6768693  94.2512352  90.9822160  78.5438910  95.2491912
  88.0575969  74.0558889  92.3691276  88.9037164  74.4798303  92.5125925
  87.9974607  73.3992514  93.0629839  92.0273713  79.6787473  88.7510008
  91.3982576  79.8433187  88.0486076  91.6399376  80.0929083  89.5220972
  95.9062945  80.6141911  86.1054372  95.2213983  80.9940812  85.5551405
  95.9906795  81.2237238  86.8386320  91.2075414  71.7163258  94.0272450
  90.9636346  72.4705318  93.4906726  91.4835345  72.0948605  94.8619697
  93.1613877  78.2601870  92.7049716  93.3730772  78.9033630  92.0284097
  93.1143625  77.4264187  92.2371646  90.7640106  70.8719691  89.6086288
  89.9024585  71.1700944  89.9003025  90.7902541  71.0890090  88.6767320
  87.5801675  79.4161881  86.0160093  88.0440021  79.6949584  85.2264716
  87.3158473  78.5145326  85.8333184  84.4725756  78.9633363  88.9539857
  85.0427113  79.3920631  88.3157341  85.0633868  78.6815948  89.6524042
  84.9650923  74.1296790  97.2000868  84.3349583  74.8113071  97.4336265
  84.8587011  74.0179872  96.2554006  80.2595895  73.7968586  88.1266792
  79.4694949  74.0526115  87.6506903  80.7507143  74.6116924  88.2318833
  94.2759705  81.1373826  90.8772073  95.0977149  80.7354013  90.5954754
  94.2722108  81.0342060  91.8288189  88.0416308  80.6857869  93.0332783
  88.1060741  81.1478276  93.8690955  87.3327232  80.0555234  93.1615093
  78.5433598  74.0499077  90.5581783  78.7941637  74.9346087  90.8239359
  79.0793147  73.8703678  89.7856875 102.3665698  77.4812574  87.2257044
 101.6129406  76.9119972  87.0701049 102.5013239  77.4475238  88.1727679
  87.7564326  82.3525976  82.9011764  87.6210001  83.1977512  83.3296611
  88.2974138  82.5545254  82.1377697  84.2431666  68.4317556  99.5626119
  83.8498611  67.8783755 100.2373763  85.0597806  68.7428135  99.9532636
  83.0188608  82.9867171  85.5562442  83.1955236  83.9085135  85.3683426
  83.8145442  82.6725590  85.9856822  87.1599627  69.8475435  97.1546375
  87.9009340  70.4482588  97.0750838  87.3917549  69.1053073  96.5964418
  82.3040965  75.0331802  95.4324605  82.1894480  74.1317060  95.7331704
  81.4485482  75.2795499  95.0809422  89.3832802  82.9749543  97.0312106
  88.9396657  82.1885921  96.7133010  90.0450016  83.1628693  96.3655997
  84.1419924  84.5045344  91.5572784  84.6927349  84.3762408  90.7849778
  83.3031399  84.8040233  91.2067677  91.4814040  83.2552343  95.0593507
  91.4632516  84.0761224  94.5673776  92.4033960  83.1306418  95.2843648
  87.9387095  80.7696472  95.9017015  88.4715431  80.0084760  95.6716323
  87.4101176  80.4770124  96.6441170  91.1056790  65.8756538  91.4310657
  90.7621059  66.7658180  91.3549768  91.4735752  65.6858196  90.5680242
  88.6554183  70.7114850  84.9968331  87.7995780  70.3221700  84.8173969
  89.0681135  70.7906811  84.1368116  90.1853330  68.2461193  89.3959890
  89.6818126  68.2091328  88.5827696  90.4783937  69.1553936  89.4556547
  86.4296216  68.3299923  88.4026072  87.2949213  68.1342732  88.0431962
  86.4973725  68.1010275  89.3295429  96.0441346  78.6197504  81.8736266
  95.2670789  78.2808663  81.4291428  96.7232827  78.6250127  81.1991231
  90.8593375  73.7392241  81.7642873  90.5543511  74.0538391  82.6153017
  91.8123818  73.8173661  81.8070206  89.3039807  79.8982465  83.4135827
  88.7761169  79.1635224  83.1009065  88.8027310  80.6757141  83.1675796
  94.2832653  78.0931485  88.5302874  93.6256328  78.7830747  88.6183002
  95.0873053  78.4827917  88.8736860  84.0358535  70.5602131  85.7742439
  84.6102287  70.3377312  85.0415632  84.6229517  70.6290825  86.5271040
  93.0938112  76.4475858  86.5806815  93.6069994  77.0805850  87.0828525
  93.7439336  75.8477053  86.2150175  86.3381203  67.4343380  84.5017508
  85.6845615  67.1192397  83.8774123  86.2961677  66.8119120  85.2277331
  90.3560486  86.4260182  79.3367487  89.6822185  86.7291879  79.9452444
  90.7426308  87.2289262  78.9872944  89.5718943  73.9225313  88.8265156
  88.6541504  74.1440260  88.6686844  89.9879087  73.9971624  87.9676863
  90.3553991  75.3216729  83.9567836  91.1025810  75.8338126  83.6474958
  90.6245580  75.0000782  84.8172230  93.8599908  81.4281859  84.7085958
  93.4062235  80.5872769  84.7651149  93.2293875  82.0643258  85.0460738
  92.8032828  72.3573845  85.9386626  92.0655585  71.8451232  86.2696868
  93.0559601  71.9174227  85.1269902  92.3032848  83.2658356  85.6435776
  92.5955822  83.8263413  84.9248142  92.8131468  83.5586917  86.3988935
  92.9044455  65.1350097  86.5328395  93.2103332  64.2747461  86.2454310
  93.6297060  65.7267718  86.3327389  87.1765535  75.4303890  87.0404586
  87.2314145  74.4777727  86.9647062  86.3656737  75.5863330  87.5245884
  87.2666473  84.0438707  86.7329229  87.2242652  84.2699553  85.8037761
  88.1829172  83.8102082  86.8815031  90.7132107  74.5122775  93.6309859
  91.0681494  74.7394248  94.4904324  91.3604238  74.8441151  93.0087114
  96.4429844  77.6341211  84.3359188  96.3047742  77.8242807  83.4080377
  96.0866062  78.3960593  84.7927239  84.6071970  71.6199306  90.4156200
  85.2471349  71.4788065  89.7179163  83.7749500  71.3333819  90.0394802
  96.4699223  79.7017738  89.3470459  96.9035730  79.6093027  90.1953513
  97.1830804  79.6775238  88.7090475  85.3832274  80.9201736  86.5291192
  86.1772872  80.4252056  86.3273767  84.6723966  80.3919599  86.1658898
  90.2027118  83.3019832  90.8803560  90.2564140  83.8710768  91.6481276
  89.3341899  83.4721717  90.5157597  83.0825511  73.0037388  92.3628011
  83.7548565  72.7954750  91.7140660  82.2555298  72.8059474  91.9233243
  97.3314773  79.7441438  91.8803345  97.5250663  80.6487249  92.1262620
  97.2315391  79.2848857  92.7141930  88.9851083  69.6299329  94.3793672
  88.3378998  70.3289278  94.2858148  89.7552099  70.0635473  94.7469920
  92.3929881  79.8948181  97.4544225  92.2415388  79.6658733  96.5374309
  92.3834561  80.8518782  97.4675570  89.1615218  77.4680094  92.4390492
  90.0907278  77.6191253  92.2659459  88.7406248  77.5564114  91.5839138
  87.9603550  81.4930758  90.2089029  87.8214635  81.1249542  91.0814967
  87.1718146  82.0078398  90.0372987  88.5551702  86.5939855  81.5514566
  88.7303457  86.1227898  82.3660188  87.8684490  87.2205621  81.7795827
  89.5108765  80.8712361  87.5977867  89.1758597  80.8313131  88.4935517
  89.0112710  80.2057077  87.1248277  83.4853009  76.2779991  93.1230448
  83.3472807  75.5460230  93.7241987  84.3957932  76.1888891  92.8414636
  86.1135309  75.9899950  92.6114128  86.8234928  75.3493142  92.5700746
  86.0704617  76.2412845  93.5340309  94.1022088  82.9267303  95.5320707
  94.0434634  82.2426524  94.8651290  94.5041606  83.6686293  95.0801333
  84.8264243  72.9765168  94.4309767  84.2901600  72.5255906  95.0831364
  84.2380952  73.1111077  93.6880232  83.1212787  89.7429217  88.3254426
  83.3609385  90.3747741  89.0033445  82.2781983  89.3917257  88.6119785
  94.1039495  80.8906887  93.7634687  93.2166274  80.5532809  93.8861086
  94.6738046  80.1589919  94.0003452  75.7568642  77.2230979  87.0877738
  76.4439682  76.9092709  86.4998753  75.6016771  78.1272344  86.8144990
  80.5603365  72.1121176  91.5162762  80.4761553  71.5046845  90.7813172
  79.7386071  72.6030194  91.5172258  87.6340649  85.5508340  90.7295930
  87.5610820  86.3563311  91.2415235  87.1918042  85.7500306  89.9043951
  87.4230428  84.7880110  84.2398751  86.6397950  85.3301790  84.3336976
  88.1223173  85.3054089  84.6392993  90.7327078  70.5974739  86.8832957
  91.2295778  69.8444702  86.5634027  89.9614060  70.6339056  86.3176166
  98.5856836  76.3015105  88.5251248  98.5746712  77.1839820  88.1545181
  97.7174215  75.9486656  88.3305785  90.0939332  85.4495174  92.8854089
  90.8067304  86.0842639  92.8129990  89.6029361  85.5459040  92.0694090
  91.8156859  79.3546426  84.4571380  90.8813138  79.4747889  84.2876085
  91.9933528  78.4518893  84.1931390  87.3162047  72.7392122  86.6104641
  86.9459835  72.1863163  87.2985547  87.8121140  72.1350256  86.0579642
  95.2029410  75.1963746  84.9921414  95.6689863  76.0291737  84.9181717
  95.6536911  74.7308727  85.6966673  85.1451246  83.1989617  93.7059659
  85.8460705  83.8326100  93.8589054  84.6746361  83.5404349  92.9455299
  93.2705642  81.5407567  81.9907566  93.5465485  81.4264162  82.9001441
  92.4010140  81.1425052  81.9519740  93.1746073  67.5644333  89.0312316
  92.2609153  67.7948560  89.1994523  93.6039175  67.6482777  89.8826348
  92.9452532  75.7534225  91.5312210  92.2923982  76.0010132  90.8764663
  93.3232912  74.9398363  91.1974687  89.9059706  85.7893918  85.6340380
  90.0882100  84.9715574  86.0968132  90.7292692  86.0061610  85.1965270
  90.2401871  84.7162103  82.8955429  90.7689637  84.2054558  82.2825591
  90.5030091  84.4004633  83.7600962  88.9940105  76.4954036  98.0178247
  88.3180742  76.3948165  98.6880622  89.8167739  76.3393250  98.4814244
  80.7418964  82.7325972  90.6390762  81.3272401  81.9869660  90.7718666
  80.5443802  83.0429929  91.5227426  83.5957619  85.7677220  85.6553204
  82.9267994  86.2523347  85.1717245  83.4570489  86.0146440  86.5696583
  87.7362888  87.8020963  92.2535863  88.2881196  87.9652585  93.0184948
  88.0769081  88.3925401  91.5815888  82.7127381  70.1496113  92.8557748
  82.7768707  71.0110944  92.4435145  82.6494501  69.5370115  92.1230106
  82.1879653  72.2219246  96.5030782  82.8151692  71.8396323  97.1168306
  81.3307572  72.0033448  96.8686474  92.5873762  82.6282221  98.1084517
  93.1313666  83.2412179  97.6139472  92.0060607  83.1861799  98.6251530
  90.8731275  85.7502939  89.2399545  90.7482414  84.9492679  88.7310491
  91.5310366  86.2449132  88.7513515  82.4939443  72.1051671  88.4176685
  81.7726029  72.7187639  88.2784159  83.2832699  72.6409436  88.3393331
  92.9366183  83.5511959  90.8679095  91.9896519  83.4317310  90.7957422
  93.2848956  82.6634457  90.9505357  85.2965757  69.4406098  94.6917337
  85.8200158  69.6868394  95.4543646  85.0778090  70.2726133  94.2720474
  89.9412617  83.3464675  87.0683447  89.7937579  82.4181382  87.2491017
  90.7666110  83.3684766  86.5840523  83.8074861  71.9982742  82.9263939
  84.1470933  72.5268663  82.2042548  84.2546981  72.3363148  83.7022506
  93.5446738  84.1693234  88.1548320  94.4693286  83.9636095  88.0172771
  93.3762042  83.9209635  89.0637662  86.5018302  70.3819793  92.3767008
  86.1615122  69.5827606  92.7787687  85.7957308  70.6821504  91.8043841
  87.1534773  67.4669105  90.8294331  87.9760843  66.9929583  90.7073221
  87.3972837  68.2459589  91.3293017  85.7943008  70.4957364  81.1257232
  86.5151370  70.8738617  80.6220949  85.1708312  71.2146241  81.2292210
  89.9374131  71.2002513  82.0615565  90.1537745  72.0827151  81.7604393
  89.4568198  70.8088726  81.3321207  84.6773352  74.1588226  88.6386309
  84.5317933  74.4728529  89.5310591  84.1998556  74.7773126  88.0857208
  86.5369735  71.1490774  88.6867199  86.5231304  70.2531867  88.3499497
  87.2542163  71.1561438  89.3205485  88.3895866  71.5828114  90.7320326
  88.1313644  72.5045185  90.7304657  87.8580906  71.1858549  91.4220790
  93.3342055  84.6878901  83.5110412  93.5078932  84.1225324  82.7584264
  93.8270946  85.4879796  83.3289901  79.1519014  76.6993570  91.5773970
  78.6072482  77.4753378  91.7094245  80.0298364  77.0464375  91.4193092
  85.9406631  70.0305154  83.9554769  86.0622542  69.1021800  84.1545656
  85.6508673  70.0443840  83.0433084  88.8097821  67.7160065  87.0921489
  88.8319518  67.7799398  86.1373468  89.2265880  66.8764573  87.2861995
  99.1881446  77.4515324  85.1300711  99.6312592  76.7022649  84.7319835
  98.3107956  77.4425461  84.7474443  94.3217227  84.0045666  80.6107310
  95.0168132  84.6252358  80.8294624  94.6640377  83.1541017  80.8859688
  79.9385036  75.8263467  94.4704127  79.1966772  75.9746102  95.0568758
  79.6177781  76.0871732  93.6070877  96.2208650  81.4545371  82.1394641
  96.7459974  81.7932644  81.4143961  96.1331003  80.5192386  81.9557775
  87.8828699  85.3679445  94.2684517  88.1915825  85.1228592  95.1407217
  88.6804181  85.5726083  93.7803387  87.9049311  87.5217354  86.4989894
  87.4654301  87.0293733  87.1922750  88.6557428  86.9790322  86.2581969
  80.3841650  83.7128895  86.5014522  81.2099670  83.4132667  86.1213165
  80.0335702  82.9436518  86.9504311  85.3523183  83.0655364  88.5712195
  84.7303192  82.4026069  88.2714423  86.0228050  83.0916495  87.8885843
  78.5850255  81.6315222  87.4603455  77.7482163  81.2037396  87.2787457
  78.5573900  81.8247665  88.3974247  85.4247711  71.5437152  98.1644701
  85.4735866  72.4199274  97.7822471  85.9670225  71.0014545  97.5916345
  95.9102556  82.0878275  97.4445839  95.1198100  82.0702414  96.9050338
  95.6735911  82.6266569  98.1994875  96.0300431  78.9370741  94.7578567
  96.0798436  78.7720749  95.6994090  95.9214355  78.0698000  94.3676448
  84.9136690  81.6159287  82.0470656  85.0624810  82.2994751  81.3937329
  85.7203133  81.5964377  82.5620112  93.3204194  74.9201669  96.0737874
  94.2214056  74.7808134  95.7821872  93.3952168  75.0856124  97.0136051
  87.6546999  72.2968524  94.9191060  86.7850308  72.5902090  94.6473649
  87.8906479  72.8808969  95.6398324  97.5318628  81.3567683  95.0020589
  97.2403436  81.7197663  95.8384050  96.9190759  80.6434691  94.8233921
  98.7314310  78.9220562  87.5223159  99.5661202  79.3610367  87.6860719
  98.8673439  78.4459216  86.7031405  95.7805816  76.4800297  93.4700647
  96.2559938  76.6727944  92.6619498  94.8571382  76.5359483  93.2244030
  90.3586033  68.5148141  92.4356481  90.8767977  69.2509168  92.1102969
  90.0041166  68.8212134  93.2703240  90.6098627  64.9348423  87.9557377
  90.8900381  64.2671612  88.5817804  91.3949234  65.1277519  87.4432041
  88.4132096  84.1107417  79.5182403  87.8406063  84.7297604  79.0652875
  88.9864889  84.6606779  80.0522325  94.4807485  73.3566057  91.7028952
  95.4324908  73.4564155  91.7241176  94.3110936  72.5644326  92.2127037
  92.5021865  70.4421641  91.8888353  91.9071797  70.7226653  91.1934842
  92.2171562  70.9315542  92.6605094  91.6329355  84.3944567  80.6490986
  92.5660028  84.3290129  80.8523861  91.5452568  85.2300834  80.1905518
  96.9595563  76.5772177  90.8171252  96.9271883  75.6388178  91.0030936
  97.5696187  76.6556214  90.0837077  97.1090052  73.3683221  90.8629535
  96.5929100  72.5841677  90.6759464  97.9930000  73.0401937  91.0276055
  94.7700779  67.1124236  86.8225348  94.5725600  66.8039324  87.7068680
  95.3800484  67.8385875  86.9523278 102.7772113  77.6388184  89.9577289
 103.5075502  77.3773472  90.5184992 102.1679059  76.9016906  89.9979357
 100.8587410  75.7796047  90.5551740 100.1320574  75.6452011  89.9468231
 100.4434697  76.0872875  91.3608458  88.6817587  79.4985976  98.3199113
  89.6020596  79.6764575  98.5139159  88.6467170  78.5542022  98.1678812
  77.8999752  74.6924570  87.2452388  77.5802536  73.8389878  86.9526762
  77.3533180  74.9073148  88.0010355  81.6779659  77.4087011  90.9621894
  81.8965669  78.3404119  90.9809928  82.0905433  77.0494985  91.7476698
  88.5983877  67.9155096  82.9497582  87.7884605  67.5702181  83.3252829
  89.2868294  67.6062640  83.5385194  90.5274425  66.9933143  84.5721879
  91.0805464  67.4128596  85.2311902  90.7644512  66.0668891  84.6144835
  86.5507524  72.9820217 100.3524643  86.4504251  73.9314574 100.2836734
  86.3329066  72.6538456  99.4800713  77.7688012  78.3127481  89.2145509
  77.0751483  77.8981434  88.7015464  78.5161003  78.3548018  88.6178928
  93.9053232  69.1033668  84.0800543  93.3251901  69.7618472  83.6978596
  93.6389165  68.2811013  83.6687961  92.3556799  68.5038726  86.2821864
  92.8556577  68.6155260  85.4736183  92.9992407  68.1999779  86.9222672
  86.4138794  76.4117355  99.1689705  85.9305876  77.2117716  99.3753594
  86.4999734  76.4225300  98.2157149  79.6824754  78.2445735  87.0911524
  79.6595442  78.3433422  86.1393407  79.9925391  79.0910886  87.4128690
  82.3412132  80.3021890  91.2058138  83.2955386  80.2705833  91.1388070
  82.1424656  79.8412514  92.0208364  82.9311514  78.8723006  93.7728936
  83.7504403  79.3667085  93.7963773  83.2048322  77.9554974  93.7446504
  92.6878110  71.2633759  83.1356892  91.8003965  71.5483409  82.9177086
  93.1032099  71.1027522  82.2884168  96.0392646  71.2880280  86.8511231
  96.8153037  71.7776732  87.1235848  95.3140781  71.7138334  87.3083100
  98.4765205  72.0007899  87.9085171  99.0709696  71.7603635  87.1978480
  98.5491789  71.2815029  88.5358708  80.6962361  85.8441510  88.2228336
  80.5616829  85.0841911  87.6566334  80.2794423  86.5682410  87.7557125
  92.6619134  76.7788294  83.3507182  92.6054335  77.2356846  82.5114814
  93.2147477  76.0178979  83.1730025  96.4723940  72.5678026  84.1757301
  96.2160874  72.1674662  85.0065509  95.8476808  73.2821820  84.0507440
 100.7836278  75.3074100  86.6828593 100.2235836  75.3767289  87.4560155
 100.1779781  75.1315084  85.9628089  83.8531487  86.7410827  88.4346779
  83.7363871  87.6856259  88.3325469  83.0323933  86.4384388  88.8232578
  93.7408021  81.4660962  79.2803372  94.5753625  81.0342161  79.0980846
  93.5792364  81.2942976  80.2080266  90.7099821  80.2741988  99.9713274
  91.5790980  80.4482640  99.6099909  90.2306572  81.0936404  99.8489003
  86.7050039  67.4701185  80.2245029  86.6928709  68.4143025  80.3813300
  87.5973461  67.2871330  79.9304491  84.8786001  87.3939089  91.6502707
  85.7813247  87.4262699  91.9669202  84.6523371  86.4639540  91.6649043
  86.6339603  86.1470075  88.3112786  85.6835234  86.1471937  88.1977158
  86.9372089  85.4002810  87.7948821  90.5202158  64.0643961  84.4790966
  89.7534554  63.5102448  84.6247648  90.9312863  64.1365830  85.3405118
  82.5243919  70.3528757  98.5696147  83.3875381  69.9965562  98.7799472
  81.9509330  70.0142652  99.2571552 102.3692296  91.9830614  89.3758548
 103.0070706  91.8637361  88.6721888 102.2513139  92.9311457  89.4346501
  99.1782003  91.9358042  89.3120073  98.8400514  91.8199106  88.4240608
 100.0471771  91.5349207  89.2921079  95.0368818  93.7893518  85.3016964
  94.4733683  93.6983455  84.5333252  94.9221213  92.9693422  85.7819457
  99.6601786  93.0892893  95.2706279  99.6490426  92.6945692  94.3986782
  99.8222425  92.3558966  95.8640050  92.5833250  95.2844710  88.1401184
  93.3754542  94.9435534  87.7247484  92.8229900  95.3939685  89.0603338
 100.6168377  97.4564486  80.6131429  99.9656357  98.0418566  80.2265443
 101.4112740  97.9870681  80.6726466  94.5424004  94.5453623  81.0118563
  95.3154880  93.9982610  80.8731439  94.8949403  95.4097872  81.2233025
  96.3809047  95.8730005  94.2185463  96.0898913  96.7775636  94.1032129
  97.0166031  95.9146533  94.9329532  97.3065254  93.2506854  90.8086822
  97.9028826  93.0262876  90.0943785  97.3640225  92.5091599  91.4112270
  96.8790282  90.7046289  78.6437013  97.1315803  90.1827810  77.8820476
  95.9414841  90.5412434  78.7463697 101.9233565  89.7082067  86.4511756
 102.7096654  89.2901491  86.1002173 102.1872269  90.6128160  86.6193405
 102.0943642  95.1454918  81.1500413 101.4589475  95.2189544  81.8621318
 101.7641049  95.7348517  80.4719492 107.3241992  89.6457301  87.3544735
 108.0567164  89.0756517  87.5882564 106.5681348  89.2578901  87.7951241
  96.5986571  92.6074395  80.8461388  96.4822829  91.9319298  81.5142472
  96.7088831  92.1206769  80.0293541  98.9418112  92.0684542  84.5508077
  98.5776319  91.5415163  85.2620999  99.7985228  91.6783011  84.3774563
 104.8467412  83.3578875  91.8139344 104.5150737  84.2274286  91.5900559
 104.2513026  83.0415159  92.4933374  98.5823599  87.0974442  79.5469426
  98.7498001  87.9654678  79.9139897  98.3920768  87.2601723  78.6230715
 101.3398932  95.5591421  91.2135256 101.0399655  96.4616459  91.1051063
 100.9949991  95.2923604  92.0656409  94.7911413  92.0105218  87.2471961
  93.8661910  91.8781432  87.4549652  95.0395826  92.7899437  87.7441903
 104.7396076  88.0773961  88.8932694 103.8312953  88.0089369  88.5991455
 104.6883671  88.5545906  89.7214519  98.5612819  89.5532099  80.5316093
  98.4412445  89.9989150  81.3701573  97.8665408  89.9017417  79.9729631
  92.1520224  91.6538491  88.0815750  92.2812605  91.9072970  88.9955161
  91.4717676  92.2466199  87.7620405  96.3219712 102.3235741  84.1806224
  96.2443741 103.2743566  84.2594705  95.7181355 101.9781614  84.8381150
  98.8136941  89.4963606  96.8367591  98.0370275  90.0557527  96.8270455
  99.4527504  89.9820389  97.3582461 106.6057722  86.2790399  90.6710568
 105.9632102  86.5722932  90.0250362 106.1012650  86.1643320  91.4763764
 104.2597886  90.0253572  81.3596427 105.1715742  90.2580959  81.1844124
 103.7507533  90.6090617  80.7971505  97.0683314  92.3049060  96.3985558
  97.8097998  92.8434104  96.1220381  96.3620299  92.9315349  96.5557110
 102.5438653  94.4478200  94.9957719 102.9522009  94.0060611  94.2512352
 101.8215915  93.8730828  95.2491912  98.8969723  89.3850807  92.3691276
  99.7430919  89.8090221  92.5125925  98.8368361  88.7284431  93.0629839
 102.8667468  95.0079391  88.7510008 102.2376330  95.1725105  88.0486076
 102.4793130  95.4221000  89.5220972 106.7456700  95.9433829  86.1054372
 106.0607738  96.3232730  85.5551405 106.8300549  96.5529155  86.8386320
 102.0469169  87.0455175  94.0272450 101.8030101  87.7997236  93.4906726
 102.3229099  87.4240523  94.8619697 104.0007631  93.5893788  92.7049716
 104.2124527  94.2325548  92.0284097 103.9537380  92.7556104  92.2371646
 101.6033860  86.2011608  89.6086288 100.7418339  86.4992862  89.9003025
 101.6296295  86.4182007  88.6767320  98.4195430  94.7453799  86.0160093
  98.8833775  95.0241502  85.2264716  98.1552228  93.8437244  85.8333184
  95.3119511  94.2925281  88.9539857  95.8820868  94.7212549  88.3157341
  95.9027623  94.0107865  89.6524042  97.3564316  90.8676951  82.8249658
  98.0588359  91.3197995  83.2923585  97.0244944  90.2260770  83.4529552
  95.8044677  89.4588708  97.2000868  95.1743338  90.1404989  97.4336265
  95.6980765  89.3471790  96.2554006  91.0989650  89.1260504  88.1266792
  90.3088704  89.3818033  87.6506903  91.5900897  89.9408842  88.2318833
 105.1153459  96.4665743  90.8772073 105.9370903  96.0645930  90.5954754
 105.1115862  96.3633977  91.8288189  93.0504395  89.4905083  85.0850269
  92.2535558  89.6023778  85.6033764  92.8229987  89.8291735  84.2191159
  98.8810063  96.0149786  93.0332783  98.9454495  96.4770194  93.8690955
  98.1720987  95.3847151  93.1615093  89.3827353  89.3790994  90.5581783
  89.6335391  90.2638004  90.8239359  89.9186901  89.1995596  89.7856875
 113.2059452  92.8104492  87.2257044 112.4523161  92.2411890  87.0701049
 113.3406994  92.7767156  88.1727679  98.5958080  97.6817894  82.9011764
  98.4603755  98.5269430  83.3296611  99.1367893  97.8837172  82.1377697
  95.0825420  83.7609474  99.5626119  94.6892366  83.2075672 100.2373763
  95.8991560  84.0720052  99.9532636  92.0487478  95.1993332  83.4739689
  92.5611998  95.9936582  83.6245253  92.7010191  94.5019622  83.4073290
  93.8582363  98.3159088  85.5562442  94.0348991  99.2377053  85.3683426
  94.6539196  98.0017507  85.9856822  97.9993381  85.1767353  97.1546375
  98.7403094  85.7774506  97.0750838  98.2311304  84.4344991  96.5964418
  93.1434719  90.3623720  95.4324605  93.0288234  89.4608977  95.7331704
  92.2879237  90.6087417  95.0809422 100.2226557  98.3041460  97.0312106
  99.7790411  97.5177839  96.7133010 100.8843770  98.4920611  96.3655997
  94.9813678  99.8337262  91.5572784  95.5321103  99.7054325  90.7849778
  94.1425154 100.1332151  91.2067677 102.3207795  98.5844260  95.0593507
 102.3026270  99.4053141  94.5673776 103.2427715  98.4598336  95.2843648
  98.7780849  96.0988390  95.9017015  99.3109186  95.3376678  95.6716323
  98.2494930  95.8062042  96.6441170 101.9450544  81.2048456  91.4310657
 101.6014813  82.0950098  91.3549768 102.3129507  81.0150113  90.5680242
  90.0136395  93.5281986  84.2499259  90.8511617  93.9378995  84.0332967
  90.1914662  92.5881428  84.2199453 101.9100827  91.1957067  79.9383092
 101.3947450  91.9661672  80.1771480 101.6378135  90.5222203  80.5616154
  99.4947938  86.0406768  84.9968331  98.6389534  85.6513618  84.8173969
  99.9074890  86.1198729  84.1368116 101.0247084  83.5753111  89.3959890
 100.5211880  83.5383246  88.5827696 101.3177691  84.4845854  89.4556547
  97.2689970  83.6591841  88.4026072  98.1342967  83.4634649  88.0431962
  97.3367479  83.4302192  89.3295429 106.8835101  93.9489422  81.8736266
 106.1064544  93.6100581  81.4291428 107.5626582  93.9542045  81.1991231
 101.6987130  89.0684159  81.7642873 101.3937266  89.3830308  82.6153017
 102.6517572  89.1465579  81.8070206 100.1433562  95.2274382  83.4135827
  99.6154923  94.4927142  83.1009065  99.6421065  96.0049059  83.1675796
 105.1226408  93.4223403  88.5302874 104.4650082  94.1122664  88.6183002
 105.9266807  93.8119835  88.8736860  94.8752289  85.8894049  85.7742439
  95.4496041  85.6669230  85.0415632  95.4623272  85.9582743  86.5271040
 103.9331867  91.7767776  86.5806815 104.4463748  92.4097767  87.0828525
 104.5833090  91.1768971  86.2150175  95.2021877  87.9198510  79.7938324
  94.3659189  88.2573196  80.1147599  95.0626646  87.7847489  78.8565461
  97.1774957  82.7635298  84.5017508  96.5239369  82.4484315  83.8774123
  97.1355431  82.1411038  85.2277331  98.2886162  93.0454593  76.4170800
  97.3813224  92.8143846  76.6161949  98.7857194  92.2492212  76.6044782
 101.1954241 101.7552100  79.3367487 100.5215940 102.0583797  79.9452444
 101.5820063 102.5581180  78.9872944 100.4112697  89.2517231  88.8265156
  99.4935259  89.4732178  88.6686844 100.8272841  89.3263542  87.9676863
 101.1947745  90.6508647  83.9567836 101.9419564  91.1630044  83.6474958
 101.4639335  90.3292699  84.8172230  99.4674395  93.1467187  80.9394791
  98.5585615  92.8626220  81.0367260  99.4969479  93.5666266  80.0798097
 104.6993663  96.7573777  84.7085958 104.2455990  95.9164687  84.7651149
 104.0687630  97.3935175  85.0460738 103.6426582  87.6865763  85.9386626
 102.9049339  87.1743149  86.2696868 103.8953356  87.2466145  85.1269902
 103.1426602  98.5950274  85.6435776 103.4349576  99.1555331  84.9248142
 103.6525223  98.8878835  86.3988935 103.7438210  80.4642015  86.5328395
 104.0497087  79.6039378  86.2454310 104.4690815  81.0559635  86.3327389
  90.0362566  90.8672702  84.9209993  89.8386966  90.2742062  84.1961059
  89.4809230  90.5624912  85.6385932  98.0159289  90.7595808  87.0404586
  98.0707899  89.8069645  86.9647062  97.2050491  90.9155247  87.5245884
  99.1650483  94.6875931  78.2782869  98.7269913  93.9711790  77.8188506
  99.9060924  94.9152046  77.7167961  95.9551649  89.3772868  84.7994965
  95.1419515  89.6767038  85.2060157  96.4510644  88.9828557  85.5169447
  98.1060227  99.3730625  86.7329229  98.0636406  99.5991471  85.8037761
  99.0222926  99.1393999  86.8815031 101.5525861  89.8414692  93.6309859
 101.9075249  90.0686165  94.4904324 102.1997992  90.1733069  93.0087114
 107.2823598  92.9633128  84.3359188 107.1441497  93.1534724  83.4080377
 106.9259817  93.7252511  84.7927239  95.4465724  86.9491223  90.4156200
  96.0865103  86.8079982  89.7179163  94.6143255  86.6625737  90.0394802
 107.3092978  95.0309655  89.3470459 107.7429484  94.9384944  90.1953513
 108.0224558  95.0067156  88.7090475  96.2226028  96.2493654  86.5291192
  97.0166627  95.7543974  86.3273767  95.5117720  95.7211517  86.1658898
 101.0420873  98.6311749  90.8803560 101.0957895  99.2002686  91.6481276
 100.1735654  98.8013634  90.5157597  92.5308792  90.3936736  82.6050945
  91.6006380  90.3321191  82.8220907  92.6266263  89.8712688  81.8087586
  92.4494341  86.9191548  85.1929187  92.7101158  87.8336882  85.0838347
  93.2711513  86.4515991  85.3425799  93.9219266  88.3329306  92.3628011
  94.5942319  88.1246668  91.7140660  93.0949052  88.1351392  91.9233243
 108.1708527  95.0733356  91.8803345 108.3644417  95.9779166  92.1262620
 108.0709145  94.6140775  92.7141930  99.8244838  84.9591246  94.3793672
  99.1772753  85.6581196  94.2858148 100.5945853  85.3927390  94.7469920
 103.2323636  95.2240099  97.4544225 103.0809142  94.9950650  96.5374309
 103.2228315  96.1810700  97.4675570 100.0008972  92.7972011  92.4390492
 100.9301032  92.9483171  92.2659459  99.5800002  92.8856032  91.5839138
  98.7997304  96.8222676  90.2089029  98.6608390  96.4541460  91.0814967
  98.0111900  97.3370315  90.0372987  99.3945456 101.9231772  81.5514566
  99.5697212 101.4519815  82.3660188  98.7078244 102.5497538  81.7795827
 100.3502519  96.2004278  87.5977867 100.0152352  96.1605048  88.4935517
  99.8506465  95.5348994  87.1248277  94.3246763  91.6071908  93.1230448
  94.1866561  90.8752147  93.7241987  95.2351687  91.5180809  92.8414636
 103.2861711  93.5460313  77.8714927 102.6690881  92.8207141  77.7747979
 102.8178199  94.3069673  77.5282001  96.9529064  91.3191868  92.6114128
  97.6628682  90.6785060  92.5700746  96.9098372  91.5704763  93.5340309
 104.9415842  98.2559221  95.5320707 104.8828389  97.5718441  94.8651290
 105.3435361  98.9978211  95.0801333  95.6657998  88.3057086  94.4309767
  95.1295355  87.8547824  95.0831364  95.0774706  88.4402995  93.6880232
  93.9606541 105.0721135  88.3254426  94.2003140 105.7039659  89.0033445
  93.1175738 104.7209175  88.6119785  95.0760257  87.7645737  76.9936231
  94.1989723  87.6434538  76.6298478  95.5518010  86.9731815  76.7415120
 104.9433250  96.2198805  93.7634687 104.0560029  95.8824727  93.8861086
 105.5131801  95.4881836  94.0003452  86.5962397  92.5522897  87.0877738
  87.2833437  92.2384627  86.4998753  86.4410526  93.4564261  86.8144990
  91.3997119  87.4413093  91.5162762  91.3155308  86.8338763  90.7813172
  90.5779825  87.9322112  91.5172258  98.4734403 100.8800257  90.7295930
  98.4004575 101.6855229  91.2415235  98.0311796 101.0792223  89.9043951
  98.2624183 100.1172027  84.2398751  97.4791705 100.6593708  84.3336976
  98.9616928 100.6346007  84.6392993 101.5720833  85.9266657  86.8832957
 102.0689532  85.1736619  86.5634027 100.8007814  85.9630974  86.3176166
 109.4250590  91.6307022  88.5251248 109.4140467  92.5131738  88.1545181
 108.5567970  91.2778573  88.3305785 100.9333087 100.7787091  92.8854089
 101.6461059 101.4134556  92.8129990 100.4423115 100.8750957  92.0694090
 102.6550614  94.6838344  84.4571380 101.7206892  94.8039807  84.2876085
 102.8327282  93.7810811  84.1931390  98.1555802  88.0684040  86.6104641
  97.7853589  87.5155080  87.2985547  98.6514894  87.4642173  86.0579642
 106.0423165  90.5255663  84.9921414 106.5083617  91.3583655  84.9181717
 106.4930665  90.0600645  85.6966673  95.9845000  98.5281535  93.7059659
  96.6854460  99.1618018  93.8589054  95.5140115  98.8696266  92.9455299
 104.1099396  96.8699485  81.9907566 104.3859240  96.7556079  82.9001441
 103.2403895  96.4716970  81.9519740 104.0139828  82.8936250  89.0312316
 103.1002907  83.1240477  89.1994523 104.4432929  82.9774694  89.8826348
 103.7846286  91.0826142  91.5312210 103.1317736  91.3302050  90.8764663
 104.1626666  90.2690281  91.1974687 100.7453460 101.1185836  85.6340380
 100.9275855 100.3007492  86.0968132 101.5686446 101.3353528  85.1965270
 101.0795626 100.0454021  82.8955429 101.6083392  99.5346475  82.2825591
 101.3423845  99.7296551  83.7600962  99.8333859  91.8245953  98.0178247
  99.1574496  91.7240083  98.6880622 100.6561493  91.6685167  98.4814244
  91.5812718  98.0617890  90.6390762  92.1666155  97.3161578  90.7718666
  91.3837557  98.3721847  91.5227426  94.4351373 101.0969137  85.6553204
  93.7661749 101.5815265  85.1717245  94.2964243 101.3438358  86.5696583
  86.1730373  90.6323490  89.3595205  86.2114473  90.0987081  90.1532323
  85.6670666  90.1058696  88.7406182  98.5756642 103.1312881  92.2535863
  99.1274950 103.2944502  93.0184948  98.9162836 103.7217319  91.5815888
  93.5521135  85.4788031  92.8557748  93.6162462  86.3402862  92.4435145
  93.4888256  84.8662032  92.1230106  93.0273408  87.5511163  96.5030782
  93.6545447  87.1688241  97.1168306  92.1701327  87.3325365  96.8686474
  89.8038951  89.3587592  82.4349137  90.0992392  88.4498271  82.3816190
  88.9026986  89.3375332  82.1130139 101.7125029 101.0794856  89.2399545
 101.5876169 100.2784596  88.7310491 102.3704120 101.5741050  88.7513515
  93.3333198  87.4343589  88.4176685  92.6119783  88.0479557  88.2784159
  94.1226453  87.9701354  88.3393331 103.7759938  98.8803877  90.8679095
 102.8290273  98.7609228  90.7957422 104.1242711  97.9926375  90.9505357
  96.1359511  84.7698015  94.6917337  96.6593913  85.0160312  95.4543646
  95.9171844  85.6018050  94.2720474  91.5326792  87.0401690  82.5588462
  91.2039498  86.1599069  82.3763568  91.8866163  86.9849359  83.4464851
 100.7806371  98.6756593  87.0683447 100.6331333  97.7473300  87.2491017
 101.6059865  98.6976683  86.5840523  94.6468615  87.3274660  82.9263939
  94.9864688  87.8560581  82.2042548  95.0940736  87.6655066  83.7022506
 104.3840493  99.4985151  88.1548320 105.3087040  99.2928013  88.0172771
 104.2155796  99.2501553  89.0637662  97.3412056  85.7111711  92.3767008
  97.0008877  84.9119524  92.7787687  96.6351062  86.0113421  91.8043841
  97.9928528  82.7961023  90.8294331  98.8154597  82.3221501  90.7073221
  98.2366592  83.5751507  91.3293017  96.6336762  85.8249281  81.1257232
  97.3545125  86.2030534  80.6220949  96.0102067  86.5438158  81.2292210
 100.7767885  86.5294430  82.0615565 100.9931500  87.4119068  81.7604393
 100.2961952  86.1380644  81.3321207  95.5167107  89.4880144  88.6386309
  95.3711687  89.8020447  89.5310591  95.0392310  90.1065044  88.0857208
  97.3763490  86.4782692  88.6867199  97.3625058  85.5823785  88.3499497
  98.0935918  86.4853355  89.3205485  99.2289620  86.9120032  90.7320326
  98.9707398  87.8337102  90.7304657  98.6974661  86.5150466  91.4220790
 104.1735809 100.0170819  83.5110412 104.3472687  99.4517241  82.7584264
 104.6664700 100.8171714  83.3289901  89.9912769  92.0285488  91.5773970
  89.4466237  92.8045296  91.7094245  90.8692119  92.3756292  91.4193092
  96.7800386  85.3597072  83.9554769  96.9016297  84.4313718  84.1545656
  96.4902428  85.3735758  83.0433084  99.6491576  83.0451982  87.0921489
  99.6713273  83.1091315  86.1373468 100.0659635  82.2056491  87.2861995
 110.0275200  92.7807242  85.1300711 110.4706346  92.0314567  84.7319835
 109.1501711  92.7717378  84.7474443 105.1610982  99.3337583  80.6107310
 105.8561886  99.9544276  80.8294624 105.5034132  98.4832935  80.8859688
  90.7778791  91.1555384  94.4704127  90.0360527  91.3038020  95.0568758
  90.4571535  91.4163650  93.6070877 107.0602405  96.7837289  82.1394641
 107.5853729  97.1224562  81.4143961 106.9724757  95.8484304  81.9557775
  98.7222453 100.6971362  94.2684517  99.0309580 100.4520509  95.1407217
  99.5197935 100.9018001  93.7803387  98.7443065 102.8509272  86.4989894
  98.3048056 102.3585651  87.1922750  99.4951182 102.3082240  86.2581969
  91.2235404  99.0420813  86.5014522  92.0493424  98.7424585  86.1213165
  90.8729456  98.2728435  86.9504311  96.1916938  98.3947281  88.5712195
  95.5696947  97.7317986  88.2714423  96.8621804  98.4208413  87.8885843
  89.4244009  96.9607139  87.4603455  88.5875918  96.5329314  87.2787457
  89.3967655  97.1539583  88.3974247  96.2641465  86.8729069  98.1644701
  96.3129621  87.7491192  97.7822471  96.8063979  86.3306462  97.5916345
 106.8694186  94.2662659  94.7578567 106.9192191  94.1012666  95.6994090
 106.7608109  93.3989918  94.3676448  95.7530444  96.9451205  82.0470656
  95.9018565  97.6286669  81.3937329  96.5596888  96.9256295  82.5620112
 104.1597948  90.2493587  96.0737874 105.0607811  90.1100052  95.7821872
 104.2345923  90.4148042  97.0136051  98.4940754  87.6260442  94.9191060
  97.6244063  87.9194008  94.6473649  98.7300234  88.2100887  95.6398324
 108.3712383  96.6859600  95.0020589 108.0797191  97.0489581  95.8384050
 107.7584514  95.9726609  94.8233921 109.5708065  94.2512480  87.5223159
 110.4054956  94.6902284  87.6860719 109.7067194  93.7751133  86.7031405
 106.6199571  91.8092215  93.4700647 107.0953692  92.0019861  92.6619498
 105.6965136  91.8651401  93.2244030  93.5083077  92.9716382  83.0531725
  93.2629119  92.0678712  83.2511935  93.6778992  92.9733533  82.1111203
 101.1979787  83.8440059  92.4356481 101.7161731  84.5801085  92.1102969
 100.8434920  84.1504052  93.2703240  92.7778725  88.7044740  80.5517886
  92.0847970  88.7789095  79.8957922  92.5330477  87.9405083  81.0739403
 101.4492382  80.2640341  87.9557377 101.7294135  79.5963530  88.5817804
 102.2342988  80.4569437  87.4432041  99.2525850  99.4399335  79.5182403
  98.6799817 100.0589522  79.0652875  99.8258644  99.9898697  80.0522325
 105.3201240  88.6857975  91.7028952 106.2718663  88.7856073  91.7241176
 105.1504690  87.8936244  92.2127037 103.3415619  85.7713558  91.8888353
 102.7465551  86.0518571  91.1934842 103.0565316  86.2607459  92.6605094
 102.4723110  99.7236485  80.6490986 103.4053783  99.6582047  80.8523861
 102.3846323 100.5592752  80.1905518 105.1011126  99.0402355  77.6094933
 105.0224758  98.7062219  78.5030691 105.9220793  99.5324123  77.6086406
 107.7989318  91.9064095  90.8171252 107.7665638  90.9680096  91.0030936
 108.4089941  91.9848131  90.0837077  99.6372649  90.7760148  76.8598456
 100.5831753  90.6466356  76.9286874  99.2586893  90.0374810  77.3367884
 107.9483806  88.6975138  90.8629535 107.4322855  87.9133595  90.6759464
 108.8323755  88.3693855  91.0276055 105.6094533  82.4416154  86.8225348
 105.4119354  82.1331242  87.7068680 106.2194239  83.1677793  86.9523278
 113.6165868  92.9680102  89.9577289 114.3469256  92.7065390  90.5184992
 113.0072813  92.2308824  89.9979357 111.6981165  91.1087964  90.5551740
 110.9714328  90.9743929  89.9468231 111.2828452  91.4164793  91.3608458
  99.5211341  94.8277894  98.3199113 100.4414351  95.0056493  98.5139159
  99.4860924  93.8833939  98.1678812  97.8215566  88.7010124  76.7953341
  96.9147021  88.4043237  76.8716055  98.0991547  88.4039942  75.9287627
  88.7393506  90.0216488  87.2452388  88.4196290  89.1681796  86.9526762
  88.1926934  90.2365066  88.0010355  92.5173414  92.7378929  90.9621894
  92.7359423  93.6696036  90.9809928  92.9299187  92.3786903  91.7476698
  99.4377631  83.2447014  82.9497582  98.6278360  82.8994099  83.3252829
 100.1262048  82.9354558  83.5385194 101.3668180  82.3225061  84.5721879
 101.9199218  82.7420514  85.2311902 101.6038266  81.3960809  84.6144835
  97.3901279  88.3112134 100.3524643  97.2898006  89.2606491 100.2836734
  97.1722821  87.9830373  99.4800713  96.5914350  85.5597059  76.9365320
  97.4533514  85.8851958  77.1961138  96.7764694  84.7728555  76.4238386
  88.6081766  93.6419399  89.2145509  87.9145237  93.2273352  88.7015464
  89.3554757  93.6839936  88.6178928 104.7446987  84.4325586  84.0800543
 104.1645656  85.0910390  83.6978596 104.4782919  83.6102930  83.6687961
 103.1950553  83.8330644  86.2821864 103.6950332  83.9447178  85.4736183
 103.8386161  83.5291696  86.9222672  97.2532549  91.7409273  99.1689705
  96.7699631  92.5409633  99.3753594  97.3393488  91.7517218  98.2157149
  90.5218509  93.5737653  87.0911524  90.4989197  93.6725340  86.1393407
  90.8319145  94.4202804  87.4128690  93.1805886  95.6313808  91.2058138
  94.1349140  95.5997750  91.1388070  92.9818410  95.1704432  92.0208364
  93.7705269  94.2014924  93.7728936  94.5898158  94.6959003  93.7963773
  94.0442076  93.2846892  93.7446504 103.5271865  86.5925676  83.1356892
 102.6397720  86.8775327  82.9177086 103.9425854  86.4319440  82.2884168
 106.8786401  86.6172197  86.8511231 107.6546791  87.1068650  87.1235848
 106.1534535  87.0430251  87.3083100 109.3158960  87.3299816  87.9085171
 109.9103450  87.0895552  87.1978480 109.3885543  86.6106947  88.5358708
  91.5356115 101.1733427  88.2228336  91.4010583 100.4133828  87.6566334
  91.1188178 101.8974327  87.7557125 102.6715078  96.3570351  77.2304912
 103.3750928  96.5620353  77.8462567 101.9477727  96.9247113  77.4953995
 103.5012889  92.1080212  83.3507182 103.4448090  92.5648764  82.5114814
 104.0541231  91.3470897  83.1730025 107.3117694  87.8969944  84.1757301
 107.0554629  87.4966580  85.0065509 106.6870562  88.6113738  84.0507440
 111.6230032  90.6366017  86.6828593 111.0629590  90.7059207  87.4560155
 111.0173536  90.4607002  85.9628089  94.6925241 102.0702744  88.4346779
  94.5757625 103.0148177  88.3325469  93.8717687 101.7676306  88.8232578
 104.5801776  96.7952880  79.2803372 105.4147380  96.3634079  79.0980846
 104.4186119  96.6234894  80.2080266 104.2347668  93.2984993  80.6459711
 104.1796472  93.1329265  79.7048155 103.6093723  94.0061026  80.8021901
  89.0240183  88.5353058  94.4721133  89.6699046  88.0252012  94.9608358
  88.8157334  89.2721739  95.0464558  97.5443793  82.7993102  80.2245029
  97.5322463  83.7434942  80.3813300  98.4367215  82.6163248  79.9304491
  95.7179755 102.7231006  91.6502707  96.6207002 102.7554617  91.9669202
  95.4917125 101.7931457  91.6649043  97.4733357 101.4761993  88.3112786
  96.5228988 101.4763854  88.1977158  97.7765843 100.7294727  87.7948821
 101.3595913  79.3935879  84.4790966 100.5928309  78.8394366  84.6247648
 101.7706618  79.4657748  85.3405118  93.3637674  85.6820675  98.5696147
  94.2269135  85.3257480  98.7799472  92.7903084  85.3434570  99.2571552
 110.0175757 107.2649959  89.3120073 109.6794269 107.1491024  88.4240608
 110.8865525 106.8641124  89.2921079 105.8762573 109.1185436  85.3016964
 105.3127438 109.0275373  84.5333252 105.7614968 108.2985340  85.7819457
 103.4227005 110.6136627  88.1401184 104.2148297 110.2727452  87.7247484
 103.6623655 110.7231602  89.0603338 105.3817759 109.8745541  81.0118563
 106.1548635 109.3274528  80.8731439 105.7343157 110.7389790  81.2233025
 107.7184036 106.0338207  78.6437013 107.9709557 105.5119728  77.8820476
 106.7808596 105.8704352  78.7463697 112.7627319 105.0373985  86.4511756
 113.5490408 104.6193408  86.1002173 113.0266024 105.9420077  86.6193405
 112.9337397 110.4746835  81.1500413 112.2983230 110.5481462  81.8621318
 112.6034803 111.0640434  80.4719492 118.1635746 104.9749218  87.3544735
 118.8960918 104.4048435  87.5882564 117.4075102 104.5870819  87.7951241
 107.4380325 107.9366313  80.8461388 107.3216583 107.2611216  81.5142472
 107.5482585 107.4498687  80.0293541 109.7811866 107.3976460  84.5508077
 109.4170073 106.8707081  85.2620999 110.6378982 107.0074929  84.3774563
 115.6861167  98.6870792  91.8139344 115.3544492  99.5566203  91.5900559
 115.0906780  98.3707076  92.4933374 109.4217353 102.4266359  79.5469426
 109.5891755 103.2946596  79.9139897 109.2314522 102.5893641  78.6230715
 105.6305168 107.3397135  87.2471961 104.7055664 107.2073349  87.4549652
 105.8789581 108.1191354  87.7441903 109.4006574 104.8824017  80.5316093
 109.2806199 105.3281068  81.3701573 108.7059162 105.2309335  79.9729631
 102.9913979 106.9830409  88.0815750 103.1206360 107.2364888  88.9955161
 102.3111430 107.5758117  87.7620405 115.0991640 105.3545490  81.3596427
 116.0109496 105.5872877  81.1844124 114.5901287 105.9382534  80.7971505
 112.4427615 101.5303526  89.6086288 111.5812094 101.8284780  89.9003025
 112.4690050 101.7473925  88.6767320 109.2589184 110.0745717  86.0160093
 109.7227530 110.3533420  85.2264716 108.9945982 109.1729161  85.8333184
 106.1513265 109.6217198  88.9539857 106.7214622 110.0504467  88.3157341
 106.7421377 109.3399783  89.6524042 108.1958070 106.1968869  82.8249658
 108.8982114 106.6489913  83.2923585 107.8638699 105.5552688  83.4529552
 101.9383404 104.4552422  88.1266792 101.1482458 104.7109950  87.6506903
 102.4294652 105.2700760  88.2318833 103.8898150 104.8197001  85.0850269
 103.0929313 104.9315695  85.6033764 103.6623742 105.1583653  84.2191159
 100.2221107 104.7082912  90.5581783 100.4729146 105.5929922  90.8239359
 100.7580656 104.5287514  89.7856875 109.4351835 113.0109812  82.9011764
 109.2997510 113.8561347  83.3296611 109.9761647 113.2129089  82.1377697
 102.8881232 110.5285250  83.4739689 103.4005753 111.3228500  83.6245253
 103.5403945 109.8311540  83.4073290 104.6976117 113.6451006  85.5562442
 104.8742745 114.5668971  85.3683426 105.4932951 113.3309425  85.9856822
 112.7844299  96.5340374  91.4310657 112.4408568  97.4242015  91.3549768
 113.1523261  96.3442031  90.5680242 100.8530149 108.8573904  84.2499259
 101.6905371 109.2670912  84.0332967 101.0308417 107.9173346  84.2199453
 112.7494581 106.5248985  79.9383092 112.2341205 107.2953589  80.1771480
 112.4771890 105.8514121  80.5616154 110.3341692 101.3698685  84.9968331
 109.4783289 100.9805536  84.8173969 110.7468644 101.4490646  84.1368116
 111.8640839  98.9045029  89.3959890 111.3605635  98.8675164  88.5827696
 112.1571446  99.8137771  89.4556547 108.1083725  98.9883758  88.4026072
 108.9736722  98.7926567  88.0431962 108.1761234  98.7594110  89.3295429
 112.5380884 104.3976077  81.7642873 112.2331020 104.7122226  82.6153017
 113.4911327 104.4757497  81.8070206 110.9827316 110.5566300  83.4135827
 110.4548678 109.8219060  83.1009065 110.4814819 111.3340976  83.1675796
 105.7146044 101.2185966  85.7742439 106.2889796 100.9961148  85.0415632
 106.3017026 101.2874661  86.5271040 114.7725621 107.1059693  86.5806815
 115.2857503 107.7389685  87.0828525 115.4226845 106.5060889  86.2150175
 106.0415631 103.2490427  79.7938324 105.2052943 103.5865114  80.1147599
 105.9020401 103.1139407  78.8565461 108.0168712  98.0927215  84.5017508
 107.3633124  97.7776232  83.8774123 107.9749186  97.4702956  85.2277331
 109.1279916 108.3746510  76.4170800 108.2206978 108.1435764  76.6161949
 109.6250948 107.5784130  76.6044782 111.2506452 104.5809149  88.8265156
 110.3329013 104.8024096  88.6686844 111.6666596 104.6555459  87.9676863
 112.0341500 105.9800564  83.9567836 112.7813319 106.4921962  83.6474958
 112.3033089 105.6584617  84.8172230 110.3068150 108.4759105  80.9394791
 109.3979369 108.1918138  81.0367260 110.3363234 108.8958184  80.0798097
 114.4820337 103.0157681  85.9386626 113.7443094 102.5035067  86.2696868
 114.7347110 102.5758062  85.1269902 114.5831964  95.7933933  86.5328395
 114.8890841  94.9331296  86.2454310 115.3084569  96.3851553  86.3327389
 100.8756320 106.1964619  84.9209993 100.6780720 105.6033980  84.1961059
 100.3202984 105.8916829  85.6385932 108.8553044 106.0887726  87.0404586
 108.9101654 105.1361562  86.9647062 108.0444246 106.2447165  87.5245884
 110.0044238 110.0167849  78.2782869 109.5663668 109.3003708  77.8188506
 110.7454679 110.2443964  77.7167961 106.7945404 104.7064786  84.7994965
 105.9813269 105.0058956  85.2060157 107.2904398 104.3120474  85.5169447
 106.2859479 102.2783141  90.4156200 106.9258858 102.1371900  89.7179163
 105.4537009 101.9917654  90.0394802 107.0619783 111.5785571  86.5291192
 107.8560381 111.0835892  86.3273767 106.3511475 111.0503435  86.1658898
 103.3702546 105.7228653  82.6050945 102.4400134 105.6613109  82.8220907
 103.4660018 105.2004606  81.8087586 103.2888095 102.2483466  85.1929187
 103.5494912 103.1628799  85.0838347 104.1105267 101.7807909  85.3425799
 104.7613020 103.6621223  92.3628011 105.4336074 103.4538585  91.7140660
 103.9342807 103.4643309  91.9233243 114.1255465 108.8752230  77.8714927
 113.5084636 108.1499059  77.7747979 113.6571954 109.6361591  77.5282001
 105.9154011 103.0937655  76.9936231 105.0383478 102.9726456  76.6298478
 106.3911764 102.3023733  76.7415120  97.4356151 107.8814815  87.0877738
  98.1227191 107.5676545  86.4998753  97.2804280 108.7856179  86.8144990
 102.2390874 102.7705011  91.5162762 102.1549062 102.1630681  90.7813172
 101.4173580 103.2614029  91.5172258 112.4114587 101.2558575  86.8832957
 112.9083287 100.5028537  86.5634027 111.6401569 101.2922891  86.3176166
 113.4944368 110.0130262  84.4571380 112.5600647 110.1331724  84.2876085
 113.6721037 109.1102729  84.1931390 108.9949556 103.3975958  86.6104641
 108.6247344 102.8446998  87.2985547 109.4908649 102.7934091  86.0579642
 116.8816919 105.8547581  84.9921414 117.3477372 106.6875573  84.9181717
 117.3324420 105.3892563  85.6966673 114.8533582  98.2228168  89.0312316
 113.9396662  98.4532395  89.1994523 115.2826684  98.3066612  89.8826348
  97.0124127 105.9615408  89.3595205  97.0508227 105.4278999  90.1532323
  96.5064420 105.4350613  88.7406182 104.3914890 100.8079948  92.8557748
 104.4556216 101.6694779  92.4435145 104.3282010 100.1953950  92.1230106
 100.6432705 104.6879510  82.4349137 100.9386146 103.7790188  82.3816190
  99.7420741 104.6667249  82.1130139 104.1726952 102.7635507  88.4176685
 103.4513538 103.3771474  88.2784159 104.9620208 103.2993271  88.3393331
 102.3720547 102.3693608  82.5588462 102.0433253 101.4890987  82.3763568
 102.7259917 102.3141276  83.4464851 105.4862370 102.6566577  82.9263939
 105.8258442 103.1852499  82.2042548 105.9334490 102.9946984  83.7022506
 108.1805811 101.0403628  92.3767008 107.8402631 100.2411441  92.7787687
 107.4744817 101.3405339  91.8043841 108.8322282  98.1252941  90.8294331
 109.6548352  97.6513419  90.7073221 109.0760346  98.9043424  91.3293017
 107.4730517 101.1541199  81.1257232 108.1938879 101.5322452  80.6220949
 106.8495821 101.8730076  81.2292210 111.6161640 101.8586348  82.0615565
 111.8325254 102.7410986  81.7604393 111.1355707 101.4672561  81.3321207
 106.3560861 104.8172061  88.6386309 106.2105442 105.1312364  89.5310591
 105.8786065 105.4356962  88.0857208 108.2157244 101.8074609  88.6867199
 108.2018813 100.9115703  88.3499497 108.9329672 101.8145273  89.3205485
 110.0683375 102.2411949  90.7320326 109.8101153 103.1629020  90.7304657
 109.5368415 101.8442384  91.4220790 100.8306523 107.3577406  91.5773970
 100.2859991 108.1337214  91.7094245 101.7085873 107.7048210  91.4193092
 107.6194140 100.6888990  83.9554769 107.7410051  99.7605636  84.1545656
 107.3296182 100.7027676  83.0433084 110.4885330  98.3743900  87.0921489
 110.5107027  98.4383233  86.1373468 110.9053389  97.5348409  87.2861995
 102.0629159 114.3712731  86.5014522 102.8887179 114.0716503  86.1213165
 101.7123211 113.6020353  86.9504311 100.2637764 112.2899057  87.4603455
  99.4269672 111.8621231  87.2787457 100.2361409 112.4831500  88.3974247
 106.5924199 112.2743122  82.0470656 106.7412319 112.9578587  81.3937329
 107.3990642 112.2548212  82.5620112 104.3476832 108.3008300  83.0531725
 104.1022874 107.3970630  83.2511935 104.5172747 108.3025450  82.1111203
 112.0373542  99.1731976  92.4356481 112.5555486  99.9093003  92.1102969
 111.6828675  99.4795970  93.2703240 103.6172480 104.0336657  80.5517886
 102.9241724 104.1081012  79.8957922 103.3724231 103.2697001  81.0739403
 112.2886136  95.5932259  87.9557377 112.5687890  94.9255448  88.5817804
 113.0736743  95.7861354  87.4432041 110.4766403 106.1052065  76.8598456
 111.4225508 105.9758274  76.9286874 110.0980648 105.3666727  77.3367884
 116.4488288  97.7708071  86.8225348 116.2513109  97.4623160  87.7068680
 117.0587993  98.4969710  86.9523278 108.6609320 104.0302042  76.7953341
 107.7540776 103.7335155  76.8716055 108.9385301 103.7331860  75.9287627
  99.5787261 105.3508405  87.2452388  99.2590045 104.4973713  86.9526762
  99.0320689 105.5656983  88.0010355 103.3567168 108.0670846  90.9621894
 103.5753178 108.9987954  90.9809928 103.7692942 107.7078821  91.7476698
 110.2771386  98.5738932  82.9497582 109.4672114  98.2286017  83.3252829
 110.9655803  98.2646475  83.5385194 112.2061934  97.6516978  84.5721879
 112.7592973  98.0712432  85.2311902 112.4432021  96.7252726  84.6144835
 107.4308105 100.8888977  76.9365320 108.2927269 101.2143875  77.1961138
 107.6158449 100.1020473  76.4238386  99.4475521 108.9711317  89.2145509
  98.7538992 108.5565270  88.7015464 100.1948512 109.0131853  88.6178928
 115.5840741  99.7617503  84.0800543 115.0039410 100.4202308  83.6978596
 115.3176674  98.9394848  83.6687961 114.0344308  99.1622561  86.2821864
 114.5344086  99.2739096  85.4736183 114.6779916  98.8583614  86.9222672
 101.3612263 108.9029571  87.0911524 101.3382951 109.0017258  86.1393407
 101.6712900 109.7494721  87.4128690 114.3665619 101.9217594  83.1356892
 113.4791474 102.2067245  82.9177086 114.7819608 101.7611357  82.2884168
 117.7180155 101.9464115  86.8511231 118.4940546 102.4360567  87.1235848
 116.9928290 102.3722169  87.3083100 120.1552714 102.6591734  87.9085171
 120.7497205 102.4187470  87.1978480 120.2279298 101.9398865  88.5358708
 114.3406643 107.4372130  83.3507182 114.2841844 107.8940681  82.5114814
 114.8934985 106.6762814  83.1730025 118.1511449 103.2261862  84.1757301
 117.8948383 102.8258497  85.0065509 117.5264317 103.9405656  84.0507440
 115.0741422 108.6276911  80.6459711 115.0190226 108.4621182  79.7048155
 114.4487478 109.3352944  80.8021901  99.8633937 103.8644975  94.4721133
 100.5092801 103.3543929  94.9608358  99.6551088 104.6013657  95.0464558
 108.3837548  98.1285020  80.2245029 108.3716218  99.0726860  80.3813300
 109.2760970  97.9455165  79.9304491 112.1989667  94.7227797  84.4790966
 111.4322063  94.1686283  84.6247648 112.6100372  94.7949665  85.3405118
  44.9813231  -7.7039424  76.0365380  44.6431743  -7.8198359  75.1485915
  45.8503000  -8.1048259  76.0166386  40.8400047  -5.8503948  72.0262271
  40.2764912  -5.9414011  71.2578558  40.7252442  -6.6704043  72.5064763
  45.4633014  -6.5504572  81.9951585  45.4521655  -6.9451774  81.1232089
  45.6253654  -7.2838500  82.5885357  38.3864479  -4.3552756  74.8646491
  39.1785771  -4.6961932  74.4492790  38.6261129  -4.2457781  75.7848644
  46.4199606  -2.1832980  67.3376736  45.7687586  -1.5978900  66.9510749
  47.2143969  -1.6526785  67.3971773  40.3455233  -5.0943843  67.7363870
  41.1186109  -5.6414856  67.5976746  40.6980632  -4.2299594  67.9478331
  42.1840275  -3.7667461  80.9430769  41.8930141  -2.8621830  80.8277436
  42.8197260  -3.7250933  81.6574839  43.1096482  -6.3890612  77.5332129
  43.7060055  -6.6134590  76.8189092  43.1671454  -7.1305867  78.1357577
  42.6821511  -8.9351177  65.3682320  42.9347031  -9.4569656  64.6065783
  41.7446070  -9.0985031  65.4709003  47.8974871  -4.4942548  67.8745720
  47.2620704  -4.4207922  68.5866625  47.5672277  -3.9048949  67.1964799
  42.4017799  -7.0323071  67.5706695  42.2854058  -7.7078167  68.2387779
  42.5120059  -7.5190697  66.7538848  44.7449340  -7.5712924  71.2753384
  44.3807548  -8.0982303  71.9866305  45.6016456  -7.9614455  71.1019869
  47.1430161  -4.0806045  77.9380563  46.8430884  -3.1781006  77.8296370
  46.7981220  -4.3473862  78.7901716  40.5942642  -7.6292248  73.9717267
  39.6693139  -7.7616034  74.1794959  40.8427055  -6.8498029  74.4687210
  37.9551453  -7.9858975  74.8061056  38.0843834  -7.7324496  75.7200468
  37.2748904  -7.3931267  74.4865711  42.1250940   2.6838275  70.9051531
  42.0474970   3.6346100  70.9840011  41.5212584   2.3384148  71.5626457
  42.8714542  -7.3348406  83.1230865  43.6129227  -6.7963362  82.8465688
  42.1651528  -6.7082117  83.2802416  48.3469882  -5.1919266  81.7203026
  48.7553238  -5.6336855  80.9757658  47.6247144  -5.7666638  81.9737219
  48.6698697  -4.6318075  75.4755315  48.0407559  -4.4672361  74.7731383
  48.2824359  -4.2176465  76.2466279  52.5487929  -3.6963637  72.8299679
  51.8638967  -3.3164736  72.2796712  52.6331778  -3.0868310  73.5631626
  49.8038860  -6.0503678  79.4295022  50.0155755  -5.4071918  78.7529403
  49.7568608  -6.8841361  78.9616952  44.2226659  -4.8943667  72.7405400
  44.6865004  -4.6155964  71.9510022  43.9583457  -5.7960222  72.5578491
  41.1150740  -5.3472185  75.6785163  41.6852097  -4.9184917  75.0402648
  41.7058852  -5.6289601  76.3769349  43.1595545  -8.7720514  69.5494965
  43.8619588  -8.3199471  70.0168891  42.8276173  -9.4136696  70.1774858
  41.6075906 -10.1808758  83.9246174  40.9774567  -9.4992477  84.1581571
  41.5011994 -10.2925676  82.9799313  50.9184688  -3.1731723  77.6017379
  51.7402132  -3.5751535  77.3200061  50.9147091  -3.2763488  78.5533495
  44.6841292  -3.6247679  79.7578090  44.7485724  -3.1627272  80.5936262
  43.9752216  -4.2550314  79.8860400  44.3989309  -1.9579572  69.6257070
  44.2634984  -1.1128036  70.0541918  44.9399122  -1.7560294  68.8623004
  37.8518707  -4.4404134  70.1984995  38.3643227  -3.6460884  70.3490560
  38.5041420  -5.1377843  70.1318597  39.6613591  -1.3238378  72.2807749
  39.8380220  -0.4020413  72.0928732  40.4570425  -1.6379958  72.7102128
  46.0257786  -1.3356005  83.7557412  45.5821640  -2.1219627  83.4378317
  46.6874999  -1.1476855  83.0901303  40.7844907   0.1939796  78.2818091
  41.3352332   0.0656860  77.5095085  39.9456383   0.4934685  77.9312984
  48.1239024  -1.0553205  81.7838814  48.1057499  -0.2344324  81.2919083
  49.0458944  -1.1799130  82.0088955  44.5812078  -3.5409076  82.6262322
  45.1140415  -4.3020788  82.3961630  44.0526159  -3.8335424  83.3686477
  52.6866330  -5.6908044  68.5981572  51.9095772  -6.0296885  68.1536734
  53.3657811  -5.6855421  67.9236537  45.9464791  -4.4123083  70.1381134
  45.4186152  -5.1470324  69.8254372  45.4452293  -3.6348407  69.8921102
  50.9257637  -6.2174063  75.2548180  50.2681311  -5.5274802  75.3428309
  51.7298036  -5.8277631  75.5982167  44.0917391  -6.5942873  63.1416107
  43.1844453  -6.8253620  63.3407256  44.5888423  -7.3905254  63.3290089
  46.9985470   2.1154634  66.0612793  46.3247168   2.4186331  66.6697751
  47.3851292   2.9183714  65.7118250  45.2705624  -6.4930278  67.6640097
  44.3616843  -6.7771245  67.7612567  45.3000708  -6.0731200  66.8043404
  50.5024892  -2.8823689  71.4331265  50.0487219  -3.7232779  71.4896455
  49.8718858  -2.2462290  71.7706045  48.9457831  -1.0447192  72.3681083
  49.2380805  -0.4842135  71.6493449  49.4556451  -0.7518631  73.1234242
  44.9681712  -4.9521535  65.0028176  44.5301142  -5.6685676  64.5433813
  45.7092153  -4.7245420  64.4413267  43.9091456  -0.2666841  73.4574536
  43.8667635  -0.0405995  72.5283068  44.8254155  -0.5003466  73.6060337
  53.1124206  -4.6087811  76.0715766  53.5460713  -4.7012521  76.9198820
  53.8255787  -4.6330310  75.4335782  42.0257257  -3.3903812  73.2536499
  42.8197855  -3.8853492  73.0519074  41.3148949  -3.9185949  72.8904204
  46.8452101  -1.0085716  77.6048866  46.8989124  -0.4394780  78.3726582
  45.9766883  -0.8383831  77.2402904  53.9739756  -4.5664110  78.6048651
  54.1675646  -3.6618299  78.8507926  53.8740374  -5.0256691  79.4387236
  49.0354865  -4.4157367  84.1789532  48.8840371  -4.6446815  83.2619616
  49.0259544  -3.4586766  84.1920877  45.8040201  -6.8425454  79.1635798
  46.7332261  -6.6914295  78.9904766  45.3831231  -6.7541434  78.3084445
  44.6028533  -2.8174790  76.9334336  44.4639619  -3.1856006  77.8060274
  43.8143129  -2.3027151  76.7618294  45.1976685   2.2834306  68.2759872
  45.3728441   1.8122350  69.0905495  44.5109473   2.9100073  68.5041133
  46.1533748  -3.4393187  74.3223174  45.8183581  -3.4792417  75.2180824
  45.6537694  -4.1048471  73.8493584  40.1277992  -8.0325557  79.8475755
  39.9897790  -8.7645318  80.4487294  41.0382915  -8.1216657  79.5659943
  49.0892940  -6.0937153  64.5960233  48.4722110  -6.8190325  64.4993286
  48.6209428  -5.3327793  64.2527308  42.7560293  -8.3205598  79.3359435
  43.4659911  -8.9612406  79.2946053  42.7129601  -8.0692703  80.2585615
  50.7447071  -1.3838245  82.2566014  50.6859617  -2.0679024  81.5896597
  51.1466590  -0.6419255  81.8046640  39.7637770   5.4323669  75.0499733
  40.0034368   6.0642193  75.7278751  38.9206967   5.0811709  75.3365092
  50.7464479  -3.4198661  80.4879993  49.8591257  -3.7572739  80.6106392
  51.3163030  -4.1515629  80.7248759  44.2765632   1.2402792  77.4541237
  44.2035803   2.0457763  77.9660541  43.8343025   1.4394757  76.6289258
  44.0655412   0.4774562  70.9644058  43.2822933   1.0196242  71.0582283
  44.7648157   0.9948541  71.3638299  46.7364315   1.1389626  79.6099395
  47.4492288   1.7737091  79.5375297  46.2454344   1.2353492  78.7939397
  48.4581842  -4.9559122  71.1816687  47.5238121  -4.8357659  71.0121391
  48.6358511  -5.8586655  70.9176697  41.7876229  -1.1115931  80.4304966
  42.4885689  -0.4779448  80.5834360  41.3171344  -0.7701199  79.6700605
  49.9130625  -2.7697981  68.7152873  50.1890469  -2.8841386  69.6246747
  49.0435124  -3.1680496  68.6765046  46.5484689   1.4788370  72.3585687
  46.7307083   0.6610026  72.8213439  47.3717675   1.6956062  71.9210577
  46.8826854   0.4056555  69.6200735  47.4114621  -0.1050990  69.0070897
  47.1455074   0.0899085  70.4846268  45.6365088  -7.8151512  84.7423554
  44.9605725  -7.9157383  85.4125929  46.4592722  -7.9712299  85.2059551
  37.3843947  -1.5779576  77.3636069  37.9697384  -2.3235888  77.4963973
  37.1868786  -1.2675619  78.2472733  40.2382602   1.4571672  72.3798511
  39.5692978   1.9417799  71.8962551  40.0995472   1.7040892  73.2941890
  44.3787871   3.4915415  78.9781170  44.9306179   3.6547037  79.7430255
  44.7194064   4.0819853  78.3061194  49.2298745  -1.6823327  84.8329824
  49.7738649  -1.0693369  84.3384779  48.6485590  -1.1243749  85.3496837
  47.5156258   1.4397391  75.9644852  47.3907398   0.6387130  75.4555797
  48.1735349   1.9343584  75.4758822  49.5791167  -0.7593589  77.5924402
  48.6321502  -0.8788238  77.5202728  49.9273940  -1.6471091  77.6750663
  46.5837600  -0.9640873  73.7928754  46.4362562  -1.8924166  73.9736324
  47.4091093  -0.9420782  73.3085829  50.1871722  -0.1412314  74.8793627
  51.1118269  -0.3469453  74.7418078  50.0187025  -0.3895913  75.7882968
  41.3198336 -10.1517322  75.3631616  41.1742916  -9.8377019  76.2555897
  40.8423539  -9.5332422  74.8102514  49.9767038   0.3773353  70.2355718
  50.1503915  -0.1880224  69.4829571  50.4695929   1.1774248  70.0535208
  50.9642210  -0.3059882  67.3352616  51.6593115   0.3146810  67.5539931
  51.3065361  -1.1564531  67.6104994  52.8633634  -2.8560177  68.8639947
  53.3884958  -2.5172904  68.1389267  52.7755986  -3.7913162  68.6803082
  44.5253682   1.0573897  80.9929824  44.8340809   0.8123043  81.8652523
  45.3229164   1.2620535  80.5048694  44.5474294   3.2111806  73.2235200
  44.1079285   2.7188185  73.9168057  45.2982411   2.6684774  72.9827276
  37.0266633  -0.5976653  73.2259828  37.8524653  -0.8972881  72.8458472
  36.6760685  -1.3669030  73.6749617  41.9948166  -1.2450185  75.2957502
  41.3728176  -1.9079480  74.9959730  42.6653033  -1.2189053  74.6131150
  35.2275238  -2.6790326  74.1848762  34.3907147  -3.1068152  74.0032763
  35.1998884  -2.4857883  75.1219553  52.5527540  -2.2227273  84.1691145
  51.7623083  -2.2403134  83.6295645  52.3160894  -1.6838980  84.9240182
  52.6725415  -5.3734807  81.4823874  52.7223420  -5.5384799  82.4239397
  52.5639338  -6.2407548  81.0921754  41.5561673  -2.6946261  68.7715963
  41.7049794  -2.0110797  68.1182635  42.3628117  -2.7141171  69.2865418
  54.1743611  -2.9537865  81.7265895  53.8828420  -2.5907885  82.5629356
  53.5615743  -3.6670857  81.5479227  39.3114306  -6.6681084  69.7777032
  39.0660348  -7.5718754  69.9757242  39.4810221  -6.6663933  68.8356510
  45.0557079  -0.1998131  66.2427710  44.4831046   0.4192056  65.7898182
  45.6289873   0.3501231  66.7767632  48.2754339   0.0839019  67.3736292
  49.2085012   0.0184581  67.5769168  48.1877551   0.9195286  66.9150825
  50.9042355  -0.5995110  64.3340240  50.8255987  -0.9335247  65.2275998
  51.7252022  -0.1073342  64.3331712  45.3242570  -4.8119572  85.0444420
  46.2445579  -4.6340973  85.2384466  45.2892153  -5.7563527  84.8924119
  38.3204642  -6.9018537  77.6867201  38.5390652  -5.9701429  77.7055234
  38.7330416  -7.2610563  78.4722005  43.0563778  -7.8988193  85.8935011
  42.5730859  -7.0987833  86.0998900  43.1424717  -7.8880248  84.9402455
  36.3249737  -6.0659813  73.8156831  36.3020426  -5.9672126  72.8638714
  36.6350374  -5.2194662  74.1373997  38.9837115  -4.0083658  77.9303445
  39.9380369  -4.0399716  77.8633377  38.7849639  -4.4693034  78.7453671
  39.5736497  -5.4382542  80.4974243  40.3929386  -4.9438463  80.5209080
  39.8473305  -6.3550574  80.4691810  37.3387344   1.5335962  74.9473643
  37.2041812   0.7736362  74.3811641  36.9219406   2.2576861  74.4802432
  48.4746307  -3.2827115  63.9550218  49.1782157  -3.0777112  64.5707874
  47.7508956  -2.7150353  64.2199302  40.4956470   2.4305279  75.1592086
  40.3788854   3.3750711  75.0570776  39.6748916   2.1278840  75.5477885
  50.3833004  -2.8444586  66.0048678  51.2178608  -3.2763387  65.8226153
  50.2217347  -3.0162572  66.9325573  50.0378897  -6.3412472  67.3705018
  49.9827700  -6.5068201  66.4293462  49.4124952  -5.6336439  67.5267207
  47.3524804  -4.0363561  86.6958580  48.2215963  -3.8622908  86.3345215
  46.8731555  -3.2169144  86.5734310  41.5210984   3.0833540  78.3748014
  42.4238231   3.1157151  78.6914509  41.2948354   2.1533991  78.3894350
  43.2764586   1.8364527  75.0358093  42.3260217   1.8366389  74.9222465
  43.5797072   1.0897262  74.5194127  59.0117280   7.6725065  76.1003855
  59.6495690   7.5531813  75.3967195  58.8938122   8.6205909  76.1591807
  55.8206986   7.6252494  76.0365380  55.4825497   7.5093558  75.1485915
  56.6896754   7.2243659  76.0166386  51.6793802   9.4787970  72.0262271
  51.1158667   9.3877907  71.2578558  51.5646197   8.6587874  72.5064763
  56.3026769   8.7787345  81.9951585  56.2915410   8.3840144  81.1232089
  56.4647408   8.0453418  82.5885357  49.2258233  10.9739162  74.8646491
  50.0179525  10.6329986  74.4492790  49.4654884  11.0834137  75.7848644
  57.2593360  13.1458938  67.3376736  56.6081340  13.7313018  66.9510749
  58.0537723  13.6765133  67.3971773  51.1848987  10.2348075  67.7363870
  51.9579863   9.6877062  67.5976746  51.5374386  11.0992324  67.9478331
  53.0234030  11.5624457  80.9430769  52.7323896  12.4670088  80.8277436
  53.6591014  11.6040985  81.6574839  53.9490237   8.9401306  77.5332129
  54.5453809   8.7157328  76.8189092  54.0065208   8.1986051  78.1357577
  53.5215265   6.3940741  65.3682320  53.7740786   5.8722262  64.6065783
  52.5839824   6.2306886  65.4709003  58.5658548   5.3976519  73.1757063
  59.3521637   4.9795942  72.8247480  58.8297252   6.3022611  73.3438711
  58.7368625  10.8349370  67.8745720  58.1014458  10.9083996  68.5866625
  58.4066032  11.4242968  67.1964799  63.9666975   5.3351752  74.0790042
  64.6992147   4.7650969  74.3127871  63.2106331   4.9473353  74.5196547
  53.2411554   8.2968847  67.5706695  53.1247812   7.6213750  68.2387779
  53.3513814   7.8101221  66.7538848  55.5843095   7.7578994  71.2753384
  55.2201302   7.2309615  71.9866305  56.4410211   7.3677463  71.1019869
  61.4892396  -0.9526673  78.5384650  61.1575720  -0.0831262  78.3145865
  60.8938009  -1.2690389  79.2178681  55.2248582   2.7868894  66.2714733
  55.3922984   3.6549130  66.6385204  55.0345751   2.9496175  65.3476022
  57.9823915  11.2485873  77.9380563  57.6824638  12.1510911  77.8296370
  57.6374975  10.9818056  78.7901716  51.4336397   7.6999669  73.9717267
  50.5086893   7.5675884  74.1794959  51.6820810   8.4793889  74.4687210
  61.3821059   3.7668413  75.6178000  60.4737936   3.6983821  75.3236761
  61.3308655   4.2440358  76.4459826  55.2037803   5.2426551  67.2561399
  55.0837428   5.6883602  68.0946880  54.5090391   5.5911869  66.6974938
  48.7945208   7.3432943  74.8061056  48.9237589   7.5967422  75.7200468
  48.1142659   7.9360651  74.4865711  52.9644695  18.0130193  70.9051531
  52.8868725  18.9638018  70.9840011  52.3606338  17.6676065  71.5626457
  55.4561925   5.1858058  83.5612898  54.6795259   5.7451978  83.5515762
  56.0952488   5.6714841  84.0827768  63.2482705   1.9684851  77.3955874
  62.6057086   2.2617384  76.7495669  62.7437634   1.8537771  78.2009071
  60.9022869   5.7148024  68.0841733  61.8140725   5.9475411  67.9089431
  60.3932516   6.2985069  67.5216812  53.7108297   7.9943512  83.1230865
  54.4522981   8.5328556  82.8465688  53.0045282   8.6209800  83.2802416
  59.1863637  10.1372652  81.7203026  59.5946993   9.6955063  80.9757658
  58.4640898   9.5625280  81.9737219  55.5394707   5.0745259  79.0936583
  56.3855902   5.4984672  79.2371232  55.4793344   4.4178883  79.7875146
  59.5092451  10.6973843  75.4755315  58.8801314  10.8619557  74.7731383
  59.1218113  11.1115452  76.2466279  63.3881683  11.6328281  72.8299679
  62.7032721  12.0127182  72.2796712  63.4725532  12.2423607  73.5631626
  58.6894152   2.7349627  80.7517757  58.4455084   3.4891688  80.2152032
  58.9654082   3.1134975  81.5865004  60.6432615   9.2788240  79.4295022
  60.8549510   9.9220000  78.7529403  60.5962363   8.4450556  78.9616952
  58.2458844   1.8906060  76.3331594  57.3843323   2.1887314  76.6248332
  58.2721278   2.1076459  75.4012627  55.0620413  10.4348251  72.7405400
  55.5258759  10.7135954  71.9510022  54.7977211   9.5331695  72.5578491
  51.9544494   9.9819732  75.6785163  52.5245851  10.4107001  75.0402648
  52.5452606   9.7002317  76.3769349  53.9989299   6.5571403  69.5494965
  54.7013343   7.0092447  70.0168891  53.6669928   5.9155222  70.1774858
  52.4469661   5.1483160  83.9246174  51.8168321   5.8299441  84.1581571
  52.3405749   5.0366241  82.9799313  47.7414633   4.8154956  74.8512099
  46.9513687   5.0712484  74.3752209  48.2325880   5.6303294  74.9564139
  61.7578443  12.1560195  77.6017379  62.5795886  11.7540382  77.3200061
  61.7540846  12.0528429  78.5533495  49.6929379   5.1799535  71.8095575
  48.8960542   5.2918229  72.3279071  49.4654971   5.5186187  70.9436466
  55.5235046  11.7044238  79.7578090  55.5879479  12.1664646  80.5936262
  54.8145970  11.0741603  79.8860400  46.0252336   5.0685446  77.2827089
  46.2760375   5.9532456  77.5484665  46.5611885   4.8890048  76.5102181
  69.8484436   8.4998944  73.9502351  69.0948144   7.9306342  73.7946355
  69.9831977   8.4661608  74.8972986  55.2383064  13.3712346  69.6257070
  55.1028739  14.2163882  70.0541918  55.7792876  13.5731624  68.8623004
  51.7250403  -0.5496074  86.2871426  51.3317349  -1.1029876  86.9619070
  52.5416544  -0.2385496  86.6777943  48.6912461  10.8887784  70.1984995
  49.2036982  11.6831034  70.3490560  49.3435174  10.1914074  70.1318597
  50.5007346  14.0053540  72.2807749  50.6773974  14.9271505  72.0928732
  51.2964179  13.6911959  72.7102128  54.6418364   0.8661805  83.8791682
  55.3828078   1.4668958  83.7996145  54.8736287   0.1239443  83.3209725
  49.7859702   6.0518172  82.1569912  49.6713218   5.1503429  82.4577011
  48.9304220   6.2981869  81.8054728  56.8651540  13.9935912  83.7557412
  56.4215394  13.2072291  83.4378317  57.5268754  14.1815063  83.0901303
  51.6238661  15.5231714  78.2818091  52.1746086  15.3948777  77.5095085
  50.7850137  15.8226603  77.9312984  58.9632778  14.2738712  81.7838814
  58.9451254  15.0947593  81.2919083  59.8852698  14.1492788  82.0088955
  55.4205832  11.7882842  82.6262322  55.9534169  11.0271130  82.3961630
  54.8919913  11.4956494  83.3686477  58.5875527  -3.1057092  78.1555964
  58.2439797  -2.2155451  78.0795074  58.9554490  -3.2955435  77.2925549
  46.6561378   9.2176438  70.9744566  47.4936600   9.6273447  70.7578274
  46.8339646   8.2775880  70.9444760  58.5525810   6.8851519  66.6628399
  58.0372434   7.6556123  66.9016786  58.2803119   6.2116655  67.2861460
  56.1372921   1.7301220  71.7213637  55.2814517   1.3408070  71.5419276
  56.5499873   1.8093180  70.8613423  57.6672068  -0.7352437  76.1205197
  57.1636863  -0.7722302  75.3073002  57.9602675   0.1740306  76.1801854
  53.9114954  -0.6513707  75.1271379  54.7767950  -0.8470899  74.7677268
  53.9792463  -0.8803356  76.0540736  63.5260084   9.6383873  68.5981572
  62.7489527   9.2995033  68.1536734  64.2051565   9.6436497  67.9236537
  58.3412113   4.7578611  68.4888180  58.0362249   5.0724760  69.3398323
  59.2942555   4.8360031  68.5315513  56.7858545  10.9168834  70.1381134
  56.2579907  10.1821594  69.8254372  56.2846048  11.6943511  69.8921102
  61.7651391   9.1117855  75.2548180  61.1075066   9.8017116  75.3428309
  62.5691790   9.5014287  75.5982167  51.5177273   1.5788501  72.4987746
  52.0921025   1.3563682  71.7660939  52.1048255   1.6477195  73.2516347
  60.5756850   7.4662227  73.3052122  61.0888732   8.0992219  73.8073832
  61.2258074   6.8663423  72.9395482  51.8446860   3.6092962  66.5183631
  51.0084172   3.9467648  66.8392906  51.7051629   3.4741941  65.5810768
  53.8199940  -1.5470251  71.2262815  53.1664353  -1.8621233  70.6019430
  53.7780415  -2.1694510  71.9522638  57.8379224  17.4446552  66.0612793
  57.1640923  17.7478248  66.6697751  58.2245046  18.2475632  65.7118250
  57.0537681   4.9411683  75.5510463  56.1360242   5.1626630  75.3932151
  57.4697824   5.0157993  74.6922170  57.8372729   6.3403099  70.6813143
  58.5844547   6.8524496  70.3720265  58.1064318   6.0187151  71.5417536
  56.1099379   8.8361639  67.6640097  55.2010598   8.5520672  67.7612567
  56.1394463   9.2560718  66.8043404  61.3418646  12.4468229  71.4331265
  60.8880973  11.6059139  71.4896455  60.7112613  13.0829627  71.7706045
  60.2851566   3.3760215  72.6631932  59.5474322   2.8637601  72.9942175
  60.5378339   2.9360597  71.8515209  59.7851585  14.2844726  72.3681083
  60.0774560  14.8449783  71.6493449  60.2950206  14.5773287  73.1234242
  46.6787549   6.5567154  71.6455299  46.4811949   5.9636514  70.9206366
  46.1234213   6.2519364  72.3631238  54.6584273   6.4490260  73.7649893
  54.7132883   5.4964096  73.6892369  53.8475475   6.6049699  74.2491191
  52.5976633   5.0667320  71.5240271  51.7844498   5.3661490  71.9305464
  53.0935627   4.6723009  72.2414754  54.7485211  15.0625077  73.4574536
  54.7061389  15.2885923  72.5283068  55.6647909  14.8288451  73.6060337
  58.1950844   5.5309144  80.3555165  58.5500232   5.7580617  81.2149631
  58.8422976   5.8627521  79.7332421  63.9248581   8.6527580  71.0604494
  63.7866480   8.8429176  70.1325684  63.5684800   9.4146963  71.5172545
  52.0890707   2.6385675  77.1401506  52.7290087   2.4974434  76.4424470
  51.2568238   2.3520189  76.7640108  63.9517961  10.7204107  76.0715766
  64.3854468  10.6279396  76.9198820  64.6649542  10.6961608  75.4335782
  52.8651011  11.9388106  73.2536499  53.6591610  11.4438426  73.0519074
  52.1542704  11.4105969  72.8904204  57.6845856  14.3206201  77.6048866
  57.7382878  14.8897138  78.3726582  56.8160637  14.4908086  77.2402904
  49.1733775   6.0831187  69.3296252  48.2431363   6.0215643  69.5466214
  49.2691247   5.5607140  68.5332893  49.0919324   2.6086000  71.9174493
  49.3526141   3.5231333  71.8083654  49.9136496   2.1410443  72.0671106
  50.5644249   4.0223757  79.0873318  51.2367303   3.8141120  78.4385967
  49.7374036   3.8245843  78.6478550  64.8133510  10.7627808  78.6048651
  65.0069401  11.6673618  78.8507926  64.7134129  10.3035227  79.4387236
  56.4669821   0.6485698  81.1038979  55.8197736   1.3475648  81.0103455
  57.2370837   1.0821842  81.4715227  59.8748619  10.9134551  84.1789532
  59.7234126  10.6845102  83.2619616  59.8653299  11.8705152  84.1920877
  56.6433956   8.4866463  79.1635798  57.5726016   8.6377623  78.9904766
  56.2224986   8.5750484  78.3084445  55.4422287  12.5117128  76.9334336
  55.3033373  12.1435912  77.8060274  54.6536884  13.0264767  76.7618294
  56.0370439  17.6126224  68.2759872  56.2122195  17.1414267  69.0905495
  55.3503227  18.2391990  68.5041133  56.9927502  11.8898730  74.3223174
  56.6577335  11.8499500  75.2180824  56.4931448  11.2243446  73.8493584
  50.9671746   7.2966360  79.8475755  50.8291544   6.5646599  80.4487294
  51.8776670   7.2075260  79.5659943  59.9286694   9.2354765  64.5960233
  59.3115865   8.5101593  64.4993286  59.4603183   9.9964125  64.2527308
  53.5954047   7.0086320  79.3359435  54.3053666   6.3679512  79.2946053
  53.5523355   7.2599215  80.2585615  61.5840826  13.9453673  82.2566014
  61.5253372  13.2612893  81.5896597  61.9860344  14.6872663  81.8046640
  52.3082981   3.9951538  81.1555074  51.7720338   3.5442276  81.8076670
  51.7199690   4.1297446  80.4125538  50.6031525  20.7615587  75.0499733
  50.8428123  21.3934111  75.7278751  49.7600721  20.4103627  75.3365092
  51.7185240   3.4540189  63.7181538  50.8414706   3.3328990  63.3543784
  52.1942993   2.6626267  63.4660426  61.5858233  11.9093257  80.4879993
  60.6985012  11.5719179  80.6106392  62.1556784  11.1776288  80.7248759
  43.2387380   8.2417349  73.8123045  43.9258420   7.9279079  73.2244060
  43.0835509   9.1458713  73.5390296  48.0422102   3.1307545  78.2408068
  47.9580291   2.5233215  77.5058478  47.2204809   3.6216564  78.2417565
  55.1159386  16.5694709  77.4541237  55.0429558  17.3749681  77.9660541
  54.6736780  16.7686675  76.6289258  54.9049166  15.8066479  70.9644058
  54.1216688  16.3488160  71.0582283  55.6041911  16.3240459  71.3638299
  58.2145816   1.6161109  73.6078264  58.7114516   0.8631071  73.2879334
  57.4432798   1.6525425  73.0421473  66.0675574   7.3201474  75.2496555
  66.0565450   8.2026190  74.8790488  65.1992953   6.9673025  75.0551092
  57.5758070  16.4681543  79.6099395  58.2886042  17.1029008  79.5375297
  57.0848099  16.5645409  78.7939397  59.2975597  10.3732796  71.1816687
  58.3631876  10.4934259  71.0121391  59.4752265   9.4705263  70.9176697
  54.7980785   3.7578492  73.3349948  54.4278572   3.2049532  74.0230854
  55.2939877   3.1536625  72.7824948  62.6848148   6.2150115  71.7166721
  63.1508600   7.0478107  71.6427024  63.1355649   5.7495097  72.4211980
  52.6269984  14.2175987  80.4304966  53.3279443  14.8512470  80.5834360
  52.1565098  14.5590718  79.6700605  60.7524379  12.5593937  68.7152873
  61.0284223  12.4450531  69.6246747  59.8828878  12.1611421  68.6765046
  60.6564811  -1.4169298  75.7557622  59.7427891  -1.1865071  75.9239829
  61.0857912  -1.3330854  76.6071655  60.4271269   6.7720594  78.2557516
  59.7742720   7.0196502  77.6009969  60.8051649   5.9584732  77.9219994
  57.3878443  16.8080287  72.3585687  57.5700838  15.9901943  72.8213439
  58.2111429  17.0247980  71.9210577  57.7220609  15.7348473  69.6200735
  58.2508375  15.2240927  69.0070897  57.9848828  15.4191003  70.4846268
  56.4758842   7.5140405  84.7423554  55.7999480   7.4134535  85.4125929
  57.2986476   7.3579619  85.2059551  48.2237702  13.7512342  77.3636069
  48.8091138  13.0056030  77.4963973  48.0262540  14.0616299  78.2472733
  51.0776357  16.7863589  72.3798511  50.4086732  17.2709717  71.8962551
  50.9389226  17.0332810  73.2941890  42.8155356   6.3217942  76.0840512
  42.8539456   5.7881533  76.8777630  42.3095649   5.7953148  75.4651489
  55.2181625  18.8207333  78.9781170  55.7699933  18.9838954  79.7430255
  55.5587819  19.4111771  78.3061194  50.1946119   1.1682483  79.5803054
  50.2587445   2.0297314  79.1680452  50.1313239   0.5556484  78.8475413
  49.6698391   3.2405615  83.2276088  50.2970430   2.8582692  83.8413613
  48.8126310   3.0219817  83.5931781  60.0692500  13.6468590  84.8329824
  60.6132404  14.2598549  84.3384779  59.4879345  14.2048169  85.3496837
  46.4463934   5.0482044  69.1594443  46.7417375   4.1392723  69.1061497
  45.5451970   5.0269784  68.8375446  58.3550013  16.7689308  75.9644852
  58.2301152  15.9679048  75.4555797  59.0129104  17.2635502  75.4758822
  49.9758181   3.1238041  75.1421992  49.2544767   3.7374009  75.0029465
  50.7651437   3.6595806  75.0638638  60.4184921  14.5698328  77.5924402
  59.4715257  14.4503680  77.5202728  60.7667694  13.6820826  77.6750663
  52.7784494   0.4592467  81.4162644  53.3018896   0.7054764  82.1788953
  52.5596828   1.2912502  80.9965781  48.1751775   2.7296142  69.2833768
  47.8464482   1.8493521  69.1008874  48.5291146   2.6743811  70.1710158
  57.4231354  14.3651045  73.7928754  57.2756317  13.4367752  73.9736324
  58.2484848  14.3871135  73.3085829  51.2893599   3.0169112  69.6509246
  51.6289671   3.5455033  68.9287854  51.7365719   3.3549518  70.4267813
  61.0265476  15.1879603  74.8793627  61.9512024  14.9822465  74.7418078
  60.8580780  14.9396005  75.7882968  53.9837039   1.4006162  79.1012314
  53.6433860   0.6013975  79.5032994  53.2776046   1.7007873  78.5289147
  54.6353511  -1.5144525  77.5539637  55.4579581  -1.9884047  77.4318528
  54.8791575  -0.7354041  78.0538323  53.2761746   1.5143733  67.8502539
  53.9970108   1.8924986  67.3466256  52.6527050   2.2332610  67.9537517
  57.4192869   2.2188882  68.7860871  57.6356483   3.1013520  68.4849699
  56.9386936   1.8275096  68.0566513  52.1592090   5.1774595  75.3631616
  52.0136671   5.4914899  76.2555897  51.6817294   5.7959496  74.8102514
  54.0188473   2.1677143  75.4112505  54.0050042   1.2718237  75.0744803
  54.7360901   2.1747807  76.0450791  55.8714604   2.6014484  77.4565633
  55.6132381   3.5231554  77.4549963  55.3399644   2.2044918  78.1466097
  60.8160792  15.7065271  70.2355718  60.9897670  15.1411693  69.4829571
  61.3089684  16.5066166  70.0535208  46.6337752   7.7179940  78.3019277
  46.0891220   8.4939748  78.4339551  47.5117102   8.0650744  78.1438398
  53.4225369   1.0491524  70.6800076  53.5441280   0.1208170  70.8790963
  53.1327411   1.0630210  69.7678391  56.2916559  -1.2653566  73.8166795
  56.3138256  -1.2014233  72.8618775  56.7084618  -2.1049057  74.0107302
  66.6700184   8.4701694  71.8546018  67.1131330   7.7209019  71.4565141
  65.7926694   8.4611830  71.4719750  61.8035965  15.0232035  67.3352616
  62.4986870  15.6438728  67.5539931  62.1459115  14.1727386  67.6104994
  47.4203774   6.8449836  81.1949434  46.6785510   6.9932472  81.7814064
  47.0996518   7.1058102  80.3316183  63.7027388  12.4731741  68.8639947
  64.2278712  12.8119013  68.1389267  63.6149741  11.5378756  68.6803082
  55.3647437  16.3865814  80.9929824  55.6734563  16.1414961  81.8652523
  56.1622919  16.5912453  80.5048694  55.3868049  18.5403724  73.2235200
  54.9473039  18.0480103  73.9168057  56.1376166  17.9976692  72.9827276
  47.8660388  14.7315265  73.2259828  48.6918408  14.4319037  72.8458472
  47.5154440  13.9622887  73.6749617  52.8341921  14.0841733  75.2957502
  52.2121930  13.4212438  74.9959730  53.5046788  14.1102865  74.6131150
  46.0668993  12.6501591  74.1848762  45.2300901  12.2223766  74.0032763
  46.0392638  12.8434035  75.1219553  52.9066448   2.5623521  84.8890008
  52.9554604   3.4385644  84.5067778  53.4488963   2.0200914  84.3161651
  63.3921294  13.1064644  84.1691145  62.6016838  13.0888783  83.6295645
  63.1554649  13.6452938  84.9240182  63.5119169   9.9557111  81.4823874
  63.5617174   9.7907118  82.4239397  63.4033092   9.0884370  81.0921754
  52.3955428  12.6345656  68.7715963  52.5443548  13.3181121  68.1182635
  53.2021871  12.6150747  69.2865418  60.8022932   5.9388039  82.7983180
  61.7032794   5.7994504  82.5067178  60.8770906   6.1042494  83.7381358
  55.1365737   3.3154894  81.6436367  54.2669046   3.6088460  81.3718955
  55.3725217   3.8995339  82.3643630  65.0137366  12.3754052  81.7265895
  64.7222174  12.7384033  82.5629356  64.4009497  11.6621061  81.5479227
  66.2133048   9.9406932  74.2468465  67.0479940  10.3796736  74.4106026
  66.3492177   9.4645585  73.4276711  63.2624554   7.4986667  80.1945953
  63.7378676   7.6914313  79.3864805  62.3390120   7.5545853  79.9489337
  50.1508061   8.6610834  69.7777032  49.9054103   7.7573164  69.9757242
  50.3203975   8.6627985  68.8356510  57.8404771  -0.4665490  79.1601787
  58.3586715   0.2695537  78.8348276  57.4859903  -0.1601496  79.9948546
  49.4203708   4.3939192  67.2763193  48.7272953   4.4683547  66.6203229
  49.1755460   3.6299535  67.7984710  55.8950833  15.1293787  66.2427710
  55.3224800  15.7483974  65.7898182  56.4683627  15.6793149  66.7767632
  61.9626223   4.3752427  78.4274259  62.9143646   4.4750525  78.4486483
  61.7929674   3.5830696  78.9372343  59.9840603   1.4608010  78.6133660
  59.3890535   1.7413023  77.9180148  59.6990299   1.9501911  79.3850401
  59.1148093  15.4130937  67.3736292  60.0478766  15.3476499  67.5769168
  59.0271306  16.2487204  66.9150825  61.7436110  14.7296807  64.3340240
  61.6649741  14.3956671  65.2275998  62.5645777  15.2218575  64.3331712
  64.4414301   7.5958547  77.5416558  64.4090621   6.6574547  77.7276242
  65.0514925   7.6742583  76.8082383  56.2797632   6.4654600  63.5843763
  57.2256737   6.3360808  63.6532181  55.9011877   5.7269262  64.0613191
  64.5908789   4.3869590  77.5874842  64.0747838   3.6028047  77.4004771
  65.4748738   4.0588307  77.7521361  62.2519516  -1.8689394  73.5470654
  62.0544338  -2.1774306  74.4313986  62.8619222  -1.1427755  73.6768584
  70.2590851   8.6574554  76.6822595  70.9894239   8.3959842  77.2430299
  69.6497796   7.9203275  76.7224663  68.3406148   6.7982416  77.2797046
  67.6139312   6.6638381  76.6713538  67.9253435   7.1059245  78.0853765
  56.1636324  10.5172346  85.0444420  57.0839334  10.6950945  85.2384466
  56.1285907   9.5728391  84.8924119  54.4640549   4.3904576  63.5198648
  53.5572004   4.0937689  63.5961361  54.7416530   4.0934394  62.6532934
  45.3818489   5.7110939  73.9697694  45.0621274   4.8576248  73.6772068
  44.8351918   5.9259518  74.7255661  49.1598397   8.4273380  77.6867201
  49.3784407   9.3590488  77.7055234  49.5724171   8.0681355  78.4722005
  56.0802615  -1.0658534  69.6742889  55.2703343  -1.4111449  70.0498135
  56.7687032  -1.3750991  70.2630501  58.0093163  -1.9880487  71.2967186
  58.5624202  -1.5685034  71.9557209  58.2463249  -2.9144739  71.3390142
  54.0326262   4.0006586  87.0769950  53.9322989   4.9500943  87.0082041
  53.8147804   3.6724825  86.2046020  53.2339334   1.2491511  63.6610627
  54.0958498   1.5746410  63.9206444  53.4189678   0.4623007  63.1483693
  45.2506749   9.3313851  75.9390816  44.5570221   8.9167804  75.4260770
  45.9979740   9.3734387  75.3424235  61.3871970   0.1220038  70.8045850
  60.8070639   0.7804842  70.4223902  61.1207903  -0.7002618  70.3933267
  59.8375536  -0.4774905  73.0067170  60.3375315  -0.3658370  72.1981489
  60.4811144  -0.7813852  73.6467979  53.8957532   7.4303725  85.8935011
  53.4124614   8.2304085  86.0998900  53.9818471   7.4411670  84.9402455
  47.1643492   9.2632105  73.8156831  47.1414180   9.3619792  72.8638714
  47.4744128  10.1097256  74.1373997  49.8230870  11.3208260  77.9303445
  50.7774123  11.2892202  77.8633377  49.6243393  10.8598883  78.7453671
  50.4130252   9.8909376  80.4974243  51.2323141  10.3853454  80.5209080
  50.6867060   8.9741344  80.4691810  60.1696848   2.2820128  69.8602198
  59.2822703   2.5669779  69.6422393  60.5850837   2.1213891  69.0129475
  63.5211384   2.3066649  73.5756537  64.2971774   2.7963102  73.8481154
  62.7959518   2.7324703  74.0328407  65.9583943   3.0194268  74.6330478
  66.5528434   2.7790004  73.9223786  66.0310527   2.3001399  75.2604014
  48.1781099  16.8627879  74.9473643  48.0435566  16.1028280  74.3811641
  47.7613161  17.5868779  74.4802432  59.3140062  12.0464803  63.9550218
  60.0175912  12.2514805  64.5707874  58.5902710  12.6141565  64.2199302
  60.1437872   7.7974664  70.0752488  60.0873073   8.2543215  69.2360121
  60.6966214   7.0365349  69.8975331  63.9542678   3.5864396  70.9002608
  63.6979612   3.1861032  71.7310816  63.3295546   4.3008190  70.7752747
  68.2655016   6.3260469  73.4073899  67.7054574   6.3953658  74.1805461
  67.6598519   6.1501454  72.6873396  51.3350224  17.7597196  75.1592086
  51.2182609  18.7042629  75.0570776  50.5142671  17.4570758  75.5477885
  61.2226759  12.4847332  66.0048678  62.0572363  12.0528530  65.8226153
  61.0611102  12.3129346  66.9325573  60.8772651   8.9879445  67.3705018
  60.8221455   8.8223717  66.4293462  60.2518706   9.6955478  67.5267207
  45.6665166   4.2247510  81.1966440  46.3124030   3.7146464  81.6853665
  45.4582317   4.9616191  81.7709865  58.1918558  11.2928357  86.6958580
  59.0609718  11.4669009  86.3345215  57.7125310  12.1122774  86.5734310
  54.1868777  -1.5112446  66.9490336  54.1747446  -0.5670606  67.1058607
  55.0792198  -1.6942300  66.6549797  52.3604739  18.4125458  78.3748014
  53.2631985  18.4449068  78.6914509  52.1342109  17.4825909  78.3894350
  54.1158341  17.1656445  75.0358093  53.1653972  17.1658306  74.9222465
  54.4190827  16.4189179  74.5194127  50.0062657   1.3715127  85.2941454
  50.8694119   1.0151932  85.5044779  49.4328068   1.0329022  85.9816858
  69.8511034  23.0016983  76.1003855  70.4889444  22.8823730  75.3967195
  69.7331877  23.9497827  76.1591807  66.6600740  22.9544411  76.0365380
  66.3219252  22.8385476  75.1485915  67.5290509  22.5535576  76.0166386
  62.5187556  24.8079888  72.0262271  61.9552421  24.7169825  71.2578558
  62.4039951  23.9879792  72.5064763  67.1420523  24.1079263  81.9951585
  67.1309164  23.7132061  81.1232089  67.3041163  23.3745336  82.5885357
  60.0651988  26.3031079  74.8646491  60.8573280  25.9621904  74.4492790
  60.3048638  26.4126054  75.7848644  68.0987115  28.4750855  67.3376736
  67.4475095  29.0604936  66.9510749  68.8931478  29.0057050  67.3971773
  62.0242742  25.5639992  67.7363870  62.7973618  25.0168980  67.5976746
  62.3768141  26.4284242  67.9478331  63.8627784  26.8916375  80.9430769
  63.5717650  27.7962006  80.8277436  64.4984769  26.9332902  81.6574839
  64.7883991  24.2693223  77.5332129  65.3847564  24.0449246  76.8189092
  64.8458963  23.5277969  78.1357577  64.3609020  21.7232659  65.3682320
  64.6134540  21.2014180  64.6065783  63.4233579  21.5598804  65.4709003
  69.4052303  20.7268437  73.1757063  70.1915392  20.3087860  72.8247480
  69.6691007  21.6314529  73.3438711  69.5762380  26.1641287  67.8745720
  68.9408213  26.2375914  68.5866625  69.2459786  26.7534886  67.1964799
  74.8060730  20.6643670  74.0790042  75.5385902  20.0942887  74.3127871
  74.0500085  20.2765271  74.5196547  64.0805308  23.6260765  67.5706695
  63.9641567  22.9505668  68.2387779  64.1907568  23.1393138  66.7538848
  66.4236849  23.0870912  71.2753384  66.0595057  22.5601533  71.9866305
  67.2803965  22.6969381  71.1019869  72.3286150  14.3765244  78.5384650
  71.9969475  15.2460655  78.3145865  71.7331763  14.0601528  79.2178681
  66.0642336  18.1160811  66.2714733  66.2316739  18.9841048  66.6385204
  65.8739505  18.2788093  65.3476022  68.8217670  26.5777790  77.9380563
  68.5218393  27.4802829  77.8296370  68.4768729  26.3109973  78.7901716
  62.2730151  23.0291587  73.9717267  61.3480648  22.8967801  74.1794959
  62.5214564  23.8085806  74.4687210  72.2214813  19.0960330  75.6178000
  71.3131691  19.0275739  75.3236761  72.1702409  19.5732275  76.4459826
  66.0431557  20.5718469  67.2561399  65.9231182  21.0175520  68.0946880
  65.3484146  20.9203786  66.6974938  59.6338962  22.6724861  74.8061056
  59.7631343  22.9259340  75.7200468  58.9536413  23.2652569  74.4865711
  63.8038449  33.3422111  70.9051531  63.7262479  34.2929936  70.9840011
  63.2000093  32.9967983  71.5626457  66.2955679  20.5149976  83.5612898
  65.5189013  21.0743896  83.5515762  66.9346242  21.0006759  84.0827768
  74.0876460  17.2976769  77.3955874  73.4450840  17.5909302  76.7495669
  73.5831388  17.1829689  78.2009071  71.7416623  21.0439942  68.0841733
  72.6534480  21.2767329  67.9089431  71.2326270  21.6276986  67.5216812
  64.5502051  23.3235429  83.1230865  65.2916736  23.8620473  82.8465688
  63.8439037  23.9501718  83.2802416  70.0257391  25.4664570  81.7203026
  70.4340747  25.0246980  80.9757658  69.3034653  24.8917197  81.9737219
  66.3788461  20.4037177  79.0936583  67.2249656  20.8276590  79.2371232
  66.3187099  19.7470801  79.7875146  70.3486206  26.0265760  75.4755315
  69.7195068  26.1911475  74.7731383  69.9611868  26.4407370  76.2466279
  74.2275438  26.9620198  72.8299679  73.5426476  27.3419100  72.2796712
  74.3119287  27.5715525  73.5631626  69.5287906  18.0641545  80.7517757
  69.2848838  18.8183605  80.2152032  69.8047837  18.4426893  81.5865004
  71.4826369  24.6080157  79.4295022  71.6943264  25.2511917  78.7529403
  71.4356117  23.7742474  78.9616952  69.0852598  17.2197978  76.3331594
  68.2237077  17.5179232  76.6248332  69.1115033  17.4368377  75.4012627
  65.9014168  25.7640169  72.7405400  66.3652513  26.0427872  71.9510022
  65.6370966  24.8623613  72.5578491  62.7938249  25.3111650  75.6785163
  63.3639606  25.7398918  75.0402648  63.3846361  25.0294235  76.3769349
  64.8383054  21.8863321  69.5494965  65.5407097  22.3384365  70.0168891
  64.5063682  21.2447140  70.1774858  63.2863415  20.4775078  83.9246174
  62.6562076  21.1591358  84.1581571  63.1799503  20.3658159  82.9799313
  58.5808388  20.1446874  74.8512099  57.7907442  20.4004402  74.3752209
  59.0719635  20.9595211  74.9564139  72.5972197  27.4852113  77.6017379
  73.4189641  27.0832300  77.3200061  72.5934600  27.3820347  78.5533495
  60.5323133  20.5091453  71.8095575  59.7354296  20.6210147  72.3279071
  60.3048725  20.8478105  70.9436466  66.3628801  27.0336156  79.7578090
  66.4273233  27.4956563  80.5936262  65.6539724  26.4033521  79.8860400
  56.8646091  20.3977364  77.2827089  57.1154129  21.2824374  77.5484665
  57.4005639  20.2181966  76.5102181  80.6878190  23.8290861  73.9502351
  79.9341899  23.2598259  73.7946355  80.8225731  23.7953526  74.8972986
  66.0776818  28.7004264  69.6257070  65.9422493  29.5455799  70.0541918
  66.6186631  28.9023541  68.8623004  62.5644158  14.7795843  86.2871426
  62.1711103  14.2262042  86.9619070  63.3810298  15.0906422  86.6777943
  59.5306216  26.2179702  70.1984995  60.0430736  27.0122952  70.3490560
  60.1828928  25.5205992  70.1318597  61.3401100  29.3345458  72.2807749
  61.5167729  30.2563423  72.0928732  62.1357934  29.0203877  72.7102128
  65.4812119  16.1953722  83.8791682  66.2221832  16.7960876  83.7996145
  65.7130042  15.4531360  83.3209725  60.6253457  21.3810090  82.1569912
  60.5106972  20.4795347  82.4577011  59.7697975  21.6273786  81.8054728
  67.7045295  29.3227830  83.7557412  67.2609149  28.5364209  83.4378317
  68.3662508  29.5106981  83.0901303  62.4632416  30.8523632  78.2818091
  63.0139841  30.7240695  77.5095085  61.6243892  31.1518521  77.9312984
  69.8026533  29.6030630  81.7838814  69.7845008  30.4239511  81.2919083
  70.7246453  29.4784705  82.0088955  66.2599587  27.1174759  82.6262322
  66.7927924  26.3563048  82.3961630  65.7313668  26.8248411  83.3686477
  69.4269282  12.2234825  78.1555964  69.0833551  13.1136467  78.0795074
  69.7948244  12.0336483  77.2925549  57.4955132  24.5468356  70.9744566
  58.3330354  24.9565364  70.7578274  57.6733400  23.6067798  70.9444760
  69.3919565  22.2143437  66.6628399  68.8766188  22.9848041  66.9016786
  69.1196873  21.5408573  67.2861460  66.9766676  17.0593137  71.7213637
  66.1208272  16.6699988  71.5419276  67.3893627  17.1385098  70.8613423
  68.5065822  14.5939481  76.1205197  68.0030618  14.5569616  75.3073002
  68.7996429  15.5032223  76.1801854  64.7508708  14.6778210  75.1271379
  65.6161705  14.4821019  74.7677268  64.8186217  14.4488562  76.0540736
  74.3653839  24.9675791  68.5981572  73.5883281  24.6286951  68.1536734
  75.0445320  24.9728414  67.9236537  69.1805868  20.0870529  68.4888180
  68.8756003  20.4016678  69.3398323  70.1336310  20.1651949  68.5315513
  67.6252300  26.2460752  70.1381134  67.0973661  25.5113512  69.8254372
  67.1239802  27.0235428  69.8921102  72.6045146  24.4409772  75.2548180
  71.9468820  25.1309034  75.3428309  73.4085545  24.8306204  75.5982167
  71.4150604  22.7954145  73.3052122  71.9282486  23.4284137  73.8073832
  72.0651828  22.1955341  72.9395482  62.6840614  18.9384879  66.5183631
  61.8477927  19.2759566  66.8392906  62.5445384  18.8033859  65.5810768
  64.6593695  13.7821667  71.2262815  64.0058107  13.4670684  70.6019430
  64.6174169  13.1597408  71.9522638  65.7704900  24.0640962  63.1416107
  64.8631962  23.8330216  63.3407256  66.2675932  23.2678581  63.3290089
  68.6772979  32.7738469  66.0612793  68.0034677  33.0770166  66.6697751
  69.0638801  33.5767550  65.7118250  67.8931435  20.2703601  75.5510463
  66.9753997  20.4918548  75.3932151  68.3091579  20.3449911  74.6922170
  68.6766483  21.6695016  70.6813143  69.4238302  22.1816414  70.3720265
  68.9458073  21.3479069  71.5417536  66.9493133  24.1653557  67.6640097
  66.0404352  23.8812590  67.7612567  66.9788217  24.5852636  66.8043404
  72.1812401  27.7760147  71.4331265  71.7274728  26.9351056  71.4896455
  71.5506367  28.4121545  71.7706045  71.1245320  18.7052133  72.6631932
  70.3868077  18.1929519  72.9942175  71.3772094  18.2652514  71.8515209
  70.6245340  29.6136643  72.3681083  70.9168314  30.1741700  71.6493449
  71.1343960  29.9065204  73.1234242  71.2256947  11.4828385  73.2573701
  71.5315824  10.6225748  72.9699617  71.9509552  12.0746005  73.0572695
  57.5181304  21.8859071  71.6455299  57.3205703  21.2928432  70.9206366
  56.9627968  21.5811281  72.3631238  65.4978027  21.7782178  73.7649893
  65.5526637  20.8256014  73.6892369  64.6869229  21.9341617  74.2491191
  66.6469221  25.7062301  65.0028176  66.2088651  24.9898160  64.5433813
  67.3879662  25.9338416  64.4413267  63.4370387  20.3959237  71.5240271
  62.6238253  20.6953408  71.9305464  63.9329381  20.0014926  72.2414754
  65.5878965  30.3916994  73.4574536  65.5455144  30.6177841  72.5283068
  66.5041664  30.1580369  73.6060337  69.0344599  20.8601062  80.3555165
  69.3893987  21.0872535  81.2149631  69.6816730  21.1919439  79.7332421
  74.7642336  23.9819498  71.0604494  74.6260234  24.1721094  70.1325684
  74.4078555  24.7438881  71.5172545  62.9284462  17.9677593  77.1401506
  63.5683841  17.8266352  76.4424470  62.0961992  17.6812106  76.7640108
  74.7911715  26.0496025  76.0715766  75.2248222  25.9571314  76.9198820
  75.5043296  26.0253525  75.4335782  63.7044766  27.2680023  73.2536499
  64.4985364  26.7730343  73.0519074  62.9936458  26.7397886  72.8904204
  68.5239610  29.6498119  77.6048866  68.5776633  30.2189055  78.3726582
  67.6554392  29.8200004  77.2402904  60.0127529  21.4123105  69.3296252
  59.0825117  21.3507561  69.5466214  60.1085001  20.8899058  68.5332893
  59.9313078  17.9377918  71.9174493  60.1919896  18.8523251  71.8083654
  60.7530251  17.4702360  72.0671106  61.4038004  19.3515675  79.0873318
  62.0761057  19.1433037  78.4385967  60.5767790  19.1537761  78.6478550
  75.6527265  26.0919725  78.6048651  75.8463155  26.9965536  78.8507926
  75.5527883  25.6327145  79.4387236  67.3063576  15.9777616  81.1038979
  66.6591491  16.6767566  81.0103455  68.0764591  16.4113760  81.4715227
  70.7142374  26.2426468  84.1789532  70.5627880  26.0137020  83.2619616
  70.7047053  27.1997070  84.1920877  67.4827710  23.8158381  79.1635798
  68.4119770  23.9669541  78.9904766  67.0618740  23.9042402  78.3084445
  66.2816042  27.8409045  76.9334336  66.1427128  27.4727830  77.8060274
  65.4930638  28.3556685  76.7618294  66.8764194  32.9418142  68.2759872
  67.0515949  32.4706185  69.0905495  66.1896982  33.5683908  68.5041133
  67.8321257  27.2190648  74.3223174  67.4971090  27.1791418  75.2180824
  67.3325203  26.5535364  73.8493584  61.8065501  22.6258278  79.8475755
  61.6685299  21.8938517  80.4487294  62.7170424  22.5367178  79.5659943
  70.7680449  24.5646682  64.5960233  70.1509619  23.8393511  64.4993286
  70.2996937  25.3256043  64.2527308  64.4347802  22.3378237  79.3359435
  65.1447420  21.6971430  79.2946053  64.3917110  22.5891132  80.2585615
  72.4234580  29.2745591  82.2566014  72.3647126  28.5904811  81.5896597
  72.8254099  30.0164581  81.8046640  63.1476736  19.3243455  81.1555074
  62.6114093  18.8734194  81.8076670  62.5593444  19.4589364  80.4125538
  62.5578995  18.7832107  63.7181538  61.6808461  18.6620907  63.3543784
  63.0336748  17.9918185  63.4660426  72.4251988  27.2385175  80.4879993
  71.5378766  26.9011096  80.6106392  72.9950539  26.5068206  80.7248759
  54.0781135  23.5709266  73.8123045  54.7652175  23.2570996  73.2244060
  53.9229263  24.4750631  73.5390296  58.8815857  18.4599463  78.2408068
  58.7974046  17.8525133  77.5058478  58.0598563  18.9508481  78.2417565
  65.9553141  31.8986627  77.4541237  65.8823312  32.7041599  77.9660541
  65.5130534  32.0978593  76.6289258  65.7442921  31.1358397  70.9644058
  64.9610442  31.6780077  71.0582283  66.4435666  31.6532377  71.3638299
  69.0539571  16.9453027  73.6078264  69.5508270  16.1922989  73.2879334
  68.2826552  16.9817343  73.0421473  76.9069328  22.6493392  75.2496555
  76.8959204  23.5318107  74.8790488  76.0386708  22.2964943  75.0551092
  68.4151824  31.7973461  79.6099395  69.1279797  32.4320926  79.5375297
  67.9241853  31.8937327  78.7939397  70.1369351  25.7024714  71.1816687
  69.2025630  25.8226176  71.0121391  70.3146020  24.7997181  70.9176697
  65.6374539  19.0870410  73.3349948  65.2672327  18.5341450  74.0230854
  66.1333632  18.4828543  72.7824948  73.5241903  21.5442033  71.7166721
  73.9902355  22.3770025  71.6427024  73.9749403  21.0787015  72.4211980
  63.4663738  29.5467905  80.4304966  64.1673197  30.1804387  80.5834360
  62.9958853  29.8882636  79.6700605  71.5918134  27.8885854  68.7152873
  71.8677978  27.7742449  69.6246747  70.7222633  27.4903339  68.6765046
  71.4958565  13.9122620  75.7557622  70.5821645  14.1426847  75.9239829
  71.9251667  13.9961064  76.6071655  71.2665024  22.1012512  78.2557516
  70.6136474  22.3488419  77.6009969  71.6445404  21.2876650  77.9219994
  68.2272198  32.1372205  72.3585687  68.4094592  31.3193861  72.8213439
  69.0505184  32.3539897  71.9210577  68.5614363  31.0640390  69.6200735
  69.0902130  30.5532845  69.0070897  68.8242583  30.7482920  70.4846268
  67.3152597  22.8432323  84.7423554  66.6393234  22.7426452  85.4125929
  68.1380231  22.6871537  85.2059551  53.6549111  21.6509860  76.0840512
  53.6933210  21.1173450  76.8777630  53.1489404  21.1245065  75.4651489
  66.0575380  34.1499250  78.9781170  66.6093688  34.3130872  79.7430255
  66.3981573  34.7403688  78.3061194  61.0339873  16.4974400  79.5803054
  61.0981200  17.3589231  79.1680452  60.9706993  15.8848402  78.8475413
  60.5092146  18.5697533  83.2276088  61.1364184  18.1874610  83.8413613
  59.6520064  18.3511735  83.5931781  70.9086254  28.9760508  84.8329824
  71.4526158  29.5890466  84.3384779  70.3273099  29.5340086  85.3496837
  57.2857688  20.3773962  69.1594443  57.5811129  19.4684640  69.1061497
  56.3845724  20.3561701  68.8375446  69.1943767  32.0981226  75.9644852
  69.0694907  31.2970966  75.4555797  69.8522858  32.5927419  75.4758822
  60.8151935  18.4529958  75.1421992  60.0938521  19.0665926  75.0029465
  61.6045191  18.9887723  75.0638638  71.2578676  29.8990246  77.5924402
  70.3109011  29.7795597  77.5202728  71.6061449  29.0112744  77.6750663
  63.6178249  15.7884385  81.4162644  64.1412651  16.0346682  82.1788953
  63.3990582  16.6204420  80.9965781  59.0145530  18.0588060  69.2833768
  58.6858236  17.1785439  69.1008874  59.3684901  18.0035728  70.1710158
  68.2625109  29.6942962  73.7928754  68.1150071  28.7659670  73.9736324
  69.0878602  29.7163053  73.3085829  62.1287353  18.3461029  69.6509246
  62.4683426  18.8746951  68.9287854  62.5759474  18.6841436  70.4267813
  71.8659231  30.5171521  74.8793627  72.7905778  30.3114382  74.7418078
  71.6974534  30.2687922  75.7882968  64.8230794  16.7298080  79.1012314
  64.4827614  15.9305893  79.5032994  64.1169800  17.0299791  78.5289147
  65.4747266  13.8147393  77.5539637  66.2973335  13.3407871  77.4318528
  65.7185329  14.5937876  78.0538323  64.1155500  16.8435651  67.8502539
  64.8363863  17.2216904  67.3466256  63.4920804  17.5624528  67.9537517
  68.2586623  17.5480800  68.7860871  68.4750238  18.4305438  68.4849699
  67.7780690  17.1567013  68.0566513  62.9985845  20.5066513  75.3631616
  62.8530425  20.8206816  76.2555897  62.5211048  21.1251413  74.8102514
  64.8582227  17.4969061  75.4112505  64.8443796  16.6010154  75.0744803
  65.5754656  17.5039725  76.0450791  66.7108358  17.9306401  77.4565633
  66.4526136  18.8523472  77.4549963  66.1793398  17.5336836  78.1466097
  71.6554547  31.0357188  70.2355718  71.8291424  30.4703611  69.4829571
  72.1483438  31.8358083  70.0535208  57.4731507  23.0471858  78.3019277
  56.9284975  23.8231666  78.4339551  58.3510857  23.3942662  78.1438398
  64.2619123  16.3783441  70.6800076  64.3835035  15.4500088  70.8790963
  63.9721166  16.3922127  69.7678391  67.1310314  14.0638352  73.8166795
  67.1532011  14.1277685  72.8618775  67.5478373  13.2242861  74.0107302
  77.5093938  23.7993611  71.8546018  77.9525084  23.0500937  71.4565141
  76.6320448  23.7903748  71.4719750  72.6429719  30.3523953  67.3352616
  73.3380624  30.9730646  67.5539931  72.9852870  29.5019304  67.6104994
  58.2597529  22.1741754  81.1949434  57.5179265  22.3224389  81.7814064
  57.9390273  22.4350019  80.3316183  74.5421142  27.8023658  68.8639947
  75.0672467  28.1410931  68.1389267  74.4543495  26.8670674  68.6803082
  66.2041191  31.7157732  80.9929824  66.5128318  31.4706879  81.8652523
  67.0016673  31.9204371  80.5048694  66.2261803  33.8695642  73.2235200
  65.7866794  33.3772020  73.9168057  66.9769920  33.3268609  72.9827276
  63.6735675  29.4133651  75.2957502  63.0515685  28.7504356  74.9959730
  64.3440542  29.4394783  74.6131150  63.7460203  17.8915439  84.8890008
  63.7948358  18.7677562  84.5067778  64.2882717  17.3492832  84.3161651
  74.2315049  28.4356562  84.1691145  73.4410592  28.4180701  83.6295645
  73.9948403  28.9744856  84.9240182  74.3512924  25.2849028  81.4823874
  74.4010929  25.1199036  82.4239397  74.2426847  24.4176287  81.0921754
  63.2349182  27.9637574  68.7715963  63.3837303  28.6473039  68.1182635
  64.0415626  27.9442664  69.2865418  71.6416686  21.2679956  82.7983180
  72.5426549  21.1286421  82.5067178  71.7164661  21.4334411  83.7381358
  65.9759491  18.6446811  81.6436367  65.1062801  18.9380377  81.3718955
  66.2118972  19.2287256  82.3643630  75.8531120  27.7045970  81.7265895
  75.5615929  28.0675950  82.5629356  75.2403252  26.9912978  81.5479227
  77.0526803  25.2698850  74.2468465  77.8873694  25.7088654  74.4106026
  77.1885932  24.7937503  73.4276711  74.1018309  22.8278585  80.1945953
  74.5772430  23.0206231  79.3864805  73.1783874  22.8837770  79.9489337
  68.6798525  14.8626428  79.1601787  69.1980469  15.5987455  78.8348276
  68.3253658  15.1690421  79.9948546  60.2597463  19.7231109  67.2763193
  59.5666708  19.7975464  66.6203229  60.0149215  18.9591453  67.7984710
  68.9311119  11.2826711  74.6802684  69.2112873  10.6149900  75.3063110
  69.7161726  11.4755806  74.1677348  66.7344588  30.4585705  66.2427710
  66.1618555  31.0775892  65.7898182  67.3077381  31.0085066  66.7767632
  72.8019978  19.7044345  78.4274259  73.7537401  19.8042442  78.4486483
  72.6323428  18.9122613  78.9372343  70.8234357  16.7899928  78.6133660
  70.2284289  17.0704941  77.9180148  70.5384054  17.2793829  79.3850401
  69.9541848  30.7422855  67.3736292  70.8872521  30.6768416  67.5769168
  69.8665060  31.5779122  66.9150825  72.5829864  30.0588725  64.3340240
  72.5043496  29.7248589  65.2275998  73.4039531  30.5510493  64.3331712
  75.2808055  22.9250464  77.5416558  75.2484376  21.9866465  77.7276242
  75.8908679  23.0034501  76.8082383  67.1191386  21.7946517  63.5843763
  68.0650491  21.6652725  63.6532181  66.7405631  21.0561179  64.0613191
  75.4302544  19.7161508  77.5874842  74.9141593  18.9319964  77.4004771
  76.3142492  19.3880224  77.7521361  73.0913271  13.4602523  73.5470654
  72.8938092  13.1517612  74.4313986  73.7012976  14.1864162  73.6768584
  81.0984605  23.9866471  76.6822595  81.8287994  23.7251759  77.2430299
  80.4891551  23.2495193  76.7224663  79.1799902  22.1274334  77.2797046
  78.4533066  21.9930299  76.6713538  78.7647189  22.4351162  78.0853765
  67.0030079  25.8464263  85.0444420  67.9233088  26.0242862  85.2384466
  66.9679662  24.9020309  84.8924119  65.3034303  19.7196494  63.5198648
  64.3965759  19.4229606  63.5961361  65.5810284  19.4226312  62.6532934
  56.2212244  21.0402857  73.9697694  55.9015028  20.1868165  73.6772068
  55.6745672  21.2551435  74.7255661  59.9992151  23.7565298  77.6867201
  60.2178161  24.6882406  77.7055234  60.4117925  23.3973273  78.4722005
  66.9196369  14.2633383  69.6742889  66.1097098  13.9180468  70.0498135
  67.6080786  13.9540927  70.2630501  68.8486917  13.3411430  71.2967186
  69.4017956  13.7606884  71.9557209  69.0857004  12.4147178  71.3390142
  64.8720017  19.3298504  87.0769950  64.7716744  20.2792861  87.0082041
  64.6541559  19.0016743  86.2046020  64.0733088  16.5783429  63.6610627
  64.9352252  16.9038327  63.9206444  64.2583432  15.7914925  63.1483693
  56.0900504  24.6605769  75.9390816  55.3963975  24.2459721  75.4260770
  56.8373495  24.7026305  75.3424235  72.2265725  15.4511955  70.8045850
  71.6464394  16.1096759  70.4223902  71.9601657  14.6289300  70.3933267
  70.6769291  14.8517013  73.0067170  71.1769069  14.9633548  72.1981489
  71.3204899  14.5478066  73.6467979  64.7351287  22.7595643  85.8935011
  64.2518368  23.5596003  86.0998900  64.8212226  22.7703588  84.9402455
  58.0037246  24.5924022  73.8156831  57.9807934  24.6911710  72.8638714
  58.3137883  25.4389173  74.1373997  60.6624624  26.6500177  77.9303445
  61.6167878  26.6184120  77.8633377  60.4637148  26.1890801  78.7453671
  61.2524006  25.2201293  80.4974243  62.0716895  25.7145372  80.5209080
  61.5260814  24.3033262  80.4691810  71.0090603  17.6112046  69.8602198
  70.1216458  17.8961696  69.6422393  71.4244592  17.4505809  69.0129475
  74.3605139  17.6358567  73.5756537  75.1365529  18.1255019  73.8481154
  73.6353273  18.0616621  74.0328407  76.7977697  18.3486186  74.6330478
  77.3922188  18.1081922  73.9223786  76.8704281  17.6293317  75.2604014
  70.1533816  27.3756720  63.9550218  70.8569666  27.5806723  64.5707874
  69.4296465  27.9433482  64.2199302  70.9831626  23.1266582  70.0752488
  70.9266828  23.5835133  69.2360121  71.5359969  22.3657266  69.8975331
  74.7936432  18.9156314  70.9002608  74.5373366  18.5152949  71.7310816
  74.1689300  19.6300108  70.7752747  79.1048770  21.6552387  73.4073899
  78.5448328  21.7245576  74.1805461  78.4992273  21.4793371  72.6873396
  72.0620513  27.8139250  66.0048678  72.8966117  27.3820448  65.8226153
  71.9004856  27.6421263  66.9325573  71.7166406  24.3171363  67.3705018
  71.6615209  24.1515634  66.4293462  71.0912461  25.0247396  67.5267207
  56.5058921  19.5539427  81.1966440  57.1517784  19.0438381  81.6853665
  56.2976072  20.2908109  81.7709865  69.0312313  26.6220275  86.6958580
  69.9003472  26.7960927  86.3345215  68.5519064  27.4414692  86.5734310
  65.0262531  13.8179472  66.9490336  65.0141201  14.7621312  67.1058607
  65.9185953  13.6349617  66.6549797  64.9552095  32.4948362  75.0358093
  64.0047726  32.4950224  74.9222465  65.2584581  31.7481097  74.5194127
  68.8414651  10.4122249  71.2036273  68.0747046   9.8580735  71.3492955
  69.2525356  10.4844117  72.0650424  60.8456412  16.7007044  85.2941454
  61.7087873  16.3443849  85.5044779  60.2721822  16.3620939  85.9816858
  80.6904789  38.3308901  76.1003855  81.3283199  38.2115648  75.3967195
  80.5725631  39.2789745  76.1591807  77.4994495  38.2836329  76.0365380
  77.1613006  38.1677394  75.1485915  78.3684263  37.8827494  76.0166386
  73.3581311  40.1371805  72.0262271  72.7946176  40.0461742  71.2578558
  73.2433706  39.3171710  72.5064763  77.9814278  39.4371181  81.9951585
  77.9702919  39.0423979  81.1232089  78.1434917  38.7037253  82.5885357
  70.9045742  41.6322997  74.8646491  71.6967034  41.2913822  74.4492790
  71.1442393  41.7417972  75.7848644  78.9380869  43.8042773  67.3376736
  78.2868849  44.3896853  66.9510749  79.7325232  44.3348968  67.3971773
  74.7021539  42.2208292  80.9430769  74.4111405  43.1253923  80.8277436
  75.3378523  42.2624820  81.6574839  75.6277746  39.5985141  77.5332129
  76.2241318  39.3741163  76.8189092  75.6852717  38.8569886  78.1357577
  75.2002774  37.0524576  65.3682320  75.4528295  36.5306098  64.6065783
  74.2627333  36.8890722  65.4709003  80.2446057  36.0560355  73.1757063
  81.0309146  35.6379778  72.8247480  80.5084761  36.9606447  73.3438711
  80.4156134  41.4933205  67.8745720  79.7801967  41.5667831  68.5866625
  80.0853541  42.0826804  67.1964799  85.6454484  35.9935588  74.0790042
  86.3779656  35.4234805  74.3127871  84.8893840  35.6057188  74.5196547
  74.9199063  38.9552682  67.5706695  74.8035321  38.2797586  68.2387779
  75.0301323  38.4685056  66.7538848  77.2630604  38.4162829  71.2753384
  76.8988811  37.8893450  71.9866305  78.1197720  38.0261298  71.1019869
  83.1679905  29.7057162  78.5384650  82.8363229  30.5752573  78.3145865
  82.5725518  29.3893446  79.2178681  76.9036091  33.4452729  66.2714733
  77.0710493  34.3132965  66.6385204  76.7133260  33.6080011  65.3476022
  79.6611424  41.9069708  77.9380563  79.3612147  42.8094747  77.8296370
  79.3162484  41.6401891  78.7901716  73.1123906  38.3583505  73.9717267
  72.1874402  38.2259719  74.1794959  73.3608319  39.1377724  74.4687210
  83.0608568  34.4252248  75.6178000  82.1525445  34.3567657  75.3236761
  83.0096164  34.9024193  76.4459826  76.8825312  35.9010386  67.2561399
  76.7624937  36.3467437  68.0946880  76.1877900  36.2495704  66.6974938
  70.4732717  38.0016778  74.8061056  70.6025098  38.2551257  75.7200468
  69.7930168  38.5944486  74.4865711  77.1349434  35.8441894  83.5612898
  76.3582768  36.4035814  83.5515762  77.7739997  36.3298677  84.0827768
  84.9270214  32.6268686  77.3955874  84.2844594  32.9201220  76.7495669
  84.4225143  32.5121607  78.2009071  82.5810378  36.3731860  68.0841733
  83.4928234  36.6059246  67.9089431  82.0720025  36.9568904  67.5216812
  75.3895806  38.6527347  83.1230865  76.1310490  39.1912391  82.8465688
  74.6832791  39.2793636  83.2802416  80.8651146  40.7956488  81.7203026
  81.2734502  40.3538898  80.9757658  80.1428407  40.2209115  81.9737219
  77.2182216  35.7329094  79.0936583  78.0643411  36.1568508  79.2371232
  77.1580853  35.0762719  79.7875146  81.1879960  41.3557678  75.4755315
  80.5588823  41.5203392  74.7731383  80.8005622  41.7699288  76.2466279
  85.0669192  42.2912116  72.8299679  84.3820230  42.6711017  72.2796712
  85.1513041  42.9007443  73.5631626  80.3681661  33.3933463  80.7517757
  80.1242593  34.1475523  80.2152032  80.6441591  33.7718810  81.5865004
  82.3220124  39.9372075  79.4295022  82.5337019  40.5803835  78.7529403
  82.2749872  39.1034392  78.9616952  79.9246353  32.5489896  76.3331594
  79.0630832  32.8471149  76.6248332  79.9508787  32.7660295  75.4012627
  76.7407922  41.0932086  72.7405400  77.2046268  41.3719789  71.9510022
  76.4764720  40.1915531  72.5578491  73.6332003  40.6403568  75.6785163
  74.2033360  41.0690836  75.0402648  74.2240115  40.3586152  76.3769349
  75.6776808  37.2155239  69.5494965  76.3800851  37.6676282  70.0168891
  75.3457437  36.5739057  70.1774858  74.1257170  35.8066995  83.9246174
  73.4955830  36.4883276  84.1581571  74.0193258  35.6950077  82.9799313
  69.4202142  35.4738791  74.8512099  68.6301196  35.7296320  74.3752209
  69.9113389  36.2887129  74.9564139  83.4365952  42.8144030  77.6017379
  84.2583395  42.4124218  77.3200061  83.4328355  42.7112265  78.5533495
  71.3716887  35.8383370  71.8095575  70.5748051  35.9502065  72.3279071
  71.1442480  36.1770023  70.9436466  77.2022555  42.3628074  79.7578090
  77.2666988  42.8248481  80.5936262  76.4933479  41.7325439  79.8860400
  67.7039845  35.7269282  77.2827089  67.9547884  36.6116292  77.5484665
  68.2399393  35.5473883  76.5102181  91.5271945  39.1582779  73.9502351
  90.7735653  38.5890177  73.7946355  91.6619486  39.1245443  74.8972986
  76.9170573  44.0296181  69.6257070  76.7816248  44.8747717  70.0541918
  77.4580385  44.2315459  68.8623004  73.4037912  30.1087761  86.2871426
  73.0104858  29.5553960  86.9619070  74.2204053  30.4198340  86.6777943
  76.3205873  31.5245640  83.8791682  77.0615587  32.1252793  83.7996145
  76.5523796  30.7823278  83.3209725  71.4647211  36.7102007  82.1569912
  71.3500727  35.8087265  82.4577011  70.6091729  36.9565704  81.8054728
  78.5439049  44.6519748  83.7557412  78.1002903  43.8656126  83.4378317
  79.2056263  44.8398898  83.0901303  73.3026170  46.1815549  78.2818091
  73.8533595  46.0532613  77.5095085  72.4637646  46.4810438  77.9312984
  80.6420287  44.9322548  81.7838814  80.6238763  45.7531429  81.2919083
  81.5640207  44.8076623  82.0088955  77.0993341  42.4466677  82.6262322
  77.6321678  41.6854965  82.3961630  76.5707422  42.1540329  83.3686477
  80.2663036  27.5526743  78.1555964  79.9227306  28.4428385  78.0795074
  80.6341999  27.3628401  77.2925549  68.3348887  39.8760274  70.9744566
  69.1724109  40.2857282  70.7578274  68.5127155  38.9359716  70.9444760
  80.2313319  37.5435354  66.6628399  79.7159942  38.3139959  66.9016786
  79.9590627  36.8700490  67.2861460  77.8160430  32.3885055  71.7213637
  76.9602026  31.9991905  71.5419276  78.2287382  32.4677016  70.8613423
  79.3459577  29.9231398  76.1205197  78.8424372  29.8861533  75.3073002
  79.6390184  30.8324141  76.1801854  75.5902463  30.0070128  75.1271379
  76.4555459  29.8112937  74.7677268  75.6579972  29.7780480  76.0540736
  85.2047593  40.2967709  68.5981572  84.4277036  39.9578868  68.1536734
  85.8839074  40.3020332  67.9236537  80.0199622  35.4162446  68.4888180
  79.7149758  35.7308595  69.3398323  80.9730064  35.4943866  68.5315513
  78.4646054  41.5752670  70.1381134  77.9367416  40.8405429  69.8254372
  77.9633557  42.3527346  69.8921102  83.4438900  39.7701690  75.2548180
  82.7862575  40.4600951  75.3428309  84.2479299  40.1598122  75.5982167
  73.1964782  32.2372336  72.4987746  73.7708534  32.0147517  71.7660939
  73.7835764  32.3061030  73.2516347  82.2544359  38.1246063  73.3052122
  82.7676241  38.7576055  73.8073832  82.9045583  37.5247258  72.9395482
  73.5234369  34.2676797  66.5183631  72.6871681  34.6051483  66.8392906
  73.3839138  34.1325777  65.5810768  75.4987449  29.1113585  71.2262815
  74.8451862  28.7962602  70.6019430  75.4567924  28.4889325  71.9522638
  76.6098654  39.3932880  63.1416107  75.7025716  39.1622133  63.3407256
  77.1069686  38.5970499  63.3290089  79.5166733  48.1030387  66.0612793
  78.8428432  48.4062084  66.6697751  79.9032555  48.9059467  65.7118250
  78.7325190  35.5995518  75.5510463  77.8147751  35.8210465  75.3932151
  79.1485333  35.6741829  74.6922170  79.5160238  36.9986934  70.6813143
  80.2632056  37.5108331  70.3720265  79.7851827  36.6770987  71.5417536
  77.7886888  39.4945475  67.6640097  76.8798107  39.2104508  67.7612567
  77.8181971  39.9144553  66.8043404  83.0206155  43.1052064  71.4331265
  82.5668482  42.2642974  71.4896455  82.3900122  43.7413463  71.7706045
  81.9639075  34.0344050  72.6631932  81.2261831  33.5221436  72.9942175
  82.2165848  33.5944432  71.8515209  81.4639094  44.9428561  72.3681083
  81.7562069  45.5033618  71.6493449  81.9737715  45.2357122  73.1234242
  82.0650702  26.8120302  73.2573701  82.3709579  25.9517666  72.9699617
  82.7903307  27.4037922  73.0572695  68.3575058  37.2150989  71.6455299
  68.1599458  36.6220350  70.9206366  67.8021722  36.9103199  72.3631238
  76.3371782  37.1074095  73.7649893  76.3920392  36.1547932  73.6892369
  75.5262984  37.2633534  74.2491191  77.4862975  41.0354218  65.0028176
  77.0482405  40.3190077  64.5433813  78.2273416  41.2630333  64.4413267
  74.2764142  35.7251155  71.5240271  73.4632007  36.0245326  71.9305464
  74.7723136  35.3306844  72.2414754  76.4272720  45.7208912  73.4574536
  76.3848898  45.9469758  72.5283068  77.3435418  45.4872287  73.6060337
  79.8738353  36.1892980  80.3555165  80.2287741  36.4164453  81.2149631
  80.5210485  36.5211356  79.7332421  85.6036090  39.3111415  71.0604494
  85.4653989  39.5013011  70.1325684  85.2472309  40.0730798  71.5172545
  73.7678216  33.2969511  77.1401506  74.4077596  33.1558270  76.4424470
  72.9355747  33.0104024  76.7640108  85.6305470  41.3787942  76.0715766
  86.0641977  41.2863232  76.9198820  86.3437051  41.3545443  75.4335782
  74.5438520  42.5971941  73.2536499  75.3379119  42.1022261  73.0519074
  73.8330213  42.0689804  72.8904204  79.3633365  44.9790037  77.6048866
  79.4170387  45.5480973  78.3726582  78.4948146  45.1491922  77.2402904
  70.8521284  36.7415023  69.3296252  69.9218872  36.6799478  69.5466214
  70.9478756  36.2190976  68.5332893  70.7706833  33.2669836  71.9174493
  71.0313650  34.1815169  71.8083654  71.5924005  32.7994278  72.0671106
  72.2431758  34.6807593  79.0873318  72.9154812  34.4724955  78.4385967
  71.4161545  34.4829679  78.6478550  86.4921019  41.4211643  78.6048651
  86.6856910  42.3257454  78.8507926  86.3921638  40.9619062  79.4387236
  78.1457330  31.3069534  81.1038979  77.4985245  32.0059483  81.0103455
  78.9158346  31.7405678  81.4715227  81.5536128  41.5718386  84.1789532
  81.4021635  41.3428938  83.2619616  81.5440808  42.5288987  84.1920877
  78.3221465  39.1450299  79.1635798  79.2513525  39.2961458  78.9904766
  77.9012495  39.2334319  78.3084445  77.1209796  43.1700963  76.9334336
  76.9820882  42.8019747  77.8060274  76.3324393  43.6848602  76.7618294
  78.6715011  42.5482566  74.3223174  78.3364844  42.5083336  75.2180824
  78.1718957  41.8827282  73.8493584  72.6459255  37.9550196  79.8475755
  72.5079053  37.2230435  80.4487294  73.5564179  37.8659096  79.5659943
  81.6074203  39.8938600  64.5960233  80.9903374  39.1685428  64.4993286
  81.1390692  40.6547960  64.2527308  75.2741556  37.6670155  79.3359435
  75.9841175  37.0263347  79.2946053  75.2310864  37.9183050  80.2585615
  83.2628335  44.6037508  82.2566014  83.2040881  43.9196729  81.5896597
  83.6647853  45.3456498  81.8046640  73.9870490  34.6535373  81.1555074
  73.4507847  34.2026111  81.8076670  73.3987199  34.7881282  80.4125538
  73.3972749  34.1124024  63.7181538  72.5202215  33.9912825  63.3543784
  73.8730502  33.3210103  63.4660426  83.2645742  42.5677092  80.4879993
  82.3772521  42.2303014  80.6106392  83.8344293  41.8360124  80.7248759
  64.9174889  38.9001184  73.8123045  65.6045929  38.5862914  73.2244060
  64.7623018  39.8042549  73.5390296  69.7209611  33.7891381  78.2408068
  69.6367800  33.1817050  77.5058478  68.8992318  34.2800399  78.2417565
  76.7946895  47.2278545  77.4541237  76.7217067  48.0333516  77.9660541
  76.3524289  47.4270511  76.6289258  79.8933325  32.2744944  73.6078264
  80.3902025  31.5214907  73.2879334  79.1220307  32.3109261  73.0421473
  87.7463083  37.9785310  75.2496555  87.7352959  38.8610025  74.8790488
  86.8780462  37.6256861  75.0551092  79.2545579  47.1265379  79.6099395
  79.9673551  47.7612844  79.5375297  78.7635608  47.2229245  78.7939397
  80.9763106  41.0316631  71.1816687  80.0419385  41.1518094  71.0121391
  81.1539774  40.1289098  70.9176697  76.4768294  34.4162327  73.3349948
  76.1066081  33.8633368  74.0230854  76.9727386  33.8120461  72.7824948
  84.3635657  36.8733951  71.7166721  84.8296109  37.7061942  71.6427024
  84.8143158  36.4078932  72.4211980  74.3057492  44.8759822  80.4304966
  75.0066952  45.5096305  80.5834360  73.8352607  45.2174554  79.6700605
  82.4311888  43.2177772  68.7152873  82.7071732  43.1034367  69.6246747
  81.5616387  42.8195257  68.6765046  82.3352320  29.2414538  75.7557622
  81.4215400  29.4718765  75.9239829  82.7645421  29.3252982  76.6071655
  82.1058778  37.4304430  78.2557516  81.4530229  37.6780337  77.6009969
  82.4839158  36.6168568  77.9219994  79.0665952  47.4664123  72.3585687
  79.2488347  46.6485779  72.8213439  79.8898938  47.6831815  71.9210577
  79.4008118  46.3932308  69.6200735  79.9295884  45.8824763  69.0070897
  79.6636337  46.0774838  70.4846268  78.1546351  38.1724241  84.7423554
  77.4786988  38.0718370  85.4125929  78.9773985  38.0163454  85.2059551
  69.9025211  44.4096177  77.3636069  70.4878647  43.6639865  77.4963973
  69.7050049  44.7200134  78.2472733  64.4942865  36.9801777  76.0840512
  64.5326965  36.4465368  76.8777630  63.9883158  36.4536983  75.4651489
  76.8969134  49.4791168  78.9781170  77.4487442  49.6422790  79.7430255
  77.2375328  50.0695606  78.3061194  71.8733628  31.8266318  79.5803054
  71.9374954  32.6881149  79.1680452  71.8100748  31.2140320  78.8475413
  71.3485900  33.8989450  83.2276088  71.9757939  33.5166528  83.8413613
  70.4913819  33.6803652  83.5931781  81.7480009  44.3052426  84.8329824
  82.2919913  44.9182384  84.3384779  81.1666854  44.8632004  85.3496837
  68.1251443  35.7065880  69.1594443  68.4204884  34.7976558  69.1061497
  67.2239479  35.6853619  68.8375446  80.0337522  47.4273144  75.9644852
  79.9088661  46.6262884  75.4555797  80.6916613  47.9219337  75.4758822
  71.6545690  33.7821876  75.1421992  70.9332276  34.3957844  75.0029465
  72.4438946  34.3179641  75.0638638  82.0972430  45.2282164  77.5924402
  81.1502766  45.1087515  77.5202728  82.4455203  44.3404662  77.6750663
  74.4572003  31.1176303  81.4162644  74.9806405  31.3638599  82.1788953
  74.2384337  31.9496337  80.9965781  69.8539284  33.3879977  69.2833768
  69.5251991  32.5077356  69.1008874  70.2078655  33.3327646  70.1710158
  79.1018863  45.0234880  73.7928754  78.9543826  44.0951587  73.9736324
  79.9272357  45.0454971  73.3085829  72.9681108  33.6752947  69.6509246
  73.3077180  34.2038868  68.9287854  73.4153228  34.0133353  70.4267813
  82.7052985  45.8463439  74.8793627  83.6299533  45.6406300  74.7418078
  82.5368289  45.5979840  75.7882968  75.6624548  32.0589998  79.1012314
  75.3221369  31.2597811  79.5032994  74.9563555  32.3591709  78.5289147
  76.3141020  29.1439310  77.5539637  77.1367090  28.6699788  77.4318528
  76.5579084  29.9229794  78.0538323  74.9549255  32.1727569  67.8502539
  75.6757617  32.5508821  67.3466256  74.3314559  32.8916445  67.9537517
  79.0980378  32.8772718  68.7860871  79.3143992  33.7597355  68.4849699
  78.6174445  32.4858931  68.0566513  73.8379599  35.8358431  75.3631616
  73.6924180  36.1498734  76.2555897  73.3604803  36.4543331  74.8102514
  75.6975982  32.8260979  75.4112505  75.6837551  31.9302072  75.0744803
  76.4148410  32.8331643  76.0450791  77.5502113  33.2598319  77.4565633
  77.2919890  34.1815390  77.4549963  77.0187153  32.8628754  78.1466097
  82.4948301  46.3649106  70.2355718  82.6685179  45.7995529  69.4829571
  82.9877193  47.1650001  70.0535208  68.3125261  38.3763775  78.3019277
  67.7678729  39.1523583  78.4339551  69.1904611  38.7234580  78.1438398
  75.1012878  31.7075359  70.6800076  75.2228789  30.7792005  70.8790963
  74.8114920  31.7214045  69.7678391  77.9704068  29.3930270  73.8166795
  77.9925765  29.4569603  72.8618775  78.3872127  28.5534778  74.0107302
  88.3487693  39.1285529  71.8546018  88.7918839  38.3792854  71.4565141
  87.4714203  39.1195665  71.4719750  83.4823474  45.6815871  67.3352616
  84.1774378  46.3022563  67.5539931  83.8246624  44.8311222  67.6104994
  69.0991283  37.5033672  81.1949434  68.3573019  37.6516307  81.7814064
  68.7784027  37.7641937  80.3316183  85.3814897  43.1315576  68.8639947
  85.9066221  43.4702849  68.1389267  85.2937250  42.1962591  68.6803082
  77.0434946  47.0449650  80.9929824  77.3522072  46.7998797  81.8652523
  77.8410428  47.2496288  80.5048694  77.0655558  49.1987559  73.2235200
  76.6260548  48.7063938  73.9168057  77.8163675  48.6560527  72.9827276
  74.5129430  44.7425568  75.2957502  73.8909439  44.0796273  74.9959730
  75.1834297  44.7686700  74.6131150  67.7456502  43.3085427  74.1848762
  66.9088410  42.8807601  74.0032763  67.7180147  43.5017870  75.1219553
  74.5853957  33.2207356  84.8890008  74.6342113  34.0969479  84.5067778
  75.1276472  32.6784750  84.3161651  85.0708803  43.7648480  84.1691145
  84.2804347  43.7472619  83.6295645  84.8342158  44.3036773  84.9240182
  85.1906678  40.6140946  81.4823874  85.2404683  40.4490954  82.4239397
  85.0820601  39.7468205  81.0921754  82.4810440  36.5971874  82.7983180
  83.3820303  36.4578339  82.5067178  82.5558415  36.7626329  83.7381358
  76.8153246  33.9738729  81.6436367  75.9456555  34.2672295  81.3718955
  77.0512726  34.5579174  82.3643630  86.6924875  43.0337888  81.7265895
  86.4009683  43.3967868  82.5629356  86.0797006  42.3204896  81.5479227
  87.8920557  40.5990767  74.2468465  88.7267449  41.0380571  74.4106026
  88.0279686  40.1229421  73.4276711  84.9412063  38.1570502  80.1945953
  85.4166185  38.3498149  79.3864805  84.0177629  38.2129688  79.9489337
  71.8295570  39.3194669  69.7777032  71.5841612  38.4156999  69.9757242
  71.9991484  39.3211820  68.8356510  79.5192280  30.1918346  79.1601787
  80.0374224  30.9279373  78.8348276  79.1647412  30.4982339  79.9948546
  71.0991217  35.0523027  67.2763193  70.4060462  35.1267382  66.6203229
  70.8542969  34.2883371  67.7984710  79.7704874  26.6118628  74.6802684
  80.0506628  25.9441817  75.3063110  80.5555481  26.8047724  74.1677348
  77.5738342  45.7877622  66.2427710  77.0012309  46.4067809  65.7898182
  78.1471136  46.3376984  66.7767632  83.6413732  35.0336262  78.4274259
  84.5931155  35.1334360  78.4486483  83.4717183  34.2414531  78.9372343
  81.6628112  32.1191846  78.6133660  81.0678044  32.3996858  77.9180148
  81.3777808  32.6085746  79.3850401  80.7935602  46.0714772  67.3736292
  81.7266275  46.0060334  67.5769168  80.7058815  46.9071039  66.9150825
  83.4223619  45.3880643  64.3340240  83.3437250  45.0540506  65.2275998
  84.2433286  45.8802411  64.3331712  86.1201810  38.2542382  77.5416558
  86.0878130  37.3158383  77.7276242  86.7302434  38.3326419  76.8082383
  77.9585141  37.1238435  63.5843763  78.9044246  36.9944643  63.6532181
  77.5799386  36.3853097  64.0613191  86.2696298  35.0453425  77.5874842
  85.7535347  34.2611882  77.4004771  87.1536247  34.7172142  77.7521361
  83.9307025  28.7894441  73.5470654  83.7331846  28.4809529  74.4313986
  84.5406731  29.5156080  73.6768584  91.9378360  39.3158389  76.6822595
  92.6681748  39.0543677  77.2430299  91.3285305  38.5787111  76.7224663
  90.0193657  37.4566251  77.2797046  89.2926820  37.3222216  76.6713538
  89.6040944  37.7643080  78.0853765  77.8423833  41.1756181  85.0444420
  78.7626843  41.3534780  85.2384466  77.8073416  40.2312226  84.8924119
  76.1428058  35.0488411  63.5198648  75.2359513  34.7521524  63.5961361
  76.4204039  34.7518229  62.6532934  67.0605998  36.3694775  73.9697694
  66.7408783  35.5160083  73.6772068  66.5139427  36.5843353  74.7255661
  70.8385906  39.0857216  77.6867201  71.0571916  40.0174324  77.7055234
  71.2511680  38.7265190  78.4722005  77.7590124  29.5925301  69.6742889
  76.9490852  29.2472386  70.0498135  78.4474541  29.2832845  70.2630501
  79.6880672  28.6703348  71.2967186  80.2411711  29.0898801  71.9557209
  79.9250758  27.7439096  71.3390142  75.7113771  34.6590422  87.0769950
  75.6110498  35.6084779  87.0082041  75.4935313  34.3308660  86.2046020
  74.9126843  31.9075347  63.6610627  75.7746007  32.2330245  63.9206444
  75.0977187  31.1206843  63.1483693  66.9294258  39.9897686  75.9390816
  66.2357730  39.5751639  75.4260770  67.6767249  40.0318223  75.3424235
  83.0659479  30.7803873  70.8045850  82.4858148  31.4388677  70.4223902
  82.7995412  29.9581218  70.3933267  81.5163045  30.1808931  73.0067170
  82.0162824  30.2925465  72.1981489  82.1598653  29.8769984  73.6467979
  75.5745041  38.0887560  85.8935011  75.0912123  38.8887921  86.0998900
  75.6605980  38.0995505  84.9402455  68.8431001  39.9215940  73.8156831
  68.8201689  40.0203627  72.8638714  69.1531637  40.7681091  74.1373997
  71.5018379  41.9792095  77.9303445  72.4561632  41.9476037  77.8633377
  71.3030902  41.5182719  78.7453671  72.0917761  40.5493211  80.4974243
  72.9110650  41.0437290  80.5209080  72.3654569  39.6325179  80.4691810
  81.8484357  32.9403963  69.8602198  80.9610212  33.2253614  69.6422393
  82.2638346  32.7797727  69.0129475  85.1998893  32.9650484  73.5756537
  85.9759283  33.4546937  73.8481154  84.4747027  33.3908539  74.0328407
  87.6371452  33.6778104  74.6330478  88.2315943  33.4373840  73.9223786
  87.7098036  32.9585234  75.2604014  80.9927571  42.7048638  63.9550218
  81.6963421  42.9098641  64.5707874  80.2690219  43.2725400  64.2199302
  81.8225381  38.4558499  70.0752488  81.7660582  38.9127051  69.2360121
  82.3753723  37.6949184  69.8975331  85.6330187  34.2448231  70.9002608
  85.3767121  33.8444867  71.7310816  85.0083055  34.9592025  70.7752747
  89.9442525  36.9844304  73.4073899  89.3842083  37.0537494  74.1805461
  89.3386028  36.8085289  72.6873396  82.9014268  43.1431167  66.0048678
  83.7359872  42.7112366  65.8226153  82.7398611  42.9713181  66.9325573
  82.5560160  39.6463281  67.3705018  82.5008964  39.4807552  66.4293462
  81.9306215  40.3539314  67.5267207  67.3452675  34.8831345  81.1966440
  67.9911539  34.3730299  81.6853665  67.1369826  35.6200027  81.7709865
  79.8706067  41.9512192  86.6958580  80.7397227  42.1252845  86.3345215
  79.3912819  42.7706609  86.5734310  75.8656286  29.1471390  66.9490336
  75.8534955  30.0913230  67.1058607  76.7579707  28.9641535  66.6549797
  74.0392248  49.0709293  78.3748014  74.9419494  49.1032904  78.6914509
  73.8129618  48.1409744  78.3894350  75.7945850  47.8240280  75.0358093
  74.8441481  47.8242142  74.9222465  76.0978336  47.0773015  74.5194127
  79.6808405  25.7414166  71.2036273  78.9140801  25.1872653  71.3492955
  80.0919110  25.8136035  72.0650424  71.6850166  32.0298962  85.2941454
  72.5481628  31.6735767  85.5044779  71.1115577  31.6912857  85.9816858
  91.5298543  53.6600818  76.1003855  92.1676953  53.5407566  75.3967195
  91.4119386  54.6081662  76.1591807  88.3388249  53.6128247  76.0365380
  88.0006761  53.4969311  75.1485915  89.2078018  53.2119412  76.0166386
  84.1975065  55.4663723  72.0262271  83.6339930  55.3753660  71.2578558
  84.0827460  54.6463627  72.5064763  88.8208032  54.7663098  81.9951585
  88.8096673  54.3715897  81.1232089  88.9828672  54.0329171  82.5885357
  81.7439497  56.9614915  74.8646491  82.5360789  56.6205739  74.4492790
  81.9836147  57.0709890  75.7848644  83.7030251  56.2223828  67.7363870
  84.4761127  55.6752815  67.5976746  84.0555650  57.0868077  67.9478331
  85.5415293  57.5500210  80.9430769  85.2505159  58.4545841  80.8277436
  86.1772278  57.5916738  81.6574839  86.4671500  54.9277059  77.5332129
  87.0635073  54.7033081  76.8189092  86.5246472  54.1861804  78.1357577
  86.0396529  52.3816494  65.3682320  86.2922049  51.8598015  64.6065783
  85.1021088  52.2182639  65.4709003  91.0839812  51.3852272  73.1757063
  91.8702901  50.9671695  72.8247480  91.3478516  52.2898364  73.3438711
  96.4848239  51.3227505  74.0790042  97.2173411  50.7526722  74.3127871
  95.7287594  50.9349106  74.5196547  85.7592817  54.2844600  67.5706695
  85.6429076  53.6089503  68.2387779  85.8695077  53.7976974  66.7538848
  88.1024358  53.7454747  71.2753384  87.7382566  53.2185368  71.9866305
  88.9591474  53.3553216  71.1019869  94.0073659  45.0349080  78.5384650
  93.6756984  45.9044491  78.3145865  93.4119272  44.7185364  79.2178681
  87.7429845  48.7744647  66.2714733  87.9104248  49.6424883  66.6385204
  87.5527014  48.9371928  65.3476022  90.5005179  57.2361626  77.9380563
  90.2005902  58.1386664  77.8296370  90.1556238  56.9693809  78.7901716
  83.9517660  53.6875422  73.9717267  83.0268156  53.5551637  74.1794959
  84.2002073  54.4669642  74.4687210  93.9002322  49.7544166  75.6178000
  92.9919200  49.6859574  75.3236761  93.8489918  50.2316111  76.4459826
  87.7219066  51.2302304  67.2561399  87.6018691  51.6759355  68.0946880
  87.0271655  51.5787622  66.6974938  81.3126471  53.3308696  74.8061056
  81.4418852  53.5843175  75.7200468  80.6323922  53.9236404  74.4865711
  85.4825958  64.0005946  70.9051531  85.4049988  64.9513771  70.9840011
  84.8787602  63.6551818  71.5626457  87.9743188  51.1733811  83.5612898
  87.1976522  51.7327731  83.5515762  88.6133751  51.6590594  84.0827768
  95.7663969  47.9560604  77.3955874  95.1238349  48.2493137  76.7495669
  95.2618897  47.8413524  78.2009071  93.4204132  51.7023777  68.0841733
  94.3321989  51.9351164  67.9089431  92.9113779  52.2860822  67.5216812
  86.2289560  53.9819265  83.1230865  86.9704245  54.5204309  82.8465688
  85.5226546  54.6085553  83.2802416  91.7044900  56.1248405  81.7203026
  92.1128256  55.6830816  80.9757658  90.9822162  55.5501033  81.9737219
  88.0575970  51.0621012  79.0936583  88.9037165  51.4860426  79.2371232
  87.9974608  50.4054636  79.7875146  92.0273715  56.6849596  75.4755315
  91.3982577  56.8495310  74.7731383  91.6399377  57.0991205  76.2466279
  95.9062947  57.6204034  72.8299679  95.2213985  58.0002935  72.2796712
  95.9906796  58.2299360  73.5631626  91.2075415  48.7225380  80.7517757
  90.9636347  49.4767441  80.2152032  91.4835346  49.1010728  81.5865004
  93.1613878  55.2663993  79.4295022  93.3730773  55.9095753  78.7529403
  93.1143626  54.4326309  78.9616952  90.7640107  47.8781813  76.3331594
  89.9024586  48.1763067  76.6248332  90.7902542  48.0952212  75.4012627
  87.5801677  56.4224004  72.7405400  88.0440022  56.7011707  71.9510022
  87.3158475  55.5207448  72.5578491  84.4725758  55.9695485  75.6785163
  85.0427115  56.3982754  75.0402648  85.0633869  55.6878070  76.3769349
  86.5170563  52.5447156  69.5494965  87.2194606  52.9968200  70.0168891
  86.1851191  51.9030975  70.1774858  84.9650924  51.1358913  83.9246174
  84.3349585  51.8175194  84.1581571  84.8587012  51.0241994  82.9799313
  80.2595897  50.8030709  74.8512099  79.4694951  51.0588237  74.3752209
  80.7507144  51.6179047  74.9564139  94.2759706  58.1435948  77.6017379
  95.0977150  57.7416135  77.3200061  94.2722109  58.0404182  78.5533495
  82.2110642  51.1675288  71.8095575  81.4141805  51.2793982  72.3279071
  81.9836234  51.5061940  70.9436466  88.0416310  57.6919991  79.7578090
  88.1060742  58.1540399  80.5936262  87.3327233  57.0617356  79.8860400
  78.5433600  51.0561199  77.2827089  78.7941638  51.9408209  77.5484665
  79.0793148  50.8765801  76.5102181 102.3665699  54.4874697  73.9502351
 101.6129408  53.9182095  73.7946355 102.5013240  54.4537361  74.8972986
  87.7564327  59.3588099  69.6257070  87.6210002  60.2039635  70.0541918
  88.2974140  59.5607377  68.8623004  84.2431667  45.4379679  86.2871426
  83.8498612  44.8845877  86.9619070  85.0597807  45.7490257  86.6777943
  81.2093725  56.8763537  70.1984995  81.7218245  57.6706787  70.3490560
  81.8616437  56.1789827  70.1318597  83.0188609  59.9929293  72.2807749
  83.1955238  60.9147258  72.0928732  83.8145443  59.6787712  72.7102128
  87.1599628  46.8537558  83.8791682  87.9009341  47.4544711  83.7996145
  87.3917551  46.1115196  83.3209725  82.3040966  52.0393925  82.1569912
  82.1894481  51.1379182  82.4577011  81.4485484  52.2857622  81.8054728
  89.3832804  59.9811665  83.7557412  88.9396658  59.1948044  83.4378317
  90.0450017  60.1690816  83.0901303  84.1419925  61.5107467  78.2818091
  84.6927350  61.3824530  77.5095085  83.3031401  61.8102356  77.9312984
  91.4814042  60.2614465  81.7838814  91.4632517  61.0823346  81.2919083
  92.4033962  60.1368541  82.0088955  87.9387096  57.7758595  82.6262322
  88.4715433  57.0146883  82.3961630  87.4101177  57.4832247  83.3686477
  91.1056791  42.8818661  78.1555964  90.7621060  43.7720302  78.0795074
  91.4735753  42.6920318  77.2925549  79.1742641  55.2052191  70.9744566
  80.0117863  55.6149200  70.7578274  79.3520909  54.2651633  70.9444760
  88.6554185  47.7176973  71.7213637  87.7995781  47.3283823  71.5419276
  89.0681136  47.7968933  70.8613423  90.1853331  45.2523316  76.1205197
  89.6818127  45.2153451  75.3073002  90.4783938  46.1616059  76.1801854
  86.4296217  45.3362046  75.1271379  87.2949214  45.1404854  74.7677268
  86.4973726  45.1072397  76.0540736  96.0441348  55.6259627  68.5981572
  95.2670790  55.2870786  68.1536734  96.7232829  55.6312250  67.9236537
  90.8593377  50.7454364  68.4888180  90.5543512  51.0600513  69.3398323
  91.8123819  50.8235784  68.5315513  89.3039809  56.9044587  70.1381134
  88.7761170  56.1697347  69.8254372  88.8027311  57.6819264  69.8921102
  94.2832655  55.0993608  75.2548180  93.6256329  55.7892869  75.3428309
  95.0873054  55.4890040  75.5982167  84.0358536  47.5664254  72.4987746
  84.6102288  47.3439435  71.7660939  84.6229519  47.6352948  73.2516347
  93.0938113  53.4537980  73.3052122  93.6069995  54.0867972  73.8073832
  93.7439337  52.8539176  72.9395482  84.3628123  49.5968715  66.5183631
  83.5265436  49.9343401  66.8392906  84.2232893  49.4617694  65.5810768
  86.3381204  44.4405502  71.2262815  85.6845616  44.1254520  70.6019430
  86.2961678  43.8181243  71.9522638  87.4492409  54.7224798  63.1416107
  86.5419470  54.4914051  63.3407256  87.9463441  53.9262417  63.3290089
  89.5718944  50.9287436  75.5510463  88.6541506  51.1502383  75.3932151
  89.9879088  51.0033746  74.6922170  90.3553992  52.3278852  70.6813143
  91.1025811  52.8400249  70.3720265  90.6245582  52.0062904  71.5417536
  88.6280642  54.8237392  67.6640097  87.7191861  54.5396425  67.7612567
  88.6575726  55.2436471  66.8043404  93.8599910  58.4343982  71.4331265
  93.4062237  57.5934892  71.4896455  93.2293876  59.0705380  71.7706045
  92.8032829  49.3635968  72.6631932  92.0655586  48.8513354  72.9942175
  93.0559603  48.9236350  71.8515209  92.3032849  60.2720479  72.3681083
  92.5955823  60.8325536  71.6493449  92.8131469  60.5649040  73.1234242
  92.9044456  42.1412220  73.2573701  93.2103333  41.2809583  72.9699617
  93.6297061  42.7329840  73.0572695  79.1968813  52.5442907  71.6455299
  78.9993212  51.9512267  70.9206366  78.6415477  52.2395117  72.3631238
  87.1765536  52.4366013  73.7649893  87.2314146  51.4839849  73.6892369
  86.3656738  52.5925452  74.2491191  85.1157896  51.0543073  71.5240271
  84.3025762  51.3537243  71.9305464  85.6116890  50.6598762  72.2414754
  87.2666474  61.0500830  73.4574536  87.2242653  61.2761676  72.5283068
  88.1829173  60.8164204  73.6060337  90.7132108  51.5184897  80.3555165
  91.0681496  51.7456370  81.2149631  91.3604239  51.8503274  79.7332421
  96.4429845  54.6403333  71.0604494  96.3047743  54.8304929  70.1325684
  96.0866064  55.4022716  71.5172545  84.6071971  48.6261428  77.1401506
  85.2471350  48.4850187  76.4424470  83.7749501  48.3395942  76.7640108
  96.4699224  56.7079860  76.0715766  96.9035731  56.6155149  76.9198820
  97.1830805  56.6837361  75.4335782  85.3832275  57.9263859  73.2536499
  86.1772873  57.4314179  73.0519074  84.6723967  57.3981722  72.8904204
  90.2027119  60.3081954  77.6048866  90.2564142  60.8772891  78.3726582
  89.3341901  60.4783839  77.2402904  81.6915038  52.0706940  69.3296252
  80.7612626  52.0091396  69.5466214  81.7872510  51.5482893  68.5332893
  81.6100587  48.5961753  71.9174493  81.8707405  49.5107087  71.8083654
  82.4317760  48.1286196  72.0671106  83.0825513  50.0099510  79.0873318
  83.7548566  49.8016873  78.4385967  82.2555299  49.8121596  78.6478550
  97.3314774  56.7503561  78.6048651  97.5250664  57.6549371  78.8507926
  97.2315392  56.2910980  79.4387236  88.9851085  46.6361451  81.1038979
  88.3379000  47.3351401  81.0103455  89.7552100  47.0697595  81.4715227
  92.3929883  56.9010304  84.1789532  92.2415389  56.6720855  83.2619616
  92.3834562  57.8580905  84.1920877  89.1615219  54.4742216  79.1635798
  90.0907279  54.6253376  78.9904766  88.7406249  54.5626237  78.3084445
  87.9603551  58.4992881  76.9334336  87.8214636  58.1311665  77.8060274
  87.1718147  59.0140520  76.7618294  89.5108766  57.8774483  74.3223174
  89.1758599  57.8375253  75.2180824  89.0112712  57.2119199  73.8493584
  83.4853010  53.2842113  79.8475755  83.3472808  52.5522352  80.4487294
  84.3957933  53.1951014  79.5659943  86.1135311  52.9962073  79.3359435
  86.8234929  52.3555265  79.2946053  86.0704619  53.2474968  80.2585615
  94.1022089  59.9329426  82.2566014  94.0434635  59.2488646  81.5896597
  94.5041608  60.6748416  81.8046640  84.8264245  49.9827291  81.1555074
  84.2901602  49.5318029  81.8076670  84.2380953  50.1173199  80.4125538
  84.2366504  49.4415942  63.7181538  83.3595970  49.3204743  63.3543784
  84.7124257  48.6502020  63.4660426  94.1039497  57.8969010  80.4879993
  93.2166275  57.5594932  80.6106392  94.6738048  57.1652041  80.7248759
  75.7568644  54.2293102  73.8123045  76.4439683  53.9154832  73.2244060
  75.6016772  55.1334466  73.5390296  80.5603366  49.1183298  78.2408068
  80.4761555  48.5108968  77.5058478  79.7386072  49.6092317  78.2417565
  87.6340650  62.5570462  77.4541237  87.5610821  63.3625434  77.9660541
  87.1918043  62.7562428  76.6289258  87.4230430  61.7942232  70.9644058
  86.6397951  62.3363913  71.0582283  88.1223175  62.3116212  71.3638299
  90.7327080  47.6036862  73.6078264  91.2295779  46.8506824  73.2879334
  89.9614061  47.6401179  73.0421473  98.5856837  53.3077227  75.2496555
  98.5746713  54.1901943  74.8790488  97.7174216  52.9548778  75.0551092
  90.0939333  62.4557296  79.6099395  90.8067306  63.0904761  79.5375297
  89.6029362  62.5521162  78.7939397  91.8156860  56.3608549  71.1816687
  90.8813139  56.4810012  71.0121391  91.9933529  55.4581016  70.9176697
  87.3162048  49.7454245  73.3349948  86.9459836  49.1925285  74.0230854
  87.8121141  49.1412378  72.7824948  95.2029412  52.2025868  71.7166721
  95.6689864  53.0353860  71.6427024  95.6536912  51.7370850  72.4211980
  85.1451247  60.2051740  80.4304966  85.8460706  60.8388223  80.5834360
  84.6746362  60.5466471  79.6700605  93.1746074  44.5706455  75.7557622
  92.2609154  44.8010682  75.9239829  93.6039176  44.6544899  76.6071655
  92.9452533  52.7596347  78.2557516  92.2923983  53.0072255  77.6009969
  93.3232913  51.9460486  77.9219994  89.9059707  62.7956040  72.3585687
  90.0882101  61.9777696  72.8213439  90.7292693  63.0123733  71.9210577
  90.2401872  61.7224226  69.6200735  90.7689639  61.2116680  69.0070897
  90.5030092  61.4066756  70.4846268  88.9940106  53.5016158  84.7423554
  88.3180743  53.4010288  85.4125929  89.8167740  53.3455372  85.2059551
  80.7418965  59.7388095  77.3636069  81.3272402  58.9931783  77.4963973
  80.5443803  60.0492052  78.2472733  83.5957620  62.7739342  72.3798511
  82.9267996  63.2585470  71.8962551  83.4570490  63.0208563  73.2941890
  75.3336620  52.3093695  76.0840512  75.3720719  51.7757286  76.8777630
  74.8276913  51.7828901  75.4651489  87.7362889  64.8083086  78.9781170
  88.2881197  64.9714707  79.7430255  88.0769082  65.3987524  78.3061194
  82.7127382  47.1558236  79.5803054  82.7768709  48.0173067  79.1680452
  82.6494502  46.5432237  78.8475413  82.1879655  49.2281368  83.2276088
  82.8151693  48.8458445  83.8413613  81.3307573  49.0095570  83.5931781
  92.5873763  59.6344343  84.8329824  93.1313667  60.2474302  84.3384779
  92.0060608  60.1923922  85.3496837  78.9645197  51.0357797  69.1594443
  79.2598638  50.1268476  69.1061497  78.0633233  51.0145537  68.8375446
  90.8731276  62.7565061  75.9644852  90.7482416  61.9554801  75.4555797
  91.5310367  63.2511255  75.4758822  82.4939444  49.1113794  75.1421992
  81.7726030  49.7249762  75.0029465  83.2832700  49.6471559  75.0638638
  92.9366185  60.5574081  77.5924402  91.9896520  60.4379433  77.5202728
  93.2848958  59.6696579  77.6750663  85.2965758  46.4468220  81.4162644
  85.8200160  46.6930517  82.1788953  85.0778091  47.2788255  80.9965781
  80.6933039  48.7171895  69.2833768  80.3645745  47.8369274  69.1008874
  81.0472410  48.6619564  70.1710158  89.9412618  60.3526798  73.7928754
  89.7937580  59.4243505  73.9736324  90.7666111  60.3746888  73.3085829
  83.8074862  49.0044865  69.6509246  84.1470935  49.5330786  68.9287854
  84.2546983  49.3425271  70.4267813  93.5446740  61.1755356  74.8793627
  94.4693287  60.9698218  74.7418078  93.3762043  60.9271758  75.7882968
  86.5018303  47.3881915  79.1012314  86.1615123  46.5889729  79.5032994
  85.7957309  47.6883626  78.5289147  87.1534775  44.4731228  77.5539637
  87.9760844  43.9991706  77.4318528  87.3972838  45.2521712  78.0538323
  85.7943009  47.5019486  67.8502539  86.5151372  47.8800739  67.3466256
  85.1708313  48.2208363  67.9537517  89.9374132  48.2064635  68.7860871
  90.1537747  49.0889273  68.4849699  89.4568199  47.8150849  68.0566513
  84.6773354  51.1650349  75.3631616  84.5317934  51.4790652  76.2555897
  84.1998557  51.7835249  74.8102514  86.5369736  48.1552897  75.4112505
  86.5231305  47.2593990  75.0744803  87.2542164  48.1623560  76.0450791
  88.3895867  48.5890237  77.4565633  88.1313645  49.5107307  77.4549963
  87.8580907  48.1920671  78.1466097  79.1519016  53.7055693  78.3019277
  78.6072484  54.4815501  78.4339551  80.0298366  54.0526497  78.1438398
  85.9406632  47.0367277  70.6800076  86.0622544  46.1083923  70.8790963
  85.6508675  47.0505963  69.7678391  88.8097823  44.7222187  73.8166795
  88.8319520  44.7861520  72.8618775  89.2265882  43.8826696  74.0107302
  99.1881447  54.4577447  71.8546018  99.6312593  53.7084772  71.4565141
  98.3107957  54.4487583  71.4719750  79.9385038  52.8325589  81.1949434
  79.1966774  52.9808225  81.7814064  79.6177782  53.0933855  80.3316183
  87.8828700  62.3741567  80.9929824  88.1915827  62.1290714  81.8652523
  88.6804182  62.5788206  80.5048694  85.3523184  60.0717486  75.2957502
  84.7303194  59.4088191  74.9959730  86.0228051  60.0978618  74.6131150
  85.4247712  48.5499274  84.8890008  85.4735867  49.4261397  84.5067778
  85.9670226  48.0076667  84.3161651  95.9102558  59.0940397  84.1691145
  95.1198101  59.0764536  83.6295645  95.6735912  59.6328691  84.9240182
  96.0300433  55.9432864  81.4823874  96.0798438  55.7782871  82.4239397
  95.9214356  55.0760123  81.0921754  84.9136691  58.6221409  68.7715963
  85.0624812  59.3056874  68.1182635  85.7203135  58.6026500  69.2865418
  93.3204195  51.9263792  82.7983180  94.2214058  51.7870257  82.5067178
  93.3952169  52.0918247  83.7381358  87.6547000  49.3030647  81.6436367
  86.7850310  49.5964213  81.3718955  87.8906481  49.8871092  82.3643630
  97.5318629  58.3629805  81.7265895  97.2403438  58.7259786  82.5629356
  96.9190761  57.6496814  81.5479227  98.7314312  55.9282685  74.2468465
  99.5661203  56.3672489  74.4106026  98.8673441  55.4521338  73.4276711
  95.7805818  53.4862420  80.1945953  96.2559939  53.6790066  79.3864805
  94.8571383  53.5421606  79.9489337  82.6689324  54.6486587  69.7777032
  82.4235366  53.7448917  69.9757242  82.8385239  54.6503738  68.8356510
  90.3586034  45.5210263  79.1601787  90.8767978  46.2571290  78.8348276
  90.0041167  45.8274257  79.9948546  81.9384972  50.3814945  67.2763193
  81.2454217  50.4559300  66.6203229  81.6936724  49.6175288  67.7984710
  90.6098628  41.9410546  74.6802684  90.8900382  41.2733735  75.3063110
  91.3949235  42.1339642  74.1677348  94.4807487  50.3628180  78.4274259
  95.4324910  50.4626278  78.4486483  94.3110937  49.5706449  78.9372343
  92.5021866  47.4483763  78.6133660  91.9071798  47.7288776  77.9180148
  92.2171563  47.9377664  79.3850401  96.9595564  53.5834300  77.5416558
  96.9271885  52.6450300  77.7276242  97.5696188  53.6618336  76.8082383
  88.7978895  52.4530353  63.5843763  89.7438000  52.3236561  63.6532181
  88.4193140  51.7145015  64.0613191  97.1090053  50.3745343  77.5874842
  96.5929102  49.5903800  77.4004771  97.9930001  50.0464060  77.7521361
  94.7700780  44.1186359  73.5470654  94.5725601  43.8101447  74.4313986
  95.3800485  44.8447998  73.6768584 102.7772114  54.6450307  76.6822595
 103.5075503  54.3835595  77.2430299 102.1679060  53.9079028  76.7224663
 100.8587411  52.7858169  77.2797046 100.1320575  52.6514134  76.6713538
 100.4434698  53.0934998  78.0853765  88.6817588  56.5048099  85.0444420
  89.6020597  56.6826698  85.2384466  88.6467171  55.5604144  84.8924119
  86.9821812  50.3780329  63.5198648  86.0753268  50.0813442  63.5961361
  87.2597793  50.0810147  62.6532934  77.8999753  51.6986692  73.9697694
  77.5802537  50.8452001  73.6772068  77.3533181  51.9135271  74.7255661
  81.6779660  54.4149133  77.6867201  81.8965670  55.3466241  77.7055234
  82.0905434  54.0557108  78.4722005  88.5983878  44.9217219  69.6742889
  87.7884606  44.5764304  70.0498135  89.2868295  44.6124763  70.2630501
  90.5274426  43.9995266  71.2967186  91.0805465  44.4190719  71.9557209
  90.7644513  43.0731014  71.3390142  86.5507526  49.9882339  87.0769950
  86.4504253  50.9376696  87.0082041  86.3329068  49.6600578  86.2046020
  85.7520597  47.2367264  63.6610627  86.6139761  47.5622163  63.9206444
  85.9370941  46.4498760  63.1483693  77.7688013  55.3189604  75.9390816
  77.0751484  54.9043557  75.4260770  78.5161004  55.3610140  75.3424235
  93.9053234  46.1095791  70.8045850  93.3251903  46.7680595  70.4223902
  93.6389166  45.2873135  70.3933267  92.3556800  45.5100848  73.0067170
  92.8556578  45.6217383  72.1981489  92.9992408  45.2061901  73.6467979
  86.4138796  53.4179478  85.8935011  85.9305877  54.2179838  86.0998900
  86.4999735  53.4287423  84.9402455  79.6824755  55.2507858  73.8156831
  79.6595443  55.3495545  72.8638714  79.9925392  56.0973009  74.1373997
  82.3412133  57.3084013  77.9303445  83.2955387  57.2767955  77.8633377
  82.1424657  56.8474637  78.7453671  82.9311515  55.8785129  80.4974243
  83.7504404  56.3729207  80.5209080  83.2048323  54.9617097  80.4691810
  92.6878112  48.2695881  69.8602198  91.8003967  48.5545532  69.6422393
  93.1032101  48.1089645  69.0129475  96.0392648  48.2942402  73.5756537
  96.8153038  48.7838855  73.8481154  95.3140782  48.7200456  74.0328407
  98.4765206  49.0070021  74.6330478  99.0709697  48.7665757  73.9223786
  98.5491790  48.2877152  75.2604014  92.6619135  53.7850417  70.0752488
  92.6054337  54.2418968  69.2360121  93.2147478  53.0241102  69.8975331
  96.4723941  49.5740149  70.9002608  96.2160875  49.1736785  71.7310816
  95.8476809  50.2883943  70.7752747 100.7836279  52.3136222  73.4073899
 100.2235837  52.3829411  74.1805461 100.1779782  52.1377207  72.6873396
  83.8531488  63.7472949  75.1592086  83.7363872  64.6918382  75.0570776
  83.0323934  63.4446511  75.5477885  78.1846430  50.2123263  81.1966440
  78.8305293  49.7022217  81.6853665  77.9763581  50.9491944  81.7709865
  90.7099822  57.2804110  86.6958580  91.5790981  57.4544762  86.3345215
  90.2306573  58.0998527  86.5734310  86.7050040  44.4763307  66.9490336
  86.6928710  45.4205147  67.1058607  87.5973462  44.2933453  66.6549797
  84.8786002  64.4001211  78.3748014  85.7813249  64.4324821  78.6914509
  84.6523372  63.4701662  78.3894350  86.6339604  63.1532198  75.0358093
  85.6835235  63.1534059  74.9222465  86.9372090  62.4064932  74.5194127
  90.5202160  41.0706084  71.2036273  89.7534555  40.5164571  71.3492955
  90.9312865  41.1427953  72.0650424  82.5243921  47.3590880  85.2941454
  83.3875382  47.0027685  85.5044779  81.9509331  47.0204775  85.9816858
 102.3692298  68.9892736  76.1003855 103.0070707  68.8699483  75.3967195
 102.2513140  69.9373580  76.1591807  99.1782004  68.9420164  76.0365380
  98.8400515  68.8261229  75.1485915 100.0471772  68.5411329  76.0166386
  99.6601787  70.0955016  81.9951585  99.6490428  69.7007814  81.1232089
  99.8222426  69.3621089  82.5885357 100.6168378  74.4626608  67.3376736
  99.9656358  75.0480689  66.9510749 101.4112741  74.9932803  67.3971773
  96.3809048  72.8792128  80.9430769  96.0898914  73.7837759  80.8277436
  97.0166032  72.9208655  81.6574839  97.3065255  70.2568976  77.5332129
  97.9028827  70.0324999  76.8189092  97.3640226  69.5153722  78.1357577
 101.9233566  66.7144190  73.1757063 102.7096655  66.2963613  72.8247480
 102.1872270  67.6190282  73.3438711 102.0943643  72.1517040  67.8745720
 101.4589476  72.2251667  68.5866625 101.7641050  72.7410639  67.1964799
 107.3241993  66.6519423  74.0790042 108.0567165  66.0818640  74.3127871
 106.5681349  66.2641024  74.5196547 104.8467413  60.3640997  78.5384650
 104.5150738  61.2336408  78.3145865 104.2513027  60.0477281  79.2178681
 101.3398933  72.5653543  77.9380563 101.0399656  73.4678582  77.8296370
 100.9949993  72.2985726  78.7901716 104.7396077  65.0836083  75.6178000
 103.8312954  65.0151492  75.3236761 104.6883673  65.5608028  76.4459826
  98.8136943  66.5025729  83.5612898  98.0370277  67.0619649  83.5515762
  99.4527506  66.9882512  84.0827768 106.6057723  63.2852522  77.3955874
 105.9632103  63.5785055  76.7495669 106.1012652  63.1705442  78.2009071
 104.2597887  67.0315695  68.0841733 105.1715743  67.2643082  67.9089431
 103.7507534  67.6152739  67.5216812  97.0683315  69.3111182  83.1230865
  97.8097999  69.8496226  82.8465688  96.3620300  69.9377471  83.2802416
 102.5438655  71.4540323  81.7203026 102.9522011  71.0122733  80.9757658
 101.8215916  70.8792950  81.9737219  98.8969725  66.3912930  79.0936583
  99.7430920  66.8152343  79.2371232  98.8368362  65.7346554  79.7875146
 102.8667469  72.0141513  75.4755315 102.2376332  72.1787228  74.7731383
 102.4793131  72.4283123  76.2466279 106.7456701  72.9495951  72.8299679
 106.0607739  73.3294853  72.2796712 106.8300550  73.5591278  73.5631626
 102.0469170  64.0517298  80.7517757 101.8030102  64.8059359  80.2152032
 102.3229100  64.4302646  81.5865004 104.0007633  70.5955910  79.4295022
 104.2124528  71.2387670  78.7529403 103.9537381  69.7618227  78.9616952
 101.6033862  63.2073731  76.3331594 100.7418341  63.5054985  76.6248332
 101.6296296  63.4244130  75.4012627  95.8044679  66.4650831  83.9246174
  95.1743339  67.1467111  84.1581571  95.6980767  66.3533912  82.9799313
 105.1153461  73.4727866  77.6017379 105.9370904  73.0708053  77.3200061
 105.1115864  73.3696100  78.5533495  98.8810064  73.0211909  79.7578090
  98.9454497  73.4832316  80.5936262  98.1720988  72.3909274  79.8860400
  89.3827354  66.3853117  77.2827089  89.6335392  67.2700127  77.5484665
  89.9186902  66.2057719  76.5102181 113.2059454  69.8166614  73.9502351
 112.4523162  69.2474012  73.7946355 113.3406995  69.7829279  74.8972986
  98.5958082  74.6880017  69.6257070  98.4603757  75.5331552  70.0541918
  99.1367894  74.8899294  68.8623004  95.0825421  60.7671596  86.2871426
  94.6892367  60.2137795  86.9619070  95.8991562  61.0782175  86.6777943
  97.9993382  62.1829476  83.8791682  98.7403096  62.7836629  83.7996145
  98.2311305  61.4407113  83.3209725  93.1434720  67.3685843  82.1569912
  93.0288236  66.4671100  82.4577011  92.2879238  67.6149540  81.8054728
 100.2226558  75.3103583  83.7557412  99.7790412  74.5239962  83.4378317
 100.8843772  75.4982734  83.0901303 102.3207796  75.5906383  81.7838814
 102.3026272  76.4115264  81.2919083 103.2427716  75.4660458  82.0088955
  98.7780850  73.1050512  82.6262322  99.3109187  72.3438801  82.3961630
  98.2494931  72.8124164  83.3686477 101.9450545  58.2110578  78.1555964
 101.6014815  59.1012220  78.0795074 102.3129508  58.0212236  77.2925549
 101.9100828  68.2019190  66.6628399 101.3947451  68.9723794  66.9016786
 101.6378136  67.5284326  67.2861460 101.0247086  60.5815234  76.1205197
 100.5211881  60.5445369  75.3073002 101.3177693  61.4907976  76.1801854
  97.2689972  60.6653963  75.1271379  98.1342968  60.4696772  74.7677268
  97.3367480  60.4364315  76.0540736 106.8835102  70.9551544  68.5981572
 106.1064545  70.6162704  68.1536734 107.5626583  70.9604167  67.9236537
 100.1433563  72.2336505  70.1381134  99.6154925  71.4989265  69.8254372
  99.6421066  73.0111181  69.8921102 105.1226409  70.4285525  75.2548180
 104.4650084  71.1184787  75.3428309 105.9266808  70.8181957  75.5982167
 103.9331868  68.7829898  73.3052122 104.4463750  69.4159890  73.8073832
 104.5833092  68.1831094  72.9395482  97.1774958  59.7697420  71.2262815
  96.5239371  59.4546437  70.6019430  97.1355433  59.1473161  71.9522638
 100.4112699  66.2579354  75.5510463  99.4935260  66.4794301  75.3932151
 100.8272842  66.3325664  74.6922170 101.1947746  67.6570769  70.6813143
 101.9419565  68.1692167  70.3720265 101.4639336  67.3354822  71.5417536
 104.6993664  73.7635900  71.4331265 104.2455991  72.9226809  71.4896455
 104.0687631  74.3997298  71.7706045 103.6426584  64.6927886  72.6631932
 102.9049340  64.1805272  72.9942175 103.8953357  64.2528267  71.8515209
 103.1426603  75.6012396  72.3681083 103.4349578  76.1617453  71.6493449
 103.6525224  75.8940957  73.1234242 103.7438211  57.4704138  73.2573701
 104.0497088  56.6101501  72.9699617 104.4690816  58.0621758  73.0572695
  98.1060229  76.3792747  73.4574536  98.0636407  76.6053594  72.5283068
  99.0222927  76.1456122  73.6060337 101.5525862  66.8476815  80.3555165
 101.9075250  67.0748288  81.2149631 102.1997994  67.1795192  79.7332421
 107.2823599  69.9695251  71.0604494 107.1441498  70.1596847  70.1325684
 106.9259818  70.7314634  71.5172545  95.4465725  63.9553346  77.1401506
  96.0865105  63.8142105  76.4424470  94.6143256  63.6687859  76.7640108
 107.3092979  72.0371778  76.0715766 107.7429486  71.9447067  76.9198820
 108.0224560  72.0129278  75.4335782 101.0420874  75.6373872  77.6048866
 101.0957896  76.2064808  78.3726582 100.1735655  75.8075757  77.2402904
  93.9219267  65.3391428  79.0873318  94.5942321  65.1308790  78.4385967
  93.0949054  65.1413514  78.6478550 108.1708528  72.0795478  78.6048651
 108.3644419  72.9841289  78.8507926 108.0709147  71.6202898  79.4387236
  99.8244839  61.9653369  81.1038979  99.1772754  62.6643319  81.0103455
 100.5945855  62.3989513  81.4715227 103.2323637  72.2302221  84.1789532
 103.0809144  72.0012773  83.2619616 103.2228317  73.1872823  84.1920877
 100.0008974  69.8034134  79.1635798 100.9301034  69.9545294  78.9904766
  99.5800004  69.8918155  78.3084445  98.7997305  73.8284798  76.9334336
  98.6608391  73.4603583  77.8060274  98.0111902  74.3432438  76.7618294
 100.3502520  73.2066401  74.3223174 100.0152353  73.1667171  75.2180824
  99.8506466  72.5411117  73.8493584  94.3246764  68.6134031  79.8475755
  94.1866562  67.8814270  80.4487294  95.2351688  68.5242931  79.5659943
 103.2861712  70.5522435  64.5960233 102.6690883  69.8269264  64.4993286
 102.8178201  71.3131796  64.2527308  96.9529065  68.3253990  79.3359435
  97.6628684  67.6847183  79.2946053  96.9098373  68.5766885  80.2585615
 104.9415844  75.2621344  82.2566014 104.8828390  74.5780564  81.5896597
 105.3435362  76.0040334  81.8046640  95.6657999  65.3119208  81.1555074
  95.1295356  64.8609947  81.8076670  95.0774707  65.4465117  80.4125538
 104.9433251  73.2260928  80.4879993 104.0560030  72.8886849  80.6106392
 105.5131802  72.4943959  80.7248759  91.3997120  64.4475216  78.2408068
  91.3155309  63.8400886  77.5058478  90.5779827  64.9384234  78.2417565
  98.4734404  77.8862380  77.4541237  98.4004576  78.6917352  77.9660541
  98.0311798  78.0854346  76.6289258 101.5720834  62.9328780  73.6078264
 102.0689534  62.1798742  73.2879334 100.8007816  62.9693096  73.0421473
 109.4250592  68.6369145  75.2496555 109.4140468  69.5193860  74.8790488
 108.5567971  68.2840696  75.0551092 100.9333088  77.7849214  79.6099395
 101.6461060  78.4196679  79.5375297 100.4423117  77.8813080  78.7939397
 102.6550615  71.6900467  71.1816687 101.7206894  71.8101929  71.0121391
 102.8327283  70.7872934  70.9176697 106.0423166  67.5317786  71.7166721
 106.5083618  68.3645778  71.6427024 106.4930667  67.0662768  72.4211980
  95.9845001  75.5343658  80.4304966  96.6854461  76.1680141  80.5834360
  95.5140116  75.8758389  79.6700605 104.1099397  73.8761607  68.7152873
 104.3859241  73.7618202  69.6246747 103.2403896  73.4779092  68.6765046
 104.0139829  59.8998373  75.7557622 103.1002909  60.1302600  75.9239829
 104.4432930  59.9836817  76.6071655 103.7846287  68.0888265  78.2557516
 103.1317738  68.3364172  77.6009969 104.1626667  67.2752403  77.9219994
 100.7453461  78.1247958  72.3585687 100.9275856  77.3069614  72.8213439
 101.5686447  78.3415650  71.9210577  99.8333860  68.8308076  84.7423554
  99.1574497  68.7302205  85.4125929 100.6561494  68.6747290  85.2059551
  98.5756643  80.1375004  78.9781170  99.1274951  80.3006625  79.7430255
  98.9162837  80.7279441  78.3061194  93.5521137  62.4850153  79.5803054
  93.6162463  63.3464984  79.1680452  93.4888257  61.8724155  78.8475413
  93.0273409  64.5573286  83.2276088  93.6545448  64.1750363  83.8413613
  92.1701328  64.3387488  83.5931781 103.4267518  74.9636261  84.8329824
 103.9707422  75.5766219  84.3384779 102.8454363  75.5215839  85.3496837
 101.7125031  78.0856979  75.9644852 101.5876170  77.2846719  75.4555797
 102.3704122  78.5803172  75.4758822  93.3333199  64.4405712  75.1421992
  92.6119785  65.0541679  75.0029465  94.1226455  64.9763476  75.0638638
 103.7759939  75.8865999  77.5924402 102.8290275  75.7671350  77.5202728
 104.1242712  74.9988497  77.6750663  96.1359512  61.7760138  81.4162644
  96.6593914  62.0222435  82.1788953  95.9171846  62.6080173  80.9965781
 100.7806372  75.6818715  73.7928754 100.6331335  74.7535423  73.9736324
 101.6059866  75.7038806  73.3085829 104.3840494  76.5047274  74.8793627
 105.3087042  76.2990135  74.7418078 104.2155798  76.2563675  75.7882968
  97.3412057  62.7173833  79.1012314  97.0008878  61.9181646  79.5032994
  96.6351064  63.0175544  78.5289147  97.9928529  59.8023146  77.5539637
  98.8154599  59.3283624  77.4318528  98.2366593  60.5813629  78.0538323
  95.5167108  66.4942266  75.3631616  95.3711689  66.8082569  76.2555897
  95.0392312  67.1127167  74.8102514  97.3763491  63.4844814  75.4112505
  97.3625060  62.5885907  75.0744803  98.0935919  63.4915478  76.0450791
  99.2289622  63.9182154  77.4565633  98.9707399  64.8399225  77.4549963
  98.6974662  63.5212589  78.1466097 104.1735810  77.0232942  70.2355718
 104.3472688  76.4579364  69.4829571 104.6664702  77.8233836  70.0535208
  89.9912770  69.0347611  78.3019277  89.4466238  69.8107419  78.4339551
  90.8692120  69.3818415  78.1438398  99.6491577  60.0514105  73.8166795
  99.6713274  60.1153438  72.8618775 100.0659636  59.2118614  74.0107302
 110.0275202  69.7869364  71.8546018 110.4706348  69.0376690  71.4565141
 109.1501712  69.7779501  71.4719750 105.1610983  76.3399706  67.3352616
 105.8561887  76.9606399  67.5539931 105.5034133  75.4895057  67.6104994
  90.7778792  68.1617507  81.1949434  90.0360528  68.3100142  81.7814064
  90.4571536  68.4225772  80.3316183 107.0602406  73.7899411  68.8639947
 107.5853730  74.1286684  68.1389267 106.9724759  72.8546427  68.6803082
  98.7222455  77.7033485  80.9929824  99.0309581  77.4582632  81.8652523
  99.5197937  77.9080124  80.5048694  96.1916939  75.4009404  75.2957502
  95.5696948  74.7380109  74.9959730  96.8621806  75.4270536  74.6131150
  96.2641466  63.8791192  84.8890008  96.3129622  64.7553315  84.5067778
  96.8063981  63.3368585  84.3161651 106.7496312  74.4232315  84.1691145
 105.9591856  74.4056454  83.6295645 106.5129667  74.9620609  84.9240182
 106.8694187  71.2724781  81.4823874 106.9192192  71.1074789  82.4239397
 106.7608110  70.4052040  81.0921754 104.1597949  67.2555709  82.7983180
 105.0607812  67.1162174  82.5067178 104.2345924  67.4210164  83.7381358
  98.4940755  64.6322564  81.6436367  97.6244064  64.9256130  81.3718955
  98.7300235  65.2163009  82.3643630 108.3712384  73.6921723  81.7265895
 108.0797192  74.0551704  82.5629356 107.7584515  72.9788731  81.5479227
 109.5708066  71.2574603  74.2468465 110.4054958  71.6964407  74.4106026
 109.7067195  70.7813256  73.4276711 106.6199572  68.8154338  80.1945953
 107.0953694  69.0081984  79.3864805 105.6965138  68.8713523  79.9489337
 101.1979789  60.8502181  79.1601787 101.7161732  61.5863208  78.8348276
 100.8434921  61.1566174  79.9948546 101.4492383  57.2702464  74.6802684
 101.7294137  56.6025653  75.3063110 102.2342990  57.4631559  74.1677348
 105.3201241  65.6920098  78.4274259 106.2718664  65.7918195  78.4486483
 105.1504692  64.8998366  78.9372343 103.3415621  62.7775681  78.6133660
 102.7465553  63.0580694  77.9180148 103.0565317  63.2669582  79.3850401
 102.4723111  76.7298608  67.3736292 103.4053784  76.6644169  67.5769168
 102.3846324  77.5654875  66.9150825 105.1011128  76.0464478  64.3340240
 105.0224759  75.7124342  65.2275998 105.9220795  76.5386246  64.3331712
 107.7989319  68.9126217  77.5416558 107.7665639  67.9742218  77.7276242
 108.4089943  68.9910254  76.8082383 107.9483807  65.7037261  77.5874842
 107.4322856  64.9195717  77.4004771 108.8323756  65.3755977  77.7521361
 105.6094534  59.4478276  73.5470654 105.4119355  59.1393365  74.4313986
 106.2194240  60.1739915  73.6768584 113.6165869  69.9742224  76.6822595
 114.3469257  69.7127512  77.2430299 113.0072814  69.2370946  76.7224663
 111.6981166  68.1150087  77.2797046 110.9714329  67.9806052  76.6713538
 111.2828453  68.4226915  78.0853765  99.5211342  71.8340016  85.0444420
 100.4414352  72.0118615  85.2384466  99.4860925  70.8896062  84.8924119
  92.5173415  69.7441051  77.6867201  92.7359425  70.6758159  77.7055234
  92.9299189  69.3849026  78.4722005 101.3668181  59.3287183  71.2967186
 101.9199220  59.7482637  71.9557209 101.6038267  58.4022931  71.3390142
  97.3901280  65.3174257  87.0769950  97.2898007  66.2668614  87.0082041
  97.1722822  64.9892496  86.2046020 104.7446988  61.4387708  70.8045850
 104.1645657  62.0972512  70.4223902 104.4782921  60.6165053  70.3933267
 103.1950554  60.8392766  73.0067170 103.6950333  60.9509301  72.1981489
 103.8386162  60.5353819  73.6467979  97.2532550  68.7471396  85.8935011
  96.7699632  69.5471756  86.0998900  97.3393489  68.7579341  84.9402455
  93.1805888  72.6375930  77.9303445  94.1349141  72.6059873  77.8633377
  92.9818411  72.1766554  78.7453671  93.7705270  71.2077046  80.4974243
  94.5898159  71.7021125  80.5209080  94.0442078  70.2909015  80.4691810
 106.8786402  63.6234320  73.5756537 107.6546792  64.1130772  73.8481154
 106.1534536  64.0492374  74.0328407 109.3158961  64.3361939  74.6330478
 109.9103452  64.0957675  73.9223786 109.3885545  63.6169070  75.2604014
 102.6715080  73.3632473  63.9550218 103.3750930  73.5682476  64.5707874
 101.9477728  73.9309235  64.2199302 103.5012890  69.1142335  70.0752488
 103.4448091  69.5710886  69.2360121 104.0541232  68.3533019  69.8975331
 107.3117696  64.9032067  70.9002608 107.0554630  64.5028702  71.7310816
 106.6870564  65.6175861  70.7752747 111.6230034  67.6428140  73.4073899
 111.0629592  67.7121329  74.1805461 111.0173537  67.4669124  72.6873396
 104.5801777  73.8015003  66.0048678 105.4147381  73.3696201  65.8226153
 104.4186120  73.6297016  66.9325573 104.2347669  70.3047116  67.3705018
 104.1796473  70.1391387  66.4293462 103.6093724  71.0123149  67.5267207
  89.0240184  65.5415180  81.1966440  89.6699048  65.0314134  81.6853665
  88.8157335  66.2783862  81.7709865 101.5493576  72.6096028  86.6958580
 102.4184736  72.7836680  86.3345215 101.0700328  73.4290445  86.5734310
 101.3595914  56.3998002  71.2036273 100.5928310  55.8456488  71.3492955
 101.7706619  56.4719870  72.0650424  93.3637675  62.6882797  85.2941454
  94.2269137  62.3319602  85.5044779  92.7903086  62.3496692  85.9816858
 113.2086052  84.3184654  76.1003855 113.8464462  84.1991401  75.3967195
 113.0906895  85.2665498  76.1591807 110.0175758  84.2712082  76.0365380
 109.6794270  84.1553147  75.1485915 110.8865526  83.8703247  76.0166386
 105.8762574  86.1247558  72.0262271 105.3127439  86.0337495  71.2578558
 105.7614969  85.3047463  72.5064763 110.4995541  85.4246934  81.9951585
 110.4884182  85.0299732  81.1232089 110.6616181  84.6913006  82.5885357
 103.4227006  87.6198750  74.8646491 104.2148298  87.2789575  74.4492790
 103.6623656  87.7293725  75.7848644 111.4562133  89.7918526  67.3376736
 110.8050112  90.3772606  66.9510749 112.2506496  90.3224721  67.3971773
 105.3817760  86.8807663  67.7363870 106.1548636  86.3336650  67.5976746
 105.7343159  87.7451912  67.9478331 107.2202802  88.2084045  80.9430769
 106.9292668  89.1129676  80.8277436 107.8559787  88.2500573  81.6574839
 108.1459009  85.5860894  77.5332129 108.7422582  85.3616916  76.8189092
 108.2033981  84.8445639  78.1357577 107.7184038  83.0400329  65.3682320
 107.9709558  82.5181851  64.6065783 106.7808597  82.8766475  65.4709003
 112.7627321  82.0436108  73.1757063 113.5490410  81.6255531  72.8247480
 113.0266025  82.9482200  73.3438711 112.9337398  87.4808958  67.8745720
 112.2983231  87.5543584  68.5866625 112.6034804  88.0702557  67.1964799
 118.1635748  81.9811341  74.0790042 118.8960920  81.4110558  74.3127871
 117.4075103  81.5932941  74.5196547 107.4380326  84.9428435  67.5706695
 107.3216585  84.2673339  68.2387779 107.5482586  84.4560809  66.7538848
 109.7811867  84.4038582  71.2753384 109.4170075  83.8769203  71.9866305
 110.6378983  84.0137051  71.1019869 115.6861168  75.6932915  78.5384650
 115.3544493  76.5628326  78.3145865 115.0906781  75.3769199  79.2178681
 109.4217354  79.4328482  66.2714733 109.5891757  80.3008718  66.6385204
 109.2314523  79.5955764  65.3476022 112.1792688  87.8945461  77.9380563
 111.8793411  88.7970500  77.8296370 111.8343747  87.6277644  78.7901716
 105.6305169  84.3459258  73.9717267 104.7055665  84.2135472  74.1794959
 105.8789582  85.1253477  74.4687210 115.5789831  80.4128001  75.6178000
 114.6706709  80.3443410  75.3236761 115.5277427  80.8899946  76.4459826
 109.4006575  81.8886140  67.2561399 109.2806200  82.3343190  68.0946880
 108.7059164  82.2371457  66.6974938 102.9913980  83.9892531  74.8061056
 103.1206361  84.2427010  75.7200468 102.3111431  84.5820239  74.4865711
 107.1613467  94.6589781  70.9051531 107.0837497  95.6097606  70.9840011
 106.5575111  94.3135654  71.5626457 109.6530697  81.8317647  83.5612898
 108.8764031  82.3911567  83.5515762 110.2921260  82.3174430  84.0827768
 117.4451478  78.6144440  77.3955874 116.8025858  78.9076973  76.7495669
 116.9406406  78.4997360  78.2009071 115.0991641  82.3607613  68.0841733
 116.0109497  82.5934999  67.9089431 114.5901288  82.9444657  67.5216812
 107.9077069  84.6403100  83.1230865 108.6491754  85.1788144  82.8465688
 107.2014055  85.2669389  83.2802416 113.3832409  86.7832241  81.7203026
 113.7915765  86.3414651  80.9757658 112.6609671  86.2084868  81.9737219
 109.7363479  81.7204847  79.0936583 110.5824674  82.1444261  79.2371232
 109.6762117  81.0638472  79.7875146 113.7061224  87.3433431  75.4755315
 113.0770086  87.5079145  74.7731383 113.3186886  87.7575041  76.2466279
 117.5850456  88.2787869  72.8299679 116.9001494  88.6586770  72.2796712
 117.6694305  88.8883196  73.5631626 112.8862924  79.3809216  80.7517757
 112.6423856  80.1351276  80.2152032 113.1622855  79.7594563  81.5865004
 114.8401387  85.9247828  79.4295022 115.0518282  86.5679588  78.7529403
 114.7931135  85.0910145  78.9616952 112.4427616  78.5365649  76.3331594
 111.5812095  78.8346902  76.6248332 112.4690051  78.7536048  75.4012627
 109.2589186  87.0807839  72.7405400 109.7227531  87.3595542  71.9510022
 108.9945984  86.1791284  72.5578491 106.1513267  86.6279321  75.6785163
 106.7214624  87.0566589  75.0402648 106.7421378  86.3461905  76.3769349
 108.1958072  83.2030992  69.5494965 108.8982115  83.6552035  70.0168891
 107.8638700  82.5614810  70.1774858 106.6438433  81.7942748  83.9246174
 106.0137094  82.4759029  84.1581571 106.5374521  81.6825830  82.9799313
 101.9383406  81.4614544  74.8512099 101.1482460  81.7172073  74.3752209
 102.4294653  82.2762882  74.9564139 115.9547215  88.8019783  77.6017379
 116.7764659  88.3999971  77.3200061 115.9509618  88.6988018  78.5533495
 103.8898151  81.8259124  71.8095575 103.0929314  81.9377818  72.3279071
 103.6623743  82.1645776  70.9436466 109.7203819  88.3503827  79.7578090
 109.7848251  88.8124234  80.5936262 109.0114742  87.7201192  79.8860400
 100.2221109  81.7145035  77.2827089 100.4729147  82.5992045  77.5484665
 100.7580657  81.5349636  76.5102181 109.4351836  90.0171934  69.6257070
 109.2997511  90.8623470  70.0541918 109.9761649  90.2191212  68.8623004
 105.9219176  76.0963514  86.2871426 105.5286121  75.5429713  86.9619070
 106.7385316  76.4074093  86.6777943 104.6976118  90.6513129  72.2807749
 104.8742747  91.5731093  72.0928732 105.4932952  90.3371548  72.7102128
 108.8387137  77.5121393  83.8791682 109.5796850  78.1128546  83.7996145
 109.0705060  76.7699031  83.3209725 103.9828475  82.6977760  82.1569912
 103.8681990  81.7963018  82.4577011 103.1272993  82.9441457  81.8054728
 111.0620313  90.6395501  83.7557412 110.6184167  89.8531879  83.4378317
 111.7237526  90.8274651  83.0901303 105.8207434  92.1691302  78.2818091
 106.3714859  92.0408366  77.5095085 104.9818910  92.4686191  77.9312984
 113.1601551  90.9198301  81.7838814 113.1420026  91.7407182  81.2919083
 114.0821471  90.7952376  82.0088955 109.6174605  88.4342430  82.6262322
 110.1502942  87.6730718  82.3961630 109.0888686  88.1416082  83.3686477
 112.7844300  73.5402496  78.1555964 112.4408569  74.4304138  78.0795074
 113.1523262  73.3504154  77.2925549 112.7494583  83.5311107  66.6628399
 112.2341206  84.3015712  66.9016786 112.4771891  82.8576243  67.2861460
 110.3341694  78.3760808  71.7213637 109.4783290  77.9867658  71.5419276
 110.7468645  78.4552769  70.8613423 111.8640840  75.9107151  76.1205197
 111.3605636  75.8737286  75.3073002 112.1571447  76.8199894  76.1801854
 108.1083726  75.9945881  75.1271379 108.9736723  75.7988690  74.7677268
 108.1761235  75.7656233  76.0540736 117.7228857  86.2843462  68.5981572
 116.9458299  85.9454621  68.1536734 118.4020338  86.2896085  67.9236537
 112.5380886  81.4038199  68.4888180 112.2331021  81.7184349  69.3398323
 113.4911328  81.4819619  68.5315513 110.9827318  87.5628423  70.1381134
 110.4548679  86.8281182  69.8254372 110.4814820  88.3403099  69.8921102
 115.9620164  85.7577443  75.2548180 115.3043838  86.4476705  75.3428309
 116.7660563  86.1473875  75.5982167 105.7146045  78.2248089  72.4987746
 106.2889797  78.0023270  71.7660939 106.3017028  78.2936783  73.2516347
 114.7725622  84.1121816  73.3052122 115.2857504  84.7451808  73.8073832
 115.4226846  83.5123011  72.9395482 106.0415632  80.2552550  66.5183631
 105.2052945  80.5927236  66.8392906 105.9020402  80.1201530  65.5810768
 108.0168713  75.0989338  71.2262815 107.3633125  74.7838355  70.6019430
 107.9749187  74.4765078  71.9522638 109.1279918  85.3808633  63.1416107
 108.2206979  85.1497886  63.3407256 109.6250950  84.5846252  63.3290089
 112.0347997  94.0906140  66.0612793 111.3609695  94.3937837  66.6697751
 112.4213819  94.8935220  65.7118250 111.2506453  81.5871271  75.5510463
 110.3329015  81.8086218  75.3932151 111.6666597  81.6617582  74.6922170
 112.0341501  82.9862687  70.6813143 112.7813320  83.4984084  70.3720265
 112.3033091  82.6646740  71.5417536 110.3068151  85.4821228  67.6640097
 109.3979370  85.1980261  67.7612567 110.3363235  85.9020306  66.8043404
 115.5387419  89.0927817  71.4331265 115.0849746  88.2518727  71.4896455
 114.9081385  89.7289216  71.7706045 114.4820338  80.0219803  72.6631932
 113.7443095  79.5097190  72.9942175 114.7347112  79.5820185  71.8515209
 113.9820358  90.9304314  72.3681083 114.2743332  91.4909371  71.6493449
 114.4918978  91.2232875  73.1234242 114.5831965  72.7996055  73.2573701
 114.8890842  71.9393419  72.9699617 115.3084570  73.3913676  73.0572695
 108.8553045  83.0949848  73.7649893 108.9101655  82.1423685  73.6892369
 108.0444247  83.2509287  74.2491191 110.0044239  87.0229971  65.0028176
 109.5663669  86.3065830  64.5433813 110.7454680  87.2506086  64.4413267
 106.7945405  81.7126908  71.5240271 105.9813271  82.0121079  71.9305464
 107.2904399  81.3182597  72.2414754 108.9453983  91.7084665  73.4574536
 108.9030162  91.9345511  72.5283068 109.8616682  91.4748040  73.6060337
 112.3919617  82.1768733  80.3555165 112.7469005  82.4040206  81.2149631
 113.0391748  82.5087109  79.7332421 118.1217354  85.2987168  71.0604494
 117.9835252  85.4888764  70.1325684 117.7653573  86.0606551  71.5172545
 106.2859480  79.2845264  77.1401506 106.9258859  79.1434023  76.4424470
 105.4537010  78.9979777  76.7640108 118.1486733  87.3663695  76.0715766
 118.5823240  87.2738985  76.9198820 118.8618314  87.3421196  75.4335782
 107.0619784  88.5847694  73.2536499 107.8560382  88.0898014  73.0519074
 106.3511476  88.0565557  72.8904204 111.8814628  90.9665790  77.6048866
 111.9351651  91.5356726  78.3726582 111.0129410  91.1367675  77.2402904
 103.3702547  82.7290776  69.3296252 102.4400135  82.6675231  69.5466214
 103.4660019  82.2066729  68.5332893 103.2888096  79.2545589  71.9174493
 103.5494914  80.1690922  71.8083654 104.1105269  78.7870031  72.0671106
 104.7613022  80.6683346  79.0873318 105.4336075  80.4600708  78.4385967
 103.9342808  80.4705432  78.6478550 119.0102283  87.4087396  78.6048651
 119.2038173  88.3133207  78.8507926 118.9102901  86.9494815  79.4387236
 110.6638594  77.2945287  81.1038979 110.0166509  77.9935236  81.0103455
 111.4339609  77.7281431  81.4715227 114.0717392  87.5594139  84.1789532
 113.9202898  87.3304691  83.2619616 114.0622071  88.5164740  84.1920877
 110.8402728  85.1326052  79.1635798 111.7694788  85.2837211  78.9904766
 110.4193758  85.2210072  78.3084445 109.6391060  89.1576716  76.9334336
 109.5002145  88.7895500  77.8060274 108.8505656  89.6724355  76.7618294
 110.2339212  94.2585813  68.2759872 110.4090967  93.7873856  69.0905495
 109.5472000  94.8851579  68.5041133 111.1896275  88.5358319  74.3223174
 110.8546108  88.4959089  75.2180824 110.6900221  87.8703035  73.8493584
 105.1640519  83.9425949  79.8475755 105.0260317  83.2106188  80.4487294
 106.0745442  83.8534849  79.5659943 114.1255467  85.8814353  64.5960233
 113.5084637  85.1561181  64.4993286 113.6571955  86.6423713  64.2527308
 107.7922820  83.6545908  79.3359435 108.5022438  83.0139100  79.2946053
 107.7492128  83.9058803  80.2585615 115.7809598  90.5913261  82.2566014
 115.7222144  89.9072482  81.5896597 116.1829117  91.3332251  81.8046640
 106.5051754  80.6411126  81.1555074 105.9689111  80.1901864  81.8076670
 105.9168462  80.7757035  80.4125538 104.8000297  97.4075175  75.0499733
 105.0396895  98.0393699  75.7278751 103.9569494  97.0563215  75.3365092
 105.9154012  80.0999777  63.7181538 105.0383479  79.9788578  63.3543784
 106.3911766  79.3085856  63.4660426 115.7827006  88.5552845  80.4879993
 114.8953784  88.2178767  80.6106392 116.3525557  87.8235877  80.7248759
 102.2390875  79.7767134  78.2408068 102.1549064  79.1692803  77.5058478
 101.4173581  80.2676152  78.2417565 109.3128159  93.2154298  77.4541237
 109.2398330  94.0209269  77.9660541 108.8705552  93.4146264  76.6289258
 109.1017939  92.4526068  70.9644058 108.3185460  92.9947748  71.0582283
 109.8010684  92.9700047  71.3638299 112.4114589  78.2620697  73.6078264
 112.9083288  77.5090660  73.2879334 111.6401570  78.2985014  73.0421473
 120.2644346  83.9661063  75.2496555 120.2534222  84.8485778  74.8790488
 119.3961725  83.6132614  75.0551092 111.7726842  93.1141132  79.6099395
 112.4854815  93.7488597  79.5375297 111.2816871  93.2104998  78.7939397
 113.4944369  87.0192384  71.1816687 112.5600648  87.1393847  71.0121391
 113.6721038  86.1164851  70.9176697 108.9949557  80.4038080  73.3349948
 108.6247345  79.8509121  74.0230854 109.4908650  79.7996214  72.7824948
 116.8816921  82.8609704  71.7166721 117.3477373  83.6937695  71.6427024
 117.3324421  82.3954685  72.4211980 106.8238756  90.8635575  80.4304966
 107.5248215  91.4972058  80.5834360 106.3533871  91.2050307  79.6700605
 114.9493152  89.2053525  68.7152873 115.2252996  89.0910120  69.6246747
 114.0797651  88.8071010  68.6765046 114.8533583  75.2290291  75.7557622
 113.9396663  75.4594518  75.9239829 115.2826685  75.3128735  76.6071655
 114.6240042  83.4180183  78.2557516 113.9711492  83.6656090  77.6009969
 115.0020422  82.6044321  77.9219994 111.5847216  93.4539876  72.3585687
 111.7669610  92.6361532  72.8213439 112.4080202  93.6707568  71.9210577
 111.9189381  92.3808061  69.6200735 112.4477148  91.8700516  69.0070897
 112.1817601  92.0650591  70.4846268 110.6727615  84.1599994  84.7423554
 109.9968252  84.0594123  85.4125929 111.4955249  84.0039207  85.2059551
 102.4206474  90.3971930  77.3636069 103.0059911  89.6515618  77.4963973
 102.2231312  90.7075887  78.2472733 105.2745129  93.4323178  72.3798511
 104.6055504  93.9169305  71.8962551 105.1357999  93.6792398  73.2941890
 109.4150398  95.4666921  78.9781170 109.9668706  95.6298543  79.7430255
 109.7556591  96.0571359  78.3061194 104.3914891  77.8142071  79.5803054
 104.4556218  78.6756902  79.1680452 104.3282011  77.2016073  78.8475413
 103.8667164  79.8865204  83.2276088 104.4939202  79.5042281  83.8413613
 103.0095082  79.6679405  83.5931781 114.2661272  90.2928179  84.8329824
 114.8101176  90.9058137  84.3384779 113.6848117  90.8507757  85.3496837
 112.5518785  93.4148897  75.9644852 112.4269925  92.6138637  75.4555797
 113.2097876  93.9095090  75.4758822 104.1726953  79.7697629  75.1421992
 103.4513539  80.3833597  75.0029465 104.9620209  80.3055394  75.0638638
 114.6153693  91.2157917  77.5924402 113.6684029  91.0963268  77.5202728
 114.9636467  90.3280415  77.6750663 106.9753267  77.1052056  81.4162644
 107.4987669  77.3514352  82.1788953 106.7565600  77.9372091  80.9965781
 111.6200127  91.0110633  73.7928754 111.4725089  90.0827340  73.9736324
 112.4453620  91.0330724  73.3085829 105.4862371  79.6628700  69.6509246
 105.8258444  80.1914621  68.9287854 105.9334492  80.0009106  70.4267813
 115.2234249  91.8339192  74.8793627 116.1480796  91.6282053  74.7418078
 115.0549552  91.5855593  75.7882968 108.1805812  78.0465751  79.1012314
 107.8402632  77.2473564  79.5032994 107.4744818  78.3467462  78.5289147
 108.8322284  75.1315063  77.5539637 109.6548353  74.6575541  77.4318528
 109.0760347  75.9105547  78.0538323 107.4730518  78.1603322  67.8502539
 108.1938881  78.5384574  67.3466256 106.8495822  78.8792198  67.9537517
 111.6161641  78.8648471  68.7860871 111.8325255  79.7473109  68.4849699
 111.1355708  78.4734684  68.0566513 106.3560862  81.8234184  75.3631616
 106.2105443  82.1374487  76.2555897 105.8786066  82.4419084  74.8102514
 108.2157245  78.8136732  75.4112505 108.2018814  77.9177825  75.0744803
 108.9329673  78.8207396  76.0450791 110.0683376  79.2474072  77.4565633
 109.8101154  80.1691143  77.4549963 109.5368416  78.8504507  78.1466097
 115.0129565  92.3524859  70.2355718 115.1866442  91.7871282  69.4829571
 115.5058456  93.1525754  70.0535208 100.8306525  84.3639528  78.3019277
 100.2859993  85.1399336  78.4339551 101.7085875  84.7110333  78.1438398
 107.6194141  77.6951112  70.6800076 107.7410052  76.7667758  70.8790963
 107.3296184  77.7089798  69.7678391 110.4885332  75.3806023  73.8166795
 110.5107029  75.4445356  72.8618775 110.9053391  74.5410531  74.0107302
 120.8668956  85.1161282  71.8546018 121.3100102  84.3668607  71.4565141
 119.9895466  85.1071418  71.4719750 116.0004737  91.6691624  67.3352616
 116.6955642  92.2898316  67.5539931 116.3427887  90.8186975  67.6104994
 101.6172547  83.4909425  81.1949434 100.8754283  83.6392060  81.7814064
 101.2965291  83.7517690  80.3316183 117.8996160  89.1191329  68.8639947
 118.4247485  89.4578602  68.1389267 117.8118513  88.1838344  68.6803082
 109.5616209  93.0325403  80.9929824 109.8703336  92.7874550  81.8652523
 110.3591691  93.2372041  80.5048694 109.5836821  95.1863312  73.2235200
 109.1441811  94.6939691  73.9168057 110.3344938  94.6436280  72.9827276
 102.0629160  91.3774853  73.2259828 102.8887180  91.0778625  72.8458472
 101.7123212  90.6082476  73.6749617 107.0310693  90.7301321  75.2957502
 106.4090703  90.0672027  74.9959730 107.7015560  90.7562453  74.6131150
 107.1035221  79.2083110  84.8890008 107.1523376  80.0845232  84.5067778
 107.6457735  78.6660503  84.3161651 117.5890067  89.7524233  84.1691145
 116.7985610  89.7348372  83.6295645 117.3523421  90.2912526  84.9240182
 117.7087942  86.6016699  81.4823874 117.7585946  86.4366707  82.4239397
 117.6001865  85.7343958  81.0921754 106.5924200  89.2805245  68.7715963
 106.7412321  89.9640709  68.1182635 107.3990644  89.2610335  69.2865418
 114.9991704  82.5847627  82.7983180 115.9001567  82.4454092  82.5067178
 115.0739678  82.7502082  83.7381358 109.3334509  79.9614482  81.6436367
 108.4637819  80.2548048  81.3718955 109.5693990  80.5454927  82.3643630
 119.2106138  89.0213641  81.7265895 118.9190947  89.3843621  82.5629356
 118.5978270  88.3080649  81.5479227 120.4101821  86.5866520  74.2468465
 121.2448712  87.0256324  74.4106026 120.5460950  86.1105174  73.4276711
 117.4593327  84.1446255  80.1945953 117.9347448  84.3373902  79.3864805
 116.5358892  84.2005441  79.9489337 104.3476833  85.3070422  69.7777032
 104.1022875  84.4032752  69.9757242 104.5172748  85.3087573  68.8356510
 112.0373543  76.1794099  79.1601787 112.5555487  76.9155126  78.8348276
 111.6828676  76.4858092  79.9948546 112.2886137  72.5994381  74.6802684
 112.5687891  71.9317570  75.3063110 113.0736744  72.7923477  74.1677348
 110.0919606  91.7753375  66.2427710 109.5193573  92.3943562  65.7898182
 110.6652399  92.3252737  66.7767632 116.1594996  81.0212015  78.4274259
 117.1112419  81.1210113  78.4486483 115.9898446  80.2290284  78.9372343
 114.1809375  78.1067599  78.6133660 113.5859307  78.3872611  77.9180148
 113.8959072  78.5961500  79.3850401 113.3116866  92.0590525  67.3736292
 114.2447539  91.9936087  67.5769168 113.2240078  92.8946792  66.9150825
 115.9404882  91.3756396  64.3340240 115.8618514  91.0416259  65.2275998
 116.7614549  91.8678164  64.3331712 118.6383073  84.2418135  77.5416558
 118.6059394  83.3034136  77.7276242 119.2483697  84.3202172  76.8082383
 110.4766404  83.1114188  63.5843763 111.4225509  82.9820396  63.6532181
 110.0980649  82.3728850  64.0613191 118.7877562  81.0329178  77.5874842
 118.2716611  80.2487635  77.4004771 119.6717510  80.7047895  77.7521361
 116.4488289  74.7770194  73.5470654 116.2513110  74.4685282  74.4313986
 117.0587994  75.5031833  73.6768584 110.3605097  87.1631934  85.0444420
 111.2808106  87.3410533  85.2384466 110.3254680  86.2187980  84.8924119
 108.6609321  81.0364164  63.5198648 107.7540777  80.7397277  63.5961361
 108.9385302  80.7393983  62.6532934 103.3567169  85.0732969  77.6867201
 103.5753179  86.0050077  77.7055234 103.7692943  84.7140943  78.4722005
 110.2771387  75.5801054  69.6742889 109.4672115  75.2348139  70.0498135
 110.9655804  75.2708598  70.2630501 112.2061935  74.6579101  71.2967186
 112.7592974  75.0774554  71.9557209 112.4432022  73.7314849  71.3390142
 108.2295035  80.6466175  87.0769950 108.1291762  81.5960532  87.0082041
 108.0116577  80.3184413  86.2046020 107.4308106  77.8951100  63.6610627
 108.2927270  78.2205998  63.9206444 107.6158450  77.1082596  63.1483693
  99.4475522  85.9773439  75.9390816  98.7538993  85.5627392  75.4260770
 100.1948513  86.0193976  75.3424235 115.5840743  76.7679626  70.8045850
 115.0039412  77.4264430  70.4223902 115.3176675  75.9456971  70.3933267
 114.0344309  76.1684684  73.0067170 114.5344087  76.2801218  72.1981489
 114.6779917  75.8645737  73.6467979 108.0926305  84.0763313  85.8935011
 107.6093386  84.8763674  86.0998900 108.1787244  84.0871258  84.9402455
 104.0199642  87.9667848  77.9303445 104.9742896  87.9351790  77.8633377
 103.8212166  87.5058472  78.7453671 104.6099024  86.5368964  80.4974243
 105.4291913  87.0313043  80.5209080 104.8835832  85.6200932  80.4691810
 114.3665621  78.9279716  69.8602198 113.4791476  79.2129367  69.6422393
 114.7819610  78.7673480  69.0129475 117.7180157  78.9526237  73.5756537
 118.4940547  79.4422690  73.8481154 116.9928291  79.3784292  74.0328407
 120.1552715  79.6653857  74.6330478 120.7497206  79.4249593  73.9223786
 120.2279299  78.9460987  75.2604014 102.3749871  93.5087468  74.9473643
 102.2404339  92.7487868  74.3811641 101.9581933  94.2328367  74.4802432
 113.5108834  88.6924391  63.9550218 114.2144684  88.8974394  64.5707874
 112.7871483  89.2601153  64.2199302 114.3406644  84.4434252  70.0752488
 114.2841846  84.9002804  69.2360121 114.8934987  83.6824937  69.8975331
 118.1511450  80.2323984  70.9002608 117.8948384  79.8320620  71.7310816
 117.5264318  80.9467778  70.7752747 105.5318997  94.4056785  75.1592086
 105.4151381  95.3502217  75.0570776 104.7111443  94.1030346  75.5477885
 115.4195531  89.1306920  66.0048678 116.2541135  88.6988119  65.8226153
 115.2579874  88.9588934  66.9325573 115.0741424  85.6339034  67.3705018
 115.0190227  85.4683305  66.4293462 114.4487479  86.3415067  67.5267207
  99.8633939  80.8707098  81.1966440 100.5092802  80.3606052  81.6853665
  99.6551090  81.6075780  81.7709865 112.3887331  87.9387946  86.6958580
 113.2578490  88.1128598  86.3345215 111.9094082  88.7582362  86.5734310
 108.3837549  75.1347143  66.9490336 108.3716219  76.0788983  67.1058607
 109.2760971  74.9517288  66.6549797 106.5573511  95.0585047  78.3748014
 107.4600758  95.0908657  78.6914509 106.3310881  94.1285497  78.3894350
 108.3127113  93.8116033  75.0358093 107.3622744  93.8117895  74.9222465
 108.6159599  93.0648768  74.5194127 112.1989669  71.7289919  71.2036273
 111.4322064  71.1748406  71.3492955 112.6100373  71.8011788  72.0650424
 104.2031430  78.0174715  85.2941454 105.0662891  77.6611520  85.5044779
 103.6296840  77.6788610  85.9816858 120.8569513  99.6004000  76.0365380
 120.5188024  99.4845064  75.1485915 121.7259281  99.1995165  76.0166386
 116.7156328 101.4539476  72.0262271 116.1521194 101.3629413  71.2578558
 116.6008724 100.6339380  72.5064763 121.3389296 100.7538851  81.9951585
 121.3277937 100.3591650  81.1232089 121.5009935 100.0204924  82.5885357
 114.2620760 102.9490668  74.8646491 115.0542052 102.6081492  74.4492790
 114.5017411 103.0585643  75.7848644 116.2211514 102.2099581  67.7363870
 116.9942390 101.6628568  67.5976746 116.5736913 103.0743830  67.9478331
 118.0596557 103.5375963  80.9430769 117.7686423 104.4421594  80.8277436
 118.6953541 103.5792491  81.6574839 118.9852764 100.9152812  77.5332129
 119.5816336 100.6908834  76.8189092 119.0427735 100.1737557  78.1357577
 118.5577792  98.3692247  65.3682320 118.8103313  97.8473768  64.6065783
 117.6202351  98.2058392  65.4709003 118.2774081 100.2720353  67.5706695
 118.1610339  99.5965256  68.2387779 118.3876341  99.7852727  66.7538848
 120.6205622  99.7330500  71.2753384 120.2563829  99.2061121  71.9866305
 121.4772738  99.3428969  71.1019869 120.2611109  94.7620400  66.2714733
 120.4285511  95.6300636  66.6385204 120.0708278  94.9247681  65.3476022
 116.4698923  99.6751175  73.9717267 115.5449420  99.5427390  74.1794959
 116.7183337 100.4545395  74.4687210 120.2400330  97.2178057  67.2561399
 120.1199955  97.6635108  68.0946880 119.5452918  97.5663375  66.6974938
 113.8307735  99.3184449  74.8061056 113.9600116  99.5718928  75.7200468
 113.1505186  99.9112157  74.4865711 120.4924452  97.1609564  83.5612898
 119.7157786  97.7203485  83.5515762 121.1315015  97.6466347  84.0827768
 118.7470824  99.9695018  83.1230865 119.4885508 100.5080062  82.8465688
 118.0407809 100.5961306  83.2802416 120.5757234  97.0496765  79.0936583
 121.4218429  97.4736179  79.2371232 120.5155871  96.3930389  79.7875146
 120.0982940 102.4099757  72.7405400 120.5621286 102.6887460  71.9510022
 119.8339738 101.5083201  72.5578491 116.9907021 101.9571238  75.6785163
 117.5608378 102.3858507  75.0402648 117.5815133 101.6753823  76.3769349
 119.0351826  98.5322909  69.5494965 119.7375869  98.9843953  70.0168891
 118.7032455  97.8906728  70.1774858 117.4832188  97.1234666  83.9246174
 116.8530848  97.8050947  84.1581571 117.3768276  97.0117748  82.9799313
 112.7777160  96.7906462  74.8512099 111.9876214  97.0463990  74.3752209
 113.2688407  97.6054800  74.9564139 114.7291905  97.1551041  71.8095575
 113.9323069  97.2669735  72.3279071 114.5017498  97.4937693  70.9436466
 120.5597573 103.6795744  79.7578090 120.6242006 104.1416152  80.5936262
 119.8508497 103.0493109  79.8860400 111.0614863  97.0436952  77.2827089
 111.3122901  97.9283962  77.5484665 111.5974411  96.8641554  76.5102181
 120.2745591 105.3463852  69.6257070 120.1391266 106.1915388  70.0541918
 120.8155403 105.5483130  68.8623004 116.7612930  91.4255432  86.2871426
 116.3679876  90.8721630  86.9619070 117.5779071  91.7366010  86.6777943
 113.7274988 102.8639290  70.1984995 114.2399509 103.6582540  70.3490560
 114.3797701 102.1665580  70.1318597 115.5369873 105.9805046  72.2807749
 115.7136501 106.9023011  72.0928732 116.3326706 105.6663465  72.7102128
 119.6780891  92.8413311  83.8791682 120.4190605  93.4420464  83.7996145
 119.9098814  92.0990949  83.3209725 114.8222229  98.0269678  82.1569912
 114.7075744  97.1254935  82.4577011 113.9666747  98.2733375  81.8054728
 116.6601188 107.4983220  78.2818091 117.2108613 107.3700283  77.5095085
 115.8212664 107.7978109  77.9312984 120.4568359 103.7634348  82.6262322
 120.9896696 103.0022636  82.3961630 119.9282440 103.4708000  83.3686477
 111.6923905 101.1927944  70.9744566 112.5299127 101.6024953  70.7578274
 111.8702173 100.2527386  70.9444760 121.1735448  93.7052726  71.7213637
 120.3177044  93.3159576  71.5419276 121.5862400  93.7844686  70.8613423
 118.9477481  91.3237799  75.1271379 119.8130477  91.1280607  74.7677268
 119.0154989  91.0948150  76.0540736 121.8221072 102.8920340  70.1381134
 121.2942434 102.1573100  69.8254372 121.3208575 103.6695017  69.8921102
 116.5539800  93.5540007  72.4987746 117.1283552  93.3315188  71.7660939
 117.1410782  93.6228701  73.2516347 116.8809387  95.5844468  66.5183631
 116.0446699  95.9219154  66.8392906 116.7414156  95.4493447  65.5810768
 118.8562467  90.4281255  71.2262815 118.2026880  90.1130273  70.6019430
 118.8142941  89.8056996  71.9522638 119.9673672 100.7100551  63.1416107
 119.0600734 100.4789804  63.3407256 120.4644704  99.9138170  63.3290089
 121.1461906 100.8113145  67.6640097 120.2373125 100.5272178  67.7612567
 121.1756989 101.2312224  66.8043404 111.7150076  98.5318660  71.6455299
 111.5174476  97.9388020  70.9206366 111.1596740  98.2270870  72.3631238
 119.6946800  98.4241766  73.7649893 119.7495409  97.4715602  73.6892369
 118.8838002  98.5801205  74.2491191 120.8437993 102.3521889  65.0028176
 120.4057423 101.6357748  64.5433813 121.5848434 102.5798004  64.4413267
 117.6339160  97.0418826  71.5240271 116.8207025  97.3412996  71.9305464
 118.1298154  96.6474515  72.2414754 117.1253234  94.6137181  77.1401506
 117.7652614  94.4725940  76.4424470 116.2930765  94.3271695  76.7640108
 117.9013538 103.9139612  73.2536499 118.6954137 103.4189932  73.0519074
 117.1905231 103.3857475  72.8904204 114.2096302  98.0582693  69.3296252
 113.2793890  97.9967149  69.5466214 114.3053774  97.5358646  68.5332893
 114.1281851  94.5837506  71.9174493 114.3888668  95.4982840  71.8083654
 114.9499023  94.1161949  72.0671106 115.6006776  95.9975263  79.0873318
 116.2729830  95.7892626  78.4385967 114.7736563  95.7997349  78.6478550
 121.5032348  92.6237204  81.1038979 120.8560263  93.3227154  81.0103455
 122.2733364  93.0573348  81.4715227 120.4784814 104.4868634  76.9334336
 120.3395900 104.1187418  77.8060274 119.6899410 105.0016273  76.7618294
 122.0290029 103.8650236  74.3223174 121.6939862 103.8251006  75.2180824
 121.5293975 103.1994952  73.8493584 116.0034273  99.2717866  79.8475755
 115.8654071  98.5398105  80.4487294 116.9139197  99.1826767  79.5659943
 118.6316574  98.9837826  79.3359435 119.3416193  98.3431018  79.2946053
 118.5885882  99.2350721  80.2585615 117.3445508  95.9703044  81.1555074
 116.8082865  95.5193782  81.8076670 116.7562216  96.1048952  80.4125538
 116.7547767  95.4291695  63.7181538 115.8777233  95.3080496  63.3543784
 117.2305520  94.6377773  63.4660426 108.2749907 100.2168855  73.8123045
 108.9620947  99.9030585  73.2244060 108.1198036 101.1210219  73.5390296
 113.0784629  95.1059051  78.2408068 112.9942818  94.4984721  77.5058478
 112.2567336  95.5968070  78.2417565 119.8343312  95.7329998  73.3349948
 119.4641099  95.1801038  74.0230854 120.3302404  95.1288131  72.7824948
 117.6632510 106.1927493  80.4304966 118.3641970 106.8263976  80.5834360
 117.1927625 106.5342224  79.6700605 121.5121369  99.4891911  84.7423554
 120.8362006  99.3886041  85.4125929 122.3349003  99.3331125  85.2059551
 113.2600229 105.7263848  77.3636069 113.8453665 104.9807536  77.4963973
 113.0625067 106.0367805  78.2472733 116.1138884 108.7615095  72.3798511
 115.4449259 109.2461223  71.8962551 115.9751753 109.0084316  73.2941890
 107.8517883  98.2969448  76.0840512 107.8901983  97.7633039  76.8777630
 107.3458176  97.7704654  75.4651489 115.2308646  93.1433989  79.5803054
 115.2949972  94.0048820  79.1680452 115.1675766  92.5307990  78.8475413
 114.7060918  95.2157121  83.2276088 115.3332957  94.8334199  83.8413613
 113.8488837  94.9971323  83.5931781 111.4826461  97.0233550  69.1594443
 111.7779902  96.1144229  69.1061497 110.5814497  97.0021290  68.8375446
 115.0120708  95.0989547  75.1421992 114.2907294  95.7125515  75.0029465
 115.8013964  95.6347312  75.0638638 117.8147021  92.4343973  81.4162644
 118.3381423  92.6806270  82.1788953 117.5959355  93.2664008  80.9965781
 113.2114302  94.7047648  69.2833768 112.8827009  93.8245027  69.1008874
 113.5653673  94.6495317  70.1710158 116.3256126  94.9920618  69.6509246
 116.6652198  95.5206539  68.9287854 116.7728246  95.3301024  70.4267813
 119.0199566  93.3757668  79.1012314 118.6796387  92.5765482  79.5032994
 118.3138573  93.6759379  78.5289147 119.6716038  90.4606981  77.5539637
 120.4942108  89.9867459  77.4318528 119.9154102  91.2397465  78.0538323
 118.3124273  93.4895239  67.8502539 119.0332635  93.8676492  67.3466256
 117.6889577  94.2084116  67.9537517 117.1954617  97.1526102  75.3631616
 117.0499198  97.4666405  76.2555897 116.7179821  97.7711002  74.8102514
 119.0551000  94.1428650  75.4112505 119.0412569  93.2469743  75.0744803
 119.7723428  94.1499313  76.0450791 120.9077131  94.5765990  77.4565633
 120.6494908  95.4983060  77.4549963 120.3762171  94.1796424  78.1466097
 111.6700279  99.6931446  78.3019277 111.1253747 100.4691254  78.4339551
 112.5479629 100.0402250  78.1438398 118.4587896  93.0243030  70.6800076
 118.5803807  92.0959676  70.8790963 118.1689938  93.0381716  69.7678391
 121.3279086  90.7097940  73.8166795 121.3500783  90.7737273  72.8618775
 121.7447145  89.8702449  74.0107302 112.4566301  98.8201342  81.1949434
 111.7148037  98.9683978  81.7814064 112.1359045  99.0809608  80.3316183
 112.9022915 106.7066771  73.2259828 113.7280935 106.4070543  72.8458472
 112.5516967 105.9374393  73.6749617 117.8704448 106.0593239  75.2957502
 117.2484457 105.3963944  74.9959730 118.5409315 106.0854371  74.6131150
 111.1031520 104.6253097  74.1848762 110.2663428 104.1975272  74.0032763
 111.0755165 104.8185541  75.1219553 117.9428975  94.5375027  84.8890008
 117.9917131  95.4137150  84.5067778 118.4851490  93.9952420  84.3161651
 117.4317955 104.6097163  68.7715963 117.5806075 105.2932627  68.1182635
 118.2384398 104.5902253  69.2865418 120.1728264  95.2906400  81.6436367
 119.3031573  95.5839966  81.3718955 120.4087744  95.8746845  82.3643630
 115.1870588 100.6362340  69.7777032 114.9416630  99.7324670  69.9757242
 115.3566502 100.6379491  68.8356510 114.4566235  96.3690698  67.2763193
 113.7635480  96.4435053  66.6203229 114.2117987  95.6051041  67.7984710
 121.3160159  98.4406106  63.5843763 122.2619263  98.3112314  63.6532181
 120.9374404  97.7020768  64.0613191 121.1998851 102.4923852  85.0444420
 122.1201861 102.6702451  85.2384466 121.1648434 101.5479897  84.8924119
 119.5003076  96.3656082  63.5198648 118.5934531  96.0689195  63.5961361
 119.7779057  96.0685900  62.6532934 110.4181016  97.6862446  73.9697694
 110.0983801  96.8327754  73.6772068 109.8714444  97.9011024  74.7255661
 114.1960924 100.4024887  77.6867201 114.4146934 101.3341994  77.7055234
 114.6086698 100.0432861  78.4722005 121.1165142  90.9092972  69.6742889
 120.3065870  90.5640057  70.0498135 121.8049559  90.6000516  70.2630501
 119.0688789  95.9758092  87.0769950 118.9685516  96.9252449  87.0082041
 118.8510331  95.6476331  86.2046020 118.2701861  93.2243017  63.6610627
 119.1321025  93.5497916  63.9206444 118.4552205  92.4374513  63.1483693
 110.2869276 101.3065357  75.9390816 109.5932748 100.8919310  75.4260770
 111.0342267 101.3485894  75.3424235 118.9320059  99.4055231  85.8935011
 118.4487141 100.2055591  86.0998900 119.0180998  99.4163176  84.9402455
 112.2006019 101.2383611  73.8156831 112.1776707 101.3371298  72.8638714
 112.5106655 102.0848762  74.1373997 114.8593397 103.2959766  77.9303445
 115.8136650 103.2643708  77.8633377 114.6605920 102.8350390  78.7453671
 115.4492779 101.8660882  80.4974243 116.2685668 102.3604961  80.5209080
 115.7229587 100.9492850  80.4691810 113.2143625 108.8379385  74.9473643
 113.0798093 108.0779786  74.3811641 112.7975688 109.5620285  74.4802432
 110.7027693  96.1999016  81.1966440 111.3486557  95.6897970  81.6853665
 110.4944844  96.9367697  81.7709865 119.2231304  90.4639060  66.9490336
 119.2109973  91.4080900  67.1058607 120.1154725  90.2809206  66.6549797
 115.0425184  93.3466633  85.2941454 115.9056646  92.9903438  85.5044779
 114.4690595  93.0080528  85.9816858  52.9644696  -4.9807685  57.6296837
  52.8868726  -4.0299859  57.7085318  52.3606340  -5.3261812  58.2871764
  50.6031526  -2.2322291  61.7745039  50.8428124  -1.6003766  62.4524058
  49.7600722  -2.5834250  62.0610399  51.0776358  -6.2074288  59.1043818
  50.4086733  -5.7228160  58.6207858  50.9389228  -5.9605068  60.0187196
  55.2181627  -4.1730545  65.7026476  55.7699935  -4.0098923  66.4675561
  55.5587820  -3.5826107  65.0306501  55.3868050  -4.4534153  59.9480507
  54.9473040  -4.9457775  60.6413364  56.1376167  -4.9961186  59.7072582
  48.1781100  -6.1309998  61.6718950  48.0435568  -6.8909597  61.1056948
  47.7613162  -5.4069098  61.2047738  51.3350226  -5.2340681  61.8837392
  51.2182610  -4.2895249  61.7816082  50.5142672  -5.5367120  62.2723191
  52.3604740  -4.5812419  65.0993321  53.2631987  -4.5488809  65.4159816
  52.1342110  -5.5111968  65.1139656  66.6600742  -0.0393466  62.7610686
  66.3219253  -0.1552402  61.8731221  67.5290510  -0.4402301  62.7411692
  62.5187557   1.8142010  58.7507577  61.9552422   1.7231947  57.9823865
  62.4039952   0.9941915  59.2310070  67.1420525   1.1141386  68.7196892
  67.1309165   0.7194184  67.8477396  67.3041164   0.3807458  69.3130663
  60.0651989   3.3093202  61.5891798  60.8573281   2.9684026  61.1738097
  60.3048639   3.4188177  62.5093951  68.0987116   5.4812978  54.0622042
  67.4475096   6.0667058  53.6756056  68.8931479   6.0119173  54.1217080
  62.0242743   2.5702115  54.4609177  62.7973619   2.0231102  54.3222052
  62.3768142   3.4346364  54.6723638  63.8627786   3.8978497  67.6676076
  63.5717652   4.8024128  67.5522742  64.4984770   3.9395025  68.3820145
  64.7883993   1.2755346  64.2577436  65.3847565   1.0511368  63.5434398
  64.8458964   0.5340091  64.8602883  64.3609021  -1.2705219  52.0927626
  64.6134542  -1.7923698  51.3311089  63.4233580  -1.4339073  52.1954310
  69.5762381   3.1703410  54.5991027  68.9408214   3.2438036  55.3111931
  69.2459788   3.7597009  53.9210106  64.0805310   0.6322887  54.2952001
  63.9641568  -0.0432210  54.9633086  64.1907570   0.1455261  53.4784154
  66.4236851   0.0933034  57.9998691  66.0595058  -0.4336345  58.7111612
  67.2803967  -0.2968497  57.8265176  68.8217671   3.5839913  64.6625870
  68.5218394   4.4864952  64.5541677  68.4768730   3.3172096  65.5147022
  62.2730152   0.0353710  60.6962574  61.3480649  -0.0970076  60.9040266
  62.5214566   0.8147929  61.1932516  59.6338963  -0.3213017  61.5306363
  59.7631345  -0.0678538  62.4445775  58.9536415   0.2714691  61.2111018
  63.8038451  10.3484233  57.6296837  63.7262480  11.2992058  57.7085318
  63.2000094  10.0030106  58.2871764  64.5502053   0.3297552  69.8476171
  65.2916737   0.8682596  69.5710995  63.8439038   0.9563841  70.0047723
  70.0257392   2.4726692  68.4448333  70.4340748   2.0309103  67.7002965
  69.3034654   1.8979320  68.6982526  70.3486207   3.0327883  62.2000622
  69.7195069   3.1973597  61.4976689  69.9611869   3.4469493  62.9711586
  74.2275439   3.9682321  59.5544985  73.5426477   4.3481222  59.0042019
  74.3119288   4.5777648  60.2876933  71.4826370   1.6142280  66.1540329
  71.6943266   2.2574040  65.4774710  71.4356119   0.7804596  65.6862259
  65.9014169   2.7702291  59.4650707  66.3652514   3.0489994  58.6755329
  65.6370967   1.8685736  59.2823797  62.7938250   2.3173773  62.4030470
  63.3639607   2.7461041  61.7647954  63.3846362   2.0356357  63.1014656
  64.8383055  -1.1074556  56.2740272  65.5407098  -0.6553513  56.7414198
  64.5063683  -1.7490738  56.9020165  63.2863416  -2.5162800  70.6491481
  62.6562077  -1.8346519  70.8826878  63.1799504  -2.6279718  69.7044619
  58.5808389  -2.8491004  61.5757405  57.7907443  -2.5933475  61.0997516
  59.0719636  -2.0342666  61.6809446  72.5972198   4.4914235  64.3262686
  73.4189642   4.0894423  64.0445368  72.5934601   4.3882470  65.2778802
  60.5323134  -2.4846425  58.5340882  59.7354298  -2.3727730  59.0524378
  60.3048726  -2.1459772  57.6681773  66.3628802   4.0398279  66.4823397
  66.4273234   4.5018686  67.3181568  65.6539726   3.4095644  66.6105706
  56.8646092  -2.5960513  64.0072396  57.1154130  -1.7113503  64.2729972
  57.4005640  -2.7755912  63.2347488  66.0776820   5.7066386  56.3502377
  65.9422494   6.5517922  56.7787225  66.6186632   5.9085664  55.5868311
  59.5306217   3.2241824  56.9230302  60.0430737   4.0185074  57.0735867
  60.1828930   2.5268115  56.8563904  61.3401102   6.3407580  59.0053055
  61.5167730   7.2625545  58.8174039  62.1357935   6.0266000  59.4347435
  60.6253458  -1.6127788  68.8815218  60.5106973  -2.5142530  69.1822317
  59.7697976  -1.3664091  68.5300035  67.7045296   6.3289953  70.4802719
  67.2609150   5.5426331  70.1623624  68.3662509   6.5169103  69.8146610
  62.4632417   7.8585754  65.0063398  63.0139842   7.7302818  64.2340391
  61.6243893   8.1580643  64.6558290  69.8026534   6.6092753  68.5084120
  69.7845009   7.4301634  68.0164389  70.7246454   6.4846828  68.7334261
  66.2599588   4.1236882  69.3507629  66.7927925   3.3625170  69.1206937
  65.7313669   3.8310534  70.0931783  57.4955134   1.5530478  57.6989873
  58.3330356   1.9627487  57.4823580  57.6733401   0.6129921  57.6690066
  74.3653840   1.9737914  55.3226879  73.5883283   1.6349073  54.8782041
  75.0445321   1.9790537  54.6481844  67.6252301   3.2522875  56.8626441
  67.0973662   2.5175634  56.5499678  67.1239804   4.0297551  56.6166409
  72.6045147   1.4471895  61.9793487  71.9468821   2.1371156  62.0673616
  73.4085546   1.8368327  62.3227473  65.7704901   1.0703085  49.8661414
  64.8631963   0.8392338  50.0652563  66.2675933   0.2740704  50.0535395
  68.6772980   9.7800592  52.7858100  68.0034679  10.0832289  53.3943058
  69.0638802  10.5829672  52.4363557  66.9493134   1.1715680  54.3885404
  66.0404354   0.8874712  54.4857874  66.9788218   1.5914758  53.5288711
  72.1812402   4.7822269  58.1576571  71.7274729   3.9413179  58.2141762
  71.5506369   5.4183668  58.4951352  70.6245341   6.6198766  59.0926390
  70.9168315   7.1803823  58.3738755  71.1343962   6.9127327  59.8479549
  57.5181305  -1.1078806  58.3700606  57.3205705  -1.7009446  57.6451673
  56.9627969  -1.4126596  59.0876545  66.6469222   2.7124423  51.7273482
  66.2088652   1.9960282  51.2679120  67.3879663   2.9400538  51.1658574
  65.5878966   7.3979117  60.1819843  65.5455145   7.6239963  59.2528375
  66.5041665   7.1642492  60.3305644  74.7911717   3.0558147  62.7961072
  75.2248223   2.9633436  63.6444127  75.5043297   3.0315648  62.1581088
  63.7044767   4.2742146  59.9781805  64.4985366   3.7792466  59.7764380
  62.9936459   3.7460009  59.6149511  68.5239612   6.6560241  64.3294173
  68.5776634   7.2251178  65.0971889  67.6554393   6.8262127  63.9648210
  60.0127531  -1.5814772  56.0541558  59.0825119  -1.6430317  56.2711520
  60.1085003  -2.1038820  55.2578199  75.6527266   3.0981848  65.3293958
  75.8463156   4.0027659  65.5753233  75.5527884   2.6389267  66.1632543
  70.7142375   3.2488591  70.9034838  70.5627881   3.0199142  69.9864922
  70.7047054   4.2059192  70.9166183  67.4827711   0.8220504  65.8881105
  68.4119771   0.9731663  65.7150072  67.0618741   0.9104524  65.0329751
  66.2816043   4.8471168  63.6579643  66.1427129   4.4789952  64.5305581
  65.4930639   5.3618807  63.4863600  66.8764195   9.9480264  55.0005179
  67.0515951   9.4768308  55.8150802  66.1896983  10.5746031  55.2286440
  67.8321258   4.2252771  61.0468480  67.4971091   4.1853541  61.9426130
  67.3325204   3.5597487  60.5738891  61.8065502  -0.3679599  66.5721061
  61.6685300  -1.0999361  67.1732601  62.7170426  -0.4570699  66.2905249
  70.7680450   1.5708805  51.3205540  70.1509621   0.8455633  51.2238593
  70.2996938   2.3318165  50.9772614  64.4347803  -0.6559640  66.0604741
  65.1447421  -1.2966448  66.0191360  64.3917111  -0.4046745  66.9830922
  72.4234582   6.2807713  68.9811320  72.3647128   5.5966933  68.3141903
  72.8254100   7.0226703  68.5291946  61.4425280  13.0969627  61.7745039
  61.6821879  13.7288151  62.4524058  60.5994477  12.7457667  62.0610399
  72.4251989   4.2447297  67.2125300  71.5378768   3.9073219  67.3351699
  72.9950540   3.5130328  67.4494065  54.0781136   0.5771389  60.5368351
  54.7652176   0.2633119  59.9489367  53.9229265   1.4812754  60.2635603
  65.9553142   8.9048750  64.1786543  65.8823314   9.7103721  64.6905848
  65.5130535   9.1040715  63.3534565  65.7442922   8.1420520  57.6889365
  64.9610444   8.6842200  57.7827589  66.4435667   8.6594499  58.0883606
  68.4151826   8.8035584  66.3344702  69.1279798   9.4383048  66.2620603
  67.9241854   8.8999450  65.5184704  70.1369353   2.7086836  57.9061994
  69.2025631   2.8288299  57.7366698  70.3146021   1.8059303  57.6422003
  63.4663739   6.5530027  67.1550273  64.1673199   7.1866510  67.3079667
  62.9958854   6.8944759  66.3945912  71.5918135   4.8947977  55.4398180
  71.8677979   4.7804571  56.3492054  70.7222634   4.4965462  55.4010353
  68.2272199   9.1434328  59.0830993  68.4094594   8.3255984  59.5458746
  69.0505185   9.3602020  58.6455883  68.5614365   8.0702513  56.3446042
  69.0902131   7.5594967  55.7316204  68.8242584   7.7545043  57.2091575
  67.3152598  -0.1505554  71.4668860  66.6393235  -0.2511425  72.1371235
  68.1380232  -0.3066341  71.9304857  59.0631457   6.0866382  64.0881375
  59.6484894   5.3410070  64.2209280  58.8656296   6.3970339  64.9718039
  61.9170113   9.1217630  59.1043818  61.2480488   9.6063757  58.6207858
  61.7782982   9.3686850  60.0187196  53.6549112  -1.3428018  62.8085819
  53.6933212  -1.8764427  63.6022937  53.1489405  -1.8692812  62.1896796
  66.0575381  11.1561373  65.7026476  66.6093689  11.3192995  66.4675561
  66.3981575  11.7465811  65.0306501  70.9086255   5.9822631  71.5575131
  71.4526159   6.5952589  71.0630085  70.3273100   6.5402209  72.0742144
  57.2857690  -2.6163915  55.8839750  57.5811131  -3.5253237  55.8306804
  56.3845725  -2.6376176  55.5620752  69.1943768   9.1043349  62.6890158
  69.0694908   8.3033088  62.1801104  69.8522860   9.5989542  62.2004128
  71.2578677   6.9052369  64.3169708  70.3109012   6.7857720  64.2448035
  71.6061450   6.0174867  64.3995970  68.2625110   6.7005085  60.5174061
  68.1150073   5.7721792  60.6981631  69.0878604   6.7225176  60.0331136
  71.8659232   7.5233644  61.6038933  72.7905779   7.3176505  61.4663385
  71.6974535   7.2750045  62.5128275  62.9985846  -2.4871364  62.0876922
  62.8530426  -2.1731061  62.9801204  62.5211049  -1.8686464  61.5347821
  71.6554548   8.0419311  56.9601025  71.8291426   7.4765734  56.2074877
  72.1483439   8.8420206  56.7780515  57.4731508   0.0533980  65.0264584
  56.9284976   0.8293788  65.1584858  58.3510858   0.4004785  64.8683705
  72.6429721   7.3586075  54.0597923  73.3380625   7.9792768  54.2785238
  72.9852871   6.5081427  54.3350301  58.2597530  -0.8196124  67.9194740
  57.5179266  -0.6713488  68.5059371  57.9390274  -0.5587858  67.0561490
  74.5421144   4.8085781  55.5885254  75.0672468   5.1473054  54.8634574
  74.4543496   3.8732796  55.4048388  66.2041192   8.7219855  67.7175130
  66.5128319   8.4769001  68.5897830  67.0016674   8.9266493  67.2294001
  66.2261804  10.8757764  59.9480507  65.7866795  10.3834143  60.6413364
  66.9769921  10.3330732  59.7072582  58.7054143   7.0669305  59.9505135
  59.5312163   6.7673077  59.5703779  58.3548195   6.2976928  60.3994924
  63.6735677   6.4195773  62.0202809  63.0515686   5.7566478  61.7205037
  64.3440544   6.4456905  61.3376456  56.9062749   4.9855632  60.9094069
  56.0694657   4.5577806  60.7278070  56.8786394   5.1788075  61.8464860
  74.2315050   5.4418685  70.8936452  73.4410594   5.4242823  70.3540951
  73.9948404   5.9806978  71.6485488  74.3512925   2.2911151  68.2069180
  74.4010930   2.1261158  69.1484703  74.2426848   1.4238410  67.8167061
  63.2349184   4.9699697  55.4961269  63.3837304   5.6535161  54.8427942
  64.0415627   4.9504787  56.0110725  75.8531122   4.7108093  68.4511202
  75.5615930   5.0738073  69.2874663  75.2403253   3.9975101  68.2724534
  60.9901817   0.9964874  56.5022338  60.7447858   0.0927204  56.7002548
  61.1597731   0.9982025  55.5601816  66.7344589   7.4647827  52.9673017
  66.1618556   8.0838014  52.5143489  67.3077383   8.0147189  53.5012939
  69.9541849   7.7484977  54.0981599  70.8872522   7.6830539  54.3014474
  69.8665062   8.5841244  53.6396132  72.5829866   7.0650848  51.0585547
  72.5043497   6.7310711  51.9521304  73.4039532   7.5572616  51.0577019
  67.0030080   2.8526386  71.7689726  67.9233090   3.0304985  71.9629773
  66.9679663   1.9082431  71.6169425  56.2212245  -1.9535020  60.6943001
  55.9015029  -2.8069712  60.4017375  55.6745673  -1.7386442  61.4500968
  59.9992153   0.7627421  64.4112507  60.2178162   1.6944529  64.4300541
  60.4117926   0.4035395  65.1967311  56.0900505   1.6667891  62.6636122
  55.3963977   1.2521844  62.1506077  56.8373496   1.7088428  62.0669541
  64.7351288  -0.2342235  72.6180318  64.2518370   0.5658125  72.8244207
  64.8212227  -0.2234290  71.6647762  58.0037248   1.5986145  60.5402137
  57.9807936   1.6973832  59.5884020  58.3137884   2.4451296  60.8619303
  60.6624626   3.6562300  64.6548752  61.6167879   3.6246242  64.5878683
  60.4637149   3.1952924  65.4698978  61.2524008   2.2263416  67.2219549
  62.0716897   2.7207495  67.2454387  61.5260815   1.3095384  67.1937117
  59.0174854   9.1981920  61.6718950  58.8829322   8.4382320  61.1056948
  58.6006917   9.9222819  61.2047738  70.1533817   4.3818843  50.6795525
  70.8569667   4.5868846  51.2953180  69.4296466   4.9495605  50.9444608
  62.1743980  10.0951237  61.8837392  62.0576364  11.0396669  61.7816082
  61.3536426   9.7924798  62.2723191  72.0620515   4.8201372  52.7293985
  72.8966119   4.3882571  52.5471460  71.9004858   4.6483386  53.6570879
  71.7166407   1.3233486  54.0950324  71.6615211   1.1577757  53.1538768
  71.0912462   2.0309518  54.2512514  56.5058922  -3.4398450  67.9211746
  57.1517785  -3.9499496  68.4098972  56.2976073  -2.7029768  68.4955172
  69.0312314   3.6282397  73.4203887  69.9003474   3.8023050  73.0590522
  68.5519066   4.4476814  73.2979616  63.1998494  10.7479498  65.0993321
  64.1025741  10.7803109  65.4159816  62.9735864   9.8179949  65.1139656
  64.9552096   9.5010485  61.7603399  64.0047727   9.5012347  61.6467772
  65.2584582   8.7543220  61.2439434  80.6904790  15.3371023  62.8249162
  81.3283200  15.2177771  62.1212502  80.5725633  16.2851867  62.8837114
  77.4994496  15.2898451  62.7610686  77.1613008  15.1739516  61.8731221
  78.3684264  14.8889617  62.7411692  73.3581312  17.1433928  58.7507577
  72.7946177  17.0523865  57.9823865  73.2433707  16.3233832  59.2310070
  77.9814279  16.4433303  68.7196892  77.9702920  16.0486101  67.8477396
  78.1434919  15.7099376  69.3130663  70.9045744  18.6385119  61.5891798
  71.6967036  18.2975944  61.1738097  71.1442394  18.7480095  62.5093951
  78.9380871  20.8104896  54.0622042  78.2868850  21.3958976  53.6756056
  79.7325233  21.3411090  54.1217080  72.8636498  17.8994033  54.4609177
  73.6367374  17.3523020  54.3222052  73.2161897  18.7638282  54.6723638
  74.7021540  19.2270415  67.6676076  74.4111406  20.1316046  67.5522742
  75.3378525  19.2686943  68.3820145  75.6277747  16.6047264  64.2577436
  76.2241319  16.3803286  63.5434398  75.6852719  15.8632009  64.8602883
  75.2002775  14.0586699  52.0927626  75.4528296  13.5368220  51.3311089
  74.2627335  13.8952844  52.1954310  80.2446058  13.0622477  59.9002370
  81.0309148  12.6441900  59.5492787  80.5084763  13.9668569  60.0684018
  80.4156136  18.4995328  54.5991027  79.7801969  18.5729954  55.3111931
  80.0853542  19.0888926  53.9210106  85.6454485  12.9997710  60.8035348
  86.3779657  12.4296927  61.0373178  84.8893841  12.6119311  61.2441854
  74.9199064  15.9614805  54.2952001  74.8035322  15.2859708  54.9633086
  75.0301324  15.4747179  53.4784154  77.2630605  15.4224952  57.9998691
  76.8988812  14.8955573  58.7111612  78.1197721  15.0323421  57.8265176
  83.1679906   6.7119285  65.2629957  82.8363231   7.5814695  65.0391172
  82.5725519   6.3955569  65.9423987  76.9036092  10.4514852  52.9960039
  77.0710494  11.3195088  53.3630510  76.7133261  10.6142133  52.0721328
  79.6611425  18.9131831  64.6625870  79.3612148  19.8156869  64.5541677
  79.3162485  18.6464014  65.5147022  73.1123907  15.3645627  60.6962574
  72.1874403  15.2321841  60.9040266  73.3608320  16.1439847  61.1932516
  83.0608569  11.4314371  62.3423307  82.1525446  11.3629779  62.0482068
  83.0096165  11.9086316  63.1705132  76.8825313  12.9072509  53.9806706
  76.7624938  13.3529560  54.8192186  76.1877901  13.2557827  53.4220244
  70.4732718  15.0078901  61.5306363  70.6025099  15.2613380  62.4445775
  69.7930169  15.6006609  61.2111018  74.6432205  25.6776151  57.6296837
  74.5656235  26.6283976  57.7085318  74.0393849  25.3322023  58.2871764
  77.1349435  12.8504016  70.2858204  76.3582769  13.4097936  70.2761069
  77.7739998  13.3360799  70.8073074  84.9270216   9.6330809  64.1201181
  84.2844596   9.9263342  63.4740975  84.4225144   9.5183729  64.9254377
  82.5810379  13.3793982  54.8087040  83.4928235  13.6121369  54.6334738
  82.0720026  13.9631026  54.2462119  75.3895807  15.6589470  69.8476171
  76.1310492  16.1974514  69.5710995  74.6832793  16.2855758  70.0047723
  80.8651147  17.8018610  68.4448333  81.2734503  17.3601021  67.7002965
  80.1428408  17.2271238  68.6982526  77.2182217  12.7391217  65.8181890
  78.0643412  13.1630630  65.9616539  77.1580855  12.0824841  66.5120453
  81.1879961  18.3619801  62.2000622  80.5588824  18.5265515  61.4976689
  80.8005624  18.7761410  62.9711586  85.0669193  19.2974239  59.5544985
  84.3820232  19.6773140  59.0042019  85.1513043  19.9069565  60.2876933
  80.3681662  10.3995585  67.4763063  80.1242594  11.1537646  66.9397339
  80.6441593  10.7780933  68.3110310  82.3220125  16.9434198  66.1540329
  82.5337020  17.5865957  65.4774710  82.2749873  16.1096514  65.6862259
  79.9246354   9.5552018  63.0576901  79.0630833   9.8533272  63.3493639
  79.9508789   9.7722417  62.1257934  76.7407923  18.0994209  59.4650707
  77.2046269  18.3781912  58.6755329  76.4764721  17.1977653  59.2823797
  73.6332004  17.6465690  62.4030470  74.2033361  18.0752959  61.7647954
  74.2240116  17.3648275  63.1014656  75.6776809  14.2217361  56.2740272
  76.3800853  14.6738405  56.7414198  75.3457438  13.5801180  56.9020165
  74.1257171  12.8129118  70.6491481  73.4955832  13.4945399  70.8826878
  74.0193259  12.7012199  69.7044619  69.4202143  12.4800914  61.5757405
  68.6301197  12.7358442  61.0997516  69.9113391  13.2949252  61.6809446
  83.4365953  19.8206153  64.3262686  84.2583397  19.4186340  64.0445368
  83.4328356  19.7174387  65.2778802  71.3716889  12.8445493  58.5340882
  70.5748052  12.9564187  59.0524378  71.1442481  13.1832145  57.6681773
  77.2022556  19.3690196  66.4823397  77.2666989  19.8310604  67.3181568
  76.4933480  18.7387561  66.6105706  67.7039846  12.7331404  64.0072396
  67.9547885  13.6178414  64.2729972  68.2399395  12.5536006  63.2347488
  91.5271946  16.1644901  60.6747658  90.7735654  15.5952300  60.5191662
  91.6619487  16.1307566  61.6218292  76.9170574  21.0358304  56.3502377
  76.7816249  21.8809840  56.7787225  77.4580387  21.2377581  55.5868311
  73.4037914   7.1149884  73.0116732  73.0104859   6.5616082  73.6864376
  74.2204054   7.4260462  73.4023250  70.3699971  18.5533742  56.9230302
  70.8824492  19.3476992  57.0735867  71.0222684  17.8560032  56.8563904
  72.1794856  21.6699498  59.0053055  72.3561484  22.5917463  58.8174039
  72.9751690  21.3557917  59.4347435  76.3205875   8.5307763  70.6036989
  77.0615588   9.1314916  70.5241451  76.5523797   7.7885401  70.0455031
  71.4647213  13.7164130  68.8815218  71.3500728  12.8149387  69.1822317
  70.6091730  13.9627827  68.5300035  78.5439050  21.6581870  70.4802719
  78.1002905  20.8718249  70.1623624  79.2056264  21.8461021  69.8146610
  73.3026172  23.1877672  65.0063398  73.8533597  23.0594735  64.2340391
  72.4637647  23.4872561  64.6558290  80.6420288  21.9384670  68.5084120
  80.6238764  22.7593551  68.0164389  81.5640209  21.8138745  68.7334261
  77.0993343  19.4528800  69.3507629  77.6321679  18.6917088  69.1206937
  76.5707424  19.1602452  70.0931783  80.2663038   4.5588866  64.8801270
  79.9227307   5.4490507  64.8040381  80.6342000   4.3690523  64.0170855
  68.3348888  16.8822396  57.6989873  69.1724110  17.2919405  57.4823580
  68.5127156  15.9421838  57.6690066  80.2313320  14.5497477  53.3873706
  79.7159944  15.3202081  53.6262093  79.9590629  13.8762613  54.0106767
  77.8160431   9.3947178  58.4458944  76.9602028   9.0054028  58.2664583
  78.2287383   9.4739138  57.5858729  79.3459578   6.9293521  62.8450504
  78.8424374   6.8923656  62.0318309  79.6390185   7.8386264  62.9047160
  75.5902464   7.0132251  61.8516685  76.4555461   6.8175059  61.4922575
  75.6579973   6.7842602  62.7786042  85.2047594  17.3029831  55.3226879
  84.4277037  16.9640991  54.8782041  85.8839075  17.3082455  54.6481844
  80.0199623  12.4224569  55.2133487  79.7149759  12.7370718  56.0643630
  80.9730066  12.5005989  55.2560820  78.4646055  18.5814792  56.8626441
  77.9367417  17.8467552  56.5499678  77.9633558  19.3589469  56.6166409
  83.4438901  16.7763813  61.9793487  82.7862576  17.4663074  62.0673616
  84.2479301  17.1660245  62.3227473  73.1964783   9.2434458  59.2233052
  73.7708535   9.0209640  58.4906245  73.7835765   9.3123153  59.9761654
  82.2544360  15.1308185  60.0297429  82.7676242  15.7638177  60.5319138
  82.9045584  14.5309381  59.6640789  73.5234370  11.2738920  53.2428937
  72.6871682  11.6113606  53.5638212  73.3839140  11.1387899  52.3056074
  75.4987451   6.1175707  57.9508122  74.8451863   5.8024725  57.3264736
  75.4567925   5.4951448  58.6767945  76.6098656  16.3995002  49.8661414
  75.7025717  16.1684256  50.0652563  77.1069687  15.6032622  50.0535395
  79.5166734  25.1092510  52.7858100  78.8428433  25.4124206  53.3943058
  79.9032556  25.9121590  52.4363557  78.7325191  12.6057641  62.2755769
  77.8147752  12.8272588  62.1177457  79.1485335  12.6803951  61.4167477
  79.5160239  14.0049057  57.4058450  80.2632058  14.5170454  57.0965572
  79.7851828  13.6833109  58.2662843  77.7886889  16.5007597  54.3885404
  76.8798108  16.2166630  54.4857874  77.8181973  16.9206676  53.5288711
  83.0206156  20.1114187  58.1576571  82.5668483  19.2705097  58.2141762
  82.3900123  20.7475585  58.4951352  81.9639076  11.0406173  59.3877239
  81.2261833  10.5283559  59.7187481  82.2165849  10.6006554  58.5760516
  81.4639096  21.9490684  59.0926390  81.7562070  22.5095741  58.3738755
  81.9737716  22.2419245  59.8479549  68.3575059  14.2213111  58.3700606
  68.1599459  13.6282472  57.6451673  67.8021723  13.9165322  59.0876545
  76.3371783  14.1136218  60.4895199  76.3920393  13.1610054  60.4137676
  75.5262985  14.2695657  60.9736498  77.4862977  18.0416341  51.7273482
  77.0482407  17.3252200  51.2679120  78.2273418  18.2692456  51.1658574
  74.2764143  12.7313278  58.2485578  73.4632008  13.0307448  58.6550770
  74.7723137  12.3368966  58.9660060  76.4272721  22.7271035  60.1819843
  76.3848900  22.9531881  59.2528375  77.3435420  22.4934409  60.3305644
  79.8738355  13.1955102  67.0800472  80.2287742  13.4226575  67.9394938
  80.5210486  13.5273479  66.4577727  85.6036092  16.3173538  57.7849801
  85.4653990  16.5075134  56.8570990  85.2472310  17.0792921  58.2417852
  73.7678218  10.3031633  63.8646813  74.4077597  10.1620392  63.1669776
  72.9355748  10.0166147  63.4885415  85.6305471  18.3850065  62.7961072
  86.0641978  18.2925354  63.6444127  86.3437052  18.3607566  62.1581088
  74.5438522  19.6034064  59.9781805  75.3379120  19.1084384  59.7764380
  73.8330214  19.0751927  59.6149511  79.3633366  21.9852159  64.3294173
  79.4170388  22.5543095  65.0971889  78.4948147  22.1554044  63.9648210
  70.8521285  13.7477145  56.0541558  69.9218873  13.6861601  56.2711520
  70.9478757  13.2253098  55.2578199  70.7706834  10.2731958  58.6419800
  71.0313651  11.1877291  58.5328960  71.5924006   9.8056401  58.7916413
  72.2431759  11.6869715  65.8118624  72.9154813  11.4787077  65.1631273
  71.4161546  11.4891801  65.3723857  86.4921021  18.4273766  65.3293958
  86.6856911  19.3319576  65.5753233  86.3921639  17.9681185  66.1632543
  78.1457331   8.3131656  67.8284285  77.4985246   9.0121606  67.7348762
  78.9158347   8.7467800  68.1960533  81.5536129  18.5780508  70.9034838
  81.4021636  18.3491060  69.9864922  81.5440809  19.5351110  70.9166183
  78.3221466  16.1512421  65.8881105  79.2513526  16.3023581  65.7150072
  77.9012496  16.2396442  65.0329751  77.1209798  20.1763086  63.6579643
  76.9820883  19.8081870  64.5305581  76.3324394  20.6910725  63.4863600
  77.7157950  25.2772182  55.0005179  77.8909705  24.8060225  55.8150802
  77.0290738  25.9037948  55.2286440  78.6715013  19.5544688  61.0468480
  78.3364845  19.5145458  61.9426130  78.1718958  18.8889404  60.5738891
  72.6459257  14.9612318  66.5721061  72.5079055  14.2292557  67.1732601
  73.5564180  14.8721218  66.2905249  81.6074204  16.9000723  51.3205540
  80.9903375  16.1747551  51.2238593  81.1390693  17.6610083  50.9772614
  75.2741557  14.6732278  66.0604741  75.9841176  14.0325470  66.0191360
  75.2310866  14.9245173  66.9830922  83.2628336  21.6099631  68.9811320
  83.2040882  20.9258851  68.3141903  83.6647854  22.3518621  68.5291946
  73.9870491  11.6597496  67.8800381  73.4507848  11.2088234  68.5321977
  73.3987200  11.7943404  67.1370845  72.2819035  28.4261545  61.7745039
  72.5215633  29.0580069  62.4524058  71.4388231  28.0749585  62.0610399
  73.3972750  11.1186147  50.4426844  72.5202217  10.9974948  50.0789091
  73.8730503  10.3272225  50.1905733  83.2645743  19.5739215  67.2125300
  82.3772522  19.2365137  67.3351699  83.8344294  18.8422246  67.4494065
  64.9174890  15.9063307  60.5368351  65.6045930  15.5925037  59.9489367
  64.7623019  16.8104671  60.2635603  69.7209613  10.7953503  64.9653375
  69.6367801  10.1879173  64.2303785  68.8992319  11.2862522  64.9662871
  76.7946897  24.2340667  64.1786543  76.7217068  25.0395639  64.6905848
  76.3524290  24.4332633  63.3534565  76.5836676  23.4712437  57.6889365
  75.8004198  24.0134118  57.7827589  77.2829421  23.9886417  58.0883606
  79.8933326   9.2807067  60.3323570  80.3902026   8.5277029  60.0124640
  79.1220308   9.3171383  59.7666779  87.7463084  14.9847432  61.9741862
  87.7352960  15.8672148  61.6035795  86.8780463  14.6318983  61.7796399
  79.2545580  24.1327501  66.3344702  79.9673552  24.7674966  66.2620603
  78.7635609  24.2291367  65.5184704  80.9763107  18.0378754  57.9061994
  80.0419386  18.1580216  57.7366698  81.1539776  17.1351221  57.6422003
  76.4768295  11.4224450  60.0595255  76.1066083  10.8695490  60.7476160
  76.9727388  10.8182583  59.5070255  84.3635658  13.8796073  58.4412028
  84.8296111  14.7124065  58.3672330  84.8143159  13.4141055  59.1457286
  74.3057494  21.8821945  67.1550273  75.0066953  22.5158428  67.3079667
  73.8352609  22.2236676  66.3945912  82.4311890  20.2239895  55.4398180
  82.7071733  20.1096489  56.3492054  81.5616388  19.8257379  55.4010353
  82.3352321   6.2476660  62.4802929  81.4215401   6.4780887  62.6485136
  82.7645423   6.3315104  63.3316961  82.1058780  14.4366552  64.9802823
  81.4530230  14.6842460  64.3255276  82.4839160  13.6230690  64.6465300
  79.0665954  24.4726245  59.0830993  79.2488348  23.6547901  59.5458746
  79.8898940  24.6893938  58.6455883  79.4008119  23.3994431  56.3446042
  79.9295886  22.8886885  55.7316204  79.6636339  23.0836961  57.2091575
  78.1546353  15.1786363  71.4668860  77.4786990  15.0780493  72.1371235
  78.9773987  15.0225577  71.9304857  69.9025212  21.4158300  64.0881375
  70.4878649  20.6701988  64.2209280  69.7050050  21.7262257  64.9718039
  72.7563867  24.4509547  59.1043818  72.0874242  24.9355675  58.6207858
  72.6176737  24.6978768  60.0187196  64.4942867  13.9863900  62.8085819
  64.5326966  13.4527491  63.6022937  63.9883159  13.4599106  62.1896796
  76.8969136  26.4853291  65.7026476  77.4487444  26.6484912  66.4675561
  77.2375329  27.0757729  65.0306501  71.8733629   8.8328441  66.3048361
  71.9374955   9.6943271  65.8925759  71.8100749   8.2202442  65.5720719
  71.3485901  10.9051573  69.9521395  71.9757940  10.5228650  70.5658919
  70.4913820  10.6865775  70.3177088  81.7480010  21.3114548  71.5575131
  82.2919914  21.9244507  71.0630085  81.1666855  21.8694127  72.0742144
  68.1251444  12.7128002  55.8839750  68.4204885  11.8038681  55.8306804
  67.2239480  12.6915742  55.5620752  80.0337523  24.4335266  62.6890158
  79.9088662  23.6325006  62.1801104  80.6916614  24.9281460  62.2004128
  71.6545691  10.7883999  61.8667299  70.9332277  11.4019966  61.7274772
  72.4438947  11.3241764  61.7883944  82.0972431  22.2344286  64.3169708
  81.1502767  22.1149638  64.2448035  82.4455204  21.3466784  64.3995970
  74.4572005   8.1238425  68.1407950  74.9806406   8.3700722  68.9034260
  74.2384338   8.9558460  67.7211088  69.8539286  10.3942100  56.0079075
  69.5251992   9.5139479  55.8254181  70.2078656  10.3389769  56.8955464
  79.1018865  22.0297003  60.5174061  78.9543827  21.1013710  60.6981631
  79.9272358  22.0517093  60.0331136  72.9681109  10.6815070  56.3754553
  73.3077181  11.2100991  55.6533161  73.4153229  11.0195476  57.1513119
  82.7052986  22.8525561  61.6038933  83.6299534  22.6468423  61.4663385
  82.5368290  22.6041962  62.5128275  75.6624550   9.0652120  65.8257621
  75.3221370   8.2659933  66.2278301  74.9563556   9.3653831  65.2534454
  76.3141022   6.1501433  64.2784944  77.1367091   5.6761911  64.1563834
  76.5579085   6.9291917  64.7783630  74.9549256   9.1789691  54.5747846
  75.6757618   9.5570944  54.0711562  74.3314560   9.8978568  54.6782823
  79.0980379   9.8834840  55.5106178  79.3143993  10.7659478  55.2095006
  78.6174446   9.4921054  54.7811820  73.8379600  12.8420553  62.0876922
  73.6924181  13.1560857  62.9801204  73.3604804  13.4605454  61.5347821
  75.6975983   9.8323101  62.1357812  75.6837552   8.9364195  61.7990110
  76.4148411   9.8393765  62.7696098  77.5502114  10.2660442  64.1810939
  77.2919892  11.1877512  64.1795270  77.0187154   9.8690876  64.8711404
  82.4948303  23.3711229  56.9601025  82.6685180  22.8057651  56.2074877
  82.9877194  24.1712124  56.7780515  68.3125262  15.3825898  65.0264584
  67.7678730  16.1585706  65.1584858  69.1904612  15.7296702  64.8683705
  75.1012879   8.7137482  57.4045382  75.2228790   7.7854128  57.6036270
  74.8114921   8.7276168  56.4923698  77.9704069   6.3992392  60.5412102
  77.9925766   6.4631725  59.5864082  78.3872128   5.5596901  60.7352608
  88.3487694  16.1347652  58.5791325  88.7918840  15.3854977  58.1810448
  87.4714204  16.1257788  58.1965057  83.4823475  22.6877993  54.0597923
  84.1774380  23.3084686  54.2785238  83.8246625  21.8373344  54.3350301
  69.0991284  14.5095794  67.9194740  68.3573020  14.6578429  68.5059371
  68.7784029  14.7704060  67.0561490  85.3814898  20.1377699  55.5885254
  85.9066222  20.4764971  54.8634574  85.2937251  19.2024714  55.4048388
  77.0434947  24.0511772  67.7175130  77.3522073  23.8060919  68.5897830
  77.8410429  24.2558411  67.2294001  77.0655559  26.2049682  59.9480507
  76.6260549  25.7126061  60.6413364  77.8163676  25.6622650  59.7072582
  69.5447898  22.3961223  59.9505135  70.3705918  22.0964995  59.5703779
  69.1941950  21.6268845  60.3994924  74.5129431  21.7487691  62.0202809
  73.8909440  21.0858396  61.7205037  75.1834298  21.7748823  61.3376456
  67.7456503  20.3147549  60.9094069  66.9088411  19.8869724  60.7278070
  67.7180148  20.5079993  61.8464860  74.5853959  10.2269479  71.6135315
  74.6342114  11.1031602  71.2313084  75.1276473   9.6846872  71.0406958
  85.0708804  20.7710602  70.8936452  84.2804348  20.7534741  70.3540951
  84.8342159  21.3098896  71.6485488  85.1906679  17.6203069  68.2069180
  85.2404684  17.4553076  69.1484703  85.0820603  16.7530328  67.8167061
  74.0742938  20.2991614  55.4961269  74.2231058  20.9827079  54.8427942
  74.8809381  20.2796704  56.0110725  82.4810442  13.6033997  69.5228487
  83.3820304  13.4640462  69.2312485  82.5558416  13.7688452  70.4626665
  76.8153247  10.9800851  68.3681673  75.9456556  11.2734418  68.0964262
  77.0512727  11.5641296  69.0888937  86.6924876  20.0400010  68.4511202
  86.4009684  20.4029991  69.2874663  86.0797007  19.3267019  68.2724534
  87.8920558  17.6052890  60.9713772  88.7267450  18.0442694  61.1351332
  88.0279687  17.1291543  60.1522018  84.9412064  15.1632625  66.9191260
  85.4166186  15.3560271  66.1110111  84.0177630  15.2191811  66.6734644
  71.8295571  16.3256792  56.5022338  71.5841613  15.4219122  56.7002548
  71.9991486  16.3273942  55.5601816  79.5192281   7.1980468  65.8847094
  80.0374225   7.9341495  65.5593582  79.1647414   7.5044462  66.7193853
  71.0991219  12.0585150  54.0008500  70.4060463  12.1329505  53.3448536
  70.8542970  11.2945493  54.5230017  77.5738344  22.7939745  52.9673017
  77.0012311  23.4129932  52.5143489  78.1471137  23.3439107  53.5012939
  83.6413733  12.0398385  65.1519565  84.5931156  12.1396483  65.1731790
  83.4717184  11.2476653  65.6617650  81.6628113   9.1253968  65.3378966
  81.0678045   9.4058981  64.6425455  81.3777810   9.6147869  66.1095708
  80.7935603  23.0776895  54.0981599  81.7266277  23.0122457  54.3014474
  80.7058816  23.9133162  53.6396132  83.4223620  22.3942765  51.0585547
  83.3437252  22.0602629  51.9521304  84.2433287  22.8864533  51.0577019
  86.1201811  15.2604505  64.2661865  86.0878131  14.3220505  64.4521549
  86.7302435  15.3388541  63.5327690  77.9585142  14.1300558  50.3089069
  78.9044247  14.0006766  50.3777487  77.5799387  13.3915220  50.7858497
  86.2696300  12.0515548  64.3120148  85.7535348  11.2674005  64.1250077
  87.1536248  11.7234265  64.4766668  83.9307027   5.7956564  60.2715961
  83.7331848   5.4871652  61.1559293  84.5406732   6.5218203  60.4013891
  91.9378361  16.3220511  63.4067902  92.6681750  16.0605800  63.9675605
  91.3285307  15.5849233  63.4469970  90.0193658  14.4628374  64.0042353
  89.2926822  14.3284339  63.3958845  89.6040945  14.7705203  64.8099071
  77.8423835  18.1818304  71.7689726  78.7626844  18.3596903  71.9629773
  77.8073418  17.2374349  71.6169425  76.1428059  12.0550534  50.2443954
  75.2359515  11.7583647  50.3206668  76.4204040  11.7580352  49.3778241
  67.0606000  13.3756897  60.6943001  66.7408784  12.5222206  60.4017375
  66.5139428  13.5905476  61.4500968  70.8385907  16.0919338  64.4112507
  71.0571917  17.0236446  64.4300541  71.2511681  15.7327313  65.1967311
  77.7590125   6.5987424  56.3988196  76.9490853   6.2534509  56.7743442
  78.4474542   6.2894967  56.9875807  79.6880673   5.6765471  58.0212492
  80.2411712   6.0960924  58.6802515  79.9250760   4.7501219  58.0635448
  75.7113772  11.6652544  73.8015256  75.6110499  12.6146901  73.7327347
  75.4935315  11.3370783  72.9291326  74.9126844   8.9137469  50.3855934
  75.7746008   9.2392368  50.6451751  75.0977188   8.1268965  49.8728999
  66.9294260  16.9959809  62.6636122  66.2357731  16.5813762  62.1506077
  67.6767251  17.0380345  62.0669541  83.0659480   7.7865996  57.5291157
  82.4858149   8.4450800  57.1469209  82.7995413   6.9643340  57.1178574
  81.5163047   7.1871053  59.7312477  82.0162825   7.2987588  58.9226796
  82.1598655   6.8832106  60.3713285  75.5745043  15.0949683  72.6180318
  75.0912124  15.8950043  72.8244207  75.6605982  15.1057628  71.6647762
  68.8431002  16.9278063  60.5402137  68.8201690  17.0265750  59.5884020
  69.1531639  17.7743213  60.8619303  71.5018380  18.9854218  64.6548752
  72.4561634  18.9538160  64.5878683  71.3030904  18.5244841  65.4698978
  72.0917762  17.5555334  67.2219549  72.9110651  18.0499412  67.2454387
  72.3654570  16.6387302  67.1937117  81.8484358   9.9466086  56.5847505
  80.9610213  10.2315737  56.3667700  82.2638347   9.7859849  55.7374782
  85.1998894   9.9712607  60.3001844  85.9759285  10.4609059  60.5726461
  84.4747029  10.3970661  60.7573714  87.6371453  10.6840226  61.3575785
  88.2315944  10.4435962  60.6469093  87.7098037   9.9647357  61.9849321
  69.8568609  24.5273837  61.6718950  69.7223077  23.7674238  61.1056948
  69.4400671  25.2514737  61.2047738  80.9927572  19.7110761  50.6795525
  81.6963422  19.9160763  51.2953180  80.2690221  20.2787523  50.9444608
  81.8225382  15.4620622  56.7997795  81.7660583  15.9189173  55.9605427
  82.3753725  14.7011307  56.6220638  85.6330188  11.2510354  57.6247915
  85.3767122  10.8506990  58.4556122  85.0083056  11.9654148  57.4998054
  89.9442526  13.9906427  60.1319206  89.3842084  14.0599616  60.9050768
  89.3386029  13.8147412  59.4118702  73.0137735  25.4243154  61.8837392
  72.8970119  26.3688587  61.7816082  72.1930181  25.1216716  62.2723191
  82.9014269  20.1493290  52.7293985  83.7359873  19.7174488  52.5471460
  82.7398612  19.9775304  53.6570879  82.5560161  16.6525403  54.0950324
  82.5008965  16.4869675  53.1538768  81.9306217  17.3601436  54.2512514
  67.3452676  11.8893468  67.9211746  67.9911540  11.3792422  68.4098972
  67.1369827  12.6262149  68.4955172  79.8706069  18.9574315  73.4203887
  80.7397228  19.1314967  73.0590522  79.3912820  19.7768732  73.2979616
  75.8656287   6.1533512  53.6735643  75.8534957   7.0975352  53.8303913
  76.7579709   5.9703658  53.3795104  74.0392249  26.0771416  65.0993321
  74.9419496  26.1095026  65.4159816  73.8129619  25.1471867  65.1139656
  75.7945851  24.8302403  61.7603399  74.8441482  24.8304264  61.6467772
  76.0978337  24.0835137  61.2439434  71.6850167   9.0361085  72.0186761
  72.5481629   8.6797890  72.2290085  71.1115578   8.6974980  72.7062165
  91.5298544  30.6662941  62.8249162  92.1676954  30.5469688  62.1212502
  91.4119387  31.6143785  62.8837114  88.3388251  30.6190369  62.7610686
  88.0006762  30.5031434  61.8731221  89.2078019  30.2181534  62.7411692
  84.1975066  32.4725846  58.7507577  83.6339931  32.3815782  57.9823865
  84.0827461  31.6525750  59.2310070  88.8208034  31.7725221  68.7196892
  88.8096674  31.3778019  67.8477396  88.9828673  31.0391293  69.3130663
  81.7439498  33.9677037  61.5891798  82.5360790  33.6267862  61.1738097
  81.9836148  34.0772012  62.5093951  89.7774625  36.1396813  54.0622042
  89.1262605  36.7250894  53.6756056  90.5718988  36.6703008  54.1217080
  83.7030252  33.2285950  54.4609177  84.4761128  32.6814937  54.3222052
  84.0555651  34.0930200  54.6723638  85.5415295  34.5562333  67.6676076
  85.2505161  35.4607964  67.5522742  86.1772279  34.5978860  68.3820145
  86.4671502  31.9339181  64.2577436  87.0635074  31.7095204  63.5434398
  86.5246473  31.1923927  64.8602883  86.0396530  29.3878617  52.0927626
  86.2922051  28.8660138  51.3311089  85.1021089  29.2244762  52.1954310
  91.0839813  28.3914395  59.9002370  91.8702902  27.9733818  59.5492787
  91.3478517  29.2960487  60.0684018  91.2549890  33.8287245  54.5991027
  90.6195723  33.9021872  55.3111931  90.9247297  34.4180844  53.9210106
  96.4848240  28.3289628  60.8035348  97.2173412  27.7588845  61.0373178
  95.7287596  27.9411229  61.2441854  85.7592819  31.2906722  54.2952001
  85.6429077  30.6151626  54.9633086  85.8695079  30.8039096  53.4784154
  88.1024360  30.7516870  57.9998691  87.7382567  30.2247491  58.7111612
  88.9591476  30.3615339  57.8265176  94.0073660  22.0411202  65.2629957
  93.6756985  22.9106613  65.0391172  93.4119274  21.7247486  65.9423987
  87.7429847  25.7806769  52.9960039  87.9104249  26.6487006  53.3630510
  87.5527016  25.9434051  52.0721328  90.5005180  34.2423748  64.6625870
  90.2005903  35.1448787  64.5541677  90.1556239  33.9755931  65.5147022
  83.9517661  30.6937545  60.6962574  83.0268158  30.5613759  60.9040266
  84.2002074  31.4731764  61.1932516  93.9002324  26.7606288  62.3423307
  92.9919201  26.6921697  62.0482068  93.8489919  27.2378233  63.1705132
  87.7219067  28.2364427  53.9806706  87.6018693  28.6821478  54.8192186
  87.0271656  28.5849744  53.4220244  81.3126472  30.3370819  61.5306363
  81.4418853  30.5905297  62.4445775  80.6323924  30.9298527  61.2111018
  85.4825960  41.0068069  57.6296837  85.4049989  41.9575894  57.7085318
  84.8787603  40.6613941  58.2871764  87.9743189  28.1795934  70.2858204
  87.1976523  28.7389854  70.2761069  88.6133752  28.6652717  70.8073074
  95.7663970  24.9622727  64.1201181  95.1238350  25.2555260  63.4740975
  95.2618899  24.8475647  64.9254377  93.4204134  28.7085900  54.8087040
  94.3321990  28.9413287  54.6334738  92.9113781  29.2922944  54.2462119
  86.2289562  30.9881387  69.8476171  86.9704246  31.5266431  69.5710995
  85.5226547  31.6147676  70.0047723  91.7044901  33.1310528  68.4448333
  92.1128257  32.6892938  67.7002965  90.9822163  32.5563155  68.6982526
  88.0575971  28.0683135  65.8181890  88.9037167  28.4922548  65.9616539
  87.9974609  27.4116759  66.5120453  92.0273716  33.6911718  62.2000622
  91.3982578  33.8557433  61.4976689  91.6399378  34.1053328  62.9711586
  95.9062948  34.6266156  59.5544985  95.2213986  35.0065058  59.0042019
  95.9906797  35.2361483  60.2876933  91.2075417  25.7287503  67.4763063
  90.9636349  26.4829563  66.9397339  91.4835347  26.1072851  68.3110310
  93.1613879  32.2726115  66.1540329  93.3730775  32.9157875  65.4774710
  93.1143628  31.4388432  65.6862259  90.7640108  24.8843936  63.0576901
  89.9024587  25.1825189  63.3493639  90.7902543  25.1014335  62.1257934
  87.5801678  33.4286126  59.4650707  88.0440023  33.7073829  58.6755329
  87.3158476  32.5269571  59.2823797  84.4725759  32.9757608  62.4030470
  85.0427116  33.4044876  61.7647954  85.0633871  32.6940193  63.1014656
  86.5170564  29.5509279  56.2740272  87.2194607  30.0030323  56.7414198
  86.1851192  28.9093098  56.9020165  84.9650925  28.1421035  70.6491481
  84.3349586  28.8237316  70.8826878  84.8587013  28.0304117  69.7044619
  80.2595898  27.8092832  61.5757405  79.4694952  28.0650360  61.0997516
  80.7507145  28.6241169  61.6809446  94.2759707  35.1498071  64.3262686
  95.0977151  34.7478258  64.0445368  94.2722110  35.0466305  65.2778802
  82.2110643  28.1737411  58.5340882  81.4141807  28.2856105  59.0524378
  81.9836235  28.5124063  57.6681773  88.0416311  34.6982114  66.4823397
  88.1060743  35.1602521  67.3181568  87.3327235  34.0679479  66.6105706
  78.5433601  28.0623322  64.0072396  78.7941639  28.9470332  64.2729972
  79.0793149  27.8827923  63.2347488 102.3665700  31.4936819  60.6747658
 101.6129409  30.9244217  60.5191662 102.5013242  31.4599484  61.6218292
  87.7564329  36.3650221  56.3502377  87.6210003  37.2101757  56.7787225
  88.2974141  36.5669499  55.5868311  84.2431668  22.4441801  73.0116732
  83.8498614  21.8908000  73.6864376  85.0597808  22.7552380  73.4023250
  81.2093726  33.8825660  56.9230302  81.7218246  34.6768910  57.0735867
  81.8616439  33.1851950  56.8563904  83.0188611  36.9991416  59.0053055
  83.1955239  37.9209380  58.8174039  83.8145444  36.6849835  59.4347435
  87.1599629  23.8599680  70.6036989  87.9009343  24.4606834  70.5241451
  87.3917552  23.1177318  70.0455031  82.3040967  29.0456048  68.8815218
  82.1894482  28.1441305  69.1822317  81.4485485  29.2919744  68.5300035
  89.3832805  36.9873788  70.4802719  88.9396659  36.2010167  70.1623624
  90.0450018  37.1752938  69.8146610  84.1419926  38.5169590  65.0063398
  84.6927351  38.3886653  64.2340391  83.3031402  38.8164479  64.6558290
  91.4814043  37.2676588  68.5084120  91.4632518  38.0885469  68.0164389
  92.4033963  37.1430663  68.7334261  87.9387097  34.7820717  69.3507629
  88.4715434  34.0209006  69.1206937  87.4101178  34.4894369  70.0931783
  91.1056792  19.8880783  64.8801270  90.7621061  20.7782425  64.8040381
  91.4735755  19.6982441  64.0170855  79.1742643  32.2114314  57.6989873
  80.0117865  32.6211322  57.4823580  79.3520910  31.2713756  57.6690066
  91.0707075  29.8789394  53.3873706  90.5553698  30.6493999  53.6262093
  90.7984383  29.2054531  54.0106767  88.6554186  24.7239095  58.4458944
  87.7995782  24.3345946  58.2664583  89.0681138  24.8031056  57.5858729
  90.1853332  22.2585439  62.8450504  89.6818128  22.2215574  62.0318309
  90.4783939  23.1678181  62.9047160  86.4296218  22.3424168  61.8516685
  87.2949215  22.1466977  61.4922575  86.4973727  22.1134520  62.7786042
  96.0441349  32.6321749  55.3226879  95.2670792  32.2932909  54.8782041
  96.7232830  32.6374372  54.6481844  90.8593378  27.7516487  55.2133487
  90.5543514  28.0662636  56.0643630  91.8123820  27.8297906  55.2560820
  89.3039810  33.9106710  56.8626441  88.7761171  33.1759469  56.5499678
  88.8027313  34.6881386  56.6166409  94.2832656  32.1055730  61.9793487
  93.6256330  32.7954992  62.0673616  95.0873055  32.4952162  62.3227473
  84.0358537  24.5726376  59.2233052  84.6102289  24.3501558  58.4906245
  84.6229520  24.6415071  59.9761654  93.0938115  30.4600103  60.0297429
  93.6069996  31.0930095  60.5319138  93.7439339  29.8601299  59.6640789
  84.3628125  26.6030837  53.2428937  83.5265437  26.9405524  53.5638212
  84.2232894  26.4679817  52.3056074  86.3381205  21.4467625  57.9508122
  85.6845617  21.1316642  57.3264736  86.2961679  20.8243366  58.6767945
  87.4492410  31.7286920  49.8661414  86.5419472  31.4976174  50.0652563
  87.9463442  30.9324539  50.0535395  90.3560489  40.4384427  52.7858100
  89.6822188  40.7416124  53.3943058  90.7426311  41.2413508  52.4363557
  89.5718945  27.9349559  62.2755769  88.6541507  28.1564506  62.1177457
  89.9879089  28.0095869  61.4167477  90.3553993  29.3340974  57.4058450
  91.1025812  29.8462372  57.0965572  90.6245583  29.0125027  58.2662843
  88.6280643  31.8299515  54.3885404  87.7191863  31.5458548  54.4857874
  88.6575727  32.2498594  53.5288711  93.8599911  35.4406105  58.1576571
  93.4062238  34.5997014  58.2141762  93.2293878  36.0767503  58.4951352
  92.8032830  26.3698091  59.3877239  92.0655587  25.8575477  59.7187481
  93.0559604  25.9298472  58.5760516  92.3032850  37.2782601  59.0926390
  92.5955824  37.8387658  58.3738755  92.8131471  37.5711162  59.8479549
  92.9044458  19.1474343  59.9819008  93.2103335  18.2871706  59.6944923
  93.6297063  19.7391963  59.7818002  79.1968814  29.5505029  58.3700606
  78.9993214  28.9574390  57.6451673  78.6415478  29.2457239  59.0876545
  87.1765537  29.4428136  60.4895199  87.2314147  28.4901972  60.4137676
  86.3656740  29.5987575  60.9736498  88.3256731  33.3708259  51.7273482
  87.8876161  32.6544118  51.2679120  89.0667172  33.5984374  51.1658574
  85.1157897  28.0605195  58.2485578  84.3025763  28.3599366  58.6550770
  85.6116892  27.6660884  58.9660060  87.2666475  38.0562952  60.1819843
  87.2242654  38.2823799  59.2528375  88.1829174  37.8226327  60.3305644
  90.7132109  28.5247020  67.0800472  91.0681497  28.7518493  67.9394938
  91.3604240  28.8565397  66.4577727  96.4429846  31.6465456  57.7849801
  96.3047745  31.8367052  56.8570990  96.0866065  32.4084839  58.2417852
  84.6071972  25.6323551  63.8646813  85.2471351  25.4912310  63.1669776
  83.7749503  25.3458064  63.4885415  96.4699226  33.7141983  62.7961072
  96.9035732  33.6217272  63.6444127  97.1830806  33.6899483  62.1581088
  85.3832276  34.9325981  59.9781805  86.1772875  34.4376301  59.7764380
  84.6723968  34.4043844  59.6149511  90.2027121  37.3144077  64.3294173
  90.2564143  37.8835013  65.0971889  89.3341902  37.4845962  63.9648210
  81.6915040  29.0769063  56.0541558  80.7612628  29.0153519  56.2711520
  81.7872512  28.5545016  55.2578199  81.6100589  25.6023876  58.6419800
  81.8707406  26.5169209  58.5328960  82.4317761  25.1348318  58.7916413
  83.0825514  27.0161633  65.8118624  83.7548567  26.8078995  65.1631273
  82.2555300  26.8183719  65.3723857  97.3314775  33.7565683  65.3293958
  97.5250665  34.6611494  65.5753233  97.2315393  33.2973102  66.1632543
  88.9851086  23.6423574  67.8284285  88.3379001  24.3413524  67.7348762
  89.7552101  24.0759718  68.1960533  92.3929884  33.9072426  70.9034838
  92.2415390  33.6782978  69.9864922  92.3834563  34.8643028  70.9166183
  89.1615220  31.4804339  65.8881105  90.0907280  31.6315498  65.7150072
  88.7406250  31.5688360  65.0329751  87.9603552  35.5055003  63.6579643
  87.8214638  35.1373788  64.5305581  87.1718148  36.0202643  63.4863600
  88.5551704  40.6064100  55.0005179  88.7303460  40.1352143  55.8150802
  87.8684492  41.2329866  55.2286440  89.5108767  34.8836606  61.0468480
  89.1758600  34.8437376  61.9426130  89.0112713  34.2181322  60.5738891
  83.4853011  30.2904236  66.5721061  83.3472809  29.5584475  67.1732601
  84.3957935  30.2013136  66.2905249  92.4467959  32.2292640  51.3205540
  91.8297129  31.5039468  51.2238593  91.9784447  32.9902001  50.9772614
  86.1135312  30.0024195  66.0604741  86.8234930  29.3617388  66.0191360
  86.0704620  30.2537090  66.9830922  94.1022091  36.9391549  68.9811320
  94.0434637  36.2550769  68.3141903  94.5041609  37.6810539  68.5291946
  84.8264246  26.9889413  67.8800381  84.2901603  26.5380152  68.5321977
  84.2380954  27.1235322  67.1370845  83.1212789  43.7553463  61.7745039
  83.3609388  44.3871987  62.4524058  82.2781986  43.4041503  62.0610399
  84.2366505  26.4478065  50.4426844  83.3595971  26.3266865  50.0789091
  84.7124258  25.6564143  50.1905733  94.1039498  34.9031133  67.2125300
  93.2166277  34.5657054  67.3351699  94.6738049  34.1714164  67.4494065
  75.7568645  31.2355224  60.5368351  76.4439685  30.9216954  59.9489367
  75.6016774  32.1396589  60.2635603  80.5603367  26.1245421  64.9653375
  80.4761556  25.5171090  64.2303785  79.7386073  26.6154439  64.9662871
  87.6340651  39.5632585  64.1786543  87.5610823  40.3687556  64.6905848
  87.1918044  39.7624551  63.3534565  87.4230431  38.8004355  57.6889365
  86.6397953  39.3426035  57.7827589  88.1223176  39.3178335  58.0883606
  90.7327081  24.6098984  60.3323570  91.2295780  23.8568947  60.0124640
  89.9614062  24.6463301  59.7666779  98.5856838  30.3139350  61.9741862
  98.5746715  31.1964065  61.6035795  97.7174218  29.9610901  61.7796399
  90.0939335  39.4619419  66.3344702  90.8067307  40.0966884  66.2620603
  89.6029363  39.5583285  65.5184704  91.8156862  33.3670672  57.9061994
  90.8813140  33.4872134  57.7366698  91.9933530  32.4643138  57.6422003
  87.3162050  26.7516367  60.0595255  86.9459837  26.1987408  60.7476160
  87.8121142  26.1474501  59.5070255  95.2029413  29.2087991  58.4412028
  95.6689865  30.0415983  58.3672330  95.6536913  28.7432973  59.1457286
  85.1451248  37.2113862  67.1550273  85.8460708  37.8450345  67.3079667
  84.6746363  37.5528594  66.3945912  93.2705644  35.5531812  55.4398180
  93.5465488  35.4388407  56.3492054  92.4010143  35.1549297  55.4010353
  93.1746076  21.5768578  62.4802929  92.2609155  21.8072805  62.6485136
  93.6039177  21.6607022  63.3316961  92.9452534  29.7658470  64.9802823
  92.2923984  30.0134377  64.3255276  93.3232914  28.9522608  64.6465300
  89.9059708  39.8018163  59.0830993  90.0882103  38.9839819  59.5458746
  90.7292694  40.0185855  58.6455883  90.2401874  38.7286348  56.3446042
  90.7689640  38.2178803  55.7316204  90.5030093  38.4128878  57.2091575
  88.9940107  30.5078281  71.4668860  88.3180744  30.4072410  72.1371235
  89.8167741  30.3517495  71.9304857  80.7418966  36.7450218  64.0881375
  81.3272403  35.9993905  64.2209280  80.5443805  37.0554174  64.9718039
  83.5957622  39.7801465  59.1043818  82.9267997  40.2647593  58.6207858
  83.4570491  40.0270685  60.0187196  75.3336621  29.3155818  62.8085819
  75.3720721  28.7819408  63.6022937  74.8276914  28.7891023  62.1896796
  87.7362890  41.8145208  65.7026476  88.2881198  41.9776830  66.4675561
  88.0769084  42.4049646  65.0306501  82.7127383  24.1620358  66.3048361
  82.7768710  25.0235189  65.8925759  82.6494504  23.5494360  65.5720719
  82.1879656  26.2343491  69.9521395  82.8151695  25.8520568  70.5658919
  81.3307575  26.0157693  70.3177088  92.5873764  36.6406466  71.5575131
  93.1313668  37.2536424  71.0630085  92.0060609  37.1986044  72.0742144
  78.9645199  28.0419920  55.8839750  79.2598640  27.1330598  55.8306804
  78.0633234  28.0207659  55.5620752  90.8731277  39.7627184  62.6890158
  90.7482417  38.9616924  62.1801104  91.5310368  40.2573377  62.2004128
  82.4939446  26.1175916  61.8667299  81.7726031  26.7311884  61.7274772
  83.2832701  26.6533681  61.7883944  92.9366186  37.5636204  64.3169708
  91.9896521  37.4441555  64.2448035  93.2848959  36.6758702  64.3995970
  85.2965759  23.4530343  68.1407950  85.8200161  23.6992639  68.9034260
  85.0778092  24.2850378  67.7211088  80.6933040  25.7234018  56.0079075
  80.3645746  24.8431396  55.8254181  81.0472411  25.6681686  56.8955464
  89.9412619  37.3588920  60.5174061  89.7937581  36.4305628  60.6981631
  90.7666113  37.3809011  60.0331136  83.8074863  26.0106987  56.3754553
  84.1470936  26.5392909  55.6533161  84.2546984  26.3487393  57.1513119
  93.5446741  38.1817479  61.6038933  94.4693288  37.9760340  61.4663385
  93.3762044  37.9333880  62.5128275  86.5018304  24.3944038  65.8257621
  86.1615125  23.5951851  66.2278301  85.7957310  24.6945749  65.2534454
  87.1534776  21.4793350  64.2784944  87.9760845  21.0053829  64.1563834
  87.3972840  22.2583834  64.7783630  85.7943010  24.5081609  54.5747846
  86.5151373  24.8862862  54.0711562  85.1708315  25.2270486  54.6782823
  89.9374133  25.2126758  55.5106178  90.1537748  26.0951396  55.2095006
  89.4568201  24.8212971  54.7811820  84.6773355  28.1712471  62.0876922
  84.5317935  28.4852774  62.9801204  84.1998558  28.7897371  61.5347821
  86.5369738  25.1615019  62.1357812  86.5231306  24.2656112  61.7990110
  87.2542166  25.1685683  62.7696098  88.3895868  25.5952359  64.1810939
  88.1313646  26.5169430  64.1795270  87.8580909  25.1982794  64.8711404
  93.3342057  38.7003146  56.9601025  93.5078935  38.1349569  56.2074877
  93.8270948  39.5004041  56.7780515  79.1519017  30.7117816  65.0264584
  78.6072485  31.4877623  65.1584858  80.0298367  31.0588620  64.8683705
  85.9406634  24.0429399  57.4045382  86.0622545  23.1146046  57.6036270
  85.6508676  24.0568085  56.4923698  88.8097824  21.7284310  60.5412102
  88.8319521  21.7923643  59.5864082  89.2265883  20.8888818  60.7352608
  99.1881448  31.4639569  58.5791325  99.6312594  30.7146895  58.1810448
  98.3107959  31.4549706  58.1965057  94.3217230  38.0169911  54.0597923
  95.0168134  38.6376604  54.2785238  94.6640380  37.1665262  54.3350301
  79.9385039  29.8387712  67.9194740  79.1966775  29.9870347  68.5059371
  79.6177783  30.0995977  67.0561490  96.2208653  35.4669616  55.5885254
  96.7459977  35.8056889  54.8634574  96.1331005  34.5316632  55.4048388
  87.8828701  39.3803690  67.7175130  88.1915828  39.1352837  68.5897830
  88.6804183  39.5850328  67.2294001  87.9049313  41.5341600  59.9480507
  87.4654304  41.0417978  60.6413364  88.6557430  40.9914567  59.7072582
  80.3841652  37.7253140  59.9505135  81.2099672  37.4256912  59.5703779
  80.0335704  36.9560763  60.3994924  85.3523186  37.0779609  62.0202809
  84.7303195  36.4150314  61.7205037  86.0228053  37.1040741  61.3376456
  78.5850258  35.6439467  60.9094069  77.7482166  35.2161641  60.7278070
  78.5573903  35.8371910  61.8464860  85.4247713  25.5561397  71.6135315
  85.4735869  26.4323520  71.2313084  85.9670227  25.0138790  71.0406958
  95.9102559  36.1002520  70.8936452  95.1198102  36.0826659  70.3540951
  95.6735913  36.6390814  71.6485488  96.0300434  32.9494986  68.2069180
  96.0798439  32.7844994  69.1484703  95.9214357  32.0822245  67.8167061
  84.9136693  35.6283532  55.4961269  85.0624813  36.3118996  54.8427942
  85.7203136  35.6088622  56.0110725  93.3204196  28.9325914  69.5228487
  94.2214059  28.7932379  69.2312485  93.3952171  29.0980369  70.4626665
  87.6547002  26.3092769  68.3681673  86.7850311  26.6026335  68.0964262
  87.8906482  26.8933214  69.0888937  97.5318631  35.3691928  68.4511202
  97.2403439  35.7321908  69.2874663  96.9190762  34.6558936  68.2724534
  98.7314313  32.9344808  60.9713772  99.5661204  33.3734612  61.1351332
  98.8673442  32.4583461  60.1522018  95.7805819  30.4924543  66.9191260
  96.2559941  30.6852189  66.1110111  94.8571384  30.5483728  66.6734644
  82.6689326  31.6548710  56.5022338  82.4235367  30.7511040  56.7002548
  82.8385240  31.6565860  55.5601816  90.3586035  22.5272386  65.8847094
  90.8767979  23.2633413  65.5593582  90.0041168  22.8336379  66.7193853
  81.9384973  27.3877067  54.0008500  81.2454218  27.4621422  53.3448536
  81.6936725  26.6237411  54.5230017  90.6098630  18.9472669  61.4047990
  90.8900383  18.2795858  62.0308417  91.3949236  19.1401764  60.8922654
  88.4132098  38.1231663  52.9673017  87.8406065  38.7421850  52.5143489
  88.9864892  38.6731024  53.5012939  94.4807488  27.3690303  65.1519565
  95.4324911  27.4688400  65.1731790  94.3110938  26.5768571  65.6617650
  92.5021867  24.4545886  65.3378966  91.9071799  24.7350899  64.6425455
  92.2171564  24.9439787  66.1095708  91.6329358  38.4068813  54.0981599
  92.5660031  38.3414374  54.3014474  91.5452571  39.2425079  53.6396132
  94.2617375  37.7234683  51.0585547  94.1831006  37.3894547  51.9521304
  95.0827041  38.2156451  51.0577019  96.9595566  30.5896422  64.2661865
  96.9271886  29.6512423  64.4521549  97.5696189  30.6680459  63.5327690
  88.7978897  29.4592475  50.3089069  89.7438001  29.3298683  50.3777487
  88.4193142  28.7207137  50.7858497  97.1090054  27.3807466  64.3120148
  96.5929103  26.5965922  64.1250077  97.9930003  27.0526182  64.4766668
  94.7700781  21.1248481  60.2715961  94.5725602  20.8163569  61.1559293
  95.3800487  21.8510120  60.4013891 102.7772116  31.6512429  63.4067902
 103.5075504  31.3897717  63.9675605 102.1679061  30.9141151  63.4469970
 100.8587413  29.7920292  64.0042353 100.1320576  29.6576257  63.3958845
 100.4434700  30.0997120  64.8099071  88.6817589  33.5110221  71.7689726
  89.6020599  33.6888820  71.9629773  88.6467172  32.5666267  71.6169425
  86.9821814  27.3842452  50.2443954  86.0753269  27.0875564  50.3206668
  87.2597795  27.0872270  49.3778241  77.8999754  28.7048815  60.6943001
  77.5802538  27.8514123  60.4017375  77.3533182  28.9197393  61.4500968
  81.6779662  31.4211256  64.4112507  81.8965671  32.3528364  64.4300541
  82.0905435  31.0619230  65.1967311  88.5983879  21.9279341  56.3988196
  87.7884608  21.5826426  56.7743442  89.2868296  21.6186885  56.9875807
  90.5274428  21.0057388  58.0212492  91.0805466  21.4252842  58.6802515
  90.7644514  20.0793136  58.0635448  86.5507527  26.9944462  73.8015256
  86.4504254  27.9438819  73.7327347  86.3329069  26.6662701  72.9291326
  85.7520598  24.2429387  50.3855934  86.6139762  24.5684285  50.6451751
  85.9370942  23.4560883  49.8728999  77.7688014  32.3251727  62.6636122
  77.0751486  31.9105679  62.1506077  78.5161005  32.3672263  62.0669541
  93.9053235  23.1157913  57.5291157  93.3251904  23.7742717  57.1469209
  93.6389167  22.2935258  57.1178574  92.3556801  22.5162971  59.7312477
  92.8556580  22.6279506  58.9226796  92.9992409  22.2124024  60.3713285
  86.4138797  30.4241601  72.6180318  85.9305879  31.2241961  72.8244207
  86.4999736  30.4349546  71.6647762  79.6824757  32.2569980  60.5402137
  79.6595445  32.3557668  59.5884020  79.9925393  33.1035131  60.8619303
  82.3412134  34.3146135  64.6548752  83.2955388  34.2830078  64.5878683
  82.1424658  33.8536759  65.4698978  82.9311517  32.8847251  67.2219549
  83.7504406  33.3791330  67.2454387  83.2048324  31.9679220  67.1937117
  92.6878113  25.2758004  56.5847505  91.8003968  25.5607654  56.3667700
  93.1032102  25.1151767  55.7374782  96.0392649  25.3004525  60.3001844
  96.8153039  25.7900977  60.5726461  95.3140783  25.7262579  60.7573714
  98.4765208  26.0132144  61.3575785  99.0709698  25.7727880  60.6469093
  98.5491791  25.2939274  61.9849321  80.6962363  39.8565755  61.6718950
  80.5616831  39.0966156  61.1056948  80.2794426  40.5806655  61.2047738
  91.8321326  35.0402678  50.6795525  92.5357176  35.2452681  51.2953180
  91.1083975  35.6079440  50.9444608  92.6619137  30.7912540  56.7997795
  92.6054338  31.2481091  55.9605427  93.2147479  30.0303224  56.6220638
  96.4723942  26.5802272  57.6247915  96.2160877  26.1798907  58.4556122
  95.8476811  27.2946065  57.4998054 100.7836280  29.3198345  60.1319206
 100.2235838  29.3891534  60.9050768 100.1779784  29.1439329  59.4118702
  83.8531489  40.7535072  61.8837392  83.7363873  41.6980504  61.7816082
  83.0323935  40.4508633  62.2723191  93.7408024  35.4785208  52.7293985
  94.5753628  35.0466406  52.5471460  93.5792367  35.3067221  53.6570879
  93.3953916  31.9817321  54.0950324  93.3402720  31.8161592  53.1538768
  92.7699971  32.6893354  54.2512514  78.1846431  27.2185385  67.9211746
  78.8305294  26.7084339  68.4098972  77.9763582  27.9554067  68.4955172
  90.7099823  34.2866233  73.4203887  91.5790983  34.4606885  73.0590522
  90.2306575  35.1060650  73.2979616  86.7050041  21.4825430  53.6735643
  86.6928711  22.4267270  53.8303913  87.5973463  21.2995575  53.3795104
  84.8786003  41.4063334  65.0993321  85.7813250  41.4386944  65.4159816
  84.6523373  40.4763785  65.1139656  86.6339605  40.1594320  61.7603399
  85.6835236  40.1596182  61.6467772  86.9372091  39.4127055  61.2439434
  90.5202161  18.0768207  57.9281579  89.7534557  17.5226693  58.0738262
  90.9312866  18.1490075  58.7895731  82.5243922  24.3653002  72.0186761
  83.3875383  24.0089807  72.2290085  81.9509333  24.0266897  72.7062165
 102.3692299  45.9954859  62.8249162 103.0070709  45.8761606  62.1212502
 102.2513142  46.9435703  62.8837114  99.1782005  45.9482287  62.7610686
  98.8400517  45.8323352  61.8731221 100.0471773  45.5473452  62.7411692
  95.0368821  47.8017763  58.7507577  94.4733686  47.7107700  57.9823865
  94.9221216  46.9817668  59.2310070  99.6601788  47.1017139  68.7196892
  99.6490429  46.7069937  67.8477396  99.8222428  46.3683211  69.3130663
  92.5833253  49.2968955  61.5891798  93.3754545  48.9559779  61.1738097
  92.8229903  49.4063930  62.5093951 100.6168379  51.4688731  54.0622042
  99.9656359  52.0542811  53.6756056 101.4112742  51.9994926  54.1217080
  94.5424007  48.5577868  54.4609177  95.3154883  48.0106855  54.3222052
  94.8949406  49.4222117  54.6723638  96.3809049  49.8854250  67.6676076
  96.0898915  50.7899881  67.5522742  97.0166034  49.9270778  68.3820145
  97.3065256  47.2631099  64.2577436  97.9028828  47.0387121  63.5434398
  97.3640228  46.5215844  64.8602883  96.8790284  44.7170534  52.0927626
  97.1315805  44.1952055  51.3311089  95.9414844  44.5536680  52.1954310
 101.9233567  43.7206313  59.9002370 102.7096657  43.3025736  59.5492787
 102.1872272  44.6252405  60.0684018 102.0943645  49.1579163  54.5991027
 101.4589478  49.2313789  55.3111931 101.7641051  49.7472762  53.9210106
 107.3241994  43.6581546  60.8035348 108.0567166  43.0880763  61.0373178
 106.5681350  43.2703146  61.2441854  96.5986573  46.6198640  54.2952001
  96.4822831  45.9443544  54.9633086  96.7088833  46.1331014  53.4784154
  98.9418114  46.0808787  57.9998691  98.5776321  45.5539408  58.7111612
  99.7985230  45.6907256  57.8265176 104.8467415  37.3703120  65.2629957
 104.5150740  38.2398531  65.0391172 104.2513028  37.0539404  65.9423987
  98.5823601  41.1098687  52.9960039  98.7498003  41.9778923  53.3630510
  98.3920770  41.2725969  52.0721328 101.3398934  49.5715666  64.6625870
 101.0399657  50.4740705  64.5541677 100.9949994  49.3047849  65.5147022
  94.7911416  46.0229463  60.6962574  93.8661912  45.8905677  60.9040266
  95.0395829  46.8023682  61.1932516 104.7396078  42.0898206  62.3423307
 103.8312955  42.0213614  62.0482068 104.6883674  42.5670151  63.1705132
  98.5612822  43.5656344  53.9806706  98.4412447  44.0113395  54.8192186
  97.8665410  43.9141662  53.4220244  92.1520227  45.6662736  61.5306363
  92.2812608  45.9197215  62.4445775  91.4717678  46.2590444  61.2111018
  96.3219714  56.3359986  57.6296837  96.2443744  57.2867811  57.7085318
  95.7181358  55.9905859  58.2871764  98.8136944  43.5087852  70.2858204
  98.0370278  44.0681772  70.2761069  99.4527507  43.9944635  70.8073074
 106.6057724  40.2914644  64.1201181 105.9632105  40.5847178  63.4740975
 106.1012653  40.1767565  64.9254377 104.2597888  44.0377818  54.8087040
 105.1715744  44.2705204  54.6334738 103.7507535  44.6214862  54.2462119
  97.0683316  46.3173305  69.8476171  97.8098001  46.8558349  69.5710995
  96.3620302  46.9439594  70.0047723 102.5438656  48.4602445  68.4448333
 102.9522012  48.0184856  67.7002965 101.8215917  47.8855073  68.6982526
  98.8969726  43.3975052  65.8181890  99.7430921  43.8214466  65.9616539
  98.8368364  42.7408677  66.5120453 102.8667470  49.0203636  62.2000622
 102.2376333  49.1849350  61.4976689 102.4793133  49.4345246  62.9711586
 106.7456702  49.9558074  59.5544985 106.0607740  50.3356975  59.0042019
 106.8300552  50.5653401  60.2876933 102.0469171  41.0579421  67.4763063
 101.8030103  41.8121481  66.9397339 102.3229102  41.4364768  68.3110310
 104.0007634  47.6018033  66.1540329 104.2124529  48.2449793  65.4774710
 103.9537382  46.7680350  65.6862259 101.6033863  40.2135854  63.0576901
 100.7418342  40.5117107  63.3493639 101.6296298  40.4306252  62.1257934
  98.4195432  48.7578044  59.4650707  98.8833778  49.0365747  58.6755329
  98.1552230  47.8561489  59.2823797  95.3119513  48.3049526  62.4030470
  95.8820870  48.7336794  61.7647954  95.9027625  48.0232110  63.1014656
  97.3564318  44.8801197  56.2740272  98.0588362  45.3322240  56.7414198
  97.0244947  44.2385015  56.9020165  95.8044680  43.4712953  70.6491481
  95.1743340  44.1529234  70.8826878  95.6980768  43.3596035  69.7044619
  91.0989652  43.1384749  61.5757405  90.3088706  43.3942278  61.0997516
  91.5900900  43.9533087  61.6809446 105.1153462  50.4789988  64.3262686
 105.9370906  50.0770176  64.0445368 105.1115865  50.3758223  65.2778802
  93.0504398  43.5029328  58.5340882  92.2535561  43.6148023  59.0524378
  92.8229990  43.8415981  57.6681773  98.8810065  50.0274032  66.4823397
  98.9454498  50.4894439  67.3181568  98.1720989  49.3971397  66.6105706
  89.3827355  43.3915240  64.0072396  89.6335394  44.2762250  64.2729972
  89.9186904  43.2119841  63.2347488 113.2059455  46.8228737  60.6747658
 112.4523163  46.2536135  60.5191662 113.3406996  46.7891401  61.6218292
  98.5958083  51.6942139  56.3502377  98.4603758  52.5393675  56.7787225
  99.1367896  51.8961417  55.5868311  95.0825423  37.7733719  73.0116732
  94.6892368  37.2199918  73.6864376  95.8991563  38.0844297  73.4023250
  92.0487480  49.2117577  56.9230302  92.5612001  50.0060827  57.0735867
  92.7010193  48.5143868  56.8563904  93.8582365  52.3283333  59.0053055
  94.0348993  53.2501298  58.8174039  94.6539199  52.0141753  59.4347435
  97.9993384  39.1891598  70.6036989  98.7403097  39.7898751  70.5241451
  98.2311306  38.4469236  70.0455031  93.1434722  44.3747965  68.8815218
  93.0288237  43.4733223  69.1822317  92.2879239  44.6211662  68.5300035
 100.2226559  52.3165706  70.4802719  99.7790414  51.5302084  70.1623624
 100.8843773  52.5044856  69.8146610 102.3207797  52.5968506  68.5084120
 102.3026273  53.4177387  68.0164389 103.2427717  52.4722581  68.7334261
  98.7780852  50.1112635  69.3507629  99.3109188  49.3500923  69.1206937
  98.2494933  49.8186287  70.0931783 101.9450547  35.2172701  64.8801270
 101.6014816  36.1074343  64.8040381 102.3129509  35.0274359  64.0170855
  90.0136397  47.5406231  57.6989873  90.8511619  47.9503240  57.4823580
  90.1914665  46.6005674  57.6690066 101.9100829  45.2081312  53.3873706
 101.3947453  45.9785917  53.6262093 101.6378138  44.5346448  54.0106767
  99.4947940  40.0531013  58.4458944  98.6389537  39.6637863  58.2664583
  99.9074892  40.1322974  57.5858729 101.0247087  37.5877356  62.8450504
 100.5211883  37.5507491  62.0318309 101.3177694  38.4970099  62.9047160
  97.2689973  37.6716086  61.8516685  98.1342970  37.4758895  61.4922575
  97.3367482  37.4426438  62.7786042 106.8835103  47.9613667  55.3226879
 106.1064546  47.6224826  54.8782041 107.5626584  47.9666290  54.6481844
 101.6987132  43.0808404  55.2133487 101.3937268  43.3954553  56.0643630
 102.6517575  43.1589824  55.2560820 100.1433564  49.2398628  56.8626441
  99.6154926  48.5051387  56.5499678  99.6421067  50.0173304  56.6166409
 105.1226410  47.4347648  61.9793487 104.4650085  48.1246909  62.0673616
 105.9266810  47.8244080  62.3227473  94.8752292  39.9018294  59.2233052
  95.4496044  39.6793475  58.4906245  95.4623274  39.9706988  59.9761654
 103.9331869  45.7892021  60.0297429 104.4463751  46.4222013  60.5319138
 104.5833093  45.1893216  59.6640789  95.2021879  41.9322755  53.2428937
  94.3659191  42.2697441  53.5638212  95.0626649  41.7971735  52.3056074
  97.1774960  36.7759543  57.9508122  96.5239372  36.4608560  57.3264736
  97.1355434  36.1535283  58.6767945  98.2886164  47.0578838  49.8661414
  97.3813226  46.8268091  50.0652563  98.7857196  46.2616457  50.0535395
 101.1954243  55.7676345  52.7858100 100.5215942  56.0708042  53.3943058
 101.5820065  56.5705425  52.4363557 100.4112700  43.2641476  62.2755769
  99.4935261  43.4856423  62.1177457 100.8272844  43.3387787  61.4167477
 101.1947748  44.6632892  57.4058450 101.9419567  45.1754289  57.0965572
 101.4639337  44.3416945  58.2662843  99.4674398  47.1591433  54.3885404
  98.5585617  46.8750466  54.4857874  99.4969482  47.5790511  53.5288711
 104.6993665  50.7698022  58.1576571 104.2455992  49.9288932  58.2141762
 104.0687632  51.4059421  58.4951352 103.6426585  41.6990008  59.3877239
 102.9049342  41.1867394  59.7187481 103.8953358  41.2590390  58.5760516
 103.1426605  52.6074519  59.0926390 103.4349579  53.1679576  58.3738755
 103.6525225  52.9003080  59.8479549 103.7438212  34.4766260  59.9819008
 104.0497089  33.6163624  59.6944923 104.4690817  35.0683880  59.7818002
  90.0362568  44.8796947  58.3700606  89.8386968  44.2866308  57.6451673
  89.4809232  44.5749157  59.0876545  98.0159292  44.7720053  60.4895199
  98.0707902  43.8193890  60.4137676  97.2050494  44.9279492  60.9736498
  99.1650486  48.7000176  51.7273482  98.7269916  47.9836035  51.2679120
  99.9060927  48.9276291  51.1658574  95.9551652  43.3897113  58.2485578
  95.1419517  43.6891284  58.6550770  96.4510646  42.9952802  58.9660060
  98.1060230  53.3854870  60.1819843  98.0636409  53.6115716  59.2528375
  99.0222929  53.1518245  60.3305644 101.5525864  43.8538938  67.0800472
 101.9075251  44.0810411  67.9394938 102.1997995  44.1857314  66.4577727
 107.2823601  46.9757373  57.7849801 107.1441499  47.1658969  56.8570990
 106.9259819  47.7376756  58.2417852  95.4465727  40.9615469  63.8646813
  96.0865106  40.8204228  63.1669776  94.6143257  40.6749982  63.4885415
 107.3092980  49.0433900  62.7961072 107.7429487  48.9509190  63.6444127
 108.0224561  49.0191401  62.1581088  96.2226031  50.2617899  59.9781805
  97.0166629  49.7668219  59.7764380  95.5117723  49.7335762  59.6149511
 101.0420875  52.6435995  64.3294173 101.0957897  53.2126931  65.0971889
 100.1735656  52.8137880  63.9648210  92.5308794  44.4060981  56.0541558
  91.6006382  44.3445436  56.2711520  92.6266266  43.8836933  55.2578199
  92.4494343  40.9315794  58.6419800  92.7101160  41.8461127  58.5328960
  93.2711515  40.4640236  58.7916413  93.9219268  42.3453551  65.8118624
  94.5942322  42.1370913  65.1631273  93.0949055  42.1475637  65.3723857
 108.1708530  49.0857601  65.3293958 108.3644420  49.9903412  65.5753233
 108.0709148  48.6265020  66.1632543  99.8244840  38.9715492  67.8284285
  99.1772755  39.6705441  67.7348762 100.5945856  39.4051636  68.1960533
 103.2323638  49.2364344  70.9034838 103.0809145  49.0074895  69.9864922
 103.2228318  50.1934945  70.9166183 100.0008975  46.8096257  65.8881105
 100.9301035  46.9607416  65.7150072  99.5800005  46.8980277  65.0329751
  98.7997307  50.8346921  63.6579643  98.6608392  50.4665705  64.5305581
  98.0111903  51.3494560  63.4863600  99.3945459  55.9356017  55.0005179
  99.5697214  55.4644061  55.8150802  98.7078247  56.5621784  55.2286440
 100.3502522  50.2128524  61.0468480 100.0152354  50.1729294  61.9426130
  99.8506467  49.5473240  60.5738891  94.3246766  45.6196154  66.5721061
  94.1866564  44.8876393  67.1732601  95.2351689  45.5305054  66.2905249
 103.2861713  47.5584558  51.3205540 102.6690884  46.8331386  51.2238593
 102.8178202  48.3193918  50.9772614  96.9529066  45.3316113  66.0604741
  97.6628685  44.6909305  66.0191360  96.9098374  45.5829008  66.9830922
 104.9415845  52.2683466  68.9811320 104.8828391  51.5842686  68.3141903
 105.3435363  53.0102456  68.5291946  95.6658000  42.3181331  67.8800381
  95.1295357  41.8672069  68.5321977  95.0774709  42.4527240  67.1370845
  95.0760259  41.7769982  50.4426844  94.1989726  41.6558783  50.0789091
  95.5518012  40.9856061  50.1905733 104.9433252  50.2323050  67.2125300
 104.0560031  49.8948972  67.3351699 105.5131803  49.5006082  67.4494065
  86.5962399  46.5647142  60.5368351  87.2833439  46.2508872  59.9489367
  86.4410528  47.4688507  60.2635603  91.3997122  41.4537339  64.9653375
  91.3155310  40.8463008  64.2303785  90.5779828  41.9446357  64.9662871
  98.4734406  54.8924503  64.1786543  98.4004577  55.6979474  64.6905848
  98.0311799  55.0916468  63.3534565  98.2624185  54.1296273  57.6889365
  97.4791707  54.6717953  57.7827589  98.9616930  54.6470252  58.0883606
 101.5720835  39.9390902  60.3323570 102.0689535  39.1860864  60.0124640
 100.8007817  39.9755219  59.7666779 109.4250593  45.6431268  61.9741862
 109.4140469  46.5255983  61.6035795 108.5567972  45.2902818  61.7796399
 100.9333089  54.7911337  66.3344702 101.6461061  55.4258801  66.2620603
 100.4423118  54.8875203  65.5184704 102.6550616  48.6962589  57.9061994
 101.7206895  48.8164052  57.7366698 102.8327285  47.7935056  57.6422003
  98.1555804  42.0808285  60.0595255  97.7853592  41.5279326  60.7476160
  98.6514897  41.4766419  59.5070255 106.0423167  44.5379909  58.4412028
 106.5083620  45.3707900  58.3672330 106.4930668  44.0724890  59.1457286
  95.9845003  52.5405780  67.1550273  96.6854462  53.1742263  67.3079667
  95.5140118  52.8820512  66.3945912 104.1099399  50.8823730  55.4398180
 104.3859242  50.7680325  56.3492054 103.2403897  50.4841215  55.4010353
 104.0139830  36.9060496  62.4802929 103.1002910  37.1364722  62.6485136
 104.4432932  36.9898940  63.3316961 103.7846289  45.0950388  64.9802823
 103.1317739  45.3426295  64.3255276 104.1626669  44.2814526  64.6465300
 100.7453463  55.1310081  59.0830993 100.9275857  54.3131737  59.5458746
 101.5686449  55.3477773  58.6455883 101.0795628  54.0578266  56.3446042
 101.6083394  53.5470720  55.7316204 101.3423848  53.7420796  57.2091575
  99.8333862  45.8370199  71.4668860  99.1574499  45.7364328  72.1371235
 100.6561496  45.6809412  71.9304857  94.4351376  55.1093383  59.1043818
  93.7661751  55.5939510  58.6207858  94.2964246  55.3562603  60.0187196
  86.1730376  44.6447735  62.8085819  86.2114475  44.1111326  63.6022937
  85.6670668  44.1182941  62.1896796  93.5521138  39.4912276  66.3048361
  93.6162464  40.3527107  65.8925759  93.4888258  38.8786278  65.5720719
  93.0273410  41.5635408  69.9521395  93.6545449  41.1812486  70.5658919
  92.1701329  41.3449610  70.3177088 103.4267519  51.9698384  71.5575131
 103.9707423  52.5828342  71.0630085 102.8454364  52.5277962  72.0742144
  89.8038953  43.3711838  55.8839750  90.0992394  42.4622516  55.8306804
  88.9026989  43.3499577  55.5620752 101.7125032  55.0919102  62.6890158
 101.5876171  54.2908841  62.1801104 102.3704123  55.5865295  62.2004128
  93.3333200  41.4467834  61.8667299  92.6119786  42.0603802  61.7274772
  94.1226456  41.9825599  61.7883944 103.7759940  52.8928122  64.3169708
 102.8290276  52.7733473  64.2448035 104.1242713  52.0050620  64.3995970
  96.1359514  38.7822261  68.1407950  96.6593915  39.0284557  68.9034260
  95.9171847  39.6142295  67.7211088  91.5326795  41.0525935  56.0079075
  91.2039501  40.1723314  55.8254181  91.8866165  40.9973604  56.8955464
 100.7806374  52.6880838  60.5174061 100.6331336  51.7597545  60.6981631
 101.6059867  52.7100929  60.0331136  94.6468618  41.3398905  56.3754553
  94.9864690  41.8684826  55.6533161  95.0940738  41.6779311  57.1513119
 104.3840495  53.5109397  61.6038933 105.3087043  53.3052258  61.4663385
 104.2155799  53.2625798  62.5128275  97.3412059  39.7235956  65.8257621
  97.0008879  38.9243769  66.2278301  96.6351065  40.0237667  65.2534454
  97.9928530  36.8085268  64.2784944  98.8154600  36.3345746  64.1563834
  98.2366594  37.5875752  64.7783630  96.6336765  39.8373527  54.5747846
  97.3545127  40.2154779  54.0711562  96.0102069  40.5562403  54.6782823
 100.7767888  40.5418676  55.5106178 100.9931502  41.4243313  55.2095006
 100.2961955  40.1504889  54.7811820  95.5167109  43.5004389  62.0876922
  95.3711690  43.8144692  62.9801204  95.0392313  44.1189289  61.5347821
  97.3763492  40.4906937  62.1357812  97.3625061  39.5948030  61.7990110
  98.0935920  40.4977601  62.7696098  99.2289623  40.9244277  64.1810939
  98.9707401  41.8461348  64.1795270  98.6974663  40.5274712  64.8711404
 104.1735812  54.0295064  56.9601025 104.3472689  53.4641487  56.2074877
 104.6664703  54.8295959  56.7780515  89.9912771  46.0409733  65.0264584
  89.4466239  46.8169541  65.1584858  90.8692121  46.3880538  64.8683705
  96.7800388  39.3721317  57.4045382  96.9016299  38.4437963  57.6036270
  96.4902430  39.3860003  56.4923698  99.6491578  37.0576227  60.5412102
  99.6713275  37.1215561  59.5864082 100.0659637  36.2180736  60.7352608
 110.0275203  46.7931487  58.5791325 110.4706349  46.0438812  58.1810448
 109.1501713  46.7841623  58.1965057 105.1610984  53.3461829  54.0597923
 105.8561889  53.9668521  54.2785238 105.5034134  52.4957180  54.3350301
  90.7778793  45.1679629  67.9194740  90.0360529  45.3162265  68.5059371
  90.4571538  45.4287895  67.0561490 107.0602407  50.7961534  55.5885254
 107.5853731  51.1348807  54.8634574 106.9724760  49.8608549  55.4048388
  98.7222456  54.7095608  67.7175130  99.0309582  54.4644754  68.5897830
  99.5197938  54.9142246  67.2294001  98.7443068  56.8633517  59.9480507
  98.3048058  56.3709896  60.6413364  99.4951185  56.3206485  59.7072582
  91.2235407  53.0545058  59.9505135  92.0493427  52.7548830  59.5703779
  90.8729459  52.2852681  60.3994924  96.1916940  52.4071526  62.0202809
  95.5696949  51.7442231  61.7205037  96.8621807  52.4332658  61.3376456
  89.4244012  50.9731385  60.9094069  88.5875920  50.5453559  60.7278070
  89.3967657  51.1663828  61.8464860  96.2641468  40.8853314  71.6135315
  96.3129623  41.7615437  71.2313084  96.8063982  40.3430707  71.0406958
 106.7496313  51.4294438  70.8936452 105.9591857  51.4118577  70.3540951
 106.5129668  51.9682731  71.6485488 106.8694188  48.2786904  68.2069180
 106.9192193  48.1136911  69.1484703 106.7608112  47.4114163  67.8167061
  95.7530447  50.9575450  55.4961269  95.9018567  51.6410914  54.8427942
  96.5596890  50.9380540  56.0110725 104.1597951  44.2617832  69.5228487
 105.0607813  44.1224297  69.2312485 104.2345925  44.4272287  70.4626665
  98.4940756  41.6384687  68.3681673  97.6244065  41.9318253  68.0964262
  98.7300236  42.2225132  69.0888937 108.3712385  50.6983846  68.4511202
 108.0797193  51.0613826  69.2874663 107.7584516  49.9850854  68.2724534
 109.5708067  48.2636725  60.9713772 110.4054959  48.7026529  61.1351332
 109.7067196  47.7875379  60.1522018 106.6199573  45.8216460  66.9191260
 107.0953695  46.0144107  66.1110111 105.6965139  45.8775646  66.6734644
  93.5083080  46.9840627  56.5022338  93.2629122  46.0802957  56.7002548
  93.6778995  46.9857778  55.5601816 101.1979790  37.8564304  65.8847094
 101.7161734  38.5925331  65.5593582 100.8434923  38.1628297  66.7193853
  92.7778728  42.7168985  54.0008500  92.0847972  42.7913340  53.3448536
  92.5330479  41.9529329  54.5230017 101.4492384  34.2764586  61.4047990
 101.7294138  33.6087775  62.0308417 102.2342991  34.4693682  60.8922654
  99.2525853  53.4523580  52.9673017  98.6799820  54.0713767  52.5143489
  99.8258646  54.0022942  53.5012939 105.3201242  42.6982220  65.1519565
 106.2718665  42.7980318  65.1731790 105.1504693  41.9060489  65.6617650
 103.3415622  39.7837803  65.3378966 102.7465554  40.0642816  64.6425455
 103.0565319  40.2731704  66.1095708 102.4723112  53.7360730  54.0981599
 103.4053785  53.6706292  54.3014474 102.3846325  54.5716997  53.6396132
 105.1011129  53.0526601  51.0585547 105.0224761  52.7186464  51.9521304
 105.9220796  53.5448369  51.0577019 107.7989320  45.9188340  64.2661865
 107.7665640  44.9804341  64.4521549 108.4089944  45.9972377  63.5327690
  99.6372651  44.7884393  50.3089069 100.5831756  44.6590601  50.3777487
  99.2586896  44.0499055  50.7858497 107.9483809  42.7099383  64.3120148
 107.4322857  41.9257840  64.1250077 108.8323757  42.3818100  64.4766668
 105.6094536  36.4540399  60.2715961 105.4119357  36.1455487  61.1559293
 106.2194241  37.1802038  60.4013891 113.6165870  46.9804347  63.4067902
 114.3469259  46.7189635  63.9675605 113.0072816  46.2433069  63.4469970
 111.6981167  45.1212209  64.0042353 110.9714331  44.9868174  63.3958845
 111.2828454  45.4289038  64.8099071  99.5211344  48.8402139  71.7689726
 100.4414353  49.0180738  71.9629773  99.4860927  47.8958184  71.6169425
  97.8215568  42.7134369  50.2443954  96.9147024  42.4167482  50.3206668
  98.0991549  42.4164187  49.3778241  88.7393509  44.0340733  60.6943001
  88.4196293  43.1806041  60.4017375  88.1926937  44.2489311  61.4500968
  92.5173416  46.7503174  64.4112507  92.7359426  47.6820282  64.4300541
  92.9299190  46.3911148  65.1967311  99.4377634  37.2571259  56.3988196
  98.6278362  36.9118344  56.7743442 100.1262051  36.9478803  56.9875807
 101.3668182  36.3349306  58.0212492 101.9199221  36.7544759  58.6802515
 101.6038269  35.4085054  58.0635448  97.3901281  42.3236379  73.8015256
  97.2898008  43.2730736  73.7327347  97.1722823  41.9954618  72.9291326
  96.5914353  39.5721305  50.3855934  97.4533517  39.8976203  50.6451751
  96.7764697  38.7852800  49.8728999  88.6081769  47.6543644  62.6636122
  87.9145240  47.2397597  62.1506077  89.3554760  47.6964181  62.0669541
 104.7446989  38.4449831  57.5291157 104.1645658  39.1034635  57.1469209
 104.4782922  37.6227176  57.1178574 103.1950556  37.8454889  59.7312477
 103.6950334  37.9571423  58.9226796 103.8386164  37.5415942  60.3713285
  97.2532551  45.7533518  72.6180318  96.7699633  46.5533878  72.8244207
  97.3393491  45.7641463  71.6647762  90.5218511  47.5861898  60.5402137
  90.4989199  47.6849585  59.5884020  90.8319148  48.4327049  60.8619303
  93.1805889  49.6438053  64.6548752  94.1349143  49.6121995  64.5878683
  92.9818413  49.1828677  65.4698978  93.7705271  48.2139169  67.2219549
  94.5898160  48.7083248  67.2454387  94.0442079  47.2971137  67.1937117
 103.5271867  40.6049921  56.5847505 102.6397722  40.8899572  56.3667700
 103.9425856  40.4443685  55.7374782 106.8786403  40.6296442  60.3001844
 107.6546794  41.1192895  60.5726461 106.1534538  41.0554497  60.7573714
 109.3158962  41.3424062  61.3575785 109.9103453  41.1019798  60.6469093
 109.3885546  40.6231192  61.9849321 102.6715081  50.3694596  50.6795525
 103.3750931  50.5744599  51.2953180 101.9477730  50.9371358  50.9444608
 103.5012891  46.1204457  56.7997795 103.4448092  46.5773009  55.9605427
 104.0541234  45.3595142  56.6220638 107.3117697  41.9094189  57.6247915
 107.0554631  41.5090825  58.4556122 106.6870565  42.6237983  57.4998054
 111.6230035  44.6490262  60.1319206 111.0629593  44.7183452  60.9050768
 111.0173538  44.4731247  59.4118702 104.5801778  50.8077125  52.7293985
 105.4147382  50.3758324  52.5471460 104.4186121  50.6359139  53.6570879
 104.2347670  47.3109239  54.0950324 104.1796474  47.1453510  53.1538768
 103.6093726  48.0185271  54.2512514  89.0240185  42.5477303  67.9211746
  89.6699049  42.0376257  68.4098972  88.8157336  43.2845985  68.4955172
 101.5493578  49.6158150  73.4203887 102.4184737  49.7898803  73.0590522
 101.0700329  50.4352567  73.2979616  97.5443796  36.8117348  53.6735643
  97.5322466  37.7559187  53.8303913  98.4367218  36.6287493  53.3795104
  97.4733360  55.4886238  61.7603399  96.5228991  55.4888100  61.6467772
  97.7765846  54.7418973  61.2439434 101.3595915  33.4060124  57.9281579
 100.5928311  32.8518611  58.0738262 101.7706620  33.4781993  58.7895731
  93.3637676  39.6944920  72.0186761  94.2269138  39.3381725  72.2290085
  92.7903087  39.3558815  72.7062165 113.2086053  61.3246776  62.8249162
 113.8464463  61.2053524  62.1212502 113.0906896  62.2727620  62.8837114
 110.0175760  61.2774204  62.7610686 109.6794271  61.1615269  61.8731221
 110.8865528  60.8765370  62.7411692 105.8762575  63.1309681  58.7507577
 105.3127440  63.0399618  57.9823865 105.7614970  62.3109585  59.2310070
 110.4995543  62.4309056  68.7196892 110.4884183  62.0361854  67.8477396
 110.6616182  61.6975129  69.3130663 111.4562134  66.7980649  54.0622042
 110.8050114  67.3834729  53.6756056 112.2506497  67.3286844  54.1217080
 105.3817761  63.8869786  54.4609177 106.1548637  63.3398773  54.3222052
 105.7343160  64.7514035  54.6723638 107.2202804  65.2146168  67.6676076
 106.9292670  66.1191799  67.5522742 107.8559788  65.2562696  68.3820145
 108.1459011  62.5923017  64.2577436 108.7422583  62.3679039  63.5434398
 108.2033982  61.8507762  64.8602883 107.7184039  60.0462452  52.0927626
 107.9709560  59.5243973  51.3311089 106.7808598  59.8828597  52.1954310
 112.7627322  59.0498230  59.9002370 113.5490411  58.6317653  59.5492787
 113.0266026  59.9544322  60.0684018 112.9337399  64.4871081  54.5991027
 112.2983232  64.5605707  55.3111931 112.6034806  65.0764679  53.9210106
 118.1635749  58.9873463  60.8035348 118.8960921  58.4172680  61.0373178
 117.4075105  58.5995064  61.2441854 107.4380328  61.9490558  54.2952001
 107.3216586  61.2735461  54.9633086 107.5482588  61.4622932  53.4784154
 109.7811869  61.4100705  57.9998691 109.4170076  60.8831326  58.7111612
 110.6378985  61.0199174  57.8265176 115.6861169  52.6995038  65.2629957
 115.3544494  53.5690449  65.0391172 115.0906783  52.3831322  65.9423987
 109.4217356  56.4390605  52.9960039 109.5891758  57.3070841  53.3630510
 109.2314525  56.6017886  52.0721328 112.1792689  64.9007584  64.6625870
 111.8793412  65.8032622  64.5541677 111.8343748  64.6339767  65.5147022
 105.6305170  61.3521380  60.6962574 104.7055667  61.2197594  60.9040266
 105.8789583  62.1315600  61.1932516 115.5789833  57.4190124  62.3423307
 114.6706710  57.3505532  62.0482068 115.5277428  57.8962069  63.1705132
 109.4006576  58.8948262  53.9806706 109.2806202  59.3405313  54.8192186
 108.7059165  59.2433580  53.4220244 107.1613469  71.6651904  57.6296837
 107.0837498  72.6159729  57.7085318 106.5575112  71.3197776  58.2871764
 109.6530698  58.8379769  70.2858204 108.8764032  59.3973689  70.2761069
 110.2921261  59.3236552  70.8073074 117.4451479  55.6206562  64.1201181
 116.8025859  55.9139095  63.4740975 116.9406407  55.5059482  64.9254377
 115.0991643  59.3669735  54.8087040 116.0109499  59.5997122  54.6334738
 114.5901290  59.9506780  54.2462119 107.9077071  61.6465223  69.8476171
 108.6491755  62.1850267  69.5710995 107.2014056  62.2731511  70.0047723
 113.3832410  63.7894363  68.4448333 113.7915766  63.3476774  67.7002965
 112.6609672  63.2146991  68.6982526 109.7363480  58.7266970  65.8181890
 110.5824676  59.1506383  65.9616539 109.6762118  58.0700594  66.5120453
 113.7061225  64.3495554  62.2000622 113.0770087  64.5141268  61.4976689
 113.3186887  64.7637163  62.9711586 117.5850457  65.2849992  59.5544985
 116.9001495  65.6648893  59.0042019 117.6694306  65.8945318  60.2876933
 112.8862926  56.3871338  67.4763063 112.6423858  57.1413399  66.9397339
 113.1622856  56.7656686  68.3110310 114.8401388  62.9309951  66.1540329
 115.0518284  63.5741711  65.4774710 114.7931137  62.0972267  65.6862259
 112.4427617  55.5427771  63.0576901 111.5812096  55.8409025  63.3493639
 112.4690052  55.7598170  62.1257934 109.2589187  64.0869962  59.4650707
 109.7227532  64.3657665  58.6755329 108.9945985  63.1853406  59.2823797
 106.1513268  63.6341443  62.4030470 106.7214625  64.0628712  61.7647954
 106.7421380  63.3524028  63.1014656 108.1958073  60.2093114  56.2740272
 108.8982116  60.6614158  56.7414198 107.8638701  59.5676933  56.9020165
 106.6438434  58.8004871  70.6491481 106.0137095  59.4821152  70.8826878
 106.5374522  58.6887952  69.7044619 101.9383407  58.4676667  61.5757405
 101.1482461  58.7234195  61.0997516 102.4294654  59.2825005  61.6809446
 115.9547216  65.8081906  64.3262686 116.7764660  65.4062093  64.0445368
 115.9509619  65.7050140  65.2778802 103.8898152  58.8321246  58.5340882
 103.0929315  58.9439940  59.0524378 103.6623744  59.1707898  57.6681773
 109.7203820  65.3565949  66.4823397 109.7848252  65.8186357  67.3181568
 109.0114744  64.7263314  66.6105706 109.4351837  67.0234057  56.3502377
 109.2997512  67.8685593  56.7787225 109.9761650  67.2253334  55.5868311
 105.9219177  53.1025637  73.0116732 105.5286123  52.5491835  73.6864376
 106.7385317  53.4136215  73.4023250 102.8881235  64.5409495  56.9230302
 103.4005755  65.3352745  57.0735867 103.5403948  63.8435785  56.8563904
 104.6976120  67.6575251  59.0053055 104.8742748  68.5793216  58.8174039
 105.4932953  67.3433670  59.4347435 108.8387138  54.5183516  70.6036989
 109.5796851  55.1190669  70.5241451 109.0705061  53.7761154  70.0455031
 111.0620314  67.6457623  70.4802719 110.6184168  66.8594002  70.1623624
 111.7237527  67.8336774  69.8146610 105.8207435  69.1753425  65.0063398
 106.3714860  69.0470488  64.2340391 104.9818911  69.4748314  64.6558290
 113.1601552  67.9260423  68.5084120 113.1420027  68.7469304  68.0164389
 114.0821472  67.8014498  68.7334261 109.6174606  65.4404553  69.3507629
 110.1502943  64.6792841  69.1206937 109.0888687  65.1478205  70.0931783
 112.7844301  50.5464619  64.8801270 112.4408570  51.4366260  64.8040381
 113.1523264  50.3566276  64.0170855 100.8530152  62.8698149  57.6989873
 101.6905374  63.2795158  57.4823580 101.0308419  61.9297591  57.6690066
 112.7494584  60.5373230  53.3873706 112.2341207  61.3077834  53.6262093
 112.4771892  59.8638366  54.0106767 110.3341695  55.3822931  58.4458944
 109.4783291  54.9929781  58.2664583 110.7468647  55.4614891  57.5858729
 111.8640841  52.9169274  62.8450504 111.3605637  52.8799409  62.0318309
 112.1571448  53.8262017  62.9047160 108.1083727  53.0008004  61.8516685
 108.9736724  52.8050812  61.4922575 108.1761236  52.7718355  62.7786042
 117.7228858  63.2905584  55.3226879 116.9458301  62.9516744  54.8782041
 118.4020339  63.2958208  54.6481844 112.5380887  58.4100322  55.2133487
 112.2331023  58.7246471  56.0643630 113.4911329  58.4881742  55.2560820
 110.9827319  64.5690545  56.8626441 110.4548680  63.8343305  56.5499678
 110.4814822  65.3465222  56.6166409 115.9620165  62.7639566  61.9793487
 115.3043839  63.4538827  62.0673616 116.7660564  63.1535998  62.3227473
 105.7146046  55.2310212  59.2233052 106.2889798  55.0085393  58.4906245
 106.3017029  55.2998906  59.9761654 114.7725624  61.1183938  60.0297429
 115.2857505  61.7513930  60.5319138 115.4226848  60.5185134  59.6640789
 106.0415634  57.2614673  53.2428937 105.2052946  57.5989359  53.5638212
 105.9020403  57.1263652  52.3056074 108.0168714  52.1051460  57.9508122
 107.3633126  51.7900478  57.3264736 107.9749188  51.4827201  58.6767945
 109.1279919  62.3870756  49.8661414 108.2206981  62.1560009  50.0652563
 109.6250951  61.5908375  50.0535395 112.0347998  71.0968263  52.7858100
 111.3609697  71.3999959  53.3943058 112.4213820  71.8997343  52.4363557
 111.2506454  58.5933394  62.2755769 110.3329016  58.8148341  62.1177457
 111.6666598  58.6679704  61.4167477 112.0341502  59.9924810  57.4058450
 112.7813321  60.5046207  57.0965572 112.3033092  59.6708862  58.2662843
 110.3068152  62.4883350  54.3885404 109.3979372  62.2042383  54.4857874
 110.3363236  62.9082429  53.5288711 115.5387420  66.0989940  58.1576571
 115.0849747  65.2580850  58.2141762 114.9081387  66.7351338  58.4951352
 114.4820339  57.0281926  59.3877239 113.7443096  56.5159312  59.7187481
 114.7347113  56.5882308  58.5760516 113.9820359  67.9366437  59.0926390
 114.2743333  68.4971494  58.3738755 114.4918980  68.2294998  59.8479549
 114.5831967  49.8058178  59.9819008 114.8890844  48.9455541  59.6944923
 115.3084572  50.3975798  59.7818002 100.8756323  60.2088864  58.3700606
 100.6780723  59.6158225  57.6451673 100.3202987  59.9041075  59.0876545
 108.8553046  60.1011971  60.4895199 108.9101656  59.1485807  60.4137676
 108.0444248  60.2571410  60.9736498 110.0044240  64.0292094  51.7273482
 109.5663670  63.3127953  51.2679120 110.7454681  64.2568209  51.1658574
 106.7945406  58.7189031  58.2485578 105.9813272  59.0183201  58.6550770
 107.2904401  58.3244719  58.9660060 108.9453984  68.7146788  60.1819843
 108.9030163  68.9407634  59.2528375 109.8616683  68.4810162  60.3305644
 112.3919618  59.1830855  67.0800472 112.7469006  59.4102328  67.9394938
 113.0391749  59.5149232  66.4577727 118.1217355  62.3049291  57.7849801
 117.9835254  62.4950887  56.8570990 117.7653574  63.0668674  58.2417852
 106.2859481  56.2907386  63.8646813 106.9258860  56.1496145  63.1669776
 105.4537012  56.0041900  63.4885415 118.1486735  64.3725818  62.7961072
 118.5823241  64.2801107  63.6444127 118.8618315  64.3483319  62.1581088
 107.0619785  65.5909817  59.9781805 107.8560384  65.0960137  59.7764380
 106.3511477  65.0627680  59.6149511 111.8814630  67.9727912  64.3294173
 111.9351652  68.5418849  65.0971889 111.0129411  68.1429797  63.9648210
 103.3702549  59.7352898  56.0541558 102.4400137  59.6737354  56.2711520
 103.4660020  59.2128851  55.2578199 103.2888098  56.2607711  58.6419800
 103.5494915  57.1753044  58.5328960 104.1105270  55.7932154  58.7916413
 104.7613023  57.6745468  65.8118624 105.4336076  57.4662831  65.1631273
 103.9342809  57.4767554  65.3723857 119.0102284  64.4149519  65.3293958
 119.2038174  65.3195329  65.5753233 118.9102902  63.9556938  66.1632543
 110.6638595  54.3007409  67.8284285 110.0166510  54.9997359  67.7348762
 111.4339610  54.7343553  68.1960533 114.0717393  64.5656261  70.9034838
 113.9202899  64.3366813  69.9864922 114.0622072  65.5226863  70.9166183
 110.8402729  62.1388174  65.8881105 111.7694789  62.2899334  65.7150072
 110.4193759  62.2272195  65.0329751 109.6391061  66.1638839  63.6579643
 109.5002147  65.7957623  64.5305581 108.8505657  66.6786478  63.4863600
 110.2339213  71.2647935  55.0005179 110.4090969  70.7935978  55.8150802
 109.5472001  71.8913701  55.2286440 111.1896276  65.5420441  61.0468480
 110.8546109  65.5021211  61.9426130 110.6900222  64.8765157  60.5738891
 114.1255468  62.8876476  51.3205540 113.5084638  62.1623304  51.2238593
 113.6571956  63.6485836  50.9772614 107.7922821  60.6608031  66.0604741
 108.5022439  60.0201223  66.0191360 107.7492129  60.9120926  66.9830922
 115.7809599  67.5975384  68.9811320 115.7222146  66.9134604  68.3141903
 116.1829118  68.3394374  68.5291946 106.5051755  57.6473249  67.8800381
 105.9689112  57.1963987  68.5321977 105.9168463  57.7819157  67.1370845
 104.8000298  74.4137298  61.7745039 105.0396897  75.0455822  62.4524058
 103.9569495  74.0625338  62.0610399 105.9154014  57.1061900  50.4426844
 105.0383480  56.9850701  50.0789091 106.3911767  56.3147978  50.1905733
 115.7827007  65.5614968  67.2125300 114.8953786  65.2240890  67.3351699
 116.3525558  64.8297999  67.4494065 102.2390876  56.7829256  64.9653375
 102.1549065  56.1754926  64.2303785 101.4173582  57.2738275  64.9662871
 109.3128160  70.2216420  64.1786543 109.2398332  71.0271392  64.6905848
 108.8705553  70.4208386  63.3534565 109.1017940  69.4588190  57.6889365
 108.3185462  70.0009871  57.7827589 109.8010685  69.9762170  58.0883606
 112.4114590  55.2682820  60.3323570 112.9083289  54.5152782  60.0124640
 111.6401571  55.3047136  59.7666779 120.2644347  60.9723185  61.9741862
 120.2534224  61.8547901  61.6035795 119.3961727  60.6194736  61.7796399
 111.7726844  70.1203254  66.3344702 112.4854816  70.7550719  66.2620603
 111.2816872  70.2167120  65.5184704 113.4944371  64.0254507  57.9061994
 112.5600649  64.1455969  57.7366698 113.6721039  63.1226974  57.6422003
 108.9949559  57.4100203  60.0595255 108.6247346  56.8571243  60.7476160
 109.4908651  56.8058336  59.5070255 116.8816922  59.8671826  58.4412028
 117.3477374  60.6999818  58.3672330 117.3324422  59.4016808  59.1457286
 106.8238757  67.8697698  67.1550273 107.5248217  68.5034181  67.3079667
 106.3533872  68.2112429  66.3945912 114.9493153  66.2115648  55.4398180
 115.2252997  66.0972242  56.3492054 114.0797652  65.8133132  55.4010353
 114.8533585  52.2352413  62.4802929 113.9396664  52.4656640  62.6485136
 115.2826686  52.3190857  63.3316961 114.6240043  60.4242305  64.9802823
 113.9711493  60.6718213  64.3255276 115.0020423  59.6106443  64.6465300
 111.5847217  70.4601998  59.0830993 111.7669612  69.6423654  59.5458746
 112.4080203  70.6769691  58.6455883 111.9189383  69.3870184  56.3446042
 112.4477149  68.8762638  55.7316204 112.1817602  69.0712714  57.2091575
 110.6727616  61.1662116  71.4668860 109.9968253  61.0656246  72.1371235
 111.4955250  61.0101330  71.9304857 105.2745130  70.4385300  59.1043818
 104.6055506  70.9231428  58.6207858 105.1358000  70.6854521  60.0187196
 109.4150399  72.4729044  65.7026476 109.9668707  72.6360665  66.4675561
 109.7556593  73.0633482  65.0306501 104.3914892  54.8204194  66.3048361
 104.4556219  55.6819024  65.8925759 104.3282013  54.2078195  65.5720719
 103.8667165  56.8927326  69.9521395 104.4939204  56.5104403  70.5658919
 103.0095084  56.6741528  70.3177088 114.2661273  67.2990301  71.5575131
 114.8101177  67.9120260  71.0630085 113.6848118  67.8569880  72.0742144
 100.6432708  58.7003755  55.8839750 100.9386149  57.7914434  55.8306804
  99.7420743  58.6791495  55.5620752 112.5518786  70.4211019  62.6890158
 112.4269926  69.6200759  62.1801104 113.2097877  70.9157213  62.2004128
 104.1726955  56.7759752  61.8667299 103.4513540  57.3895720  61.7274772
 104.9620210  57.3117517  61.7883944 114.6153695  68.2220039  64.3169708
 113.6684030  68.1025391  64.2448035 114.9636468  67.3342537  64.3995970
 106.9753268  54.1114178  68.1407950 107.4987670  54.3576475  68.9034260
 106.7565601  54.9434213  67.7211088 102.3720549  56.3817853  56.0079075
 102.0433255  55.5015232  55.8254181 102.7259920  56.3265522  56.8955464
 111.6200128  68.0172756  60.5174061 111.4725090  67.0889463  60.6981631
 112.4453622  68.0392846  60.0331136 105.4862372  56.6690823  56.3754553
 105.8258445  57.1976744  55.6533161 105.9334493  57.0071229  57.1513119
 115.2234250  68.8401314  61.6038933 116.1480797  68.6344176  61.4663385
 115.0549553  68.5917715  62.5128275 108.1805813  55.0527873  65.8257621
 107.8402634  54.2535686  66.2278301 107.4744819  55.3529584  65.2534454
 108.8322285  52.1377186  64.2784944 109.6548354  51.6637664  64.1563834
 109.0760349  52.9167670  64.7783630 107.4730519  55.1665444  54.5747846
 108.1938882  55.5446697  54.0711562 106.8495824  55.8854321  54.6782823
 111.6161642  55.8710593  55.5106178 111.8325257  56.7535231  55.2095006
 111.1355710  55.4796807  54.7811820 106.3560864  58.8296306  62.0876922
 106.2105444  59.1436610  62.9801204 105.8786067  59.4481207  61.5347821
 108.2157247  55.8198854  62.1357812 108.2018815  54.9239948  61.7990110
 108.9329675  55.8269518  62.7696098 110.0683377  56.2536195  64.1810939
 109.8101155  57.1753265  64.1795270 109.5368418  55.8566629  64.8711404
 115.0129566  69.3586982  56.9601025 115.1866444  68.7933404  56.2074877
 115.5058457  70.1587877  56.7780515 107.6194143  54.7013235  57.4045382
 107.7410054  53.7729881  57.6036270 107.3296185  54.7151921  56.4923698
 110.4885333  52.3868145  60.5412102 110.5107030  52.4507478  59.5864082
 110.9053392  51.5472654  60.7352608 120.8668957  62.1223405  58.5791325
 121.3100103  61.3730730  58.1810448 119.9895468  62.1133541  58.1965057
 116.0004739  68.6753746  54.0597923 116.6955643  69.2960439  54.2785238
 116.3427889  67.8249097  54.3350301 117.8996162  66.1253452  55.5885254
 118.4247486  66.4640724  54.8634574 117.8118514  65.1900467  55.4048388
 109.5616210  70.0387525  67.7175130 109.8703337  69.7936672  68.5897830
 110.3591692  70.2434164  67.2294001 109.5836822  72.1925435  59.9480507
 109.1441813  71.7001814  60.6413364 110.3344939  71.6498403  59.7072582
 107.0310695  67.7363444  62.0202809 106.4090704  67.0734149  61.7205037
 107.7015562  67.7624576  61.3376456 107.1035222  56.2145232  71.6135315
 107.1523378  57.0907355  71.2313084 107.6457736  55.6722625  71.0406958
 117.5890068  66.7586355  70.8936452 116.7985611  66.7410494  70.3540951
 117.3523422  67.2974649  71.6485488 117.7087943  63.6078822  68.2069180
 117.7585948  63.4428829  69.1484703 117.6001866  62.7406081  67.8167061
 106.5924202  66.2867367  55.4961269 106.7412322  66.9702832  54.8427942
 107.3990645  66.2672457  56.0110725 114.9991705  59.5909750  69.5228487
 115.9001568  59.4516215  69.2312485 115.0739680  59.7564205  70.4626665
 109.3334511  56.9676605  68.3681673 108.4637820  57.2610171  68.0964262
 109.5693991  57.5517050  69.0888937 119.2106140  66.0275763  68.4511202
 118.9190948  66.3905744  69.2874663 118.5978271  65.3142772  68.2724534
 120.4101822  63.5928643  60.9713772 121.2448713  64.0318447  61.1351332
 120.5460951  63.1167296  60.1522018 117.4593328  61.1508378  66.9191260
 117.9347449  61.3436024  66.1110111 116.5358893  61.2067564  66.6734644
 104.3476834  62.3132545  56.5022338 104.1022876  61.4094875  56.7002548
 104.5172749  62.3149696  55.5601816 112.0373544  53.1856221  65.8847094
 112.5555488  53.9217248  65.5593582 111.6828677  53.4920215  66.7193853
 103.6172482  58.0460903  54.0008500 102.9241727  58.1205258  53.3448536
 103.3724234  57.2821246  54.5230017 112.2886139  49.6056504  61.4047990
 112.5687892  48.9379693  62.0308417 113.0736745  49.7985600  60.8922654
 110.0919607  68.7815498  52.9673017 109.5193574  69.4005685  52.5143489
 110.6652401  69.3314860  53.5012939 116.1594997  58.0274138  65.1519565
 117.1112420  58.1272236  65.1731790 115.9898447  57.2352407  65.6617650
 114.1809376  55.1129721  65.3378966 113.5859308  55.3934734  64.6425455
 113.8959073  55.6023622  66.1095708 113.3116867  69.0652648  54.0981599
 114.2447540  68.9998210  54.3014474 113.2240080  69.9008915  53.6396132
 115.9404883  68.3818518  51.0585547 115.8618515  68.0478382  51.9521304
 116.7614550  68.8740286  51.0577019 118.6383075  61.2480258  64.2661865
 118.6059395  60.3096258  64.4521549 119.2483698  61.3264294  63.5327690
 110.4766406  60.1176311  50.3089069 111.4225510  59.9882519  50.3777487
 110.0980650  59.3790973  50.7858497 118.7877563  58.0391301  64.3120148
 118.2716612  57.2549758  64.1250077 119.6717512  57.7110018  64.4766668
 116.4488290  51.7832317  60.2715961 116.2513111  51.4747405  61.1559293
 117.0587996  52.5093956  60.4013891 110.3605098  64.1694057  71.7689726
 111.2808108  64.3472656  71.9629773 110.3254681  63.2250102  71.6169425
 108.6609323  58.0426287  50.2443954 107.7540778  57.7459400  50.3206668
 108.9385304  57.7456105  49.3778241 110.2771388  52.5863177  56.3988196
 109.4672117  52.2410262  56.7743442 110.9655805  52.2770720  56.9875807
 112.2061937  51.6641224  58.0212492 112.7592975  52.0836677  58.6802515
 112.4432023  50.7376972  58.0635448 108.2295036  57.6528297  73.8015256
 108.1291763  58.6022654  73.7327347 108.0116578  57.3246536  72.9291326
 107.4308107  54.9013222  50.3855934 108.2927271  55.2268121  50.6451751
 107.6158451  54.1144718  49.8728999 115.5840744  53.7741749  57.5291157
 115.0039413  54.4326553  57.1469209 115.3176676  52.9519093  57.1178574
 114.0344310  53.1746806  59.7312477 114.5344089  53.2863341  58.9226796
 114.6779918  52.8707859  60.3713285 108.0926306  61.0825436  72.6180318
 107.6093388  61.8825796  72.8244207 108.1787245  61.0933381  71.6647762
 114.3665622  55.9341839  56.5847505 113.4791477  56.2191490  56.3667700
 114.7819611  55.7735602  55.7374782 117.7180158  55.9588360  60.3001844
 118.4940548  56.4484813  60.5726461 116.9928292  56.3846414  60.7573714
 120.1552717  56.6715979  61.3575785 120.7497207  56.4311715  60.6469093
 120.2279300  55.9523110  61.9849321 113.5108835  65.6986514  50.6795525
 114.2144685  65.9036516  51.2953180 112.7871484  66.2663276  50.9444608
 114.3406646  61.4496375  56.7997795 114.2841847  61.9064926  55.9605427
 114.8934988  60.6887060  56.6220638 118.1511451  57.2386107  57.6247915
 117.8948386  56.8382743  58.4556122 117.5264319  57.9529901  57.4998054
 105.5318998  71.4118907  61.8837392 105.4151382  72.3564340  61.7816082
 104.7111444  71.1092469  62.2723191 115.4195533  66.1369043  52.7293985
 116.2541137  65.7050241  52.5471460 115.2579876  65.9651057  53.6570879
 115.0741425  62.6401156  54.0950324 115.0190229  62.4745428  53.1538768
 114.4487480  63.3477189  54.2512514  99.8633940  57.8769221  67.9211746
 100.5092803  57.3668175  68.4098972  99.6551091  58.6137902  68.4955172
 112.3887332  64.9450068  73.4203887 113.2578492  65.1190720  73.0590522
 111.9094084  65.7644485  73.2979616 108.3837550  52.1409265  53.6735643
 108.3716220  53.0851105  53.8303913 109.2760972  51.9579411  53.3795104
 106.5573512  72.0647169  65.0993321 107.4600759  72.0970779  65.4159816
 106.3310882  71.1347620  65.1139656 108.3127114  70.8178156  61.7603399
 107.3622745  70.8180017  61.6467772 108.6159600  70.0710890  61.2439434
 112.1989670  48.7352042  57.9281579 111.4322066  48.1810529  58.0738262
 112.6100375  48.8073911  58.7895731 104.2031431  55.0236838  72.0186761
 105.0662892  54.6673643  72.2290085 103.6296841  54.6850733  72.7062165
 120.8569514  76.6066122  62.7610686 120.5188026  76.4907187  61.8731221
 121.7259282  76.2057287  62.7411692 116.7156330  78.4601599  58.7507577
 116.1521195  78.3691536  57.9823865 116.6008725  77.6401503  59.2310070
 121.3389297  77.7600974  68.7196892 121.3277938  77.3653772  67.8477396
 121.5009937  77.0267047  69.3130663 114.2620762  79.9552790  61.5891798
 115.0542054  79.6143615  61.1738097 114.5017412  80.0647765  62.5093951
 116.2211516  79.2161703  54.4609177 116.9942392  78.6690691  54.3222052
 116.5736914  80.0805953  54.6723638 118.0596558  80.5438086  67.6676076
 117.7686424  81.4483717  67.5522742 118.6953543  80.5854613  68.3820145
 118.9852765  77.9214934  64.2577436 119.5816337  77.6970957  63.5434398
 119.0427737  77.1799680  64.8602883 118.5577793  75.3754370  52.0927626
 118.8103314  74.8535891  51.3311089 117.6202353  75.2120515  52.1954310
 118.2774082  77.2782476  54.2952001 118.1610340  76.6027379  54.9633086
 118.3876342  76.7914849  53.4784154 120.6205623  76.7392623  57.9998691
 120.2563830  76.2123244  58.7111612 121.4772739  76.3491092  57.8265176
 120.2611110  71.7682522  52.9960039 120.4285512  72.6362759  53.3630510
 120.0708279  71.9309804  52.0721328 116.4698925  76.6813298  60.6962574
 115.5449421  76.5489512  60.9040266 116.7183338  77.4607517  61.1932516
 120.2400331  74.2240180  53.9806706 120.1199956  74.6697231  54.8192186
 119.5452919  74.5725497  53.4220244 113.8307736  76.3246572  61.5306363
 113.9600117  76.5781051  62.4445775 113.1505187  76.9174280  61.2111018
 118.0007223  86.9943822  57.6296837 117.9231253  87.9451647  57.7085318
 117.3968867  86.6489694  58.2871764 120.4924453  74.1671687  70.2858204
 119.7157787  74.7265607  70.2761069 121.1315016  74.6528470  70.8073074
 118.7470825  76.9757140  69.8476171 119.4885510  77.5142184  69.5710995
 118.0407811  77.6023429  70.0047723 120.5757235  74.0558888  65.8181890
 121.4218430  74.4798301  65.9616539 120.5155873  73.3992512  66.5120453
 120.0982941  79.4161880  59.4650707 120.5621287  79.6949583  58.6755329
 119.8339739  78.5145324  59.2823797 116.9907022  78.9633361  62.4030470
 117.5608379  79.3920629  61.7647954 117.5815134  78.6815946  63.1014656
 119.0351827  75.5385032  56.2740272 119.7375871  75.9906076  56.7414198
 118.7032456  74.8968851  56.9020165 117.4832189  74.1296789  70.6491481
 116.8530849  74.8113069  70.8826878 117.3768277  74.0179870  69.7044619
 112.7777161  73.7968585  61.5757405 111.9876215  74.0526113  61.0997516
 113.2688409  74.6116922  61.6809446 114.7291907  74.1613164  58.5340882
 113.9323070  74.2731858  59.0524378 114.5017499  74.4999816  57.6681773
 120.5597574  80.6857867  66.4823397 120.6242007  81.1478274  67.3181568
 119.8508498  80.0555232  66.6105706 111.0614864  74.0499075  64.0072396
 111.3122903  74.9346085  64.2729972 111.5974413  73.8703677  63.2347488
 120.2745592  82.3525975  56.3502377 120.1391267  83.1977510  56.7787225
 120.8155404  82.5545252  55.5868311 116.7612932  68.4317554  73.0116732
 116.3679877  67.8783753  73.6864376 117.5779072  68.7428133  73.4023250
 113.7274989  79.8701413  56.9230302 114.2399510  80.6644663  57.0735867
 114.3797702  79.1727703  56.8563904 115.5369874  82.9867169  59.0053055
 115.7136502  83.9085134  58.8174039 116.3326708  82.6725588  59.4347435
 119.6780893  69.8475433  70.6036989 120.4190606  70.4482587  70.5241451
 119.9098815  69.1053071  70.0455031 114.8222231  75.0331801  68.8815218
 114.7075746  74.1317058  69.1822317 113.9666748  75.2795497  68.5300035
 116.6601190  84.5045343  65.0063398 117.2108615  84.3762406  64.2340391
 115.8212665  84.8040232  64.6558290 120.4568361  80.7696470  69.3507629
 120.9896697  80.0084759  69.1206937 119.9282442  80.4770122  70.0931783
 111.6923906  78.1990067  57.6989873 112.5299128  78.6087075  57.4823580
 111.8702174  77.2589509  57.6690066 121.1735449  70.7114848  58.4458944
 120.3177046  70.3221699  58.2664583 121.5862401  70.7906809  57.5858729
 118.9477482  68.3299921  61.8516685 119.8130479  68.1342730  61.4922575
 119.0154991  68.1010273  62.7786042 121.8221073  79.8982463  56.8626441
 121.2942435  79.1635222  56.5499678 121.3208576  80.6757139  56.6166409
 116.5539801  70.5602129  59.2233052 117.1283553  70.3377311  58.4906245
 117.1410783  70.6290824  59.9761654 116.8809388  72.5906590  53.2428937
 116.0446700  72.9281277  53.5638212 116.7414158  72.4555570  52.3056074
 118.8562469  67.4343378  57.9508122 118.2026881  67.1192395  57.3264736
 118.8142943  66.8119119  58.6767945 119.9673673  77.7162673  49.8661414
 119.0600735  77.4851927  50.0652563 120.4644705  76.9200292  50.0535395
 121.1461907  77.8175268  54.3885404 120.2373126  77.5334301  54.4857874
 121.1756991  78.2374347  53.5288711 111.7150077  75.5380782  58.3700606
 111.5174477  74.9450143  57.6451673 111.1596741  75.2332992  59.0876545
 119.6946801  75.4303889  60.4895199 119.7495411  74.4777725  60.4137676
 118.8838003  75.5863328  60.9736498 120.8437995  79.3584012  51.7273482
 120.4057425  78.6419871  51.2679120 121.5848436  79.5860127  51.1658574
 117.6339161  74.0480948  58.2485578 116.8207026  74.3475119  58.6550770
 118.1298155  73.6536637  58.9660060 119.7847739  84.0438705  60.1819843
 119.7423918  84.2699552  59.2528375 120.7010438  83.8102080  60.3305644
 117.1253236  71.6199304  63.8646813 117.7652615  71.4788063  63.1669776
 116.2930766  71.3333817  63.4885415 117.9013540  80.9201734  59.9781805
 118.6954138  80.4252054  59.7764380 117.1905232  80.3919597  59.6149511
 114.2096303  75.0644816  56.0541558 113.2793891  75.0029272  56.2711520
 114.3053775  74.5420769  55.2578199 114.1281852  71.5899629  58.6419800
 114.3888669  72.5044962  58.5328960 114.9499024  71.1224071  58.7916413
 115.6006777  73.0037386  65.8118624 116.2729831  72.7954748  65.1631273
 114.7736564  72.8059472  65.3723857 121.5032349  69.6299327  67.8284285
 120.8560264  70.3289277  67.7348762 122.2733365  70.0635471  68.1960533
 120.4784816  81.4930756  63.6579643 120.3395901  81.1249541  64.5305581
 119.6899412  82.0078396  63.4863600 121.0732967  86.5939853  55.0005179
 121.2484723  86.1227896  55.8150802 120.3865756  87.2205619  55.2286440
 122.0290031  80.8712359  61.0468480 121.6939863  80.8313129  61.9426130
 121.5293976  80.2057075  60.5738891 116.0034275  76.2779989  66.5721061
 115.8654073  75.5460228  67.1732601 116.9139198  76.1888889  66.2905249
 118.6316575  75.9899948  66.0604741 119.3416194  75.3493141  66.0191360
 118.5885883  76.2412843  66.9830922 117.3445509  72.9765166  67.8800381
 116.8082866  72.5255905  68.5321977 116.7562218  73.1111075  67.1370845
 115.6394053  89.7429216  61.7745039 115.8790651  90.3747740  62.4524058
 114.7963249  89.3917256  62.0610399 116.7547768  72.4353818  50.4426844
 115.8777235  72.3142618  50.0789091 117.2305521  71.6439896  50.1905733
 108.2749908  77.2230977  60.5368351 108.9620948  76.9092707  59.9489367
 108.1198037  78.1272342  60.2635603 113.0784631  72.1121174  64.9653375
 112.9942819  71.5046844  64.2303785 112.2567337  72.6030192  64.9662871
 120.1521915  85.5508338  64.1786543 120.0792086  86.3563309  64.6905848
 119.7099308  85.7500304  63.3534565 119.9411694  84.7880108  57.6889365
 119.1579216  85.3301788  57.7827589 120.6404439  85.3054088  58.0883606
 119.8343313  72.7392120  60.0595255 119.4641101  72.1863161  60.7476160
 120.3302406  72.1350254  59.5070255 117.6632512  83.1989615  67.1550273
 118.3641971  83.8326098  67.3079667 117.1927627  83.5404347  66.3945912
 121.5121371  76.4954034  71.4668860 120.8362008  76.3948163  72.1371235
 122.3349005  76.3393248  71.9304857 113.2600230  82.7325971  64.0881375
 113.8453667  81.9869658  64.2209280 113.0625068  83.0429927  64.9718039
 116.1138885  85.7677218  59.1043818 115.4449260  86.2523346  58.6207858
 115.9751755  86.0146438  60.0187196 107.8517884  75.3031571  62.8085819
 107.8901984  74.7695161  63.6022937 107.3458177  74.7766776  62.1896796
 120.2544154  87.8020961  65.7026476 120.8062462  87.9652583  66.4675561
 120.5950347  88.3925399  65.0306501 115.2308647  70.1496111  66.3048361
 115.2949973  71.0110942  65.8925759 115.1675767  69.5370113  65.5720719
 114.7060919  72.2219244  69.9521395 115.3332958  71.8396321  70.5658919
 113.8488838  72.0033446  70.3177088 111.4826462  74.0295673  55.8839750
 111.7779903  73.1206351  55.8306804 110.5814498  74.0083412  55.5620752
 115.0120709  72.1051669  61.8667299 114.2907295  72.7187637  61.7274772
 115.8013965  72.6409434  61.7883944 117.8147023  69.4406096  68.1407950
 118.3381424  69.6868393  68.9034260 117.5959356  70.2726131  67.7211088
 113.2114304  71.7109771  56.0079075 112.8827010  70.8307149  55.8254181
 113.5653674  71.6557439  56.8955464 116.3256127  71.9982740  56.3754553
 116.6652199  72.5268662  55.6533161 116.7728247  72.3363146  57.1513119
 119.0199568  70.3819791  65.8257621 118.6796388  69.5827604  66.2278301
 118.3138574  70.6821502  65.2534454 119.6716039  67.4669103  64.2784944
 120.4942109  66.9929582  64.1563834 119.9154103  68.2459587  64.7783630
 118.3124274  70.4957362  54.5747846 119.0332636  70.8738615  54.0711562
 117.6889578  71.2146239  54.6782823 117.1954618  74.1588224  62.0876922
 117.0499199  74.4728527  62.9801204 116.7179822  74.7773124  61.5347821
 119.0551001  71.1490772  62.1357812 119.0412570  70.2531865  61.7990110
 119.7723429  71.1561436  62.7696098 120.9077132  71.5828112  64.1810939
 120.6494910  72.5045183  64.1795270 120.3762172  71.1858547  64.8711404
 111.6700280  76.6993569  65.0264584 111.1253748  77.4753377  65.1584858
 112.5479630  77.0464373  64.8683705 118.4587897  70.0305152  57.4045382
 118.5803808  69.1021799  57.6036270 118.1689939  70.0443838  56.4923698
 121.3279087  67.7160063  60.5412102 121.3500784  67.7799396  59.5864082
 121.7447146  66.8764571  60.7352608 112.4566302  75.8263465  67.9194740
 111.7148038  75.9746100  68.5059371 112.1359047  76.0871730  67.0561490
 120.4009965  85.3679443  67.7175130 120.7097091  85.1228590  68.5897830
 121.1985447  85.5726082  67.2294001 120.4230577  87.5217353  59.9480507
 119.9835567  87.0293731  60.6413364 121.1738694  86.9790320  59.7072582
 112.9022916  83.7128894  59.9505135 113.7280936  83.4132665  59.5703779
 112.5516968  82.9436516  60.3994924 117.8704449  83.0655362  62.0202809
 117.2484458  82.4026067  61.7205037 118.5409316  83.0916494  61.3376456
 111.1031521  81.6315220  60.9094069 110.2663429  81.2037394  60.7278070
 111.0755166  81.8247663  61.8464860 117.9428977  71.5437150  71.6135315
 117.9917132  72.4199273  71.2313084 118.4851491  71.0014543  71.0406958
 117.4317956  81.6159285  55.4961269 117.5806076  82.2994749  54.8427942
 118.2384399  81.5964375  56.0110725 120.1728265  72.2968522  68.3681673
 119.3031574  72.5902088  68.0964262 120.4087745  72.8808967  69.0888937
 115.1870589  77.6424463  56.5022338 114.9416631  76.7386793  56.7002548
 115.3566504  77.6441613  55.5601816 114.4566237  73.3752820  54.0008500
 113.7635481  73.4497175  53.3448536 114.2117988  72.6113164  54.5230017
 120.9313362  84.1107416  52.9673017 120.3587329  84.7297603  52.5143489
 121.5046155  84.6606777  53.5012939 121.3160160  75.4468228  50.3089069
 122.2619265  75.3174436  50.3777487 120.9374405  74.7082890  50.7858497
 121.1998853  79.4985974  71.7689726 122.1201862  79.6764573  71.9629773
 121.1648436  78.5542020  71.6169425 119.5003077  73.3718205  50.2443954
 118.5934533  73.0751317  50.3206668 119.7779058  73.0748023  49.3778241
 110.4181018  74.6924568  60.6943001 110.0983802  73.8389876  60.4017375
 109.8714446  74.9073146  61.4500968 114.1960925  77.4087009  64.4112507
 114.4146935  78.3404117  64.4300541 114.6086699  77.0494983  65.1967311
 121.1165143  67.9155094  56.3988196 120.3065871  67.5702179  56.7743442
 121.8049560  67.6062638  56.9875807 119.0688790  72.9820215  73.8015256
 118.9685517  73.9314572  73.7327347 118.8510332  72.6538454  72.9291326
 118.2701862  70.2305140  50.3855934 119.1321026  70.5560038  50.6451751
 118.4552206  69.4436636  49.8728999 110.2869278  78.3127480  62.6636122
 109.5932749  77.8981432  62.1506077 111.0342269  78.3548016  62.0669541
 118.9320060  76.4117354  72.6180318 118.4487142  77.2117714  72.8244207
 119.0181000  76.4225299  71.6647762 112.2006020  78.2445733  60.5402137
 112.1776708  78.3433421  59.5884020 112.5106657  79.0910884  60.8619303
 114.8593398  80.3021888  64.6548752 115.8136652  80.2705831  64.5878683
 114.6605922  79.8412512  65.4698978 115.4492780  78.8723004  67.2219549
 116.2685669  79.3667083  67.2454387 115.7229588  77.9554973  67.1937117
 113.2143627  85.8441508  61.6718950 113.0798095  85.0841909  61.1056948
 112.7975689  86.5682408  61.2047738 116.3712753  86.7410825  61.8837392
 116.2545137  87.6856257  61.7816082 115.5505199  86.4384386  62.2723191
 110.7027694  73.2061138  67.9211746 111.3486558  72.6960092  68.4098972
 110.4944845  73.9429820  68.4955172 119.2231305  67.4701183  53.6735643
 119.2109975  68.4143023  53.8303913 120.1154727  67.2871328  53.3795104
 117.3967267  87.3939087  65.0993321 118.2994513  87.4262697  65.4159816
 117.1704637  86.4639538  65.1139656 119.1520869  86.1470073  61.7603399
 118.2016500  86.1471935  61.6467772 119.4553355  85.4002808  61.2439434
 115.0425185  70.3528755  72.0186761 115.9056647  69.9965560  72.2290085
 114.4690596  70.0142650  72.7062165 121.9008619  89.3790993  64.0072396
 122.1516657  90.2638003  64.2729972 122.4368167  89.1995594  63.2347488
 119.1143663  92.5522895  60.5368351 119.8014703  92.2384625  59.9489367
 118.9591792  93.4564260  60.2635603 118.6911639  90.6323488  62.8085819
 118.7295738  90.0987079  63.6022937 118.1851932  90.1058694  62.1896796
 121.9425275  96.9607138  60.9094069 121.1057184  96.5329312  60.7278070
 121.9148921  97.1539581  61.8464860 121.2574772  90.0216486  60.6943001
 120.9377556  89.1681794  60.4017375 120.7108200  90.2365064  61.4500968
 121.1263032  93.6419397  62.6636122 120.4326503  93.2273350  62.1506077
 121.8736023  93.6839934  62.0669541 121.5421449  88.5353056  67.9211746
 122.1880312  88.0252010  68.4098972 121.3338600  89.2721738  68.4955172
  74.6432206   2.6838273  44.3542144  74.5656236   3.6346099  44.4330624
  74.0393850   2.3384146  45.0117070  72.2819036   5.4323667  48.4990346
  72.5215634   6.0642192  49.1769364  71.4388233   5.0811707  48.7855705
  72.7563868   1.4571670  45.8289124  72.0874244   1.9417797  45.3453164
  72.6176738   1.7040890  46.7432503  76.8969137   3.4915413  52.4271783
  77.4487445   3.6547035  53.1920868  77.2375330   4.0819851  51.7551808
  77.0655560   3.2111805  46.6725814  76.6260551   2.7188183  47.3658670
  77.8163677   2.6684772  46.4317889  69.8568610   1.5335960  48.3964256
  69.7223078   0.7736361  47.8302254  69.4400672   2.2576860  47.9293045
  73.0137736   2.4305277  48.6082699  72.8970120   3.3750709  48.5061389
  72.1930182   2.1278838  48.9968498  74.0392250   3.0833539  51.8238627
  74.9419497   3.1157149  52.1405122  73.8129620   2.1533990  51.8384963
  88.3388252   7.6252492  49.4855993  88.0006763   7.5093556  48.5976528
  89.2078020   7.2243657  49.4656999  84.1975068   9.4787968  45.4752884
  83.6339933   9.3877905  44.7069172  84.0827463   8.6587873  45.9555376
  88.8208035   8.7787343  55.4442198  88.8096676   8.3840142  54.5722702
  88.9828674   8.0453416  56.0375970  81.7439499  10.9739160  48.3137104
  82.5360791  10.6329984  47.8983404  81.9836150  11.0834135  49.2339258
  89.7774626  13.1458936  40.7867349  89.1262606  13.7313016  40.4001363
  90.5718989  13.6765131  40.8462386  83.7030253  10.2348073  41.1854483
  84.4761129   9.6877060  41.0467359  84.0555652  11.0992322  41.3968945
  85.5415296  11.5624455  54.3921382  85.2505162  12.4670086  54.2768049
  86.1772280  11.6040983  55.1065452  86.4671503   8.9401304  50.9822742
  87.0635075   8.7157326  50.2679705  86.5246474   8.1986049  51.5848190
  86.0396531   6.3940739  38.8172933  86.2922052   5.8722260  38.0556396
  85.1021090   6.2306885  38.9199617  91.2549891  10.8349368  41.3236333
  90.6195724  10.9083994  42.0357238  90.9247298  11.4242967  40.6455412
  85.7592820   8.2968845  41.0197308  85.6429078   7.6213748  41.6878392
  85.8695080   7.8101219  40.2029461  88.1024361   7.7578992  44.7243997
  87.7382568   7.2309613  45.4356919  88.9591477   7.3677461  44.5510483
  90.5005181  11.2485871  51.3871176  90.2005904  12.1510910  51.2786983
  90.1556241  10.9818054  52.2392329  83.9517663   7.6999668  47.4207881
  83.0268159   7.5675882  47.6285572  84.2002076   8.4793887  47.9177823
  81.3126474   7.3432941  48.2551670  81.4418855   7.5967420  49.1691081
  80.6323925   7.9360649  47.9356325  85.4825961  18.0130191  44.3542144
  85.4049991  18.9638016  44.4330624  84.8787604  17.6676064  45.0117070
  86.2289563   7.9943510  56.5721478  86.9704247   8.5328554  56.2956301
  85.5226548   8.6209799  56.7293030  91.7044903  10.1372650  55.1693639
  92.1128259   9.6955061  54.4248272  90.9822164   9.5625278  55.4227832
  92.0273717  10.6973841  48.9245928  91.3982580  10.8619555  48.2221996
  91.6399379  11.1115451  49.6956892  95.9062949  11.6328279  46.2790292
  95.2213987  12.0127180  45.7287325  95.9906798  12.2423606  47.0122240
  93.1613881   9.2788238  52.8785635  93.3730776   9.9219998  52.2020017
  93.1143629   8.4450554  52.4107566  87.5801679  10.4348249  46.1896013
  88.0440025  10.7135952  45.4000636  87.3158477   9.5331694  46.0069104
  84.4725760   9.9819731  49.1275776  85.0427117  10.4106999  48.4893261
  85.0633872   9.7002315  49.8259962  86.5170565   6.5571401  42.9985578
  87.2194608   7.0092445  43.4659505  86.1851194   5.9155220  43.6265471
  84.9650927   5.1483158  57.3736788  84.3349587   5.8299439  57.6072185
  84.8587015   5.0366240  56.4289926  80.2595899   4.8154954  48.3002712
  79.4694953   5.0712483  47.8242823  80.7507146   5.6303292  48.4054752
  94.2759709  12.1560193  51.0507993  95.0977152  11.7540381  50.7690674
  94.2722112  12.0528427  52.0024109  82.2110644   5.1799533  45.2586189
  81.4141808   5.2918228  45.7769684  81.9836237   5.5186186  44.3927079
  88.0416312  11.7044237  53.2068703  88.1060745  12.1664644  54.0426875
  87.3327236  11.0741602  53.3351013  78.5433602   5.0685445  50.7317703
  78.7941641   5.9532454  50.9975279  79.0793150   4.8890046  49.9592795
  87.7564330  13.3712344  43.0747684  87.6210005  14.2163880  43.5032531
  88.2974142  13.5731622  42.3113617  81.2093727  10.8887782  43.6475609
  81.7218248  11.6831032  43.7981173  81.8616440  10.1914073  43.5809210
  83.0188612  14.0053538  45.7298362  83.1955240  14.9271503  45.5419346
  83.8145445  13.6911958  46.1592742  82.3040968   6.0518170  55.6060525
  82.1894484   5.1503428  55.9067624  81.4485486   6.2981867  55.2545342
  89.3832806  13.9935911  57.2048026  88.9396660  13.2072289  56.8868930
  90.0450020  14.1815061  56.5391916  84.1419927  15.5231712  51.7308704
  84.6927352  15.3948776  50.9585698  83.3031403  15.8226601  51.3803597
  91.4814044  14.2738711  55.2329427  91.4632520  15.0947592  54.7409696
  92.4033964  14.1492786  55.4579568  87.9387098  11.7882840  56.0752935
  88.4715435  11.0271128  55.8452243  87.4101179  11.4956492  56.8177090
  79.1742644   9.2176436  44.4235179  80.0117866   9.6273445  44.2068887
  79.3520912   8.2775879  44.3935373  96.0441350   9.6383872  42.0472186
  95.2670793   9.2995031  41.6027348  96.7232831   9.6436495  41.3727151
  89.3039811  10.9168832  43.5871747  88.7761173  10.1821592  43.2744985
  88.8027314  11.6943509  43.3411716  94.2832657   9.1117853  48.7038794
  93.6256332   9.8017114  48.7918922  95.0873056   9.5014285  49.0472780
  87.4492411   8.7349043  36.5906720  86.5419473   8.5038296  36.7897869
  87.9463443   7.9386662  36.7780702  90.3560490  17.4446550  39.5103407
  89.6822189  17.7478247  40.1188364  90.7426312  18.2475630  39.1608864
  88.6280645   8.8361638  41.1130710  87.7191864   8.5520670  41.2103180
  88.6575729   9.2560716  40.2534017  93.8599912  12.4468227  44.8821878
  93.4062239  11.6059137  44.9387068  93.2293879  13.0829625  45.2196658
  92.3032851  14.2844724  45.8171696  92.5955826  14.8449781  45.0984062
  92.8131472  14.5773285  46.5724855  79.1968815   6.5567152  45.0945913
  78.9993215   5.9636512  44.3696979  78.6415479   6.2519362  45.8121851
  88.3256732  10.3770381  38.4518789  87.8876162   9.6606240  37.9924426
  89.0667173  10.6046496  37.8903880  87.2666477  15.0625075  46.9065149
  87.2242655  15.2885921  45.9773681  88.1829175  14.8288449  47.0550951
  96.4699227  10.7204105  49.5206379  96.9035734  10.6279394  50.3689433
  97.1830808  10.6961606  48.8826395  85.3832277  11.9388104  46.7027112
  86.1772876  11.4438424  46.5009687  84.6723970  11.4105967  46.3394818
  90.2027122  14.3206199  51.0539480  90.2564144  14.8897136  51.8217196
  89.3341903  14.4908084  50.6893517  81.6915041   6.0831186  42.7786865
  80.7612629   6.0215641  42.9956827  81.7872513   5.5607138  41.9823506
  97.3314776  10.7627806  52.0539265  97.5250667  11.6673616  52.2998539
  97.2315395  10.3035225  52.8877850  92.3929885  10.9134549  57.6280145
  92.2415392  10.6845100  56.7110229  92.3834565  11.8705150  57.6411490
  89.1615222   8.4866461  52.6126412  90.0907282   8.6377621  52.4395379
  88.7406252   8.5750482  51.7575058  87.9603553  12.5117126  50.3824949
  87.8214639  12.1435910  51.2550887  87.1718150  13.0264765  50.2108907
  88.5551705  17.6126222  41.7250486  88.7303461  17.1414266  42.5396108
  87.8684493  18.2391989  41.9531746  89.5108768  11.8898729  47.7713787
  89.1758601  11.8499499  48.6671437  89.0112714  11.2243445  47.2984197
  83.4853012   7.2966359  53.2966368  83.3472810   6.5646597  53.8977907
  84.3957936   7.2075259  53.0150556  92.4467960   9.2354763  38.0450847
  91.8297131   8.5101591  37.9483899  91.9784449   9.9964123  37.7017921
  86.1135313   7.0086318  52.7850048  86.8234932   6.3679510  52.7436666
  86.0704621   7.2599213  53.7076229  94.1022092  13.9453671  55.7056627
  94.0434638  13.2612891  55.0387210  94.5041610  14.6872661  55.2537253
  83.1212791  20.7615585  48.4990346  83.3609389  21.3934109  49.1769364
  82.2781987  20.4103625  48.7855705  94.1039499  11.9093255  53.9370607
  93.2166278  11.5719177  54.0597006  94.6738050  11.1776286  54.1739372
  75.7568646   8.2417347  47.2613658  76.4439686   7.9279077  46.6734673
  75.6016775   9.1458712  46.9880909  87.6340652  16.5694708  50.9031850
  87.5610824  17.3749679  51.4151154  87.1918046  16.7686673  50.0779871
  87.4230432  15.8066478  44.4134671  86.6397954  16.3488158  44.5072896
  88.1223177  16.3240457  44.8128913  90.0939336  16.4681542  53.0590009
  90.8067308  17.1029006  52.9865910  89.6029365  16.5645408  52.2430010
  91.8156863  10.3732794  44.6307300  90.8813142  10.4934257  44.4612005
  91.9933531   9.4705261  44.3667310  85.1451249  14.2175985  53.8795579
  85.8460709  14.8512468  54.0324974  84.6746364  14.5590717  53.1191219
  93.2705645  12.5593935  42.1643486  93.5465489  12.4450529  43.0737360
  92.4010144  12.1611420  42.1255659  89.9059709  16.8080286  45.8076300
  90.0882104  15.9901942  46.2704052  90.7292695  17.0247978  45.3701190
  90.2401875  15.7348471  43.0691348  90.7689641  15.2240925  42.4561511
  90.5030094  15.4191001  43.9336881  88.9940108   7.5140404  58.1914167
  88.3180745   7.4134533  58.8616542  89.8167742   7.3579617  58.6550164
  80.7418968  13.7512340  50.8126682  81.3272404  13.0056028  50.9454586
  80.5443806  14.0616297  51.6963346  83.5957623  16.7863587  45.8289124
  82.9267998  17.2709715  45.3453164  83.4570492  17.0332808  46.7432503
  75.3336622   6.3217940  49.5331125  75.3720722   5.7881531  50.3268243
  74.8276915   5.7953146  48.9142102  87.7362891  18.8207331  52.4271783
  88.2881199  18.9838953  53.1920868  88.0769085  19.4111769  51.7551808
  92.5873766  13.6468589  58.2820437  93.1313670  14.2598547  57.7875392
  92.0060611  14.2048167  58.7987450  78.9645200   5.0482042  42.6085057
  79.2598641   4.1392721  42.5552110  78.0633236   5.0269782  42.2866059
  90.8731279  16.7689307  49.4135465  90.7482418  15.9679046  48.9046410
  91.5310370  17.2635500  48.9249435  92.9366187  14.5698327  51.0415015
  91.9896523  14.4503678  50.9693342  93.2848960  13.6820825  51.1241276
  89.9412620  14.3651043  47.2419367  89.7937583  13.4367750  47.4226937
  90.7666114  14.3871134  46.7576442  93.5446742  15.1879602  48.3284240
  94.4693290  14.9822463  48.1908691  93.3762046  14.9396003  49.2373581
  84.6773356   5.1774594  48.8122229  84.5317937   5.4914897  49.7046511
  84.1998560   5.7959494  48.2593128  93.3342058  15.7065269  43.6846331
  93.5078936  15.1411692  42.9320184  93.8270950  16.5066164  43.5025821
  79.1519018   7.7179938  51.7509890  78.6072486   8.4939746  51.8830165
  80.0298368   8.0650743  51.5929012  94.3217231  15.0232033  40.7843230
  95.0168135  15.6438726  41.0030544  94.6640381  14.1727385  41.0595608
  79.9385040   6.8449834  54.6440047  79.1966776   6.9932470  55.2304678
  79.6177784   7.1058100  53.7806797  96.2208654  12.4731739  42.3130560
  96.7459978  12.8119012  41.5879881  96.1331007  11.5378754  42.1293695
  87.8828703  16.3865813  54.4420437  88.1915829  16.1414959  55.3143137
  88.6804185  16.5912451  53.9539307  87.9049315  18.5403722  46.6725814
  87.4654305  18.0480101  47.3658670  88.6557432  17.9976690  46.4317889
  80.3841654  14.7315263  46.6750442  81.2099674  14.4319035  46.2949085
  80.0335706  13.9622886  47.1240230  85.3523187  14.0841731  48.7448115
  84.7303196  13.4212436  48.4450343  86.0228054  14.1102863  48.0621763
  78.5850259  12.6501590  47.6339375  77.7482167  12.2223764  47.4523377
  78.5573904  12.8434033  48.5710167  95.9102560  13.1064643  57.6181758
  95.1198104  13.0888781  57.0786258  95.6735915  13.6452936  58.3730795
  96.0300435   9.9557109  54.9314487  96.0798440   9.7907116  55.8730010
  95.9214358   9.0884368  54.5412368  84.9136694  12.6345655  42.2206576
  85.0624814  13.3181119  41.5673249  85.7203137  12.6150745  42.7356032
  97.5318632  12.3754050  55.1756509  97.2403440  12.7384031  56.0119970
  96.9190763  11.6621059  54.9969841  82.6689327   8.6610832  43.2267645
  82.4235369   7.7573162  43.4247855  82.8385241   8.6627983  42.2847123
  88.4132099  15.1293785  39.6918323  87.8406066  15.7483972  39.2388795
  88.9864893  15.6793147  40.2258245  91.6329359  15.4130935  40.8226906
  92.5660032  15.3476497  41.0259781  91.5452572  16.2487202  40.3641438
  94.2617376  14.7296806  37.7830853  94.1831007  14.3956669  38.6766611
  95.0827043  15.2218573  37.7822326  88.6817590  10.5172344  58.4935033
  89.6020600  10.6950943  58.6875079  88.6467173   9.5728389  58.3414732
  77.8999755   5.7110938  47.4188307  77.5802540   4.8576246  47.1262681
  77.3533184   5.9259516  48.1746275  81.6779663   8.4273379  51.1357814
  81.8965673   9.3590486  51.1545848  82.0905437   8.0681353  51.9212618
  77.7688015   9.3313849  49.3881429  77.0751487   8.9167802  48.8751383
  78.5161006   9.3734386  48.7914848  86.4138798   7.4303723  59.3425625
  85.9305880   8.2304083  59.5489514  86.4999737   7.4411668  58.3893069
  79.6824758   9.2632103  47.2647444  79.6595446   9.3619790  46.3129327
  79.9925394  10.1097254  47.5864610  82.3412136  11.3208258  51.3794058
  83.2955389  11.2892200  51.3123990  82.1424659  10.8598882  52.1944284
  82.9311518   9.8909374  53.9464856  83.7504407  10.3853453  53.9699693
  83.2048326   8.9741342  53.9182423  80.6962365  16.8627877  48.3964256
  80.5616832  16.1028278  47.8302254  80.2794427  17.5868777  47.9293045
  91.8321328  12.0464801  37.4040831  92.5357178  12.2514803  38.0198487
  91.1083976  12.6141563  37.6689915  83.8531490  17.7597194  48.6082699
  83.7363875  18.7042627  48.5061389  83.0323937  17.4570756  48.9968498
  93.7408025  12.4847330  39.4539292  94.5753629  12.0528529  39.2716766
  93.5792368  12.3129344  40.3816186  93.3953917   8.9879443  40.8195631
  93.3402721   8.8223715  39.8784075  92.7699972   9.6955476  40.9757821
  78.1846432   4.2247508  54.6457053  78.8305296   3.7146462  55.1344278
  77.9763583   4.9616190  55.2200478  90.7099824  11.2928355  60.1449194
  91.5790984  11.4669008  59.7835829  90.2306576  12.1122772  60.0224923
  84.8786005  18.4125456  51.8238627  85.7813251  18.4449067  52.1405122
  84.6523375  17.4825907  51.8384963  86.6339607  17.1656443  48.4848706
  85.6835238  17.1658305  48.3713078  86.9372093  16.4189177  47.9684741
 102.3692300  23.0016981  49.5494468 103.0070710  22.8823729  48.8457808
 102.2513143  23.9497825  49.6082420  99.1782006  22.9544409  49.4855993
  98.8400518  22.8385474  48.5976528 100.0471775  22.5535574  49.4656999
  95.0368822  24.8079886  45.4752884  94.4733687  24.7169823  44.7069172
  94.9221217  23.9879790  45.9555376  99.6601789  24.1079261  55.4442198
  99.6490430  23.7132059  54.5722702  99.8222429  23.3745334  56.0375970
  92.5833254  26.3031077  48.3137104  93.3754546  25.9621902  47.8983404
  92.8229904  26.4126052  49.2339258 100.6168381  28.4750854  40.7867349
  99.9656361  29.0604934  40.4001363 101.4112744  29.0057048  40.8462386
  94.5424008  25.5639991  41.1854483  95.3154884  25.0168978  41.0467359
  94.8949407  26.4284240  41.3968945  96.3809050  26.8916373  54.3921382
  96.0898916  27.7962004  54.2768049  97.0166035  26.9332901  55.1065452
  97.3065257  24.2693221  50.9822742  97.9028830  24.0449244  50.2679705
  97.3640229  23.5277967  51.5848190  96.8790286  21.7232657  38.8172933
  97.1315806  21.2014178  38.0556396  95.9414845  21.5598802  38.9199617
 101.9233569  20.7268435  46.6247676 102.7096658  20.3087858  46.2738093
 102.1872273  21.6314527  46.7929325 102.0943646  26.1641285  41.3236333
 101.4589479  26.2375912  42.0357238 101.7641052  26.7534884  40.6455412
 107.3241996  20.6643668  47.5280655 108.0567168  20.0942885  47.7618484
 106.5681351  20.2765269  47.9687160  96.5986574  23.6260763  41.0197308
  96.4822833  22.9505666  41.6878392  96.7088834  23.1393137  40.2029461
  98.9418115  23.0870910  44.7243997  98.5776323  22.5601531  45.4356919
  99.7985231  22.6969379  44.5510483 104.8467416  14.3765242  51.9875263
 104.5150741  15.2460653  51.7636478 104.2513029  14.0601526  52.6669294
  98.5823602  18.1160810  39.7205346  98.7498005  18.9841046  40.0875817
  98.3920771  18.2788091  38.7966635 101.3398936  26.5777788  51.3871176
 101.0399659  27.4802827  51.2786983 100.9949995  26.3109972  52.2392329
  94.7911417  23.0291585  47.4207881  93.8661913  22.8967799  47.6285572
  95.0395830  23.8085805  47.9177823 104.7396079  19.0960329  49.0668613
 103.8312957  19.0275737  48.7727374 104.6883675  19.5732274  49.8950439
  98.5612823  20.5718467  40.7052013  98.4412448  21.0175518  41.5437493
  97.8665412  20.9203785  40.1465551  92.1520228  22.6724859  48.2551670
  92.2812609  22.9259338  49.1691081  91.4717679  23.2652567  47.9356325
  96.3219715  33.3422109  44.3542144  96.2443745  34.2929934  44.4330624
  95.7181359  32.9967981  45.0117070  98.8136945  20.5149974  57.0103511
  98.0370279  21.0743894  57.0006375  99.4527508  21.0006757  57.5318381
 106.6057726  17.2976767  50.8446487 105.9632106  17.5909300  50.1986282
 106.1012654  17.1829687  51.6499684 104.2597889  21.0439940  41.5332347
 105.1715746  21.2767327  41.3580044 103.7507536  21.6276984  40.9707425
  97.0683317  23.3235428  56.5721478  97.8098002  23.8620472  56.2956301
  96.3620303  23.9501716  56.7293030 102.5438657  25.4664568  55.1693639
 102.9522013  25.0246979  54.4248272 101.8215919  24.8917196  55.4227832
  98.8969727  20.4037175  52.5427196  99.7430922  20.8276588  52.6861845
  98.8368365  19.7470799  53.2365759 102.8667472  26.0265759  48.9245928
 102.2376334  26.1911473  48.2221996 102.4793134  26.4407368  49.6956892
 106.7456704  26.9620197  46.2790292 106.0607742  27.3419098  45.7287325
 106.8300553  27.5715523  47.0122240 102.0469172  18.0641543  54.2008370
 101.8030104  18.8183604  53.6642646 102.3229103  18.4426891  55.0355617
 104.0007635  24.6080156  52.8785635 104.2124530  25.2511915  52.2020017
 103.9537383  23.7742472  52.4107566 101.6033864  17.2197976  49.7822208
 100.7418343  17.5179230  50.0738945 101.6296299  17.4368375  48.8503240
  98.4195434  25.7640167  46.1896013  98.8833779  26.0427870  45.4000636
  98.1552232  24.8623611  46.0069104  95.3119515  25.3111648  49.1275776
  95.8820872  25.7398917  48.4893261  95.9027626  25.0294233  49.8259962
  97.3564320  21.8863319  42.9985578  98.0588363  22.3384363  43.4659505
  97.0244948  21.2447138  43.6265471  95.8044681  20.4775076  57.3736788
  95.1743342  21.1591357  57.6072185  95.6980769  20.3658157  56.4289926
  91.0989654  20.1446872  48.3002712  90.3088708  20.4004400  47.8242823
  91.5900901  20.9595210  48.4054752 105.1153463  27.4852111  51.0507993
 105.9370907  27.0832298  50.7690674 105.1115866  27.3820345  52.0024109
  93.0504399  20.5091451  45.2586189  92.2535562  20.6210145  45.7769684
  92.8229991  20.8478103  44.3927079  98.8810067  27.0336154  53.2068703
  98.9454499  27.4956562  54.0426875  98.1720990  26.4033519  53.3351013
  89.3827357  20.3977362  50.7317703  89.6335395  21.2824372  50.9975279
  89.9186905  20.2181964  49.9592795 113.2059456  23.8290859  47.3992964
 112.4523165  23.2598258  47.2436969 113.3406997  23.7953524  48.3463599
  98.5958084  28.7004262  43.0747684  98.4603759  29.5455797  43.5032531
  99.1367897  28.9023539  42.3113617  95.0825424  14.7795842  59.7362039
  94.6892369  14.2262040  60.4109683  95.8991564  15.0906420  60.1268556
  92.0487482  26.2179700  43.6475609  92.5612002  27.0122950  43.7981173
  92.7010194  25.5205990  43.5809210  93.8582366  29.3345456  45.7298362
  94.0348995  30.2563421  45.5419346  94.6539200  29.0203875  46.1592742
  97.9993385  16.1953721  57.3282295  98.7403098  16.7960874  57.2486758
  98.2311308  15.4531358  56.7700338  93.1434723  21.3810088  55.6060525
  93.0288238  20.4795345  55.9067624  92.2879241  21.6273785  55.2545342
 100.2226561  29.3227828  57.2048026  99.7790415  28.5364207  56.8868930
 100.8843774  29.5106979  56.5391916  94.9813682  30.8523630  51.7308704
  95.5321107  30.7240693  50.9585698  94.1425158  31.1518519  51.3803597
 102.3207799  29.6030628  55.2329427 102.3026274  30.4239509  54.7409696
 103.2427719  29.4784703  55.4579568  98.7780853  27.1174758  56.0752935
  99.3109190  26.3563046  55.8452243  98.2494934  26.8248409  56.8177090
 101.9450548  12.2234824  51.6046577 101.6014817  13.1136465  51.5285688
 102.3129510  12.0336481  50.7416162  90.0136398  24.5468354  44.4235179
  90.8511620  24.9565362  44.2068887  90.1914666  23.6067796  44.3935373
 101.9100831  22.2143435  40.1119012 101.3947454  22.9848039  40.3507400
 101.6378139  21.5408571  40.7352074  99.4947942  17.0593136  45.1704251
  98.6389538  16.6699986  44.9909889  99.9074893  17.1385096  44.3104036
 101.0247088  14.5939479  49.5695810 100.5211884  14.5569614  48.7563616
 101.3177695  15.5032222  49.6292467  97.2689974  14.6778209  48.5761992
  98.1342971  14.4821017  48.2167882  97.3367483  14.4488560  49.5031349
 106.8835105  24.9675789  42.0472186 106.1064547  24.6286949  41.6027348
 107.5626586  24.9728413  41.3727151 101.6987134  20.0870527  41.9378793
 101.3937269  20.4016676  42.7888937 102.6517576  20.1651947  41.9806126
 100.1433566  26.2460750  43.5871747  99.6154927  25.5113510  43.2744985
  99.6421068  27.0235427  43.3411716 105.1226412  24.4409771  48.7038794
 104.4650086  25.1309032  48.7918922 105.9266811  24.8306203  49.0472780
  94.8752293  16.9080416  45.9478359  95.4496045  16.6855598  45.2151552
  95.4623276  16.9769111  46.7006960 103.9331870  22.7954143  46.7542735
 104.4463752  23.4284135  47.2564445 104.5833094  22.1955339  46.3886095
  95.2021880  18.9384877  39.9674244  94.3659193  19.2759564  40.2883519
  95.0626650  18.8033857  39.0301381  97.1774961  13.7821665  44.6753428
  96.5239373  13.4670683  44.0510043  97.1355435  13.1597406  45.4013251
  98.2886166  24.0640960  36.5906720  97.3813227  23.8330214  36.7897869
  98.7857198  23.2678580  36.7780702 101.1954245  32.7738468  39.5103407
 100.5215943  33.0770164  40.1188364 101.5820067  33.5767548  39.1608864
 100.4112701  20.2703599  49.0001076  99.4935263  20.4918546  48.8422764
 100.8272845  20.3449909  48.1412783 101.1947749  21.6695015  44.1303756
 101.9419568  22.1816412  43.8210878 101.4639339  21.3479067  44.9908150
  99.4674399  24.1653555  41.1130710  98.5585618  23.8812588  41.2103180
  99.4969483  24.5852634  40.2534017 104.6993667  27.7760145  44.8821878
 104.2455994  26.9351055  44.9387068 104.0687633  28.4121543  45.2196658
 103.6426586  18.7052131  46.1122545 102.9049343  18.1929517  46.4432788
 103.8953360  18.2652512  45.3005822 103.1426606  29.6136641  45.8171696
 103.4349580  30.1741699  45.0984062 103.6525226  29.9065202  46.5724855
  90.0362570  21.8859069  45.0945913  89.8386969  21.2928430  44.3696979
  89.4809234  21.5811280  45.8121851  98.0159293  21.7782176  47.2140506
  98.0707903  20.8256012  47.1382982  97.2050495  21.9341615  47.6981804
  99.1650487  25.7062299  38.4518789  98.7269917  24.9898158  37.9924426
  99.9060928  25.9338414  37.8903880  95.9551653  20.3959236  44.9730885
  95.1419519  20.6953406  45.3796077  96.4510647  20.0014924  45.6905367
  98.1060231  30.3916993  46.9065149  98.0636410  30.6177839  45.9773681
  99.0222930  30.1580367  47.0550951 101.5525865  20.8601060  53.8045779
 101.9075253  21.0872533  54.6640244 102.1997996  21.1919437  53.1823034
 107.2823602  23.9819496  44.5095108 107.1441500  24.1721092  43.5816297
 106.9259821  24.7438879  44.9663159  95.4465728  17.9677591  50.5892120
  96.0865107  17.8266350  49.8915083  94.6143258  17.6812105  50.2130722
 107.3092981  26.0496023  49.5206379 107.7429488  25.9571312  50.3689433
 108.0224562  26.0253523  48.8826395  96.2226032  27.2680022  46.7027112
  97.0166630  26.7730342  46.5009687  95.5117724  26.7397885  46.3394818
 101.0420876  29.6498117  51.0539480 101.0957899  30.2189053  51.8217196
 100.1735658  29.8200002  50.6893517  92.5308795  21.4123103  42.7786865
  91.6006383  21.3507559  42.9956827  92.6266267  20.8899056  41.9823506
  92.4494344  17.9377916  45.3665106  92.7101162  18.8523249  45.2574267
  93.2711517  17.4702359  45.5161719  93.9219270  19.3515673  52.5363931
  94.5942323  19.1433035  51.8876580  93.0949056  19.1537759  52.0969163
 108.1708531  26.0919724  52.0539265 108.3644421  26.9965534  52.2998539
 108.0709149  25.6327143  52.8877850  99.8244842  15.9777614  54.5529592
  99.1772757  16.6767564  54.4594068 100.5945857  16.4113758  54.9205840
 103.2323640  26.2426466  57.6280145 103.0809146  26.0137018  56.7110229
 103.2228319  27.1997068  57.6411490 100.0008976  23.8158379  52.6126412
 100.9301036  23.9669539  52.4395379  99.5800006  23.9042400  51.7575058
  98.7997308  27.8409044  50.3824949  98.6608393  27.4727828  51.2550887
  98.0111904  28.3556683  50.2108907  99.3945460  32.9418140  41.7250486
  99.5697215  32.4706183  42.5396108  98.7078248  33.5683906  41.9531746
 100.3502523  27.2190646  47.7713787 100.0152356  27.1791416  48.6671437
  99.8506469  26.5535362  47.2984197  94.3246767  22.6258276  53.2966368
  94.1866565  21.8938515  53.8977907  95.2351690  22.5367176  53.0150556
 103.2861715  24.5646681  38.0450847 102.6690885  23.8393509  37.9483899
 102.8178203  25.3256041  37.7017921  96.9529068  22.3378236  52.7850048
  97.6628686  21.6971428  52.7436666  96.9098376  22.5891130  53.7076229
 104.9415846  29.2745589  55.7056627 104.8828392  28.5904809  55.0387210
 105.3435365  30.0164579  55.2537253  95.6658002  19.3243453  54.6045687
  95.1295359  18.8734192  55.2567284  95.0774710  19.4589362  53.8616152
  93.9606545  36.0907503  48.4990346  94.2003143  36.7226027  49.1769364
  93.1175742  35.7395543  48.7855705  95.0760261  18.7832105  37.1672151
  94.1989727  18.6620906  36.8034398  95.5518014  17.9918183  36.9151040
 104.9433254  27.2385173  53.9370607 104.0560032  26.9011095  54.0597006
 105.5131805  26.5068204  54.1739372  86.5962401  23.5709265  47.2613658
  87.2833440  23.2570995  46.6734673  86.4410529  24.4750629  46.9880909
  91.3997123  18.4599461  51.6898682  91.3155312  17.8525131  50.9549092
  90.5779829  18.9508480  51.6908178  98.4734407  31.8986625  50.9031850
  98.4004578  32.7041597  51.4151154  98.0311800  32.0978591  50.0779871
  98.2624187  31.1358395  44.4134671  97.4791708  31.6780075  44.5072896
  98.9616932  31.6532375  44.8128913 101.5720837  16.9453025  47.0568877
 102.0689536  16.1922987  46.7369947 100.8007818  16.9817341  46.4912086
 109.4250594  22.6493390  48.6987168 109.4140470  23.5318106  48.3281101
 108.5567973  22.2964941  48.5041705 100.9333090  31.7973459  53.0590009
 101.6461063  32.4320924  52.9865910 100.4423119  31.8937325  52.2430010
 102.6550617  25.7024712  44.6307300 101.7206896  25.8226174  44.4612005
 102.8327286  24.7997179  44.3667310  98.1555805  19.0870408  46.7840561
  97.7853593  18.5341448  47.4721467  98.6514898  18.4828541  46.2315561
 106.0423169  21.5442031  45.1657334 106.5083621  22.3770023  45.0917637
 106.4930669  21.0787013  45.8702593  95.9845004  29.5467903  53.8795579
  96.6854463  30.1804386  54.0324974  95.5140119  29.8882634  53.1191219
 104.1099400  27.8885853  42.1643486 104.3859244  27.7742447  43.0737360
 103.2403899  27.4903337  42.1255659 104.0139831  13.9122618  49.2048236
 103.1002911  14.1426845  49.3730443 104.4432933  13.9961062  50.0562268
 103.7846290  22.1012510  51.7048130 103.1317740  22.3488418  51.0500582
 104.1626670  21.2876648  51.3710607 100.7453464  32.1372203  45.8076300
 100.9275858  31.3193859  46.2704052 101.5686450  32.3539896  45.3701190
 101.0795629  31.0640388  43.0691348 101.6083396  30.5532843  42.4561511
 101.3423849  30.7482919  43.9336881  99.8333863  22.8432321  58.1914167
  99.1574500  22.7426451  58.8616542 100.6561497  22.6871535  58.6550164
  91.5812722  29.0804258  50.8126682  92.1666159  28.3347946  50.9454586
  91.3837560  29.3908214  51.6963346  94.4351377  32.1155505  45.8289124
  93.7661753  32.6001633  45.3453164  94.2964247  32.3624726  46.7432503
  86.1730377  21.6509858  49.5331125  86.2114476  21.1173449  50.3268243
  85.6670670  21.1245064  48.9142102  98.5756646  34.1499249  52.4271783
  99.1274954  34.3130870  53.1920868  98.9162839  34.7403687  51.7551808
  93.5521139  16.4974398  53.0293667  93.6162466  17.3589229  52.6171065
  93.4888259  15.8848400  52.2966026  93.0273412  18.5697531  56.6766702
  93.6545450  18.1874608  57.2904226  92.1701330  18.3511733  57.0422394
 103.4267520  28.9760506  58.2820437 103.9707424  29.5890464  57.7875392
 102.8454365  29.5340085  58.7987450  89.8038954  20.3773960  42.6085057
  90.0992395  19.4684639  42.5552110  88.9026990  20.3561700  42.2866059
 101.7125033  32.0981224  49.4135465 101.5876173  31.2970964  48.9046410
 102.3704124  32.5927418  48.9249435  93.3333201  18.4529957  48.5912605
  92.6119787  19.0665924  48.4520078  94.1226457  18.9887722  48.5129251
 103.7759942  29.8990244  51.0415015 102.8290277  29.7795595  50.9693342
 104.1242715  29.0112742  51.1241276  96.1359515  15.7884383  54.8653257
  96.6593917  16.0346680  55.6279566  95.9171848  16.6204418  54.4456394
  91.5326796  18.0588058  42.7324382  91.2039502  17.1785437  42.5499488
  91.8866167  18.0035726  43.6200771 100.7806375  29.6942961  47.2419367
 100.6331337  28.7659668  47.4226937 101.6059868  29.7163051  46.7576442
  94.6468619  18.3461028  43.0999859  94.9864692  18.8746949  42.3778468
  95.0940740  18.6841434  43.8758426 104.3840497  30.5171519  48.3284240
 105.3087044  30.3114381  48.1908691 104.2155800  30.2687920  49.2373581
  97.3412060  16.7298078  52.5502927  97.0008880  15.9305891  52.9523607
  96.6351066  17.0299789  51.9779761  97.9928532  13.8147391  51.0030250
  98.8154601  13.3407869  50.8809141  98.2366595  14.5937875  51.5028937
  96.6336766  16.8435649  41.2993152  97.3545129  17.2216902  40.7956869
  96.0102070  17.5624526  41.4028130 100.7767889  17.5480798  42.2351484
 100.9931504  18.4305436  41.9340313 100.2961956  17.1567012  41.5057126
  95.5167111  20.5066511  48.8122229  95.3711691  20.8206814  49.7046511
  95.0392314  21.1251412  48.2593128  97.3763493  17.4969059  48.8603119
  97.3625062  16.6010153  48.5235417  98.0935921  17.5039723  49.4941405
  99.2289624  17.9306400  50.9056246  98.9707402  18.8523470  50.9040576
  98.6974664  17.5336834  51.5956710 104.1735813  31.0357187  43.6846331
 104.3472690  30.4703609  42.9320184 104.6664704  31.8358082  43.5025821
  89.9912773  23.0471856  51.7509890  89.4466241  23.8231664  51.8830165
  90.8692123  23.3942660  51.5929012  96.7800389  16.3783440  44.1290689
  96.9016301  15.4500086  44.3281576  96.4902432  16.3922126  43.2169004
  99.6491580  14.0638350  47.2657409  99.6713277  14.1277683  46.3109388
 100.0659639  13.2242859  47.4597915 110.0275204  23.7993610  45.3036631
 110.4706350  23.0500935  44.9055754 109.1501714  23.7903746  44.9210363
 105.1610985  30.3523951  40.7843230 105.8561890  30.9730644  41.0030544
 105.5034135  29.5019302  41.0595608  90.7778795  22.1741752  54.6440047
  90.0360531  22.3224387  55.2304678  90.4571539  22.4350018  53.7806797
 107.0602408  27.8023657  42.3130560 107.5853733  28.1410929  41.5879881
 106.9724761  26.8670672  42.1293695  98.7222457  31.7157730  54.4420437
  99.0309584  31.4706877  55.3143137  99.5197939  31.9204369  53.9539307
  98.7443069  33.8695640  46.6725814  98.3048060  33.3772019  47.3658670
  99.4951186  33.3268608  46.4317889  91.2235408  30.0607181  46.6750442
  92.0493428  29.7610953  46.2949085  90.8729460  29.2914803  47.1240230
  96.1916941  29.4133649  48.7448115  95.5696951  28.7504354  48.4450343
  96.8621808  29.4394781  48.0621763  89.4244013  27.9793507  47.6339375
  88.5875922  27.5515682  47.4523377  89.3967659  28.1725951  48.5710167
  96.2641469  17.8915437  58.3380621  96.3129624  18.7677560  57.9558391
  96.8063983  17.3492830  57.7652265 106.7496315  28.4356560  57.6181758
 105.9591858  28.4180699  57.0786258 106.5129669  28.9744854  58.3730795
 106.8694190  25.2849027  54.9314487 106.9192195  25.1199034  55.8730010
 106.7608113  24.4176286  54.5412368  95.7530448  27.9637572  42.2206576
  95.9018569  28.6473037  41.5673249  96.5596892  27.9442662  42.7356032
 104.1597952  21.2679955  56.2473794 105.0607815  21.1286420  55.9557792
 104.2345926  21.4334410  57.1871971  98.4940757  18.6446809  55.0926980
  97.6244067  18.9380375  54.8209569  98.7300238  19.2287254  55.8134244
 108.3712386  27.7045968  55.1756509 108.0797195  28.0675949  56.0119970
 107.7584518  26.9912976  54.9969841 109.5708069  25.2698848  47.6959079
 110.4054960  25.7088652  47.8596639 109.7067198  24.7937501  46.8767325
 106.6199575  22.8278583  53.6436567 107.0953696  23.0206229  52.8355418
 105.6965140  22.8837769  53.3979950  93.5083081  23.9902750  43.2267645
  93.2629123  23.0865080  43.4247855  93.6778996  23.9919900  42.2847123
 101.1979791  14.8626426  52.6092400 101.7161735  15.5987453  52.2838889
 100.8434924  15.1690420  53.4439160  92.7778729  19.7231108  40.7253806
  92.0847974  19.7975463  40.0693842  92.5330481  18.9591451  41.2475323
  99.2525854  30.4585703  39.6918323  98.6799821  31.0775890  39.2388795
  99.8258647  31.0085064  40.2258245 105.3201244  19.7044343  51.8764872
 106.2718667  19.8042441  51.8977096 105.1504694  18.9122611  52.3862956
 103.3415623  16.7899926  52.0624273 102.7465555  17.0704939  51.3670762
 103.0565320  17.2793827  52.8341014 102.4723114  30.7422853  40.8226906
 103.4053787  30.6768415  41.0259781 102.3846326  31.5779120  40.3641438
 105.1011130  30.0588723  37.7830853 105.0224762  29.7248587  38.6766611
 105.9220797  30.5510491  37.7822326 107.7989321  22.9250463  50.9907172
 107.7665642  21.9866463  51.1766856 108.4089945  23.0034499  50.2572997
  99.6372652  21.7946516  37.0334376 100.5831757  21.6652724  37.1022794
  99.2586897  21.0561177  37.5103804 107.9483810  19.7161506  51.0365455
 107.4322859  18.9319963  50.8495384 108.8323758  19.3880223  51.2011974
 105.6094537  13.4602522  46.9961268 105.4119358  13.1517610  47.8804600
 106.2194242  14.1864160  47.1259197 113.6165871  23.9866469  50.1313209
 114.3469260  23.7251758  50.6920912 113.0072817  23.2495191  50.1715277
 111.6981168  22.1274332  50.7287660 110.9714332  21.9930297  50.1204151
 111.2828455  22.4351161  51.5344378  99.5211345  25.8464262  58.4935033
 100.4414354  26.0242861  58.6875079  99.4860928  24.9020307  58.3414732
  97.8215569  19.7196492  36.9689261  96.9147025  19.4229605  37.0451975
  98.0991550  19.4226310  36.1023547  88.7393510  21.0402855  47.4188307
  88.4196294  20.1868164  47.1262681  88.1926938  21.2551433  48.1746275
  92.5173417  23.7565296  51.1357814  92.7359427  24.6882404  51.1545848
  92.9299191  23.3973271  51.9212618  99.4377635  14.2633382  43.1233502
  98.6278364  13.9180467  43.4988748 100.1262052  13.9540925  43.7121114
 101.3668183  13.3411428  44.7457799 101.9199222  13.7606882  45.4047822
 101.6038270  12.4147177  44.7880755  97.3901283  19.3298502  60.5260563
  97.2898010  20.2792859  60.4572654  97.1722825  19.0016741  59.6536633
  96.5914354  16.5783427  37.1101240  97.4533518  16.9038325  37.3697058
  96.7764698  15.7914923  36.5974306  88.6081770  24.6605767  49.3881429
  87.9145241  24.2459720  48.8751383  89.3554761  24.7026303  48.7914848
 104.7446991  15.4511954  44.2536463 104.1645660  16.1096758  43.8714516
 104.4782923  14.6289298  43.8423881 103.1950557  14.8517011  46.4557784
 103.6950335  14.9633546  45.6472102 103.8386165  14.5478064  47.0958592
  97.2532553  22.7595641  59.3425625  96.7699634  23.5596001  59.5489514
  97.3393492  22.7703586  58.3893069  90.5218512  24.5924021  47.2647444
  90.4989200  24.6911708  46.3129327  90.8319149  25.4389171  47.5864610
  93.1805890  26.6500176  51.3794058  94.1349144  26.6184118  51.3123990
  92.9818414  26.1890799  52.1944284  93.7705272  25.2201292  53.9464856
  94.5898161  25.7145370  53.9699693  94.0442080  24.3033260  53.9182423
 103.5271869  17.6112044  43.3092812 102.6397724  17.8961695  43.0913006
 103.9425858  17.4505807  42.4620088 106.8786405  17.6358565  47.0247151
 107.6546795  18.1255017  47.2971768 106.1534539  18.0616619  47.4819020
 109.3158963  18.3486184  48.0821091 109.9103454  18.1081920  47.3714400
 109.3885547  17.6293315  48.7094628  91.5356119  32.1919795  48.3964256
  91.4010587  31.4320196  47.8302254  91.1188181  32.9160695  47.9293045
 102.6715082  27.3756719  37.4040831 103.3750932  27.5806721  38.0198487
 101.9477731  27.9433481  37.6689915 103.5012892  23.1266580  43.5243102
 103.4448094  23.5835131  42.6850734 104.0541235  22.3657265  43.3465944
 107.3117698  18.9156312  44.3493221 107.0554632  18.5152947  45.1801429
 106.6870566  19.6300106  44.2243360 111.6230036  21.6552385  46.8564513
 111.0629594  21.7245574  47.6296075 111.0173539  21.4793370  46.1364009
  94.6925245  33.0889112  48.6082699  94.5757629  34.0334545  48.5061389
  93.8717691  32.7862674  48.9968498 104.5801779  27.8139248  39.4539292
 105.4147383  27.3820446  39.2716766 104.4186122  27.6421262  40.3816186
 104.2347672  24.3171361  40.8195631 104.1796475  24.1515633  39.8784075
 103.6093727  25.0247394  40.9757821  89.0240187  19.5539426  54.6457053
  89.6699050  19.0438380  55.1344278  88.8157338  20.2908107  55.2200478
 101.5493579  26.6220273  60.1449194 102.4184738  26.7960925  59.7835829
 101.0700330  27.4414690  60.0224923  97.5443797  13.8179470  40.3980949
  97.5322467  14.7621310  40.5549220  98.4367219  13.6349616  40.1040410
  95.7179759  33.7417374  51.8238627  96.6207006  33.7740984  52.1405122
  95.4917129  32.8117825  51.8384963  97.4733361  32.4948361  48.4848706
  96.5228992  32.4950222  48.3713078  97.7765847  31.7481095  47.9684741
  93.3637678  16.7007043  58.7432067  94.2269139  16.3443847  58.9535392
  92.7903088  16.3620937  59.4307472 113.2086055  38.3308899  49.5494468
 113.8464464  38.2115646  48.8457808 113.0906897  39.2789743  49.6082420
 110.0175761  38.2836327  49.4855993 109.6794272  38.1677392  48.5976528
 110.8865529  37.8827492  49.4656999 105.8762577  40.1371803  45.4752884
 105.3127442  40.0461740  44.7069172 105.7614972  39.3171708  45.9555376
 110.4995544  39.4371179  55.4442198 110.4884185  39.0423977  54.5722702
 110.6616183  38.7037251  56.0375970 103.4227008  41.6322995  48.3137104
 104.2148300  41.2913820  47.8983404 103.6623659  41.7417970  49.2339258
 111.4562135  43.8042771  40.7867349 110.8050115  44.3896852  40.4001363
 112.2506498  44.3348966  40.8462386 105.3817762  40.8931908  41.1854483
 106.1548638  40.3460895  41.0467359 105.7343161  41.7576158  41.3968945
 107.2202805  42.2208291  54.3921382 106.9292671  43.1253921  54.2768049
 107.8559789  42.2624818  55.1065452 108.1459012  39.5985139  50.9822742
 108.7422584  39.3741162  50.2679705 108.2033983  38.8569885  51.5848190
 107.7184040  37.0524574  38.8172933 107.9709561  36.5306096  38.0556396
 106.7808599  36.8890720  38.9199617 112.7627323  36.0560353  46.6247676
 113.5490412  35.6379776  46.2738093 113.0266027  36.9606445  46.7929325
 112.9337400  41.4933203  41.3236333 112.2983233  41.5667830  42.0357238
 112.6034807  42.0826802  40.6455412 118.1635750  35.9935586  47.5280655
 118.8960922  35.4234803  47.7618484 117.4075106  35.6057186  47.9687160
 107.4380329  38.9552680  41.0197308 107.3216587  38.2797584  41.6878392
 107.5482589  38.4685054  40.2029461 109.7811870  38.4162828  44.7243997
 109.4170077  37.8893448  45.4356919 110.6378986  38.0261297  44.5510483
 115.6861170  29.7057160  51.9875263 115.3544495  30.5752571  51.7636478
 115.0906784  29.3893444  52.6669294 109.4217357  33.4452727  39.7205346
 109.5891759  34.3132964  40.0875817 109.2314526  33.6080009  38.7966635
 112.1792690  41.9069706  51.3871176 111.8793413  42.8094745  51.2786983
 111.8343750  41.6401889  52.2392329 105.6305172  38.3583503  47.4207881
 104.7055668  38.2259717  47.6285572 105.8789585  39.1377722  47.9177823
 115.5789834  34.4252246  49.0668613 114.6706711  34.3567655  48.7727374
 115.5277430  34.9024191  49.8950439 109.4006578  35.9010385  40.7052013
 109.2806203  36.3467435  41.5437493 108.7059166  36.2495702  40.1465551
 102.9913983  38.0016777  48.2551670 103.1206364  38.2551255  49.1691081
 102.3111434  38.5944485  47.9356325 107.1613470  48.6714026  44.3542144
 107.0837500  49.6221852  44.4330624 106.5575113  48.3259899  45.0117070
 109.6530700  35.8441892  57.0103511 108.8764034  36.4035812  57.0006375
 110.2921263  36.3298675  57.5318381 117.4451480  32.6268685  50.8446487
 116.8025860  32.9201218  50.1986282 116.9406409  32.5121605  51.6499684
 115.0991644  36.3731858  41.5332347 116.0109500  36.6059245  41.3580044
 114.5901291  36.9568902  40.9707425 107.9077072  38.6527345  56.5721478
 108.6491756  39.1912389  56.2956301 107.2014057  39.2793634  56.7293030
 113.3832412  40.7956486  55.1693639 113.7915768  40.3538896  54.4248272
 112.6609673  40.2209113  55.4227832 109.7363482  35.7329092  52.5427196
 110.5824677  36.1568506  52.6861845 109.6762119  35.0762717  53.2365759
 113.7061226  41.3557676  48.9245928 113.0770089  41.5203390  48.2221996
 113.3186888  41.7699286  49.6956892 117.5850458  42.2912114  46.2790292
 116.9001496  42.6711016  45.7287325 117.6694307  42.9007441  47.0122240
 112.8862927  33.3933461  54.2008370 112.6423859  34.1475521  53.6642646
 113.1622857  33.7718808  55.0355617 114.8401390  39.9372073  52.8785635
 115.0518285  40.5803833  52.2020017 114.7931138  39.1034390  52.4107566
 112.4427619  32.5489894  49.7822208 111.5812098  32.8471147  50.0738945
 112.4690053  32.7660293  48.8503240 109.2589188  41.0932084  46.1896013
 109.7227534  41.3719787  45.4000636 108.9945986  40.1915529  46.0069104
 106.1513269  40.6403566  49.1275776 106.7214626  41.0690834  48.4893261
 106.7421381  40.3586151  49.8259962 108.1958074  37.2155237  42.9985578
 108.8982117  37.6676280  43.4659505 107.8638703  36.5739056  43.6265471
 106.6438436  35.8066993  57.3736788 106.0137096  36.4883274  57.6072185
 106.5374524  35.6950075  56.4289926 101.9383408  35.4738789  48.3002712
 101.1482462  35.7296318  47.8242823 102.4294655  36.2887127  48.4054752
 115.9547218  42.8144029  51.0507993 116.7764661  42.4124216  50.7690674
 115.9509621  42.7112263  52.0024109 103.8898153  35.8383369  45.2586189
 103.0929317  35.9502063  45.7769684 103.6623746  36.1770021  44.3927079
 109.7203821  42.3628072  53.2068703 109.7848254  42.8248479  54.0426875
 109.0114745  41.7325437  53.3351013 100.2221111  35.7269280  50.7317703
 100.4729149  36.6116290  50.9975279 100.7580659  35.5473881  49.9592795
 109.4351839  44.0296179  43.0747684 109.2997514  44.8747715  43.5032531
 109.9761651  44.2315457  42.3113617 105.9219178  30.1087759  59.7362039
 105.5286124  29.5553958  60.4109683 106.7385319  30.4198338  60.1268556
 102.8881236  41.5471617  43.6475609 103.4005757  42.3414868  43.7981173
 103.5403949  40.8497908  43.5809210 104.6976121  44.6637374  45.7298362
 104.8742749  45.5855338  45.5419346 105.4932954  44.3495793  46.1592742
 108.8387139  31.5245638  57.3282295 109.5796853  32.1252792  57.2486758
 109.0705062  30.7823276  56.7700338 103.9828477  36.7102006  55.6060525
 103.8681993  35.8087263  55.9067624 103.1272995  36.9565702  55.2545342
 111.0620315  44.6519746  57.2048026 110.6184169  43.8656125  56.8868930
 111.7237529  44.8398896  56.5391916 105.8207436  46.1815548  51.7308704
 106.3714861  46.0532611  50.9585698 104.9818912  46.4810437  51.3803597
 113.1601553  44.9322546  55.2329427 113.1420029  45.7531427  54.7409696
 114.0821473  44.8076621  55.4579568 109.6174607  42.4466675  56.0752935
 110.1502944  41.6854964  55.8452243 109.0888688  42.1540327  56.8177090
 112.7844302  27.5526741  51.6046577 112.4408572  28.4428383  51.5285688
 113.1523265  27.3628399  50.7416162 100.8530153  39.8760272  44.4235179
 101.6905375  40.2857280  44.2068887 101.0308421  38.9359714  44.3935373
 112.7494585  37.5435352  40.1119012 112.2341208  38.3139957  40.3507400
 112.4771893  36.8700489  40.7352074 110.3341696  32.3885053  45.1704251
 109.4783292  31.9991904  44.9909889 110.7468648  32.4677014  44.3104036
 111.8640843  29.9231396  49.5695810 111.3605638  29.8861532  48.7563616
 112.1571450  30.8324139  49.6292467 108.1083729  30.0070126  48.5761992
 108.9736725  29.8112935  48.2167882 108.1761237  29.7780478  49.5031349
 117.7228859  40.2967707  42.0472186 116.9458302  39.9578867  41.6027348
 118.4020340  40.3020330  41.3727151 112.5380888  35.4162445  41.9378793
 112.2331024  35.7308594  42.7888937 113.4911330  35.4943864  41.9806126
 110.9827320  41.5752668  43.5871747 110.4548682  40.8405427  43.2744985
 110.4814823  42.3527344  43.3411716 115.9620166  39.7701688  48.7038794
 115.3043841  40.4600950  48.7918922 116.7660565  40.1598120  49.0472780
 105.7146048  32.2372334  45.9478359 106.2889800  32.0147516  45.2151552
 106.3017030  32.3061029  46.7006960 114.7725625  38.1246061  46.7542735
 115.2857507  38.7576053  47.2564445 115.4226849  37.5247257  46.3886095
 106.0415635  34.2676795  39.9674244 105.2052947  34.6051482  40.2883519
 105.9020404  34.1325775  39.0301381 108.0168715  29.1113583  44.6753428
 107.3633128  28.7962600  44.0510043 107.9749190  28.4889323  45.4013251
 109.1279920  39.3932878  36.5906720 108.2206982  39.1622132  36.7897869
 109.6250952  38.5970497  36.7780702 112.0347999  48.1030385  39.5103407
 111.3609698  48.4062082  40.1188364 112.4213821  48.9059466  39.1608864
 111.2506456  35.5995517  49.0001076 110.3329017  35.8210464  48.8422764
 111.6666599  35.6741827  48.1412783 112.0341503  36.9986932  44.1303756
 112.7813322  37.5108329  43.8210878 112.3033093  36.6770985  44.9908150
 110.3068154  39.4945473  41.1130710 109.3979373  39.2104506  41.2103180
 110.3363237  39.9144552  40.2534017 115.5387421  43.1052062  44.8821878
 115.0849748  42.2642972  44.9387068 114.9081388  43.7413461  45.2196658
 114.4820341  34.0344048  46.1122545 113.7443097  33.5221435  46.4432788
 114.7347114  33.5944430  45.3005822 113.9820360  44.9428559  45.8171696
 114.2743335  45.5033616  45.0984062 114.4918981  45.2357120  46.5724855
 114.5831968  26.8120300  46.7064315 114.8890845  25.9517664  46.4190230
 115.3084573  27.4037921  46.5063309 100.8756324  37.2150987  45.0945913
 100.6780724  36.6220348  44.3696979 100.3202988  36.9103197  45.8121851
 108.8553048  37.1074094  47.2140506 108.9101657  36.1547930  47.1382982
 108.0444250  37.2633533  47.6981804 110.0044241  41.0354217  38.4518789
 109.5663671  40.3190076  37.9924426 110.7454682  41.2630331  37.8903880
 106.7945408  35.7251153  44.9730885 105.9813273  36.0245324  45.3796077
 107.2904402  35.3306842  45.6905367 108.9453986  45.7208910  46.9065149
 108.9030164  45.9469757  45.9773681 109.8616684  45.4872285  47.0550951
 112.3919619  36.1892978  53.8045779 112.7469007  36.4164451  54.6640244
 113.0391751  36.5211355  53.1823034 118.1217356  39.3111414  44.5095108
 117.9835255  39.5013010  43.5816297 117.7653575  40.0730796  44.9663159
 106.2859482  33.2969509  50.5892120 106.9258862  33.1558268  49.8915083
 105.4537013  33.0104022  50.2130722 118.1486736  41.3787941  49.5206379
 118.5823243  41.2863230  50.3689433 118.8618317  41.3545441  48.8826395
 107.0619786  42.5971939  46.7027112 107.8560385  42.1022259  46.5009687
 106.3511479  42.0689802  46.3394818 111.8814631  44.9790035  51.0539480
 111.9351653  45.5480971  51.8217196 111.0129412  45.1491920  50.6893517
 103.3702550  36.7415021  42.7786865 102.4400138  36.6799476  42.9956827
 103.4660022  36.2190974  41.9823506 103.2888099  33.2669834  45.3665106
 103.5494916  34.1815167  45.2574267 104.1105271  32.7994276  45.5161719
 104.7613024  34.6807591  52.5363931 105.4336078  34.4724953  51.8876580
 103.9342811  34.4829677  52.0969163 119.0102285  41.4211641  52.0539265
 119.2038176  42.3257452  52.2998539 118.9102904  40.9619060  52.8877850
 110.6638596  31.3069532  54.5529592 110.0166511  32.0059482  54.4594068
 111.4339612  31.7405676  54.9205840 114.0717394  41.5718384  57.6280145
 113.9202901  41.3428936  56.7110229 114.0622074  42.5288985  57.6411490
 110.8402731  39.1450297  52.6126412 111.7694791  39.2961456  52.4395379
 110.4193761  39.2334318  51.7575058 109.6391062  43.1700961  50.3824949
 109.5002148  42.8019746  51.2550887 108.8505659  43.6848601  50.2108907
 110.2339214  48.2710058  41.7250486 110.4090970  47.7998101  42.5396108
 109.5472002  48.8975824  41.9531746 111.1896277  42.5482564  47.7713787
 110.8546110  42.5083334  48.6671437 110.6900223  41.8827280  47.2984197
 105.1640521  37.9550194  53.2966368 105.0260319  37.2230433  53.8977907
 106.0745445  37.8659094  53.0150556 114.1255469  39.8938598  38.0450847
 113.5084640  39.1685426  37.9483899 113.6571958  40.6547959  37.7017921
 107.7922822  37.6670153  52.7850048 108.5022441  37.0263345  52.7436666
 107.7492130  37.9183048  53.7076229 115.7809601  44.6037507  55.7056627
 115.7222147  43.9196727  55.0387210 116.1829119  45.3456497  55.2537253
 106.5051756  34.6535371  54.6045687 105.9689113  34.2026110  55.2567284
 105.9168464  34.7881280  53.8616152 104.8000300  51.4199420  48.4990346
 105.0396898  52.0517945  49.1769364 103.9569496  51.0687460  48.7855705
 105.9154015  34.1124023  37.1672151 105.0383481  33.9912823  36.8034398
 106.3911768  33.3210101  36.9151040 115.7827008  42.5677091  53.9370607
 114.8953787  42.2303012  54.0597006 116.3525559  41.8360122  54.1739372
  97.4356155  38.9001182  47.2613658  98.1227195  38.5862912  46.6734673
  97.2804284  39.8042547  46.9880909 102.2390877  33.7891379  51.6898682
 102.1549066  33.1817048  50.9549092 101.4173584  34.2800397  51.6908178
 109.3128161  47.2278543  50.9031850 109.2398333  48.0333514  51.4151154
 108.8705555  47.4270509  50.0779871 109.1017941  46.4650313  44.4134671
 108.3185463  47.0071993  44.5072896 109.8010686  46.9824293  44.8128913
 112.4114591  32.2744942  47.0568877 112.9083291  31.5214905  46.7369947
 111.6401573  32.3109259  46.4912086 120.2644349  37.9785308  48.6987168
 120.2534225  38.8610023  48.3281101 119.3961728  37.6256859  48.5041705
 111.7726845  47.1265377  53.0590009 112.4854817  47.7612842  52.9865910
 111.2816874  47.2229243  52.2430010 113.4944372  41.0316630  44.6307300
 112.5600651  41.1518092  44.4612005 113.6721040  40.1289096  44.3667310
 108.9949560  34.4162325  46.7840561 108.6247347  33.8633366  47.4721467
 109.4908652  33.8120459  46.2315561 116.8816923  36.8733949  45.1657334
 117.3477375  37.7061940  45.0917637 117.3324424  36.4078930  45.8702593
 106.8238758  44.8759820  53.8795579 107.5248218  45.5096303  54.0324974
 106.3533873  45.2174552  53.1191219 114.9493154  43.2177770  42.1643486
 115.2252998  43.1034365  43.0737360 114.0797653  42.8195255  42.1255659
 114.8533586  29.2414536  49.2048236 113.9396666  29.4718763  49.3730443
 115.2826687  29.3252980  50.0562268 114.6240044  37.4304428  51.7048130
 113.9711495  37.6780335  51.0500582 115.0020424  36.6168566  51.3710607
 111.5847218  47.4664121  45.8076300 111.7669613  46.6485777  46.2704052
 112.4080204  47.6831813  45.3701190 111.9189384  46.3932306  43.0691348
 112.4477150  45.8824761  42.4561511 112.1817603  46.0774836  43.9336881
 110.6727617  38.1724239  58.1914167 109.9968254  38.0718368  58.8616542
 111.4955251  38.0163453  58.6550164 102.4206477  44.4096175  50.8126682
 103.0059913  43.6639863  50.9454586 102.2231315  44.7200132  51.6963346
 105.2745132  47.4447423  45.8289124 104.6055507  47.9293550  45.3453164
 105.1358001  47.6916643  46.7432503  97.0124131  36.9801776  49.5331125
  97.0508231  36.4465366  50.3268243  96.5064424  36.4536981  48.9142102
 109.4150400  49.4791166  52.4271783 109.9668708  49.6422788  53.1920868
 109.7556594  50.0695604  51.7551808 104.3914894  31.8266316  53.0293667
 104.4556220  32.6881147  52.6171065 104.3282014  31.2140318  52.2966026
 103.8667166  33.8989449  56.6766702 104.4939205  33.5166526  57.2904226
 103.0095085  33.6803651  57.0422394 114.2661275  44.3052424  58.2820437
 114.8101179  44.9182382  57.7875392 113.6848120  44.8632002  58.7987450
 100.6432709  35.7065878  42.6085057 100.9386150  34.7976556  42.5552110
  99.7420745  35.6853617  42.2866059 112.5518788  47.4273142  49.4135465
 112.4269927  46.6262882  48.9046410 113.2097879  47.9219335  48.9249435
 104.1726956  33.7821874  48.5912605 103.4513542  34.3957842  48.4520078
 104.9620212  34.3179639  48.5129251 114.6153696  45.2282162  51.0415015
 113.6684032  45.1087513  50.9693342 114.9636469  44.3404660  51.1241276
 106.9753269  31.1176301  54.8653257 107.4987671  31.3638597  55.6279566
 106.7565603  31.9496336  54.4456394 102.3720550  33.3879975  42.7324382
 102.0433257  32.5077354  42.5499488 102.7259921  33.3327644  43.6200771
 111.6200129  45.0234878  47.2419367 111.4725092  44.0951586  47.4226937
 112.4453623  45.0454969  46.7576442 105.4862374  33.6752945  43.0999859
 105.8258446  34.2038867  42.3778468 105.9334494  34.0133351  43.8758426
 115.2234251  45.8463437  48.3284240 116.1480799  45.6406298  48.1908691
 115.0549555  45.5979838  49.2373581 108.1805814  32.0589996  52.5502927
 107.8402635  31.2597809  52.9523607 107.4744821  32.3591707  51.9779761
 108.8322286  29.1439308  51.0030250 109.6548356  28.6699787  50.8809141
 109.0760350  29.9229792  51.5028937 107.4730521  32.1727567  41.2993152
 108.1938883  32.5508820  40.7956869 106.8495825  32.8916444  41.4028130
 111.6161644  32.8772716  42.2351484 111.8325258  33.7597354  41.9340313
 111.1355711  32.4858929  41.5057126 106.3560865  35.8358429  48.8122229
 106.2105446  36.1498732  49.7046511 105.8786069  36.4543329  48.2593128
 108.2157248  32.8260977  48.8603119 108.2018817  31.9302070  48.5235417
 108.9329676  32.8331641  49.4941405 110.0683379  33.2598317  50.9056246
 109.8101156  34.1815388  50.9040576 109.5368419  32.8628752  51.5956710
 115.0129567  46.3649104  43.6846331 115.1866445  45.7995527  42.9320184
 115.5058459  47.1649999  43.5025821 100.8306527  38.3763773  51.7509890
 100.2859995  39.1523581  51.8830165 101.7085877  38.7234578  51.5929012
 107.6194144  31.7075357  44.1290689 107.7410055  30.7792004  44.3281576
 107.3296186  31.7214043  43.2169004 110.4885334  29.3930268  47.2657409
 110.5107031  29.4569601  46.3109388 110.9053393  28.5534776  47.4597915
 120.8668959  39.1285527  45.3036631 121.3100105  38.3792853  44.9055754
 119.9895469  39.1195664  44.9210363 116.0004740  45.6815869  40.7843230
 116.6955644  46.3022561  41.0030544 116.3427890  44.8311220  41.0595608
 101.6172549  37.5033670  54.6440047 100.8754285  37.6516305  55.2304678
 101.2965293  37.7641935  53.7806797 117.8996163  43.1315574  42.3130560
 118.4247487  43.4702847  41.5879881 117.8118516  42.1962590  42.1293695
 109.5616212  47.0449648  54.4420437 109.8703338  46.7998795  55.3143137
 110.3591694  47.2496286  53.9539307 109.5836824  49.1987558  46.6725814
 109.1441814  48.7063936  47.3658670 110.3344941  48.6560525  46.4317889
 102.0629163  45.3899098  46.6750442 102.8887183  45.0902870  46.2949085
 101.7123215  44.6206721  47.1240230 107.0310696  44.7425567  48.7448115
 106.4090705  44.0796272  48.4450343 107.7015563  44.7686699  48.0621763
 100.2637768  43.3085425  47.6339375  99.4269676  42.8807599  47.4523377
 100.2361413  43.5017868  48.5710167 107.1035223  33.2207355  58.3380621
 107.1523379  34.0969478  57.9558391 107.6457738  32.6784748  57.7652265
 117.5890069  43.7648478  57.6181758 116.7985613  43.7472617  57.0786258
 117.3523424  44.3036772  58.3730795 117.7087944  40.6140944  54.9314487
 117.7585949  40.4490952  55.8730010 117.6001867  39.7468203  54.5412368
 106.5924203  43.2929490  42.2206576 106.7412323  43.9764954  41.5673249
 107.3990646  43.2734580  42.7356032 114.9991706  36.5971872  56.2473794
 115.9001569  36.4578337  55.9557792 115.0739681  36.7626327  57.1871971
 109.3334512  33.9738727  55.0926980 108.4637821  34.2672293  54.8209569
 109.5693992  34.5579172  55.8134244 119.2106141  43.0337886  55.1756509
 118.9190949  43.3967866  56.0119970 118.5978272  42.3204894  54.9969841
 120.4101823  40.5990766  47.6959079 121.2448715  41.0380570  47.8596639
 120.5460952  40.1229419  46.8767325 117.4593329  38.1570500  53.6436567
 117.9347451  38.3498147  52.8355418 116.5358895  38.2129686  53.3979950
 104.3476836  39.3194668  43.2267645 104.1022878  38.4156998  43.4247855
 104.5172750  39.3211818  42.2847123 112.0373546  30.1918344  52.6092400
 112.5555489  30.9279371  52.2838889 111.6828678  30.4982337  53.4439160
 103.6172483  35.0523025  40.7253806 102.9241728  35.1267380  40.0693842
 103.3724235  34.2883369  41.2475323 112.2886140  26.6118627  48.1293297
 112.5687894  25.9441816  48.7553724 113.0736747  26.8047722  47.6167961
 110.0919608  45.7877620  39.6918323 109.5193575  46.4067808  39.2388795
 110.6652402  46.3376982  40.2258245 116.1594998  35.0336261  51.8764872
 117.1112421  35.1334358  51.8977096 115.9898449  34.2414529  52.3862956
 114.1809378  32.1191844  52.0624273 113.5859310  32.3996856  51.3670762
 113.8959074  32.6085745  52.8341014 113.3116868  46.0714771  40.8226906
 114.2447541  46.0060332  41.0259781 113.2240081  46.9071037  40.3641438
 115.9404885  45.3880641  37.7830853 115.8618516  45.0540505  38.6766611
 116.7614552  45.8802409  37.7822326 118.6383076  38.2542380  50.9907172
 118.6059396  37.3158381  51.1766856 119.2483700  38.3326417  50.2572997
 110.4766407  37.1238433  37.0334376 111.4225512  36.9944641  37.1022794
 110.0980652  36.3853095  37.5103804 118.7877564  35.0453424  51.0365455
 118.2716613  34.2611880  50.8495384 119.6717513  34.7172140  51.2011974
 116.4488291  28.7894439  46.9961268 116.2513112  28.4809527  47.8804600
 117.0587997  29.5156078  47.1259197 110.3605099  41.1756179  58.4935033
 111.2808109  41.3534778  58.6875079 110.3254682  40.2312225  58.3414732
 108.6609324  35.0488410  36.9689261 107.7540779  34.7521522  37.0451975
 108.9385305  34.7518228  36.1023547  99.5787264  36.3694773  47.4188307
  99.2590049  35.5160081  47.1262681  99.0320693  36.5843351  48.1746275
 103.3567172  39.0857214  51.1357814 103.5753182  40.0174322  51.1545848
 103.7692946  38.7265188  51.9212618 110.2771390  29.5925299  43.1233502
 109.4672118  29.2472384  43.4988748 110.9655807  29.2832843  43.7121114
 112.2061938  28.6703346  44.7457799 112.7592977  29.0898800  45.4047822
 112.4432024  27.7439094  44.7880755 108.2295037  34.6590420  60.5260563
 108.1291764  35.6084777  60.4572654 108.0116579  34.3308659  59.6536633
 107.4308109  31.9075345  37.1101240 108.2927273  32.2330243  37.3697058
 107.6158453  31.1206841  36.5974306  99.4475524  39.9897684  49.3881429
  98.7538996  39.5751637  48.8751383 100.1948515  40.0318221  48.7914848
 115.5840745  30.7803871  44.2536463 115.0039414  31.4388675  43.8714516
 115.3176678  29.9581216  43.8423881 114.0344311  30.1808929  46.4557784
 114.5344090  30.2925464  45.6472102 114.6779919  29.8769982  47.0958592
 108.0926307  38.0887559  59.3425625 107.6093389  38.8887919  59.5489514
 108.1787246  38.0995503  58.3893069 101.3612267  39.9215938  47.2647444
 101.3382955  40.0203626  46.3129327 101.6712903  40.7681089  47.5864610
 104.0199645  41.9792093  51.3794058 104.9742898  41.9476036  51.3123990
 103.8212168  41.5182717  52.1944284 104.6099027  40.5493209  53.9464856
 105.4291916  41.0437288  53.9699693 104.8835835  39.6325177  53.9182423
 114.3665623  32.9403962  43.3092812 113.4791478  33.2253612  43.0913006
 114.7819612  32.7797725  42.4620088 117.7180159  32.9650483  47.0247151
 118.4940549  33.4546935  47.2971768 116.9928293  33.3908537  47.4819020
 120.1552718  33.6778102  48.0821091 120.7497209  33.4373838  47.3714400
 120.2279302  32.9585232  48.7094628 102.3749874  47.5211713  48.3964256
 102.2404341  46.7612114  47.8302254 101.9581936  48.2452613  47.9293045
 113.5108837  42.7048636  37.4040831 114.2144687  42.9098639  38.0198487
 112.7871485  43.2725398  37.6689915 114.3406647  38.4558498  43.5243102
 114.2841848  38.9127049  42.6850734 114.8934989  37.6949182  43.3465944
 118.1511453  34.2448229  44.3493221 117.8948387  33.8444865  45.1801429
 117.5264321  34.9592023  44.2243360 105.5318999  48.4181030  48.6082699
 105.4151384  49.3626462  48.5061389 104.7111446  48.1154591  48.9968498
 115.4195534  43.1431166  39.4539292 116.2541138  42.7112364  39.2716766
 115.2579877  42.9713179  40.3816186 115.0741426  39.6463279  40.8195631
 115.0190230  39.4807550  39.8784075 114.4487481  40.3539312  40.9757821
  99.8633941  34.8831343  54.6457053 100.5092805  34.3730297  55.1344278
  99.6551092  35.6200025  55.2200478 112.3887333  41.9512191  60.1449194
 113.2578493  42.1252843  59.7835829 111.9094085  42.7706608  60.0224923
 108.3837552  29.1471388  40.3980949 108.3716221  30.0913228  40.5549220
 109.2760973  28.9641533  40.1040410 106.5573514  49.0709292  51.8238627
 107.4600760  49.1032902  52.1405122 106.3310884  48.1409743  51.8384963
 108.3127116  47.8240278  48.4848706 107.3622747  47.8242140  48.3713078
 108.6159602  47.0773013  47.9684741 112.1989671  25.7414164  44.6526886
 111.4322067  25.1872651  44.7983568 112.6100376  25.8136033  45.5141038
 104.2031432  32.0298960  58.7432067 105.0662894  31.6735765  58.9535392
 103.6296843  31.6912855  59.4307472 120.8569515  53.6128245  49.4855993
 120.5188027  53.4969309  48.5976528 121.7259284  53.2119410  49.4656999
 116.7156331  55.4663721  45.4752884 116.1521196  55.3753658  44.7069172
 116.6008726  54.6463626  45.9555376 121.3389298  54.7663096  55.4442198
 121.3277939  54.3715895  54.5722702 121.5009938  54.0329169  56.0375970
 114.2620763  56.9614913  48.3137104 115.0542055  56.6205737  47.8983404
 114.5017413  57.0709888  49.2339258 116.2211517  56.2223826  41.1854483
 116.9942393  55.6752813  41.0467359 116.5736916  57.0868075  41.3968945
 118.0596559  57.5500208  54.3921382 117.7686425  58.4545839  54.2768049
 118.6953544  57.5916736  55.1065452 118.9852766  54.9277057  50.9822742
 119.5816339  54.7033079  50.2679705 119.0427738  54.1861802  51.5848190
 118.5577795  52.3816492  38.8172933 118.8103315  51.8598013  38.0556396
 117.6202354  52.2182638  38.9199617 118.2774083  54.2844598  41.0197308
 118.1610342  53.6089501  41.6878392 118.3876343  53.7976972  40.2029461
 120.6205624  53.7454745  44.7243997 120.2563832  53.2185366  45.4356919
 121.4772740  53.3553214  44.5510483 120.2611111  48.7744645  39.7205346
 120.4285514  49.6424881  40.0875817 120.0708280  48.9371927  38.7966635
 116.4698926  53.6875421  47.4207881 115.5449422  53.5551635  47.6285572
 116.7183339  54.4669640  47.9177823 120.2400332  51.2302302  40.7052013
 120.1199957  51.6759353  41.5437493 119.5452921  51.5787620  40.1465551
 113.8307737  53.3308694  48.2551670 113.9600118  53.5843173  49.1691081
 113.1505188  53.9236402  47.9356325 118.0007224  64.0005944  44.3542144
 117.9231254  64.9513769  44.4330624 117.3968868  63.6551817  45.0117070
 120.4924454  51.1733810  57.0103511 119.7157788  51.7327730  57.0006375
 121.1315017  51.6590593  57.5318381 118.7470826  53.9819263  56.5721478
 119.4885511  54.5204307  56.2956301 118.0407812  54.6085552  56.7293030
 120.5757236  51.0621010  52.5427196 121.4218431  51.4860424  52.6861845
 120.5155874  50.4054634  53.2365759 120.0982943  56.4224002  46.1896013
 120.5621288  56.7011705  45.4000636 119.8339741  55.5207447  46.0069104
 116.9907024  55.9695484  49.1275776 117.5608381  56.3982752  48.4893261
 117.5815135  55.6878068  49.8259962 119.0351829  52.5447154  42.9985578
 119.7375872  52.9968198  43.4659505 118.7032457  51.9030973  43.6265471
 117.4832190  51.1358911  57.3736788 116.8530851  51.8175192  57.6072185
 117.3768278  51.0241993  56.4289926 112.7777163  50.8030707  48.3002712
 111.9876217  51.0588236  47.8242823 113.2688410  51.6179045  48.4054752
 114.7291908  51.1675286  45.2586189 113.9323071  51.2793981  45.7769684
 114.5017500  51.5061939  44.3927079 120.5597576  57.6919990  53.2068703
 120.6242008  58.1540397  54.0426875 119.8508499  57.0617355  53.3351013
 111.0614866  51.0561198  50.7317703 111.3122904  51.9408208  50.9975279
 111.5974414  50.8765799  49.9592795 120.2745593  59.3588097  43.0747684
 120.1391268  60.2039633  43.5032531 120.8155406  59.5607375  42.3113617
 116.7612933  45.4379677  59.7362039 116.3679878  44.8845876  60.4109683
 117.5779073  45.7490255  60.1268556 113.7274991  56.8763535  43.6475609
 114.2399511  57.6706785  43.7981173 114.3797703  56.1789826  43.5809210
 115.5369875  59.9929291  45.7298362 115.7136504  60.9147256  45.5419346
 116.3326709  59.6787711  46.1592742 119.6780894  46.8537556  57.3282295
 120.4190607  47.4544709  57.2486758 119.9098817  46.1115194  56.7700338
 114.8222232  52.0393923  55.6060525 114.7075747  51.1379181  55.9067624
 113.9666750  52.2857620  55.2545342 116.6601191  61.5107465  51.7308704
 117.2108616  61.3824529  50.9585698 115.8212667  61.8102354  51.3803597
 120.4568362  57.7758593  56.0752935 120.9896699  57.0146881  55.8452243
 119.9282443  57.4832245  56.8177090 111.6923907  55.2052189  44.4235179
 112.5299129  55.6149198  44.2068887 111.8702175  54.2651632  44.3935373
 121.1735451  47.7176971  45.1704251 120.3177047  47.3283821  44.9909889
 121.5862402  47.7968932  44.3104036 118.9477483  45.3362044  48.5761992
 119.8130480  45.1404853  48.2167882 119.0154992  45.1072396  49.5031349
 121.8221075  56.9044586  43.5871747 121.2942436  56.1697345  43.2744985
 121.3208577  57.6819262  43.3411716 116.5539802  47.5664252  45.9478359
 117.1283554  47.3439433  45.2151552 117.1410785  47.6352946  46.7006960
 116.8809389  49.5968713  39.9674244 116.0446702  49.9343399  40.2883519
 116.7414159  49.4617693  39.0301381 118.8562470  44.4405501  44.6753428
 118.2026882  44.1254518  44.0510043 118.8142944  43.8181241  45.4013251
 119.9673675  54.7224796  36.5906720 119.0600736  54.4914049  36.7897869
 120.4644707  53.9262415  36.7780702 121.1461908  54.8237391  41.1130710
 120.2373127  54.5396423  41.2103180 121.1756992  55.2436469  40.2534017
 111.7150079  52.5442905  45.0945913 111.5174478  51.9512265  44.3696979
 111.1596743  52.2395115  45.8121851 119.6946802  52.4366011  47.2140506
 119.7495412  51.4839848  47.1382982 118.8838004  52.5925450  47.6981804
 120.8437996  56.3646134  38.4518789 120.4057426  55.6481993  37.9924426
 121.5848437  56.5922249  37.8903880 117.6339162  51.0543071  44.9730885
 116.8207028  51.3537242  45.3796077 118.1298156  50.6598760  45.6905367
 119.7847740  61.0500828  46.9065149 119.7423919  61.2761674  45.9773681
 120.7010439  60.8164203  47.0550951 117.1253237  48.6261427  50.5892120
 117.7652616  48.4850186  49.8915083 116.2930767  48.3395940  50.2130722
 117.9013541  57.9263857  46.7027112 118.6954139  57.4314177  46.5009687
 117.1905233  57.3981720  46.3394818 114.2096304  52.0706939  42.7786865
 113.2793892  52.0091394  42.9956827 114.3053776  51.5482891  41.9823506
 114.1281853  48.5961751  45.3665106 114.3888671  49.5107085  45.2574267
 114.9499026  48.1286194  45.5161719 115.6006779  50.0099509  52.5363931
 116.2729832  49.8016871  51.8876580 114.7736565  49.8121595  52.0969163
 121.5032351  46.6361450  54.5529592 120.8560266  47.3351399  54.4594068
 122.2733366  47.0697594  54.9205840 120.4784817  58.4992879  50.3824949
 120.3395902  58.1311663  51.2550887 119.6899413  59.0140518  50.2108907
 121.0732969  63.6001975  41.7250486 121.2484724  63.1290019  42.5396108
 120.3865757  64.2267742  41.9531746 122.0290032  57.8774482  47.7713787
 121.6939865  57.8375252  48.6671437 121.5293978  57.2119198  47.2984197
 116.0034276  53.2842112  53.2966368 115.8654074  52.5522350  53.8977907
 116.9139199  53.1951012  53.0150556 118.6316577  52.9962071  52.7850048
 119.3416195  52.3555263  52.7436666 118.5885885  53.2474966  53.7076229
 117.3445511  49.9827289  54.6045687 116.8082868  49.5318027  55.2567284
 116.7562219  50.1173198  53.8616152 115.6394054  66.7491338  48.4990346
 115.8790652  67.3809862  49.1769364 114.7963251  66.3979378  48.7855705
 116.7547769  49.4415940  37.1672151 115.8777236  49.3204741  36.8034398
 117.2305523  48.6502019  36.9151040 108.2749910  54.2293100  47.2613658
 108.9620949  53.9154830  46.6734673 108.1198038  55.1334465  46.9880909
 113.0784632  49.1183297  51.6898682 112.9942821  48.5108966  50.9549092
 112.2567338  49.6092315  51.6908178 120.1521916  62.5570461  50.9031850
 120.0792087  63.3625432  51.4151154 119.7099309  62.7562426  50.0779871
 119.9411696  61.7942231  44.4134671 119.1579217  62.3363911  44.5072896
 120.6404441  62.3116210  44.8128913 119.8343314  49.7454243  46.7840561
 119.4641102  49.1925283  47.4721467 120.3302407  49.1412377  46.2315561
 117.6632513  60.2051738  53.8795579 118.3641972  60.8388221  54.0324974
 117.1927628  60.5466470  53.1191219 121.5121372  53.5016157  58.1914167
 120.8362009  53.4010286  58.8616542 122.3349006  53.3455370  58.6550164
 113.2600231  59.7388093  50.8126682 113.8453668  58.9931781  50.9454586
 113.0625069  60.0492050  51.6963346 116.1138886  62.7739341  45.8289124
 115.4449262  63.2585468  45.3453164 115.9751756  63.0208561  46.7432503
 107.8517886  52.3093693  49.5331125 107.8901985  51.7757284  50.3268243
 107.3458179  51.7828899  48.9142102 120.2544155  64.8083084  52.4271783
 120.8062463  64.9714706  53.1920868 120.5950348  65.3987522  51.7551808
 115.2308648  47.1558234  53.0293667 115.2949975  48.0173065  52.6171065
 115.1675768  46.5432236  52.2966026 114.7060921  49.2281366  56.6766702
 115.3332959  48.8458444  57.2904226 113.8488839  49.0095568  57.0422394
 111.4826463  51.0357796  42.6085057 111.7779904  50.1268474  42.5552110
 110.5814499  51.0145535  42.2866059 115.0120710  49.1113792  48.5912605
 114.2907296  49.7249760  48.4520078 115.8013966  49.6471557  48.5129251
 117.8147024  46.4468219  54.8653257 118.3381426  46.6930515  55.6279566
 117.5959357  47.2788253  54.4456394 113.2114305  48.7171893  42.7324382
 112.8827011  47.8369272  42.5499488 113.5653676  48.6619562  43.6200771
 116.3256128  49.0044863  43.0999859 116.6652201  49.5330784  42.3778468
 116.7728249  49.3425269  43.8758426 119.0199569  47.3881914  52.5502927
 118.6796389  46.5889727  52.9523607 118.3138575  47.6883625  51.9779761
 119.6716041  44.4731226  51.0030250 120.4942110  43.9991704  50.8809141
 119.9154104  45.2521710  51.5028937 118.3124275  47.5019485  41.2993152
 119.0332638  47.8800737  40.7956869 117.6889579  48.2208361  41.4028130
 117.1954619  51.1650347  48.8122229 117.0499200  51.4790650  49.7046511
 116.7179823  51.7835247  48.2593128 119.0551002  48.1552895  48.8603119
 119.0412571  47.2593988  48.5235417 119.7723430  48.1623558  49.4941405
 120.9077133  48.5890235  50.9056246 120.6494911  49.5107306  50.9040576
 120.3762173  48.1920669  51.5956710 111.6700282  53.7055691  51.7509890
 111.1253750  54.4815499  51.8830165 112.5479632  54.0526496  51.5929012
 118.4587898  47.0367275  44.1290689 118.5803809  46.1083921  44.3281576
 118.1689941  47.0505961  43.2169004 121.3279089  44.7222185  47.2657409
 121.3500786  44.7861519  46.3109388 121.7447148  43.8826694  47.4597915
 112.4566304  52.8325587  54.6440047 111.7148040  52.9808223  55.2304678
 112.1359048  53.0933853  53.7806797 120.4009966  62.3741566  54.4420437
 120.7097093  62.1290712  55.3143137 121.1985448  62.5788204  53.9539307
 120.4230578  64.5279475  46.6725814 119.9835568  64.0355854  47.3658670
 121.1738695  63.9852443  46.4317889 112.9022917  60.7191016  46.6750442
 113.7280937  60.4194788  46.2949085 112.5516969  59.9498639  47.1240230
 117.8704450  60.0717484  48.7448115 117.2484460  59.4088189  48.4450343
 118.5409317  60.0978616  48.0621763 111.1031522  58.6377343  47.6339375
 110.2663431  58.2099517  47.4523377 111.0755168  58.8309786  48.5710167
 117.9428978  48.5499272  58.3380621 117.9917133  49.4261395  57.9558391
 118.4851492  48.0076665  57.7652265 117.4317957  58.6221408  42.2206576
 117.5806078  59.3056872  41.5673249 118.2384401  58.6026498  42.7356032
 120.1728266  49.3030645  55.0926980 119.3031576  49.5964211  54.8209569
 120.4087747  49.8871090  55.8134244 115.1870590  54.6486585  43.2267645
 114.9416632  53.7448915  43.4247855 115.3566505  54.6503736  42.2847123
 114.4566238  50.3814943  40.7253806 113.7635483  50.4559298  40.0693842
 114.2117990  49.6175287  41.2475323 120.9313363  61.1169538  39.6918323
 120.3587330  61.7359725  39.2388795 121.5046156  61.6668900  40.2258245
 121.3160161  52.4530351  37.0334376 122.2619266  52.3236559  37.1022794
 120.9374406  51.7145013  37.5103804 121.1998854  56.5048097  58.4935033
 122.1201863  56.6826696  58.6875079 121.1648437  55.5604142  58.3414732
 119.5003078  50.3780327  36.9689261 118.5934534  50.0813440  37.0451975
 119.7779059  50.0810145  36.1023547 110.4181019  51.6986691  47.4188307
 110.0983803  50.8451999  47.1262681 109.8714447  51.9135269  48.1746275
 114.1960926  54.4149132  51.1357814 114.4146936  55.3466240  51.1545848
 114.6086700  54.0557106  51.9212618 121.1165144  44.9217217  43.1233502
 120.3065872  44.5764302  43.4988748 121.8049561  44.6124761  43.7121114
 119.0688792  49.9882337  60.5260563 118.9685519  50.9376694  60.4572654
 118.8510334  49.6600576  59.6536633 118.2701863  47.2367263  37.1101240
 119.1321027  47.5622161  37.3697058 118.4552207  46.4498758  36.5974306
 110.2869279  55.3189602  49.3881429 109.5932750  54.9043555  48.8751383
 111.0342270  55.3610139  48.7914848 118.9320062  53.4179476  59.3425625
 118.4487143  54.2179836  59.5489514 119.0181001  53.4287421  58.3893069
 112.2006021  55.2507856  47.2647444 112.1776709  55.3495543  46.3129327
 112.5106658  56.0973007  47.5864610 114.8593399  57.3084011  51.3794058
 115.8136653  57.2767953  51.3123990 114.6605923  56.8474635  52.1944284
 115.4492781  55.8785127  53.9464856 116.2685670  56.3729206  53.9699693
 115.7229589  54.9617095  53.9182423 113.2143628  62.8503630  48.3964256
 113.0798096  62.0904031  47.8302254 112.7975690  63.5744530  47.9293045
 116.3712754  63.7472948  48.6082699 116.2545138  64.6918380  48.5061389
 115.5505200  63.4446509  48.9968498 110.7027696  50.2123261  54.6457053
 111.3486559  49.7022215  55.1344278 110.4944847  50.9491943  55.2200478
 119.2231306  44.4763306  40.3980949 119.2109976  45.4205145  40.5549220
 120.1154728  44.2933451  40.1040410 117.3967268  64.4001209  51.8238627
 118.2994515  64.4324820  52.1405122 117.1704638  63.4701660  51.8384963
 119.1520870  63.1532196  48.4848706 118.2016501  63.1534058  48.3713078
 119.4553356  62.4064931  47.9684741 115.0425187  47.3590878  58.7432067
 115.9056648  47.0027683  58.9535392 114.4690597  47.0204773  59.4307472
 121.9008620  66.3853115  50.7317703 122.1516658  67.2700125  50.9975279
 122.4368168  66.2057717  49.9592795 119.1143664  69.5585018  47.2613658
 119.8014704  69.2446748  46.6734673 118.9591793  70.4626382  46.9880909
 118.6911640  67.6385611  49.5331125 118.7295740  67.1049202  50.3268243
 118.1851933  67.1120817  48.9142102 121.9425277  73.9669260  47.6339375
 121.1057185  73.5391435  47.4523377 121.9148922  74.1601704  48.5710167
 121.2574773  67.0278608  47.4188307 120.9377558  66.1743917  47.1262681
 120.7108201  67.2427187  48.1746275 121.1263033  70.6481520  49.3881429
 120.4326505  70.2335473  48.8751383 121.8736024  70.6902056  48.7914848
 121.5421450  65.5415179  54.6457053 122.1880314  65.0314133  55.1344278
 121.3338601  66.2783860  55.2200478  96.3219717  10.3484231  31.0787451
  96.2443746  11.2992056  31.1575931  95.7181360  10.0030104  31.7362377
  93.9606546  13.0969625  35.2235653  94.2003145  13.7288150  35.9014671
  93.1175743  12.7457665  35.5101012  94.4351379   9.1217628  32.5534431
  93.7661754   9.6063755  32.0698471  94.2964248   9.3686848  33.4677810
  98.5756647  11.1561371  39.1517089  99.1274955  11.3192993  39.9166175
  98.9162841  11.7465809  38.4797114  98.7443070  10.8757763  33.3971120
  98.3048061  10.3834141  34.0903977  99.4951187  10.3330730  33.1563196
  91.5356120   9.1981918  35.1209563  91.4010588   8.4382319  34.5547561
  91.1188183   9.9222818  34.6538352  94.6925246  10.0951235  35.3328005
  94.5757630  11.0396667  35.2306696  93.8717692   9.7924796  35.7213805
  95.7179760  10.7479497  38.5483934  96.6207007  10.7803107  38.8650429
  95.4917130   9.8179948  38.5630270 110.0175762  15.2898450  36.2101300
 109.6794274  15.1739514  35.3221834 110.8865530  14.8889615  36.1902306
 105.8762578  17.1433926  32.1998191 105.3127443  17.0523863  31.4314478
 105.7614973  16.3233831  32.6800683 110.4995545  16.4433301  42.1687505
 110.4884186  16.0486100  41.2968009 110.6616185  15.7099374  42.7621277
 103.4227010  18.6385118  35.0382411 104.2148302  18.2975942  34.6228710
 103.6623660  18.7480093  35.9584564 111.4562137  20.8104894  27.5112655
 110.8050116  21.3958974  27.1246669 112.2506499  21.3411089  27.5707693
 105.3817764  17.8994031  27.9099790 106.1548640  17.3523018  27.7712666
 105.7343163  18.7638280  28.1214251 107.2202806  19.2270413  41.1166689
 106.9292672  20.1316044  41.0013355 107.8559791  19.2686941  41.8310759
 108.1459013  16.6047262  37.7068049 108.7422585  16.3803284  36.9925012
 108.2033985  15.8632007  38.3093497 107.4380330  15.9614803  27.7442615
 107.3216588  15.2859706  28.4123699 107.5482590  15.4747177  26.9274768
 109.7811871  15.4224950  31.4489304 109.4170078  14.8955571  32.1602225
 110.6378987  15.0323419  31.2755789 112.1792691  18.9131829  38.1116483
 111.8793414  19.8156868  38.0032290 111.8343751  18.6464012  38.9637636
 105.6305173  15.3645626  34.1453187 104.7055669  15.2321840  34.3530879
 105.8789586  16.1439845  34.6423130 102.9913984  15.0078899  34.9796976
 103.1206365  15.2613378  35.8936388 102.3111435  15.6006607  34.6601631
 107.1613471  25.6776149  31.0787451 107.0837501  26.6283974  31.1575931
 106.5575115  25.3322022  31.7362377 107.9077073  15.6589468  43.2966784
 108.6491758  16.1974512  43.0201608 107.2014059  16.2855757  43.4538336
 113.3832413  17.8018608  41.8938946 113.7915769  17.3601019  41.1493578
 112.6609674  17.2271236  42.1473139 113.7061227  18.3619799  35.6491235
 113.0770090  18.5265513  34.9467303 113.3186890  18.7761409  36.4202199
 117.5850459  19.2974237  33.0035599 116.9001498  19.6773138  32.4532632
 117.6694309  19.9069563  33.7367546 114.8401391  16.9434196  39.6030942
 115.0518286  17.5865956  38.9265323 114.7931139  16.1096512  39.1352872
 109.2589189  18.0994207  32.9141320 109.7227535  18.3781910  32.1245942
 108.9945987  17.1977652  32.7314411 106.1513270  17.6465689  35.8521083
 106.7214627  18.0752957  35.2138568 106.7421382  17.3648273  36.5505269
 108.1958075  14.2217359  29.7230885 108.8982119  14.6738403  30.1904811
 107.8638704  13.5801178  30.3510778 106.6438437  12.8129116  44.0982094
 106.0137097  13.4945397  44.3317491 106.5374525  12.7012198  43.1535233
 101.9383409  12.4800912  35.0248019 101.1482463  12.7358441  34.5488129
 102.4294657  13.2949250  35.1300059 115.9547219  19.8206151  37.7753299
 116.7764663  19.4186339  37.4935981 115.9509622  19.7174385  38.7269415
 103.8898155  12.8445491  31.9831495 103.0929318  12.9564186  32.5014991
 103.6623747  13.1832144  31.1172386 109.7203822  19.3690195  39.9314010
 109.7848255  19.8310602  40.7672182 109.0114746  18.7387559  40.0596320
 100.2221112  12.7331403  37.4563009 100.4729151  13.6178412  37.7220585
 100.7580661  12.5536004  36.6838101 109.4351840  21.0358302  29.7992990
 109.2997515  21.8809838  30.2277838 109.9761653  21.2377580  29.0358924
 102.8881237  18.5533740  30.3720915 103.4005758  19.3476990  30.5226480
 103.5403950  17.8560031  30.3054517 104.6976122  21.6699496  32.4543669
 104.8742750  22.5917461  32.2664652 105.4932956  21.3557916  32.8838048
 103.9828479  13.7164128  42.3305832 103.8681994  12.8149385  42.6312931
 103.1272996  13.9627825  41.9790648 111.0620316  21.6581869  43.9293332
 110.6184171  20.8718247  43.6114237 111.7237530  21.8461019  43.2637223
 105.8207438  23.1877670  38.4554011 106.3714863  23.0594733  37.6831005
 104.9818913  23.4872559  38.1048904 113.1601554  21.9384668  41.9574734
 113.1420030  22.7593550  41.4655003 114.0821475  21.8138744  42.1824875
 109.6174609  19.4528798  42.7998242 110.1502945  18.6917086  42.5697550
 109.0888690  19.1602450  43.5422396 100.8530154  16.8822394  31.1480486
 101.6905376  17.2919403  30.9314194 101.0308422  15.9421837  31.1180680
 110.9827321  18.5814790  30.3117054 110.4548683  17.8467550  29.9990291
 110.4814824  19.3589467  30.0657022 115.9620167  16.7763811  35.4284100
 115.3043842  17.4663072  35.5164229 116.7660567  17.1660243  35.7718087
 112.0348000  25.1092508  26.2348713 111.3609699  25.4124205  26.8433671
 112.4213822  25.9121588  25.8854170 115.5387422  20.1114185  31.6067185
 115.0849749  19.2705095  31.6632375 114.9081389  20.7475583  31.9441965
 113.9820362  21.9490682  32.5417003 114.2743336  22.5095739  31.8229368
 114.4918982  22.2419243  33.2970162 100.8756325  14.2213110  31.8191219
 100.6780725  13.6282470  31.0942286 100.3202989  13.9165320  32.5367158
 108.9453987  22.7271033  33.6310456 108.9030166  22.9531879  32.7018988
 109.8616686  22.4934407  33.7796257 118.1486737  18.3850063  36.2451686
 118.5823244  18.2925352  37.0934740 118.8618318  18.3607564  35.6071702
 107.0619788  19.6034062  33.4272419 107.8560386  19.1084382  33.2254994
 106.3511480  19.0751925  33.0640124 111.8814632  21.9852157  37.7784786
 111.9351654  22.5543094  38.5462502 111.0129413  22.1554042  37.4138823
 103.3702551  13.7477144  29.5032171 102.4400139  13.6861599  29.7202134
 103.4660023  13.2253096  28.7068813 119.0102287  18.4273764  38.7784571
 119.2038177  19.3319574  39.0243846 118.9102905  17.9681183  39.6123156
 114.0717395  18.5780507  44.3525452 113.9202902  18.3491058  43.4355535
 114.0622075  19.5351108  44.3656797 110.8402732  16.1512419  39.3371718
 111.7694792  16.3023579  39.1640686 110.4193762  16.2396440  38.4820365
 109.6391064  20.1763084  37.1070256 109.5002149  19.8081868  37.9796194
 108.8505660  20.6910723  36.9354214 110.2339216  25.2772180  28.4495792
 110.4090971  24.8060223  29.2641415 109.5472004  25.9037947  28.6777053
 111.1896279  19.5544687  34.4959094 110.8546111  19.5145456  35.3916743
 110.6900224  18.8889402  34.0229504 105.1640523  14.9612317  40.0211675
 105.0260321  14.2292555  40.6223214 106.0745446  14.8721217  39.7395863
 107.7922823  14.6732276  39.5095354 108.5022442  14.0325468  39.4681973
 107.7492131  14.9245171  40.4321535 115.7809602  21.6099629  42.4301934
 115.7222148  20.9258849  41.7632517 116.1829120  22.3518619  41.9782560
 104.8000301  28.4261543  35.2235653 105.0396899  29.0580067  35.9014671
 103.9569497  28.0749583  35.5101012 115.7827009  19.5739213  40.6615913
 114.8953788  19.2365135  40.7842312 116.3525560  18.8422244  40.8984679
  97.4356156  15.9063305  33.9858965  98.1227196  15.5925035  33.3979980
  97.2804285  16.8104670  33.7126216 109.3128163  24.2340666  37.6277157
 109.2398334  25.0395637  38.1396461 108.8705556  24.4332631  36.8025178
 109.1017942  23.4712436  31.1379978 108.3185464  24.0134116  31.2318203
 109.8010687  23.9886415  31.5374219 111.7726846  24.1327500  39.7835315
 112.4854818  24.7674964  39.7111217 111.2816875  24.2291366  38.9675317
 113.4944373  18.0378752  31.3552607 112.5600652  18.1580215  31.1857311
 113.6721042  17.1351219  31.0912617 106.8238760  21.8821943  40.6040886
 107.5248219  22.5158426  40.7570280 106.3533875  22.2236675  39.8436525
 111.5847220  24.4726244  32.5321607 111.7669614  23.6547900  32.9949359
 112.4080206  24.6893936  32.0946497 111.9189385  23.3994429  29.7936655
 112.4477151  22.8886883  29.1806817 112.1817605  23.0836959  30.6582188
 110.6727619  15.1786362  44.9159473 109.9968256  15.0780491  45.5861849
 111.4955253  15.0225575  45.3795471 102.4206478  21.4158298  37.5371989
 103.0059915  20.6701986  37.6699893 102.2231316  21.7262255  38.4208653
 105.2745133  24.4509545  32.5534431 104.6055508  24.9355673  32.0698471
 105.1358003  24.6978766  33.4677810  97.0124133  13.9863898  36.2576432
  97.0508232  13.4527489  37.0513550  96.5064425  13.4599104  35.6387409
 109.4150402  26.4853289  39.1517089 109.9668710  26.6484910  39.9166175
 109.7556595  27.0757727  38.4797114 114.2661276  21.3114546  45.0065744
 114.8101180  21.9244505  44.5120699 113.6848121  21.8694125  45.5232757
 100.6432710  12.7128000  29.3330363 100.9386151  11.8038679  29.2797417
  99.7420746  12.6915740  29.0111366 112.5518789  24.4335264  36.1380772
 112.4269928  23.6325004  35.6291717 113.2097880  24.9281458  35.6494742
 114.6153697  22.2344285  37.7660322 113.6684033  22.1149636  37.6938648
 114.9636470  21.3466783  37.8486583 111.6200131  22.0297001  33.9664674
 111.4725093  21.1013708  34.1472244 112.4453624  22.0517091  33.4821749
 115.2234252  22.8525560  35.0529547 116.1480800  22.6468421  34.9153998
 115.0549556  22.6041961  35.9618888 106.3560866  12.8420552  35.5367536
 106.2105447  13.1560855  36.4291817 105.8786070  13.4605452  34.9838434
 115.0129569  23.3711227  30.4091638 115.1866446  22.8057649  29.6565491
 115.5058460  24.1712122  30.2271128 100.8306528  15.3825896  38.4755197
 100.2859996  16.1585704  38.6075471 101.7085878  15.7296701  38.3174318
 101.6172550  14.5095792  41.3685354 100.8754286  14.6578428  41.9549984
 101.2965295  14.7704058  40.5052103 109.5616213  24.0511771  41.1665744
 109.8703339  23.8060917  42.0388443 110.3591695  24.2558409  40.6784614
 109.5836825  26.2049680  33.3971120 109.1441815  25.7126059  34.0903977
 110.3344942  25.6622648  33.1563196 102.0629164  22.3961221  33.3995748
 102.8887184  22.0964993  33.0194392 101.7123216  21.6268843  33.8485537
 107.0310697  21.7487689  35.4693422 106.4090706  21.0858394  35.1695650
 107.7015564  21.7748821  34.7867070 100.2637769  20.3147548  34.3584682
  99.4269677  19.8869722  34.1768683 100.2361414  20.5079991  35.2955473
 117.5890070  20.7710601  44.3427065 116.7985614  20.7534739  43.8031565
 117.3523425  21.3098894  45.0976102 117.7087945  17.6203067  41.6559794
 117.7585950  17.4553074  42.5975316 117.6001869  16.7530326  41.2657674
 106.5924204  20.2991613  28.9451883 106.7412324  20.9827077  28.2918555
 107.3990647  20.2796703  29.4601338 119.2106142  20.0400008  41.9001815
 118.9190950  20.4029989  42.7365276 118.5978273  19.3267017  41.7215147
 104.3476837  16.3256790  29.9512951 104.1022879  15.4219120  30.1493162
 104.5172752  16.3273941  29.0092429 110.0919610  22.7939743  26.4163630
 109.5193577  23.4129930  25.9634102 110.6652403  23.3439105  26.9503552
 113.3116869  23.0776893  27.5472212 114.2447542  23.0122455  27.7505088
 113.2240082  23.9133160  27.0886745 110.3605101  18.1818302  45.2180339
 111.2808110  18.3596901  45.4120386 110.3254684  17.2374347  45.0660039
  99.5787266  13.3756896  34.1433614  99.2590050  12.5222204  33.8507988
  99.0320694  13.5905474  34.8991581 103.3567173  16.0919337  37.8603121
 103.5753183  17.0236444  37.8791154 103.7692947  15.7327311  38.6457924
  99.4475526  16.9959807  36.1126736  98.7538997  16.5813760  35.5996690
 100.1948517  17.0380344  35.5160155 108.0926309  15.0949681  46.0670931
 107.6093390  15.8950041  46.2734820 108.1787248  15.1057626  45.1138375
 101.3612268  16.9278061  33.9892751 101.3382956  17.0265748  33.0374634
 101.6712905  17.7743212  34.3109917 104.0199646  18.9854216  38.1039365
 104.9742900  18.9538158  38.0369297 103.8212170  18.5244840  38.9189591
 104.6099028  17.5555332  40.6710163 105.4291917  18.0499411  40.6945000
 104.8835836  16.6387300  40.6427730 102.3749875  24.5273835  35.1209563
 102.2404343  23.7674236  34.5547561 101.9581937  25.2514735  34.6538352
 105.5319001  25.4243152  35.3328005 105.4151385  26.3688585  35.2306696
 104.7111447  25.1216714  35.7213805  99.8633942  11.8893466  41.3702360
 100.5092806  11.3792420  41.8589585  99.6551093  12.6262147  41.9445785
 112.3887335  18.9574313  46.8694500 113.2578494  19.1314966  46.5081135
 111.9094086  19.7768730  46.7470230 106.5573515  26.0771414  38.5483934
 107.4600761  26.1095025  38.8650429 106.3310885  25.1471865  38.5630270
 108.3127117  24.8302401  35.2094013 107.3622748  24.8304262  35.0958385
 108.6159603  24.0835135  34.6930047 120.8569517  30.6190367  36.2101300
 120.5188028  30.5031432  35.3221834 121.7259285  30.2181532  36.1902306
 116.7156332  32.4725844  32.1998191 116.1521197  32.3815781  31.4314478
 116.6008727  31.6525748  32.6800683 121.3389300  31.7725219  42.1687505
 121.3277940  31.3778017  41.2968009 121.5009939  31.0391292  42.7621277
 114.2620764  33.9677035  35.0382411 115.0542056  33.6267860  34.6228710
 114.5017414  34.0772010  35.9584564 116.2211518  33.2285949  27.9099790
 116.9942394  32.6814936  27.7712666 116.5736917  34.0930198  28.1214251
 118.0596561  34.5562331  41.1166689 117.7686427  35.4607962  41.0013355
 118.6953545  34.5978858  41.8310759 118.9852768  31.9339179  37.7068049
 119.5816340  31.7095202  36.9925012 119.0427739  31.1923925  38.3093497
 118.2774085  31.2906721  27.7442615 118.1610343  30.6151624  28.4123699
 118.3876345  30.8039095  26.9274768 120.6205626  30.7516868  31.4489304
 120.2563833  30.2247489  32.1602225 121.4772742  30.3615337  31.2755789
 116.4698927  30.6937543  34.1453187 115.5449424  30.5613757  34.3530879
 116.7183340  31.4731762  34.6423130 113.8307738  30.3370817  34.9796976
 113.9600119  30.5905296  35.8936388 113.1505190  30.9298525  34.6601631
 118.0007226  41.0068067  31.0787451 117.9231255  41.9575892  31.1575931
 117.3968869  40.6613939  31.7362377 120.4924455  28.1795932  43.7348817
 119.7157789  28.7389852  43.7251682 121.1315018  28.6652715  44.2563688
 118.7470828  30.9881386  43.2966784 119.4885512  31.5266429  43.0201608
 118.0407813  31.6147674  43.4538336 120.5757237  28.0683133  39.2672503
 121.4218433  28.4922546  39.4107152 120.5155875  27.4116757  39.9611066
 120.0982944  33.4286125  32.9141320 120.5621289  33.7073828  32.1245942
 119.8339742  32.5269569  32.7314411 116.9907025  32.9757606  35.8521083
 117.5608382  33.4044875  35.2138568 117.5815137  32.6940191  36.5505269
 119.0351830  29.5509277  29.7230885 119.7375873  30.0030321  30.1904811
 118.7032458  28.9093096  30.3510778 117.4832191  28.1421034  44.0982094
 116.8530852  28.8237315  44.3317491 117.3768279  28.0304115  43.1535233
 112.7777164  27.8092830  35.0248019 111.9876218  28.0650358  34.5488129
 113.2688411  28.6241168  35.1300059 114.7291909  28.1737409  31.9831495
 113.9323072  28.2856103  32.5014991 114.5017501  28.5124061  31.1172386
 120.5597577  34.6982112  39.9314010 120.6242009  35.1602519  40.7672182
 119.8508501  34.0679477  40.0596320 111.0614867  28.0623320  37.4563009
 111.3122905  28.9470330  37.7220585 111.5974415  27.8827922  36.6838101
 120.2745594  36.3650220  29.7992990 120.1391269  37.2101755  30.2277838
 120.8155407  36.5669497  29.0358924 116.7612934  22.4441800  46.4607345
 116.3679880  21.8907998  47.1354990 117.5779074  22.7552378  46.8513863
 113.7274992  33.8825658  30.3720915 114.2399512  34.6768908  30.5226480
 114.3797705  33.1851948  30.3054517 115.5369877  36.9991414  32.4543669
 115.7136505  37.9209379  32.2664652 116.3326710  36.6849833  32.8838048
 119.6780895  23.8599679  44.0527602 120.4190608  24.4606832  43.9732064
 119.9098818  23.1177316  43.4945645 114.8222233  29.0456046  42.3305832
 114.7075748  28.1441303  42.6312931 113.9666751  29.2919743  41.9790648
 116.6601192  38.5169588  38.4554011 117.2108617  38.3886651  37.6831005
 115.8212668  38.8164477  38.1048904 120.4568363  34.7820716  42.7998242
 120.9896700  34.0209004  42.5697550 119.9282444  34.4894367  43.5422396
 111.6923909  32.2114312  31.1480486 112.5299131  32.6211320  30.9314194
 111.8702176  31.2713754  31.1180680 118.9477484  22.3424166  35.3007299
 119.8130481  22.1466975  34.9413188 119.0154993  22.1134518  36.2276655
 121.8221076  33.9106708  30.3117054 121.2942437  33.1759468  29.9990291
 121.3208579  34.6881384  30.0657022 116.5539803  24.5726374  32.6723665
 117.1283555  24.3501556  31.9396858 117.1410786  24.6415069  33.4252267
 111.7150080  29.5505027  31.8191219 111.5174480  28.9574388  31.0942286
 111.1596744  29.2457238  32.5367158 119.6946803  29.4428134  33.9385812
 119.7495413  28.4901970  33.8628289 118.8838005  29.5987573  34.4227111
 117.6339163  28.0605194  31.6976191 116.8207029  28.3599364  32.1041383
 118.1298158  27.6660882  32.4150674 119.7847741  38.0562951  33.6310456
 119.7423920  38.2823797  32.7018988 120.7010440  37.8226325  33.7796257
 117.1253238  25.6323549  37.3137426 117.7652617  25.4912308  36.6160390
 116.2930769  25.3458062  36.9376028 117.9013542  34.9325980  33.4272419
 118.6954141  34.4376300  33.2254994 117.1905234  34.4043843  33.0640124
 114.2096306  29.0769061  29.5032171 113.2793894  29.0153517  29.7202134
 114.3053778  28.5545014  28.7068813 114.1281855  25.6023874  32.0910413
 114.3888672  26.5169207  31.9819574 114.9499027  25.1348317  32.2407026
 115.6006780  27.0161631  39.2609238 116.2729833  26.8078993  38.6121887
 114.7736566  26.8183717  38.8214470 121.5032352  23.6423572  41.2774898
 120.8560267  24.3413522  41.1839375 122.2733367  24.0759716  41.6451147
 120.4784818  35.5055002  37.1070256 120.3395904  35.1373786  37.9796194
 119.6899414  36.0202641  36.9354214 121.0732970  40.6064098  28.4495792
 121.2484726  40.1352141  29.2641415 120.3865758  41.2329864  28.6777053
 122.0290033  34.8836604  34.4959094 121.6939866  34.8437374  35.3916743
 121.5293979  34.2181320  34.0229504 116.0034277  30.2904234  40.0211675
 115.8654075  29.5584473  40.6223214 116.9139201  30.2013134  39.7395863
 118.6316578  30.0024194  39.5095354 119.3416196  29.3617386  39.4681973
 118.5885886  30.2537088  40.4321535 117.3445512  26.9889411  41.3290994
 116.8082869  26.5380150  41.9812590 116.7562220  27.1235320  40.5861458
 115.6394055  43.7553461  35.2235653 115.8790654  44.3871985  35.9014671
 114.7963252  43.4041501  35.5101012 108.2749911  31.2355223  33.9858965
 108.9620951  30.9216953  33.3979980 108.1198040  32.1396587  33.7126216
 113.0784633  26.1245419  38.4143988 112.9942822  25.5171089  37.6794398
 112.2567339  26.6154437  38.4153485 120.1521917  39.5632583  37.6277157
 120.0792089  40.3687555  38.1396461 119.7099310  39.7624549  36.8025178
 119.9411697  38.8004353  31.1379978 119.1579219  39.3426033  31.2318203
 120.6404442  39.3178333  31.5374219 119.8343316  26.7516366  33.5085868
 119.4641103  26.1987406  34.1966774 120.3302408  26.1474499  32.9560868
 117.6632514  37.2113861  40.6040886 118.3641974  37.8450344  40.7570280
 117.1927629  37.5528592  39.8436525 121.5121373  30.5078279  44.9159473
 120.8362010  30.4072409  45.5861849 122.3349007  30.3517493  45.3795471
 113.2600232  36.7450216  37.5371989 113.8453669  35.9993904  37.6699893
 113.0625071  37.0554172  38.4208653 116.1138887  39.7801463  32.5534431
 115.4449263  40.2647591  32.0698471 115.9751757  40.0270684  33.4677810
 107.8517887  29.3155816  36.2576432 107.8901987  28.7819407  37.0513550
 107.3458180  28.7891021  35.6387409 120.2544156  41.8145207  39.1517089
 120.8062464  41.9776828  39.9166175 120.5950350  42.4049644  38.4797114
 115.2308649  24.1620356  39.7538974 115.2949976  25.0235187  39.3416372
 115.1675770  23.5494358  39.0211333 114.7060922  26.2343489  43.4012008
 115.3332961  25.8520566  44.0149533 113.8488841  26.0157691  43.7667701
 111.4826465  28.0419918  29.3330363 111.7779906  27.1330597  29.2797417
 110.5814500  28.0207658  29.0111366 115.0120712  26.1175915  35.3157912
 114.2907297  26.7311882  35.1765385 115.8013967  26.6533679  35.2374558
 117.8147025  23.4530341  41.5898564 118.3381427  23.6992638  42.3524873
 117.5959358  24.2850376  41.1701701 113.2114306  25.7234016  29.4569688
 112.8827012  24.8431395  29.2744794 113.5653677  25.6681684  30.3446078
 116.3256129  26.0106986  29.8245166 116.6652202  26.5392907  29.1023774
 116.7728250  26.3487392  30.6003733 119.0199570  24.3944036  39.2748234
 118.6796391  23.5951849  39.6768914 118.3138576  24.6945747  38.7025067
 119.6716042  21.4793349  37.7275557 120.4942111  21.0053827  37.6054447
 119.9154106  22.2583832  38.2274243 117.1954621  28.1712469  35.5367536
 117.0499201  28.4852772  36.4291817 116.7179824  28.7897370  34.9838434
 119.0551004  25.1615017  35.5848425 119.0412572  24.2656111  35.2480723
 119.7723432  25.1685681  36.2186711 120.9077134  25.5952358  37.6301553
 120.6494912  26.5169428  37.6285883 120.3762175  25.1982792  38.3202017
 111.6700283  30.7117814  38.4755197 111.1253751  31.4877622  38.6075471
 112.5479633  31.0588618  38.3174318 118.4587900  24.0429398  30.8535995
 118.5803811  23.1146044  31.0526883 118.1689942  24.0568084  29.9414311
 112.4566305  29.8387710  41.3685354 111.7148041  29.9870345  41.9549984
 112.1359049  30.0995976  40.5052103 120.4009967  39.3803688  41.1665744
 120.7097094  39.1352835  42.0388443 121.1985449  39.5850327  40.6784614
 120.4230579  41.5341598  33.3971120 119.9835570  41.0417977  34.0903977
 121.1738696  40.9914566  33.1563196 112.9022918  37.7253139  33.3995748
 113.7280938  37.4256911  33.0194392 112.5516970  36.9560761  33.8485537
 117.8704452  37.0779607  35.4693422 117.2484461  36.4150312  35.1695650
 118.5409319  37.1040739  34.7867070 111.1031523  35.6439465  34.3584682
 110.2663432  35.2161640  34.1768683 111.0755169  35.8371909  35.2955473
 117.9428979  25.5561395  45.0625928 117.9917135  26.4323518  44.6803698
 118.4851493  25.0138788  44.4897571 117.4317959  35.6283530  28.9451883
 117.5806079  36.3118995  28.2918555 118.2384402  35.6088620  29.4601338
 120.1728268  26.3092767  41.8172287 119.3031577  26.6026333  41.5454875
 120.4087748  26.8933212  42.5379550 115.1870591  31.6548708  29.9512951
 114.9416633  30.7511038  30.1493162 115.3566506  31.6565858  29.0092429
 114.4566239  27.3877066  27.4499113 113.7635484  27.4621420  26.7939149
 114.2117991  26.6237409  27.9720630 120.9313364  38.1231661  26.4163630
 120.3587331  38.7421848  25.9634102 121.5046158  38.6731022  26.9503552
 121.1998855  33.5110220  45.2180339 122.1201865  33.6888819  45.4120386
 121.1648438  32.5666265  45.0660039 110.4181020  28.7048813  34.1433614
 110.0983804  27.8514121  33.8507988 109.8714448  28.9197391  34.8991581
 114.1960928  31.4211254  37.8603121 114.4146937  32.3528362  37.8791154
 114.6086701  31.0619229  38.6457924 119.0688793  26.9944460  47.2505870
 118.9685520  27.9438817  47.1817961 118.8510335  26.6662699  46.3781940
 110.2869280  32.3251725  36.1126736 109.5932752  31.9105678  35.5996690
 111.0342271  32.3672261  35.5160155 118.9320063  30.4241599  46.0670931
 118.4487145  31.2241959  46.2734820 119.0181002  30.4349544  45.1138375
 112.2006023  32.2569979  33.9892751 112.1776711  32.3557666  33.0374634
 112.5106659  33.1035129  34.3109917 114.8593400  34.3146134  38.1039365
 115.8136654  34.2830076  38.0369297 114.6605924  33.8536757  38.9189591
 115.4492783  32.8847250  40.6710163 116.2685672  33.3791328  40.6945000
 115.7229590  31.9679218  40.6427730 113.2143629  39.8565753  35.1209563
 113.0798097  39.0966154  34.5547561 112.7975692  40.5806653  34.6538352
 116.3712755  40.7535070  35.3328005 116.2545139  41.6980503  35.2306696
 115.5505201  40.4508632  35.7213805 110.7027697  27.2185384  41.3702360
 111.3486560  26.7084337  41.8589585 110.4944848  27.9554065  41.9445785
 117.3967269  41.4063332  38.5483934 118.2994516  41.4386942  38.8650429
 117.1704639  40.4763783  38.5630270 119.1520871  40.1594319  35.2094013
 118.2016502  40.1596180  35.0958385 119.4553357  39.4127053  34.6930047
 115.0425188  24.3653001  45.4677374 115.9056649  24.0089805  45.6780699
 114.4690599  24.0266895  46.1552778 121.9008621  43.3915238  37.4563009
 122.1516660  44.2762248  37.7220585 122.4368170  43.2119839  36.6838101
 119.1143665  46.5647140  33.9858965 119.8014705  46.2508870  33.3979980
 118.9591794  47.4688505  33.7126216 118.6911642  44.6447734  36.2576432
 118.7295741  44.1111324  37.0513550 118.1851934  44.1182939  35.6387409
 121.9425278  50.9731383  34.3584682 121.1057186  50.5453557  34.1768683
 121.9148923  51.1663826  35.2955473 121.2574775  44.0340731  34.1433614
 120.9377559  43.1806039  33.8507988 120.7108203  44.2489309  34.8991581
 121.1263035  47.6543642  36.1126736 120.4326506  47.2397595  35.5996690
 121.8736026  47.6964179  35.5160155 121.5421451  42.5477301  41.3702360
 122.1880315  42.0376255  41.8589585 121.3338602  43.2845983  41.9445785
   3.6410448  55.7676349 105.8876870   2.9672147  56.0708045 106.4961828
   4.0276270  56.5705429 105.5382327   5.7317918  47.5584562 104.4224310
   5.1147089  46.8331390 104.3257363   5.2634406  48.3193922 104.0791385
   7.6067189  53.3461832 107.1616693   8.3018093  53.9668525 107.3804008
   7.9490339  52.4957183 107.4369071   1.6982057  53.4523584 106.0691787
   1.1256024  54.0713771 105.6162259   2.2714851  54.0022945 106.6031709
   4.9179317  53.7360734 107.2000369   5.8509990  53.6706296 107.4033245
   4.8302530  54.5717001 106.7414902   7.5467334  53.0526604 104.1604317
   7.4680965  52.7186468 105.0540075   8.3677000  53.5448372 104.1595789
   5.1171285  50.3694600 103.7814295   5.8207135  50.5744602 104.3971951
   4.3933934  50.9371362 104.0463379   7.0257983  50.8077129 105.8312755
   7.8603587  50.3758327 105.6490230   6.8642326  50.6359143 106.7589650
  15.6542258  61.3246780 115.9267932  16.2920668  61.2053527 115.2231272
  15.5363101  62.2727624 115.9855884  12.4631964  61.2774208 115.8629457
  12.1250476  61.1615273 114.9749992  13.3321732  60.8765373 115.8430463
   8.3218780  63.1309684 111.8526348   7.7583645  63.0399621 111.0842635
   8.2071175  62.3109589 112.3328840  13.9018339  66.7980652 107.1640813
  13.2506318  67.3834733 106.7774826  14.6962701  67.3286847 107.2235850
   7.8273966  63.8869789 107.5627947   8.6004842  63.3398776 107.4240823
   8.1799365  64.7514039 107.7742408  10.1640244  60.0462455 105.1946397
  10.4165764  59.5243977 104.4329860   9.2264803  59.8828601 105.2973080
  15.2083526  59.0498234 113.0021140  15.9946616  58.6317657 112.6511557
  15.4722231  59.9544326 113.1702788  15.3793604  64.4871084 107.7009797
  14.7439437  64.5605711 108.4130702  15.0491010  65.0764683 107.0228876
  20.6091953  58.9873467 113.9054119  21.3417125  58.4172684 114.1391948
  19.8531309  58.5995067 114.3460624   9.8836532  61.9490561 107.3970772
   9.7672790  61.2735465 108.0651856   9.9938792  61.4622935 106.5802925
  12.2268073  61.4100708 111.1017461  11.8626280  60.8831329 111.8130382
  13.0835189  61.0199178 110.9283946  11.8673560  56.4390608 106.0978810
  12.0347963  57.3070845 106.4649281  11.6770729  56.6017890 105.1740099
  14.6248893  64.9007587 117.7644640  14.3249616  65.8032626 117.6560447
  14.2799953  64.6339770 118.6165793  18.0246037  57.4190127 115.4442077
  17.1162914  57.3505536 115.1500838  17.9733633  57.8962072 116.2723903
  11.8462781  58.8948266 107.0825476  11.7262406  59.3405316 107.9210957
  11.1515369  59.2433583 106.5239015   9.6069673  71.6651907 110.7315608
   9.5293703  72.6159733 110.8104088   9.0031317  71.3197780 111.3890534
  17.5447847  59.3669739 107.9105810  18.4565703  59.5997126 107.7353508
  17.0357494  59.9506783 107.3480889  16.1517430  64.3495557 115.3019392
  15.5226292  64.5141271 114.5995460  15.7643092  64.7637167 116.0730356
  20.0306661  65.2849995 112.6563756  19.3457700  65.6648897 112.1060789
  20.1150511  65.8945322 113.3895703  11.7045391  64.0869965 112.5669477
  12.1683737  64.3657668 111.7774099  11.4402189  63.1853410 112.3842568
  10.6414277  60.2093118 109.3759042  11.3438321  60.6614161 109.8432968
  10.3094906  59.5676937 110.0038935  18.4003421  65.8081910 117.4281457
  19.2220865  65.4062097 117.1464138  18.3965824  65.7050144 118.3797572
  26.4909414  62.1520658 113.7766428  25.7373122  61.5828056 113.6210432
  26.6256955  62.1183323 114.7237063  11.8808042  67.0234060 109.4521147
  11.7453717  67.8685596 109.8805995  12.4217855  67.2253338 108.6887081
   5.3337439  64.5409498 110.0249072   5.8461960  65.3352749 110.1754637
   5.9860152  63.8435789 109.9582674   7.1432324  67.6575255 112.1071826
   7.3198952  68.5793219 111.9192809   7.9389158  67.3433674 112.5366205
   3.2986356  62.8698153 110.8008643   4.1361578  63.2795161 110.5842351
   3.4764624  61.9297595 110.7708837  15.1950788  60.5373233 106.4892476
  14.6797412  61.3077838 106.7280863  14.9228097  59.8638370 107.1125537
  12.7797899  55.3822934 111.5477714  11.9239496  54.9929785 111.3683353
  13.1924851  55.4614895 110.6877500  20.1685062  63.2905588 108.4245649
  19.3914505  62.9516748 107.9800811  20.8476543  63.2958211 107.7500614
  14.9837092  58.4100325 108.3152257  14.6787227  58.7246475 109.1662400
  15.9367534  58.4881745 108.3579590  13.4283523  64.5690549 109.9645211
  12.9004885  63.8343308 109.6518449  12.9271026  65.3465225 109.7185179
  18.4076369  62.7639569 115.0812257  17.7500044  63.4538831 115.1692386
  19.2116769  63.1536001 115.4246244  17.2181828  61.1183942 113.1316199
  17.7313710  61.7513934 113.6337909  17.8683052  60.5185137 112.7659559
   8.4871838  57.2614676 106.3447708   7.6509150  57.5989363 106.6656983
   8.3476608  57.1263656 105.4074845  11.5736124  62.3870759 102.9680184
  10.6663185  62.1560013 103.1671333  12.0707156  61.5908378 103.1554166
  14.4804202  71.0968266 105.8876870  13.8065901  71.3999963 106.4961828
  14.8670024  71.8997347 105.5382327  14.4797707  59.9924813 110.5077220
  15.2269526  60.5046210 110.1984342  14.7489296  59.6708866 111.3681613
  12.7524357  62.4883354 107.4904174  11.8435576  62.2042387 107.5876644
  12.7819441  62.9082432 106.6307481  17.9843624  66.0989943 111.2595342
  17.5305951  65.2580853 111.3160532  17.3537591  66.7351342 111.5970122
  16.9276544  57.0281929 112.4896009  16.1899301  56.5159316 112.8206252
  17.1803317  56.5882311 111.6779286  16.4276564  67.9366440 112.1945160
  16.7199538  68.4971497 111.4757526  16.9375184  68.2295001 112.9498319
  11.3009251  60.1011975 113.5913970  11.3557861  59.1485811 113.5156446
  10.4900453  60.2571414 114.0755268  12.4500445  64.0292098 104.8292253
  12.0119875  63.3127957 104.3697890  13.1910886  64.2568212 104.2677344
   9.2401611  58.7189034 111.3504348   8.4269476  59.0183205 111.7569541
   9.7360605  58.3244723 112.0678831  11.3910189  68.7146791 113.2838613
  11.3486368  68.9407638 112.3547145  12.3072888  68.4810166 113.4324414
  20.5673560  62.3049295 110.8868571  20.4291458  62.4950891 109.9589761
  20.2109778  63.0668677 111.3436622  20.5942939  64.3725822 115.8979843
  21.0279446  64.2801111 116.7462897  21.3074520  64.3483322 115.2599859
   9.5075990  65.5909820 113.0800576  10.3016588  65.0960140 112.8783151
   8.7967682  65.0627683 112.7168281  14.3270834  67.9727916 117.4312943
  14.3807856  68.5418852 118.1990659  13.4585615  68.1429801 117.0666981
   5.8158753  59.7352902 109.1560329   4.8856341  59.6737357 109.3730291
   5.9116225  59.2128855 108.3596970  21.4558489  64.4149522 118.4312728
  21.6494379  65.3195333 118.6772003  21.3559107  63.9556941 119.2651313
  12.0847266  66.1638842 116.7598413  11.9458351  65.7957627 117.6324351
  11.2961862  66.6786482 116.5882371  12.6795418  71.2647939 108.1023949
  12.8547173  70.7935982 108.9169572  11.9928206  71.8913705 108.3305210
  13.6352481  65.5420445 114.1487251  13.3002313  65.5021215 115.0444901
  13.1356426  64.8765161 113.6757661  16.5711672  62.8876479 104.4224310
  15.9540843  62.1623307 104.3257363  16.1028161  63.6485840 104.0791385
   8.3610218  57.1061904 103.5445615   7.4839685  56.9850704 103.1807861
   8.8367971  56.3147982 103.2924503  11.5474144  69.4588194 110.7908135
  10.7641666  70.0009874 110.8846360  12.2466890  69.9762174 111.1902376
  14.8570794  55.2682823 113.4342341  15.3539494  54.5152786 113.1143411
  14.0857776  55.3047140 112.8685550  22.7100552  60.9723189 115.0760632
  22.6990428  61.8547904 114.7054565  21.8417931  60.6194740 114.8815169
  15.9400575  64.0254511 111.0080764  15.0056854  64.1455973 110.8385468
  16.1177244  63.1226977 110.7440774  19.3273126  59.8671830 111.5430798
  19.7933579  60.6999821 111.4691101  19.7780627  59.4016811 112.2476057
  17.3949358  66.2115651 108.5416950  17.6709202  66.0972246 109.4510824
  16.5253856  65.8133136 108.5029123  14.0303422  70.4602002 112.1849764
  14.2125816  69.6423658 112.6477516  14.8536408  70.6769694 111.7474654
  14.3645587  69.3870187 109.4464812  14.8933354  68.8762642 108.8334974
  14.6273807  69.0712717 110.3110345   3.0888912  58.7003759 108.9858520
   3.3842353  57.7914437 108.9325574   2.1876948  58.6791498 108.6639523
  14.9974991  70.4211023 115.7908929  14.8726130  69.6200763 115.2819874
  15.6554082  70.9157216 115.3022899  17.0609899  68.2220043 117.4188479
  16.1140235  68.1025394 117.3466805  17.4092672  67.3342541 117.5014740
   4.8176754  56.3817856 109.1097845   4.4889460  55.5015235 108.9272951
   5.1716124  56.3265525 109.9974235  14.0656333  68.0172759 113.6192831
  13.9181295  67.0889467 113.8000401  14.8909826  68.0392850 113.1349906
   7.9318577  56.6690826 109.4773323   8.2714649  57.1976747 108.7551931
   8.3790697  57.0071232 110.2531890  17.6690454  68.8401318 114.7057704
  18.5937002  68.6344179 114.5682155  17.5005758  68.5917719 115.6147045
   9.9186724  55.1665448 107.6766616  10.6395087  55.5446701 107.1730333
   9.2952028  55.8854325 107.7801594  14.0617847  55.8710597 108.6124948
  14.2781461  56.7535235 108.3113776  13.5811914  55.4796810 107.8830590
  17.4585771  69.3586985 110.0619795  17.6322648  68.7933408 109.3093648
  17.9514662  70.1587880 109.8799285  10.0650347  54.7013238 110.5064153
  10.1866258  53.7729884 110.7055040   9.7752389  54.7151924 109.5942468
  23.3125162  62.1223408 111.6810095  23.7556308  61.3730733 111.2829218
  22.4351672  62.1133545 111.2983827  18.4460943  68.6753750 107.1616693
  19.1411848  69.2960442 107.3804008  18.7884093  67.8249101 107.4369071
  20.3452366  66.1253455 108.6904024  20.8703690  66.4640728 107.9653344
  20.2574719  65.1900471 108.5067159  12.0293027  72.1925439 113.0499277
  11.5898017  71.7001817 113.7432134  12.7801144  71.6498406 112.8091353
   9.0380406  66.2867371 108.5980040   9.1868526  66.9702835 107.9446712
   9.8446850  66.2672461 109.1129495  21.6562344  66.0275767 121.5529972
  21.3647153  66.3905747 122.3893433  21.0434475  65.3142775 121.3743304
  22.8558027  63.5928647 114.0732542  23.6904918  64.0318451 114.2370103
  22.9917155  63.1167300 113.2540788   6.7933039  62.3132549 109.6041109
   6.5479081  61.4094879 109.8021319   6.9628954  62.3149699 108.6620587
   6.0628687  58.0460906 107.1027270   5.3697932  58.1205261 106.4467306
   5.8180438  57.2821250 107.6248787  12.5375812  68.7815501 106.0691787
  11.9649779  69.4005689 105.6162259  13.1108605  69.3314863 106.6031709
  15.7573071  69.0652652 107.2000369  16.6903745  68.9998213 107.4033245
  15.6696284  69.9008918 106.7414902  18.3861088  68.3818522 104.1604317
  18.3074720  68.0478386 105.0540075  19.2070755  68.8740290 104.1595789
  21.0839279  61.2480261 117.3680636  21.0515599  60.3096262 117.5540319
  21.6939903  61.3264298 116.6346460  12.9222610  60.1176314 103.4107840
  13.8681715  59.9882522 103.4796258  12.5436855  59.3790976 103.8877268
  26.9015829  62.3096268 116.5086672  27.6319218  62.0481556 117.0694376
  26.2922775  61.5724990 116.5488740  24.9831126  60.4504131 117.1061124
  24.2564290  60.3160096 116.4977615  24.5678413  60.7580959 117.9117842
  11.1065527  58.0426291 103.3462725  10.1996983  57.7459403 103.4225438
  11.3841508  57.7456109 102.4797011  12.7227593  52.5863180 109.5006966
  11.9128321  52.2410265 109.8762212  13.4112010  52.2770724 110.0894578
   9.8764312  54.9013226 103.4874704  10.7383476  55.2268124 103.7470521
  10.0614656  54.1144722 102.9747770  18.0296948  53.7741752 110.6309927
  17.4495617  54.4326556 110.2487979  17.7632881  52.9519097 110.2197344
  16.8121826  55.9341843 109.6866275  15.9247681  56.2191493 109.4686470
  17.2275815  55.7735606 108.8393552  20.1636363  55.9588364 113.4020614
  20.9396753  56.4484816 113.6745231  19.4384497  56.3846418 113.8592484
  22.6008921  56.6715983 114.4594555  23.1953412  56.4311719 113.7487863
  22.6735505  55.9523113 115.0868091  15.9565040  65.6986517 103.7814295
  16.6600890  65.9036520 104.3971951  15.2327689  66.2663279 104.0463379
  16.7862850  61.4496379 109.9016565  16.7298052  61.9064930 109.0624198
  17.3391193  60.6887063 109.7239408  20.5967656  57.2386110 110.7266685
  20.3404590  56.8382746 111.5574893  19.9720524  57.9529904 110.6016824
  24.9079994  59.9782184 113.2337976  24.3479552  60.0475373 114.0069538
  24.3023497  59.8023168 112.5137473  17.8651737  66.1369047 105.8312755
  18.6997341  65.7050245 105.6490230  17.7036080  65.9651060 106.7589650
  17.5197629  62.6401160 107.1969095  17.4646433  62.4745431 106.2557539
  16.8943685  63.3477193 107.3531284  10.8293755  52.1409269 106.7754413
  10.8172425  53.0851109 106.9322684  11.7217177  51.9579414 106.4813874
  26.4936012  76.6538698 115.9267932  27.1314422  76.5345445 115.2231272
  26.3756855  77.6019542 115.9855884  23.3025719  76.6066126 115.8629457
  22.9644230  76.4907190 114.9749992  24.1715487  76.2057291 115.8430463
  19.1612534  78.4601602 111.8526348  18.5977399  78.3691539 111.0842635
  19.0464929  77.6401507 112.3328840  24.7412093  82.1272570 107.1640813
  24.0900073  82.7126650 106.7774826  25.5356456  82.6578765 107.2235850
  18.6667720  79.2161707 107.5627947  19.4398596  78.6690694 107.4240823
  19.0193119  80.0805956 107.7742408  21.4308970  77.9214938 117.3596206
  22.0272542  77.6970960 116.6453169  21.4883941  77.1799683 117.9621654
  21.0033998  75.3754373 105.1946397  21.2559519  74.8535894 104.4329860
  20.0658557  75.2120519 105.2973080  26.0477281  74.3790151 113.0021140
  26.8340370  73.9609575 112.6511557  26.3115985  75.2836244 113.1702788
  26.2187358  79.8163002 107.7009797  25.5833191  79.8897628 108.4130702
  25.8884765  80.4056601 107.0228876  31.4485708  74.3165385 113.9054119
  32.1810880  73.7464601 114.1391948  30.6925064  73.9286985 114.3460624
  20.7230287  77.2782479 107.3970772  20.6066545  76.6027382 108.0651856
  20.8332547  76.7914853 106.5802925  23.0661828  76.7392626 111.1017461
  22.7020035  76.2123247 111.8130382  23.9228944  76.3491095 110.9283946
  28.9711128  68.0286959 118.3648727  28.6394453  68.8982370 118.1409942
  28.3756742  67.7123243 119.0442758  22.7067315  71.7682526 106.0978810
  22.8741717  72.6362762 106.4649281  22.5164484  71.9309808 105.1740099
  25.4642648  80.2299505 117.7644640  25.1643371  81.1324544 117.6560447
  25.1193707  79.9631688 118.6165793  18.9155129  76.6813302 113.7981344
  17.9905626  76.5489516 114.0059036  19.1639543  77.4607521 114.2951287
  28.8639792  72.7482045 115.4442077  27.9556669  72.6797453 115.1500838
  28.8127387  73.2253990 116.2723903  22.6856536  74.2240183 107.0825476
  22.5656161  74.6697234 107.9210957  21.9909124  74.5725501 106.5239015
  20.4463428  86.9943825 110.7315608  20.3687457  87.9451650 110.8104088
  19.8425071  86.6489698 111.3890534  30.7301438  70.9498483 117.2219951
  30.0875818  71.2431017 116.5759746  30.2256367  70.8351404 118.0273148
  28.3841602  74.6961657 107.9105810  29.2959458  74.9289043 107.7353508
  27.8751249  75.2798701 107.3480889  26.6682369  79.1186284 121.5467103
  27.0765725  78.6768695 120.8021735  25.9459631  78.5438912 121.8001296
  23.0213439  74.0558891 118.9200660  23.8674635  74.4798305 119.0635309
  22.9612077  73.3992515 119.6139223  26.9911184  79.6787475 115.3019392
  26.3620046  79.8433189 114.5995460  26.6036846  80.0929085 116.0730356
  30.8700416  80.6141913 112.6563756  30.1851454  80.9940814 112.1060789
  30.9544265  81.2237239 113.3895703  26.1712885  71.7163259 120.5781834
  25.9273817  72.4705320 120.0416109  26.4472815  72.0948607 121.4129081
  28.1251347  78.2601872 119.2559099  28.3368243  78.9033632 118.5793480
  28.0781096  77.4264188 118.7881029  25.7277576  70.8719693 116.1595671
  24.8662055  71.1700946 116.4512409  25.7540011  71.0890091 115.2276704
  22.5439146  79.4161883 112.5669477  23.0077491  79.6949586 111.7774099
  22.2795944  78.5145328 112.3842568  19.4363227  78.9633365 115.5049240
  20.0064584  79.3920633 114.8666725  20.0271339  78.6815949 116.2033426
  21.4808032  75.5385035 109.3759042  22.1832075  75.9906079 109.8432968
  21.1488660  74.8968854 110.0038935  15.2233366  73.7968588 114.6776176
  14.4332420  74.0526117 114.2016286  15.7144613  74.6116926 114.7828216
  29.2397175  81.1373827 117.4281457  30.0614619  80.7354015 117.1464138
  29.2359578  81.0342061 118.3797572  17.1748111  74.1613167 111.6359652
  16.3779275  74.2731862 112.1543148  16.9473703  74.4999820 110.7700543
  37.3303168  77.4812576 113.7766428  36.5766877  76.9119974 113.6210432
  37.4650710  77.4475240 114.7237063  22.7201797  82.3525978 109.4521147
  22.5847471  83.1977514 109.8805995  23.2611609  82.5545256 108.6887081
  16.1731194  79.8701416 110.0249072  16.6855715  80.6644666 110.1754637
  16.8253907  79.1727707 109.9582674  17.9826079  82.9867172 112.1071826
  18.1592707  83.9085137 111.9192809  18.7782912  82.6725592 112.5366205
  22.1237097  69.8475437 123.7055759  22.8646811  70.4482590 123.6260222
  22.3555020  69.1053075 123.1473802  26.0694260  65.8756540 117.9820041
  25.7258530  66.7658182 117.9059151  26.4373223  65.6858198 117.1189626
  14.1380111  78.1990070 110.8008643  14.9755333  78.6087079 110.5842351
  14.3158378  77.2589513 110.7708837  26.0344543  75.8665151 106.4892476
  25.5191166  76.6369756 106.7280863  25.7621851  75.1930287 107.1125537
  23.6191654  70.7114852 111.5477714  22.7633250  70.3221702 111.3683353
  24.0318606  70.7906813 110.6877500  25.1490800  68.2461195 115.9469274
  24.6455596  68.2091330 115.1337079  25.4421407  69.1553938 116.0065931
  21.3933686  68.3299925 114.9535456  22.2586683  68.1342734 114.5941345
  21.4611195  68.1010277 115.8804813  31.0078817  78.6197506 108.4245649
  30.2308260  78.2808665 107.9800811  31.6870298  78.6250129 107.7500614
  25.8230846  73.7392243 108.3152257  25.5180982  74.0538392 109.1662400
  26.7761288  73.8173663 108.3579590  24.2677278  79.8982466 109.9645211
  23.7398639  79.1635226 109.6518449  23.7664781  80.6757143 109.7185179
  29.2470124  78.0931487 115.0812257  28.5893798  78.7830748 115.1692386
  30.0510523  78.4827919 115.4246244  18.9996005  70.5602133 112.3251823
  19.5739757  70.3377314 111.5925016  19.5866988  70.6290827 113.0780424
  28.0575583  76.4475860 113.1316199  28.5707464  77.0805851 113.6337909
  28.7076807  75.8477055 112.7659559  19.3265593  72.5906594 106.3447708
  18.4902905  72.9281280 106.6656983  19.1870362  72.4555574 105.4074845
  21.3018673  67.4343382 111.0526892  20.6483086  67.1192399 110.4283507
  21.2599147  66.8119122 111.7786715  22.4129878  77.7162677 102.9680184
  21.5056940  77.4851930 103.1671333  22.9100910  76.9200296 103.1554166
  25.3197957  86.4260184 105.8876870  24.6459656  86.7291881 106.4961828
  25.7063779  87.2289264 105.5382327  24.5356414  73.9225315 115.3774540
  23.6178975  74.1440262 115.2196228  24.9516557  73.9971626 114.5186247
  25.3191461  75.3216731 110.5077220  26.0663280  75.8338128 110.1984342
  25.5883051  75.0000784 111.3681613  23.5918111  77.8175272 107.4904174
  22.6829331  77.5334304 107.5876644  23.6213195  78.2374350 106.6307481
  28.8237379  81.4281861 111.2595342  28.3699706  80.5872771 111.3160532
  28.1931346  82.0643259 111.5970122  27.7670298  72.3573847 112.4896009
  27.0293055  71.8451233 112.8206252  28.0197072  71.9174229 111.6779286
  27.2670318  83.2658358 112.1945160  27.5593292  83.8263415 111.4757526
  27.7768939  83.5586919 112.9498319  27.8681926  65.1350099 113.0837778
  28.1740803  64.2747463 112.7963694  28.5934531  65.7267719 112.8836772
  14.1606282  75.5380786 111.4719376  13.9630682  74.9450146 110.7470443
  13.6052946  75.2332996 112.1895315  22.1403006  75.4303892 113.5913970
  22.1951615  74.4777729 113.5156446  21.3294208  75.5863331 114.0755268
  23.2894199  79.3584015 104.8292253  22.8513629  78.6419874 104.3697890
  24.0304640  79.5860130 104.2677344  20.0795365  74.0480952 111.3504348
  19.2663231  74.3475122 111.7569541  20.5754360  73.6536641 112.0678831
  22.2303943  84.0438709 113.2838613  22.1880122  84.2699555 112.3547145
  23.1466642  83.8102083 113.4324414  25.6769577  74.5122776 120.1819242
  26.0318965  74.7394250 121.0413708  26.3241708  74.8441153 119.5596498
  31.4067314  77.6341212 110.8868571  31.2685213  77.8242808 109.9589761
  31.0503533  78.3960595 111.3436622  19.5709440  71.6199307 116.9665583
  20.2108820  71.4788067 116.2688547  18.7386971  71.3333821 116.5904185
  31.4336694  79.7017739 115.8979843  31.8673200  79.6093028 116.7462897
  32.1468274  79.6775240 115.2599859  20.3469744  80.9201738 113.0800576
  21.1410343  80.4252058 112.8783151  19.6361436  80.3919601 112.7168281
  25.1664589  83.3019833 117.4312943  25.2201611  83.8710770 118.1990659
  24.2979370  83.4721718 117.0666981  16.6552508  75.0644820 109.1560329
  15.7250096  75.0029275 109.3730291  16.7509980  74.5420772 108.3596970
  16.5738057  71.5899632 111.7438570  16.8344874  72.5044966 111.6347731
  17.3955229  71.1224075 111.8935183  32.2952243  79.7441440 118.4312728
  32.4888133  80.6487250 118.6772003  32.1952861  79.2848859 119.2651313
  23.9488554  69.6299331 120.9303056  23.3016469  70.3289280 120.8367532
  24.7189569  70.0635474 121.2979304  24.1252688  77.4680095 118.9899875
  25.0544748  77.6191255 118.8168843  23.7043718  77.5564116 118.1348522
  22.9241020  81.4930760 116.7598413  22.7852106  81.1249544 117.6324351
  22.1355616  82.0078399 116.5882371  23.5189172  86.5939856 108.1023949
  23.6940928  86.1227900 108.9169572  22.8321960  87.2205623 108.3305210
  24.4746235  80.8712363 114.1487251  24.1396068  80.8313133 115.0444901
  23.9750181  80.2057078 113.6757661  27.4105427  78.2168397 104.4224310
  26.7934598  77.4915225 104.3257363  26.9421915  78.9777757 104.0791385
  29.0659559  82.9267305 122.0830091  29.0072105  82.2426525 121.4160674
  29.4679077  83.6686295 121.6310717  19.2003973  72.4353821 103.5445615
  18.3233439  72.3142622 103.1807861  19.6761726  71.6439900 103.2924503
  29.0676966  80.8906889 120.3144070  28.1803745  80.5532811 120.4370469
  29.6375517  80.1589920 120.5512836  22.3867899  84.7880112 110.7908135
  21.6035421  85.3301792 110.8846360  23.0860644  85.3054091 111.1902376
  25.6964549  70.5974741 113.4342341  26.1933248  69.8444703 113.1143411
  24.9251530  70.6339058 112.8685550  33.5494306  76.3015107 115.0760632
  33.5384183  77.1839822 114.7054565  32.6811686  75.9486657 114.8815169
  26.7794330  79.3546428 111.0080764  25.8450608  79.4747891 110.8385468
  26.9570998  78.4518895 110.7440774  22.2799518  72.7392124 113.1614025
  21.9097305  72.1863164 113.8494931  22.7758610  72.1350258 112.6089025
  30.1666881  75.1963748 111.5430798  30.6327333  76.0291739 111.4691101
  30.6174381  74.7308729 112.2476057  28.2343112  81.5407569 108.5416950
  28.5102956  81.4264163 109.4510824  27.3647611  81.1425054 108.5029123
  28.1383544  67.5644335 115.5821699  27.2246624  67.7948561 115.7503906
  28.5676645  67.6482779 116.4335732  27.9090002  75.7534226 118.0821593
  27.2561452  76.0010134 117.4274046  28.2870382  74.9398365 117.7484071
  24.8697176  85.7893920 112.1849764  25.0519571  84.9715576 112.6477516
  25.6930162  86.0061612 111.7474654  25.2039342  84.7162105 109.4464812
  25.7327108  84.2054559 108.8334974  25.4667561  84.4004635 110.3110345
  17.6764851  70.1496115 119.4067131  17.7406178  71.0110946 118.9944529
  17.6131972  69.5370116 118.6739490  13.9282667  74.0295676 108.9858520
  14.2236108  73.1206355 108.9325574  13.0270702  74.0083416 108.6639523
  25.8368745  85.7502941 115.7908929  25.7119885  84.9492680 115.2819874
  26.4947837  86.2449134 115.3022899  17.4576914  72.1051673 114.9686069
  16.7363499  72.7187641 114.8293542  18.2470169  72.6409438 114.8902715
  27.9003654  83.5511961 117.4188479  26.9533989  83.4317312 117.3466805
  28.2486427  82.6634459 117.5014740  20.2603227  69.4406100 121.2426721
  20.7837629  69.6868396 122.0053030  20.0415560  70.2726134 120.8229858
  15.6570508  71.7109774 109.1097845  15.3283214  70.8307153 108.9272951
  16.0109879  71.6557443 109.9974235  24.9050087  83.3464677 113.6192831
  24.7575050  82.4181384 113.8000401  25.7303581  83.3684768 113.1349906
  18.7712331  71.9982744 109.4773323  19.1108404  72.5268665 108.7551931
  19.2184452  72.3363150 110.2531890  28.5084209  84.1693236 114.7057704
  29.4330756  83.9636097 114.5682155  28.3399512  83.9209637 115.6147045
  21.4655772  70.3819795 118.9276391  21.1252593  69.5827608 119.3297071
  20.7594778  70.6821505 118.3553224  22.1172244  67.4669107 117.3803714
  22.9398313  66.9929585 117.2582605  22.3610308  68.2459591 117.8802400
  20.7580479  70.4957366 107.6766616  21.4788841  70.8738618 107.1730333
  20.1345783  71.2146242 107.7801594  24.9011601  71.2002514 108.6124948
  25.1175216  72.0827152 108.3113776  24.4205669  70.8088728 107.8830590
  19.6410823  74.1588228 115.1895693  19.4955404  74.4728531 116.0819974
  19.1636026  74.7773128 114.6366591  21.5007206  71.1490776 115.2376582
  21.4868774  70.2531869 114.9008880  22.2179634  71.1561439 115.8714868
  23.3533336  71.5828116 117.2829710  23.0951114  72.5045187 117.2814040
  22.8218377  71.1858550 117.9730174  28.2979525  84.6878903 110.0619795
  28.4716403  84.1225325 109.3093648  28.7908416  85.4879798 109.8799285
  20.9044102  70.0305156 110.5064153  21.0260013  69.1021802 110.7055040
  20.6146144  70.0443842 109.5942468  23.7735292  67.7160066 113.6430872
  23.7956989  67.7799399 112.6882852  24.1903351  66.8764575 113.8371379
  34.1518916  77.4515326 111.6810095  34.5950062  76.7022651 111.2829218
  33.2745427  77.4425462 111.2983827  29.2854698  84.0045667 107.1616693
  29.9805602  84.6252360 107.3804008  29.6277848  83.1541019 107.4369071
  31.1846121  81.4545373 108.6904024  31.7097445  81.7932646 107.9653344
  31.0968473  80.5192388 108.5067159  22.8686781  87.5217356 113.0499277
  22.4291772  87.0293735 113.7432134  23.6194898  86.9790324 112.8091353
  30.9937902  78.9370743 121.3087951  31.0435907  78.7720750 122.2503474
  30.8851825  78.0698002 120.9185832  19.8774161  81.6159289 108.5980040
  20.0262281  82.2994753 107.9446712  20.6840604  81.5964379 109.1129495
  28.2841664  74.9201671 122.6247257  29.1851527  74.7808136 122.3331255
  28.3589639  75.0856126 123.5645435  22.6184470  72.2968526 121.4700444
  21.7487779  72.5902092 121.1983032  22.8543950  72.8808971 122.1907707
  32.4956099  81.3567684 121.5529972  32.2040907  81.7197665 122.3893433
  31.8828230  80.6434693 121.3743304  33.6951781  78.9220564 114.0732542
  34.5298672  79.3610368 114.2370103  33.8310910  78.4459217 113.2540788
  30.7443287  76.4800299 120.0210030  31.2197409  76.6727945 119.2128882
  29.8208852  76.5359485 119.7753414  17.6326794  77.6424466 109.6041109
  17.3872835  76.7386796 109.8021319  17.8022708  77.6441617 108.6620587
  25.3223503  68.5148143 118.9865864  25.8405447  69.2509170 118.6612353
  24.9678636  68.8212136 119.8212623  16.9022441  73.3752824 107.1027270
  16.2091686  73.4497179 106.4467306  16.6574193  72.6113168 107.6248787
  25.5736098  64.9348425 114.5066761  25.8537851  64.2671614 115.1327187
  26.3586705  65.1277521 113.9941425  23.3769566  84.1107419 106.0691787
  22.8043533  84.7297606 105.6162259  23.9502360  84.6606781 106.6031709
  29.4444956  73.3566059 118.2538336  30.3962379  73.4564157 118.2750560
  29.2748406  72.5644328 118.7636420  27.4659335  70.4421642 118.4397737
  26.8709268  70.7226655 117.7444225  27.1809032  70.9315543 119.2114478
  26.5966826  84.3944569 107.2000369  27.5297499  84.3290131 107.4033245
  26.5090039  85.2300836 106.7414902  29.2254843  83.7110440 104.1604317
  29.1468474  83.3770303 105.0540075  30.0464509  84.2032207 104.1595789
  31.9233034  76.5772179 117.3680636  31.8909354  75.6388180 117.5540319
  32.5333657  76.6556216 116.6346460  23.7616365  75.4468232 103.4107840
  24.7075469  75.3174440 103.4796258  23.3830610  74.7082894 103.8877268
  32.0727522  73.3683222 117.4138919  31.5566571  72.5841679 117.2268848
  32.9567471  73.0401939 117.5785438  29.7338249  67.1124238 113.3734731
  29.5363070  66.8039326 114.2578063  30.3437955  67.8385877 113.5032661
  37.7409584  77.6388186 116.5086672  38.4712972  77.3773474 117.0694376
  37.1316529  76.9016908 116.5488740  35.8224881  75.7796048 117.1061124
  35.0958044  75.6452013 116.4977615  35.4072168  76.0872877 117.9117842
  21.9459282  73.3718208 103.3462725  21.0390737  73.0751321 103.4225438
  22.2235263  73.0748026 102.4797011  23.5621347  67.9155098 109.5006966
  22.7522076  67.5702183 109.8762212  24.2505764  67.6062642 110.0894578
  25.4911896  66.9933145 111.1231263  26.0442934  67.4128598 111.7821286
  25.7281982  66.0668893 111.1654219  20.7158066  70.2305143 103.4874704
  21.5777230  70.5560042 103.7470521  20.9008411  69.4436639 102.9747770
  28.8690703  69.1033670 110.6309927  28.2889372  69.7618474 110.2487979
  28.6026636  68.2811015 110.2197344  27.3194269  68.5038728 112.8331247
  27.8194048  68.6155262 112.0245566  27.9629877  68.1999780 113.4732056
  27.6515581  71.2633760 109.6866275  26.7641436  71.5483411 109.4686470
  28.0669570  71.1027524 108.8393552  31.0030117  71.2880281 113.4020614
  31.7790507  71.7776734 113.6745231  30.2778251  71.7138335 113.8592484
  33.4402676  72.0007901 114.4594555  34.0347166  71.7603636 113.7487863
  33.5129259  71.2815031 115.0868091  26.7958794  81.0278435 103.7814295
  27.4994644  81.2328437 104.3971951  26.0721443  81.5955197 104.0463379
  27.6256605  76.7788296 109.9016565  27.5691806  77.2356848 109.0624198
  28.1784947  76.0178981 109.7239408  31.4361411  72.5678028 110.7266685
  31.1798345  72.1674664 111.5574893  30.8114279  73.2821822 110.6016824
  35.7473748  75.3074101 113.2337976  35.1873306  75.3767291 114.0069538
  35.1417252  75.1315086 112.5137473  28.7045492  81.4660964 105.8312755
  29.5391096  81.0342163 105.6490230  28.5429835  81.2942978 106.7589650
  28.3591384  77.9693077 107.1969095  28.3040188  77.8037349 106.2557539
  27.7337439  78.6769110 107.3531284  21.6687509  67.4701186 106.7754413
  21.6566179  68.4143026 106.9322684  22.5610931  67.2871332 106.4813874
  25.4839629  64.0643963 111.0300350  24.7172025  63.5102450 111.1757032
  25.8950334  64.1365832 111.8914501  37.3329767  91.9830615 115.9267932
  37.9708177  91.8637363 115.2231272  37.2150610  92.9311459 115.9855884
  34.1419473  91.9358043 115.8629457  33.8037985  91.8199108 114.9749992
  35.0109241  91.5349208 115.8430463  30.0006289  93.7893520 111.8526348
  29.4371154  93.6983457 111.0842635  29.8858684  92.9693424 112.3328840
  35.5805848  97.4564488 107.1640813  34.9293827  98.0418568 106.7774826
  36.3750210  97.9870682 107.2235850  29.5061475  94.5453625 107.5627947
  30.2792351  93.9982612 107.4240823  29.8586874  95.4097874 107.7742408
  32.2702724  93.2506855 117.3596206  32.8666296  93.0262878 116.6453169
  32.3277696  92.5091601 117.9621654  31.8427752  90.7046291 105.1946397
  32.0953273  90.1827812 104.4329860  30.9052312  90.5412436 105.2973080
  36.8871035  89.7082069 113.0021140  37.6734125  89.2901492 112.6511557
  37.1509740  90.6128161 113.1702788  37.0581113  95.1454919 107.7009797
  36.4226946  95.2189546 108.4130702  36.7278519  95.7348518 107.0228876
  42.2879462  89.6457302 113.9054119  43.0204634  89.0756519 114.1391948
  41.5318818  89.2578903 114.3460624  31.5624041  92.6074397 107.3970772
  31.4460299  91.9319300 108.0651856  31.6726301  92.1206771 106.5802925
  33.9055582  92.0684544 111.1017461  33.5413789  91.5415165 111.8130382
  34.7622698  91.6783013 110.9283946  39.8104883  83.3578876 118.3648727
  39.4788208  84.2274287 118.1409942  39.2150496  83.0415160 119.0442758
  33.5461069  87.0974444 106.0978810  33.7135471  87.9654680 106.4649281
  33.3558238  87.2601725 105.1740099  36.3036402  95.5591422 117.7644640
  36.0037125  96.4616461 117.6560447  35.9587462  95.2923606 118.6165793
  29.7548884  92.0105219 113.7981344  28.8299380  91.8781433 114.0059036
  30.0033297  92.7899439 114.2951287  39.7033546  88.0773963 115.4442077
  38.7950423  88.0089371 115.1500838  39.6521142  88.5545908 116.2723903
  33.5250290  89.5532101 107.0825476  33.4049915  89.9989152 107.9210957
  32.8302878  89.9017419 106.5239015  31.2857182 102.3235743 110.7315608
  31.2081212 103.2743568 110.8104088  30.6818826 101.9781615 111.3890534
  41.5695193  86.2790401 117.2219951  40.9269573  86.5722934 116.5759746
  41.0650121  86.1643321 118.0273148  39.2235356  90.0253574 107.9105810
  40.1353212  90.2580961 107.7353508  38.7145003  90.6090618 107.3480889
  37.5076124  94.4478202 121.5467103  37.9159480  94.0060613 120.8021735
  36.7853385  93.8730830 121.8001296  33.8607194  89.3850809 118.9200660
  34.7068389  89.8090222 119.0635309  33.8005832  88.7284433 119.6139223
  37.8304938  95.0079393 115.3019392  37.2013801  95.1725107 114.5995460
  37.4430601  95.4221002 116.0730356  41.7094170  95.9433831 112.6563756
  41.0245209  96.3232732 112.1060789  41.7938020  96.5529157 113.3895703
  37.0106639  87.0455177 120.5781834  36.7667571  87.7997238 120.0416109
  37.2866570  87.4240525 121.4129081  38.9645102  93.5893790 119.2559099
  39.1761997  94.2325549 118.5793480  38.9174850  92.7556106 118.7881029
  36.5671331  86.2011610 116.1595671  35.7055810  86.4992864 116.4512409
  36.5933766  86.4182009 115.2276704  33.3832900  94.7453801 112.5669477
  33.8471246  95.0241504 111.7774099  33.1189698  93.8437245 112.3842568
  30.2756981  94.2925282 115.5049240  30.8458338  94.7212551 114.8666725
  30.8665093  94.0107867 116.2033426  32.3201786  90.8676953 109.3759042
  33.0225830  91.3197997 109.8432968  31.9882415  90.2260772 110.0038935
  26.0627120  89.1260506 114.6776176  25.2726174  89.3818034 114.2016286
  26.5538368  89.9408844 114.7828216  40.0790930  96.4665745 117.4281457
  40.9008374  96.0645932 117.1464138  40.0753333  96.3633979 118.3797572
  28.0141866  89.4905085 111.6359652  27.2173029  89.6023779 112.1543148
  27.7867458  89.8291737 110.7700543  48.1696923  92.8104493 113.7766428
  47.4160631  92.2411892 113.6210432  48.3044464  92.7767158 114.7237063
  33.5595551  97.6817896 109.4521147  33.4241226  98.5269431 109.8805995
  34.1005364  97.8837173 108.6887081  27.0124948  95.1993334 110.0249072
  27.5249469  95.9936584 110.1754637  27.6647661  94.5019624 109.9582674
  28.8219833  98.3159090 112.1071826  28.9986461  99.2377055 111.9192809
  29.6176667  98.0017509 112.5366205  32.9630852  85.1767355 123.7055759
  33.7040565  85.7774508 123.6260222  33.1948774  84.4344992 123.1473802
  36.9088015  81.2048458 117.9820041  36.5652284  82.0950099 117.9059151
  37.2766977  81.0150115 117.1189626  24.9773865  93.5281988 110.8008643
  25.8149087  93.9378996 110.5842351  25.1552133  92.5881430 110.7708837
  36.8738297  91.1957069 106.4892476  36.3584921  91.9661673 106.7280863
  36.6015606  90.5222205 107.1125537  34.4585408  86.0406770 111.5477714
  33.6027005  85.6513620 111.3683353  34.8712360  86.1198730 110.6877500
  35.9884555  83.5753113 115.9469274  35.4849351  83.5383248 115.1337079
  36.2815162  84.4845855 116.0065931  32.2327441  83.6591843 114.9535456
  33.0980438  83.4634651 114.5941345  32.3004950  83.4302194 115.8804813
  41.8472571  93.9489423 108.4245649  41.0702014  93.6100583 107.9800811
  42.5264052  93.9542047 107.7500614  36.6624600  89.0684161 108.3152257
  36.3574736  89.3830310 109.1662400  37.6155043  89.1465581 108.3579590
  35.1071032  95.2274384 109.9645211  34.5792394  94.4927144 109.6518449
  34.6058535  96.0049060 109.7185179  40.0863878  93.4223405 115.0812257
  39.4287553  94.1122666 115.1692386  40.8904278  93.8119837 115.4246244
  29.8389760  85.8894050 112.3251823  30.4133512  85.6669232 111.5925016
  30.4260742  85.9582745 113.0780424  38.8969337  91.7767777 113.1316199
  39.4101219  92.4097769 113.6337909  39.5470561  91.1768973 112.7659559
  30.1659347  87.9198511 106.3447708  29.3296659  88.2573198 106.6656983
  30.0264117  87.7847491 105.4074845  32.1412428  82.7635299 111.0526892
  31.4876840  82.4484317 110.4283507  32.0992902  82.1411040 111.7786715
  33.2523633  93.0454594 102.9680184  32.3450694  92.8143848 103.1671333
  33.7494665  92.2492214 103.1554166  36.1591711 101.7552102 105.8876870
  35.4853410 102.0583798 106.4961828  36.5457533 102.5581182 105.5382327
  35.3750168  89.2517233 115.3774540  34.4572729  89.4732180 115.2196228
  35.7910312  89.3263543 114.5186247  36.1585216  90.6508649 110.5077220
  36.9057035  91.1630046 110.1984342  36.4276805  90.3292701 111.3681613
  34.4311866  93.1467189 107.4904174  33.5223085  92.8626222 107.5876644
  34.4606950  93.5666268 106.6307481  39.6631133  96.7573779 111.2595342
  39.2093460  95.9164689 111.3160532  39.0325100  97.3935177 111.5970122
  38.6064053  87.6865765 112.4896009  37.8686810  87.1743151 112.8206252
  38.8590826  87.2466146 111.6779286  38.1064073  98.5950275 112.1945160
  38.3987047  99.1555333 111.4757526  38.6162693  98.8878836 112.9498319
  38.7075680  80.4642017 113.0837778  39.0134557  79.6039380 112.7963694
  39.4328285  81.0559637 112.8836772  25.0000036  90.8672703 111.4719376
  24.8024436  90.2742064 110.7470443  24.4446700  90.5624914 112.1895315
  32.9796760  90.7595810 113.5913970  33.0345370  89.8069646 113.5156446
  32.1687962  90.9155249 114.0755268  34.1287954  94.6875933 104.8292253
  33.6907384  93.9711792 104.3697890  34.8698395  94.9152048 104.2677344
  30.9189120  89.3772870 111.3504348  30.1056985  89.6767040 111.7569541
  31.4148114  88.9828558 112.0678831  33.0697698  99.3730627 113.2838613
  33.0273877  99.5991473 112.3547145  33.9860397  99.1394001 113.4324414
  36.5163332  89.8414694 120.1819242  36.8712719  90.0686167 121.0413708
  37.1635463  90.1733071 119.5596498  42.2461069  92.9633130 110.8868571
  42.1078967  93.1534726 109.9589761  41.8897287  93.7252513 111.3436622
  30.4103195  86.9491225 116.9665583  31.0502574  86.8079984 116.2688547
  29.5780725  86.6625739 116.5904185  42.2730448  95.0309657 115.8979843
  42.7066955  94.9384946 116.7462897  42.9862029  95.0067157 115.2599859
  31.1863499  96.2493656 113.0800576  31.9804097  95.7543976 112.8783151
  30.4755191  95.7211519 112.7168281  36.0058343  98.6311751 117.4312943
  36.0595365  99.2002687 118.1990659  35.1373124  98.8013636 117.0666981
  27.4946262  90.3936737 109.1560329  26.5643850  90.3321193 109.3730291
  27.5903734  89.8712690 108.3596970  27.4131811  86.9191550 111.7438570
  27.6738628  87.8336883 111.6347731  28.2348983  86.4515993 111.8935183
  43.1345998  95.0733358 118.4312728  43.3281888  95.9779168 118.6772003
  43.0346616  94.6140777 119.2651313  34.7882308  84.9591248 120.9303056
  34.1410223  85.6581198 120.8367532  35.5583324  85.3927392 121.2979304
  34.9646443  92.7972013 118.9899875  35.8938503  92.9483173 118.8168843
  34.5437473  92.8856034 118.1348522  33.7634775  96.8222678 116.7598413
  33.6245860  96.4541462 117.6324351  32.9749371  97.3370317 116.5882371
  34.3582927 101.9231774 108.1023949  34.5334682 101.4519817 108.9169572
  33.6715715 102.5497540 108.3305210  35.3139990  96.2004280 114.1487251
  34.9789822  96.1605050 115.0444901  34.8143935  95.5348996 113.6757661
  38.2499181  93.5460315 104.4224310  37.6328352  92.8207143 104.3257363
  37.7815670  94.3069675 104.0791385  39.9053313  98.2559223 122.0830091
  39.8465859  97.5718443 121.4160674  40.3072831  98.9978213 121.6310717
  30.0397727  87.7645739 103.5445615  29.1627194  87.6434540 103.1807861
  30.5155480  86.9731817 103.2924503  39.9070720  96.2198807 120.3144070
  39.0197499  95.8824729 120.4370469  40.4769271  95.4881838 120.5512836
  33.2261653 100.1172029 110.7908135  32.4429175 100.6593709 110.8846360
  33.9254398 100.6346009 111.1902376  36.5358303  85.9266659 113.4342341
  37.0327003  85.1736621 113.1143411  35.7645285  85.9630975 112.8685550
  44.3888061  91.6307024 115.0760632  44.3777937  92.5131740 114.7054565
  43.5205440  91.2778575 114.8815169  37.6188084  94.6838346 111.0080764
  36.6844363  94.8039808 110.8385468  37.7964753  93.7810813 110.7440774
  33.1193272  88.0684042 113.1614025  32.7491060  87.5155082 113.8494931
  33.6152365  87.4642175 112.6089025  41.0060635  90.5255665 111.5430798
  41.4721088  91.3583657 111.4691101  41.4568136  90.0600647 112.2476057
  39.0736867  96.8699487 108.5416950  39.3496710  96.7556081 109.4510824
  38.2041365  96.4716971 108.5029123  38.9777298  82.8936252 115.5821699
  38.0640378  83.1240479 115.7503906  39.4070400  82.9774696 116.4335732
  38.7483757  91.0826144 118.0821593  38.0955207  91.3302052 117.4274046
  39.1264137  90.2690282 117.7484071  35.7090931 101.1185837 112.1849764
  35.8913325 100.3007493 112.6477516  36.5323917 101.3353530 111.7474654
  36.0433096 100.0454022 109.4464812  36.5720863  99.5346477 108.8334974
  36.3061316  99.7296553 110.3110345  28.5158606  85.4788032 119.4067131
  28.5799932  86.3402863 118.9944529  28.4525726  84.8662034 118.6739490
  24.7676421  89.3587594 108.9858520  25.0629862  88.4498273 108.9325574
  23.8664457  89.3375334 108.6639523  36.6762500 101.0794858 115.7908929
  36.5513639 100.2784598 115.2819874  37.3341591 101.5741052 115.3022899
  28.2970668  87.4343591 114.9686069  27.5757254  88.0479558 114.8293542
  29.0863924  87.9701356 114.8902715  38.7397408  98.8803878 117.4188479
  37.7927744  98.7609229 117.3466805  39.0880181  97.9926376 117.5014740
  31.0996982  84.7698017 121.2426721  31.6231383  85.0160314 122.0053030
  30.8809315  85.6018052 120.8229858  26.4964263  87.0401692 109.1097845
  26.1676969  86.1599071 108.9272951  26.8503633  86.9849360 109.9974235
  35.7443842  98.6756595 113.6192831  35.5968804  97.7473302 113.8000401
  36.5697335  98.6976685 113.1349906  29.6106086  87.3274662 109.4773323
  29.9502158  87.8560583 108.7551931  30.0578206  87.6655068 110.2531890
  39.3477963  99.4985153 114.7057704  40.2724511  99.2928015 114.5682155
  39.1793267  99.2501554 115.6147045  32.3049527  85.7111712 118.9276391
  31.9646347  84.9119525 119.3297071  31.5988533  86.0113423 118.3553224
  32.9565999  82.7961025 117.3803714  33.7792068  82.3221503 117.2582605
  33.2004062  83.5751508 117.8802400  31.5974233  85.8249283 107.6766616
  32.3182596  86.2030536 107.1730333  30.9739537  86.5438160 107.7801594
  35.7405356  86.5294432 108.6124948  35.9568970  87.4119070 108.3113776
  35.2599423  86.1380646 107.8830590  30.4804577  89.4880145 115.1895693
  30.3349158  89.8020448 116.0819974  30.0029781  90.1065046 114.6366591
  32.3400960  86.4782693 115.2376582  32.3262529  85.5823787 114.9008880
  33.0573388  86.4853357 115.8714868  34.1927091  86.9120034 117.2829710
  33.9344869  87.8337104 117.2814040  33.6612131  86.5150468 117.9730174
  39.1373280 100.0170821 110.0619795  39.3110157  99.4517243 109.3093648
  39.6302171 100.8171716 109.8799285  31.7437856  85.3597074 110.5064153
  31.8653767  84.4313720 110.7055040  31.4539898  85.3735760 109.5942468
  34.6129046  83.0451984 113.6430872  34.6350743  83.1091317 112.6882852
  35.0297105  82.2056493 113.8371379  44.9912671  92.7807244 111.6810095
  45.4343817  92.0314569 111.2829218  44.1139181  92.7717380 111.2983827
  40.1248452  99.3337585 107.1616693  40.8199357  99.9544278 107.3804008
  40.4671602  98.4832936 107.4369071  42.0239875  96.7837291 108.6904024
  42.5491199  97.1224563 107.9653344  41.9362228  95.8484306 108.5067159
  33.7080536 102.8509274 113.0499277  33.2685526 102.3585653 113.7432134
  34.4588653 102.3082242 112.8091353  41.8331656  94.2662661 121.3087951
  41.8829661  94.1012668 122.2503474  41.7245580  93.3989920 120.9185832
  30.7167915  96.9451206 108.5980040  30.8656035  97.6286671 107.9446712
  31.5234359  96.9256296 109.1129495  39.1235419  90.2493589 122.6247257
  40.0245282  90.1100054 122.3331255  39.1983393  90.4148044 123.5645435
  33.4578224  87.6260443 121.4700444  32.5881533  87.9194009 121.1983032
  33.6937704  88.2100888 122.1907707  43.3349853  96.6859602 121.5529972
  43.0434661  97.0489583 122.3893433  42.7221984  95.9726610 121.3743304
  44.5345535  94.2512482 114.0732542  45.3692427  94.6902286 114.2370103
  44.6704664  93.7751135 113.2540788  41.5837041  91.8092217 120.0210030
  42.0591163  92.0019863 119.2128882  40.6602607  91.8651403 119.7753414
  28.4720548  92.9716384 109.6041109  28.2266590  92.0678714 109.8021319
  28.6416463  92.9733534 108.6620587  36.1617258  83.8440060 118.9865864
  36.6799202  84.5801087 118.6612353  35.8072391  84.1504054 119.8212623
  27.7416196  88.7044742 107.1027270  27.0485441  88.7789097 106.4467306
  27.4967947  87.9405085 107.6248787  36.4129852  80.2640343 114.5066761
  36.6931606  79.5963532 115.1327187  37.1980459  80.4569438 113.9941425
  34.2163321  99.4399337 106.0691787  33.6437288 100.0589524 105.6162259
  34.7896114  99.9898698 106.6031709  40.2838710  88.6857977 118.2538336
  41.2356133  88.7856075 118.2750560  40.1142161  87.8936245 118.7636420
  38.3053090  85.7713560 118.4397737  37.7103022  86.0518573 117.7444225
  38.0202787  86.2607461 119.2114478  37.4360580  99.7236487 107.2000369
  38.3691254  99.6582049 107.4033245  37.3483793 100.5592754 106.7414902
  40.0648597  99.0402357 104.1604317  39.9862229  98.7062221 105.0540075
  40.8858264  99.5324125 104.1595789  42.7626788  91.9064097 117.3680636
  42.7303108  90.9680097 117.5540319  43.3727412  91.9848133 116.6346460
  34.6010119  90.7760150 103.4107840  35.5469224  90.6466358 103.4796258
  34.2224364  90.0374811 103.8877268  42.9121277  88.6975140 117.4138919
  42.3960325  87.9133597 117.2268848  43.7961225  88.3693857 117.5785438
  40.5732004  82.4416156 113.3734731  40.3756825  82.1331244 114.2578063
  41.1831709  83.1677794 113.5032661  48.5803338  92.9680103 116.5086672
  49.3106727  92.7065392 117.0694376  47.9710284  92.2308825 116.5488740
  46.6618635  91.1087966 117.1061124  45.9351799  90.9743931 116.4977615
  46.2465922  91.4164795 117.9117842  32.7853036  88.7010126 103.3462725
  31.8784492  88.4043239 103.4225438  33.0629017  88.4039944 102.4797011
  34.4015102  83.2447016 109.5006966  33.5915830  82.8994101 109.8762212
  35.0899519  82.9354559 110.0894578  36.3305650  82.3225062 111.1231263
  36.8836689  82.7420516 111.7821286  36.5675737  81.3960811 111.1654219
  31.5551821  85.5597061 103.4874704  32.4170985  85.8851959 103.7470521
  31.7402165  84.7728557 102.9747770  39.7084457  84.4325588 110.6309927
  39.1283126  85.0910392 110.2487979  39.4420390  83.6102932 110.2197344
  38.1588024  83.8330645 112.8331247  38.6587802  83.9447180 112.0245566
  38.8023632  83.5291698 113.4732056  38.4909335  86.5925678 109.6866275
  37.6035190  86.8775329 109.4686470  38.9063324  86.4319441 108.8393552
  41.8423871  86.6172199 113.4020614  42.6184262  87.1068651 113.6745231
  41.1172006  87.0430253 113.8592484  44.2796430  87.3299818 114.4594555
  44.8740921  87.0895554 113.7487863  44.3523014  86.6106949 115.0868091
  37.6352549  96.3570353 103.7814295  38.3388399  96.5620355 104.3971951
  36.9115198  96.9247115 104.0463379  38.4650359  92.1080214 109.9016565
  38.4085560  92.5648765 109.0624198  39.0178702  91.3470899 109.7239408
  42.2755165  87.8969946 110.7266685  42.0192099  87.4966581 111.5574893
  41.6508033  88.6113740 110.6016824  46.5867503  90.6366019 113.2337976
  46.0267061  90.7059208 114.0069538  45.9811006  90.4607004 112.5137473
  39.5439246  96.7952882 105.8312755  40.3784850  96.3634080 105.6490230
  39.3823589  96.6234896 106.7589650  39.1985138  93.2984995 107.1969095
  39.1433942  93.1329267 106.2557539  38.5731194  94.0061028 107.3531284
  32.5081264  82.7993104 106.7754413  32.4959934  83.7434944 106.9322684
  33.4004686  82.6163250 106.4813874  36.3233383  79.3935881 111.0300350
  35.5565779  78.8394368 111.1757032  36.7344088  79.4657750 111.8914501
  44.9813228 107.2649961 115.8629457  44.6431739 107.1491026 114.9749992
  45.8502996 106.8641126 115.8430463  40.8400043 109.1185437 111.8526348
  40.2764908 109.0275374 111.0842635  40.7252438 108.2985342 112.3328840
  46.4199602 112.7856405 107.1640813  45.7687582 113.3710486 106.7774826
  47.2143965 113.3162600 107.2235850  40.3455229 109.8745542 107.5627947
  41.1186105 109.3274529 107.4240823  40.6980628 110.7389792 107.7742408
  42.6821507 106.0338208 105.1946397  42.9347028 105.5119730 104.4329860
  41.7446066 105.8704354 105.2973080  47.7264790 105.0373987 113.0021140
  48.5127879 104.6193410 112.6511557  47.9903494 105.9420079 113.1702788
  47.8974867 110.4746837 107.7009797  47.2620700 110.5481464 108.4130702
  47.5672274 111.0640436 107.0228876  53.1273217 104.9749220 113.9054119
  53.8598389 104.4048437 114.1391948  52.3712573 104.5870820 114.3460624
  42.4017796 107.9366314 107.3970772  42.2854054 107.2611218 108.0651856
  42.5120056 107.4498688 106.5802925  44.7449337 107.3976462 111.1017461
  44.3807544 106.8707082 111.8130382  45.6016453 107.0074931 110.9283946
  50.6498637  98.6870794 118.3648727  50.3181962  99.5566205 118.1409942
  50.0544251  98.3707078 119.0442758  44.3854824 102.4266361 106.0978810
  44.5529226 103.2946598 106.4649281  44.1951993 102.5893643 105.1740099
  40.5942638 107.3397137 113.7981344  39.6693135 107.2073351 114.0059036
  40.8427051 108.1191356 114.2951287  44.3644045 104.8824019 107.0825476
  44.2443670 105.3281069 107.9210957  43.6696633 105.2309336 106.5239015
  42.1250937 117.6527660 110.7315608  42.0474966 118.6035486 110.8104088
  41.5212580 117.3073533 111.3890534  50.0629111 105.3545492 107.9105810
  50.9746967 105.5872879 107.7353508  49.5538758 105.9382536 107.3480889
  47.4065085 101.5303528 116.1595671  46.5449564 101.8284781 116.4512409
  47.4327520 101.7473927 115.2276704  44.2226655 110.0745718 112.5669477
  44.6865000 110.3533421 111.7774099  43.9583453 109.1729163 112.3842568
  41.1150736 109.6217200 115.5049240  41.6852093 110.0504468 114.8666725
  41.7058848 109.3399785 116.2033426  43.1595541 106.1968871 109.3759042
  43.8619584 106.6489914 109.8432968  42.8276169 105.5552690 110.0038935
  36.9020875 104.4552423 114.6776176  36.1119929 104.7109952 114.2016286
  37.3932122 105.2700761 114.7828216  38.8535620 104.8197003 111.6359652
  38.0566784 104.9315697 112.1543148  38.6261212 105.1583655 110.7700543
  44.3989306 113.0109813 109.4521147  44.2634980 113.8561349 109.8805995
  44.9399118 113.2129091 108.6887081  37.8518703 110.5285251 110.0249072
  38.3643223 111.3228502 110.1754637  38.5041416 109.8311542 109.9582674
  39.6613588 113.6451008 112.1071826  39.8380216 114.5668972 111.9192809
  40.4570421 113.3309427 112.5366205  47.7481769  96.5340375 117.9820041
  47.4046038  97.4242017 117.9059151  48.1160732  96.3442033 117.1189626
  35.8167620 108.8573906 110.8008643  36.6542842 109.2670914 110.5842351
  35.9945887 107.9173348 110.7708837  47.7132052 106.5248986 106.4892476
  47.1978675 107.2953591 106.7280863  47.4409360 105.8514123 107.1125537
  45.2979163 101.3698687 111.5477714  44.4420759 100.9805538 111.3683353
  45.7106115 101.4490648 110.6877500  46.8278309  98.9045030 115.9469274
  46.3243105  98.8675166 115.1337079  47.1208916  99.8137773 116.0065931
  43.0721195  98.9883760 114.9535456  43.9374192  98.7926569 114.5941345
  43.1398704  98.7594112 115.8804813  52.6866326 109.2781341 108.4245649
  51.9095769 108.9392501 107.9800811  53.3657807 109.2833964 107.7500614
  47.5018355 104.3976079 108.3152257  47.1968491 104.7122228 109.1662400
  48.4548797 104.4757498 108.3579590  45.9464787 110.5566302 109.9645211
  45.4186148 109.8219061 109.6518449  45.4452290 111.3340978 109.7185179
  40.6783514 101.2185968 112.3251823  41.2527266 100.9961150 111.5925016
  41.2654497 101.2874663 113.0780424  49.7363092 107.1059695 113.1316199
  50.2494973 107.7389687 113.6337909  50.3864316 106.5060891 112.7659559
  41.0053102 103.2490429 106.3447708  40.1690414 103.5865116 106.6656983
  40.8657871 103.1139409 105.4074845  42.9806182  98.0927217 111.0526892
  42.3270594  97.7776234 110.4283507  42.9386656  97.4702957 111.7786715
  44.0917387 108.3746512 102.9680184  43.1844449 108.1435766 103.1671333
  44.5888419 107.5784131 103.1554166  46.9985466 117.0844019 105.8876870
  46.3247165 117.3875716 106.4961828  47.3851288 117.8873100 105.5382327
  46.2143923 104.5809151 115.3774540  45.2966484 104.8024098 115.2196228
  46.6304066 104.6555461 114.5186247  46.9978970 105.9800566 110.5077220
  47.7450789 106.4921963 110.1984342  47.2670560 105.6584619 111.3681613
  45.2705620 108.4759107 107.4904174  44.3616840 108.1918140 107.5876644
  45.3000704 108.8958186 106.6307481  49.4457807 103.0157682 112.4896009
  48.7080564 102.5035069 112.8206252  49.6984581 102.5758064 111.6779286
  49.5469435  95.7933934 113.0837778  49.8528312  94.9331298 112.7963694
  50.2722040  96.3851555 112.8836772  35.8393791 106.1964621 111.4719376
  35.6418191 105.6033982 110.7470443  35.2840455 105.8916831 112.1895315
  43.8190514 106.0887728 113.5913970  43.8739124 105.1361564 113.5156446
  43.0081717 106.2447167 114.0755268  44.9681708 110.0167851 104.8292253
  44.5301138 109.3003710 104.3697890  45.7092149 110.2443965 104.2677344
  41.7582874 104.7064787 111.3504348  40.9450740 105.0058958 111.7569541
  42.2541869 104.3120476 112.0678831  53.0854823 108.2925048 110.8868571
  52.9472722 108.4826644 109.9589761  52.7291042 109.0544430 111.3436622
  41.2496949 102.2783143 116.9665583  41.8896328 102.1371902 116.2688547
  40.4174480 101.9917656 116.5904185  42.0257253 111.5785573 113.0800576
  42.8197852 111.0835893 112.8783151  41.3148945 111.0503436 112.7168281
  38.3340017 105.7228655 109.1560329  37.4037605 105.6613110 109.3730291
  38.4297489 105.2004608 108.3596970  38.2525566 102.2483468 111.7438570
  38.5132383 103.1628801 111.6347731  39.0742738 101.7807910 111.8935183
  45.1976681 117.2523692 108.1023949  45.3728437 116.7811735 108.9169572
  44.5109469 117.8789458 108.3305210  49.0892936 108.8752232 104.4224310
  48.4722106 108.1499060 104.3257363  48.6209424 109.6361593 104.0791385
  40.8791482 103.0937657 103.5445615  40.0020948 102.9726457 103.1807861
  41.3549235 102.3023735 103.2924503  44.0655408 115.4463947 110.7908135
  43.2822930 115.9885627 110.8846360  44.7648153 115.9637927 111.1902376
  47.3752058 101.2558576 113.4342341  47.8720757 100.5028539 113.1143411
  46.6039039 101.2922893 112.8685550  48.4581839 110.0130264 111.0080764
  47.5238117 110.1331726 110.8385468  48.6358507 109.1102730 110.7440774
  43.9587027 103.3975959 113.1614025  43.5884814 102.8447000 113.8494931
  44.4546119 102.7934093 112.6089025  51.8454390 105.8547583 111.5430798
  52.3114842 106.6875574 111.4691101  52.2961890 105.3892564 112.2476057
  49.9130621 112.1991404 108.5416950  50.1890465 112.0847999 109.4510824
  49.0435120 111.8008889 108.5029123  49.8171053  98.2228170 115.5821699
  48.9034133  98.4532397 115.7503906  50.2464154  98.3066614 116.4335732
  46.8826851 115.3745940 109.4464812  47.4114617 114.8638395 108.8334974
  47.1455070 115.0588470 110.3110345  39.3552360 100.8079950 119.4067131
  39.4193687 101.6694781 118.9944529  39.2919481 100.1953952 118.6739490
  35.6070176 104.6879512 108.9858520  35.9023617 103.7790190 108.9325574
  34.7058211 104.6667251 108.6639523  39.1364423 102.7635508 114.9686069
  38.4151008 103.3771476 114.8293542  39.9257678 103.2993273 114.8902715
  37.3358017 102.3693609 109.1097845  37.0070723 101.4890988 108.9272951
  37.6897388 102.3141278 109.9974235  40.4499840 102.6566579 109.4773323
  40.7895913 103.1852501 108.7551931  40.8971961 102.9946985 110.2531890
  43.1443281 101.0403630 118.9276391  42.8040102 100.2411443 119.3297071
  42.4382287 101.3405341 118.3553224  43.7959753  98.1252942 117.3803714
  44.6185822  97.6513421 117.2582605  44.0397817  98.9043426 117.8802400
  42.4367988 101.1541201 107.6766616  43.1576350 101.5322454 107.1730333
  41.8133292 101.8730078 107.7801594  46.5799110 101.8586350 108.6124948
  46.7962725 102.7410988 108.3113776  46.0993178 101.4672563 107.8830590
  41.3198332 104.8172063 115.1895693  41.1742912 105.1312366 116.0819974
  40.8423535 105.4356963 114.6366591  43.1794715 101.8074611 115.2376582
  43.1656283 100.9115704 114.9008880  43.8967143 101.8145275 115.8714868
  45.0320845 102.2411951 117.2829710  44.7738623 103.1629022 117.2814040
  44.5005886 101.8442386 117.9730174  42.5831611 100.6888991 110.5064153
  42.7047522  99.7605638 110.7055040  42.2933653 100.7027677 109.5942468
  45.4522801  98.3743902 113.6430872  45.4744498  98.4383235 112.6882852
  45.8690860  97.5348410 113.8371379  50.9642207 114.6629503 107.1616693
  51.6593111 115.2836195 107.3804008  51.3065357 113.8124854 107.4369071
  52.8633630 112.1129208 108.6904024  53.3884954 112.4516481 107.9653344
  52.7755982 111.1776224 108.5067159  41.5561670 112.2743124 108.5980040
  41.7049790 112.9578588 107.9446712  42.3628113 112.2548214 109.1129495
  39.3114303 108.3008302 109.6041109  39.0660344 107.3970632 109.8021319
  39.4810217 108.3025452 108.6620587  47.0011012  99.1731978 118.9865864
  47.5192956  99.9093005 118.6612353  46.6466145  99.4795971 119.8212623
  38.5809950 104.0336659 107.1027270  37.8879195 104.1081014 106.4467306
  38.3361702 103.2697003 107.6248787  47.2523607  95.5932261 114.5066761
  47.5325360  94.9255450 115.1327187  48.0374213  95.7861356 113.9941425
  45.0557075 114.7691254 106.0691787  44.4831042 115.3881442 105.6162259
  45.6289869 115.3190616 106.6031709  48.2754335 115.0528405 107.2000369
  49.2085008 114.9873966 107.4033245  48.1877548 115.8884671 106.7414902
  50.9042352 114.3694275 104.1604317  50.8255983 114.0354139 105.0540075
  51.7252018 114.8616043 104.1595789  45.4403874 106.1052067 103.4107840
  46.3862978 105.9758275 103.4796258  45.0618119 105.3666729 103.8877268
  51.4125758  97.7708073 113.3734731  51.2150579  97.4623161 114.2578063
  52.0225464  98.4969712 113.5032661  43.6246791 104.0302044 103.3462725
  42.7178246 103.7335156 103.4225438  43.9022772 103.7331862 102.4797011
  45.2408856  98.5738933 109.5006966  44.4309585  98.2286018 109.8762212
  45.9293273  98.2646477 110.0894578  47.1699405  97.6516980 111.1231263
  47.7230443  98.0712434 111.7821286  47.4069491  96.7252728 111.1654219
  42.3945575 100.8888979 103.4874704  43.2564739 101.2143877 103.7470521
  42.5795919 100.1020475 102.9747770  50.5478212  99.7617505 110.6309927
  49.9676881 100.4202309 110.2487979  50.2814145  98.9394850 110.2197344
  48.9981778  99.1622563 112.8331247  49.4981557  99.2739098 112.0245566
  49.6417386  98.8583616 113.4732056  49.3303090 101.9217596 109.6866275
  48.4428945 102.2067246 109.4686470  49.7457079 101.7611359 108.8393552
  52.6817626 101.9464117 113.4020614  53.4578016 102.4360569 113.6745231
  51.9565760 102.3722171 113.8592484  55.1190185 102.6591736 114.4594555
  55.7134675 102.4187472 113.7487863  55.1916768 101.9398866 115.0868091
  48.4746303 111.6862270 103.7814295  49.1782153 111.8912273 104.3971951
  47.7508952 112.2539032 104.0463379  49.3044114 107.4372132 109.9016565
  49.2479315 107.8940683 109.0624198  49.8572456 106.6762816 109.7239408
  53.1148919 103.2261863 110.7266685  52.8585854 102.8258499 111.5574893
  52.4901788 103.9405657 110.6016824  50.3833001 112.1244800 105.8312755
  51.2178605 111.6925998 105.6490230  50.2217344 111.9526813 106.7589650
  50.0378893 108.6276913 107.1969095  49.9827697 108.4621184 106.2557539
  49.4124948 109.3352946 107.3531284  43.3475018  98.1285022 106.7754413
  43.3353688  99.0726862 106.9322684  44.2398440  97.9455167 106.4813874
  47.1627138  94.7227798 111.0300350  46.3959534  94.1686285 111.1757032
  47.5737843  94.7949667 111.8914501  51.8446856 118.5782347 106.3447708
  51.0084168 118.9157033 106.6656983  51.7051626 118.4431327 105.4074845
  51.7185236 118.4229574 103.5445615  50.8414703 118.3018375 103.1807861
  52.1942989 117.6315653 103.2924503  49.4203705 119.3628577 107.1027270
  48.7272949 119.4372932 106.4467306  49.1755456 118.5988921 107.6248787
  54.4640545 119.3593961 103.3462725  53.5572001 119.0627074 103.4225438
  54.7416526 119.0623779 102.4797011  53.2339330 116.2180896 103.4874704
  54.0958494 116.5435795 103.7470521  53.4189674 115.4312392 102.9747770
  54.1868773 113.4576940 106.7754413  54.1747443 114.4018779 106.9322684
  55.0792195 113.2747085 106.4813874   3.6410449  32.7738471  92.6122177
   2.9672148  33.0770168  93.2207135   4.0276271  33.5767552  92.2627634
   5.7317919  24.5646684  91.1469617   5.1147090  23.8393512  91.0502670
   5.2634408  25.3256044  90.8036691   7.6067190  30.3523955  93.8862000
   8.3018095  30.9730647  94.1049315   7.9490340  29.5019306  94.1614378
   1.6982058  30.4585706  92.7937094   1.1256025  31.0775893  92.3407566
   2.2714852  31.0085068  93.3277016   4.9179318  30.7422856  93.9245676
   5.8509991  30.6768418  94.1278551   4.8302531  31.5779123  93.4660209
   7.5467335  30.0588727  90.8849624   7.4680966  29.7248590  91.7785381
   8.3677002  30.5510495  90.8841096   5.1171287  27.3756722  90.5059602
   5.8207137  27.5806725  91.1217257   4.3933935  27.9433484  90.7708685
   7.0257984  27.8139251  92.5558062   7.8603588  27.3820450  92.3735537
   6.8642327  27.6421265  93.4834956  15.6542259  38.3308903 102.6513239
  16.2920669  38.2115650 101.9476579  15.5363102  39.2789746 102.7101191
  12.4631965  38.2836331 102.5874763  12.1250477  38.1677395 101.6995298
  13.3321734  37.8827496 102.5675769   8.3218781  40.1371807  98.5771654
   7.7583646  40.0461744  97.8087942   8.2071176  39.3171712  99.0574147
  13.9018340  43.8042775  93.8886119  13.2506320  44.3896855  93.5020133
  14.6962703  44.3348970  93.9481157   7.8273967  40.8931912  94.2873254
   8.6004843  40.3460899  94.1486129   8.1799366  41.7576161  94.4987715
  10.1640245  37.0524578  91.9191703  10.4165765  36.5306099  91.1575166
   9.2264804  36.8890723  92.0218387  15.2083528  36.0560356  99.7266447
  15.9946617  35.6379780  99.3756864  15.4722232  36.9606449  99.8948095
  15.3793605  41.4933207  94.4255104  14.7439438  41.5667833  95.1376008
  15.0491011  42.0826806  93.7474183  20.6091955  35.9935590 100.6299425
  21.3417127  35.4234806 100.8637255  19.8531310  35.6057190 101.0705931
   9.8836534  38.9552684  94.1216078   9.7672792  38.2797587  94.7897163
   9.9938793  38.4685058  93.3048231  12.2268074  38.4162831  97.8262768
  11.8626282  37.8893452  98.5375689  13.0835190  38.0261300  97.6529253
  11.8673561  33.4452731  92.8224116  12.0347964  34.3132967  93.1894587
  11.6770730  33.6080012  91.8985405  14.6248895  41.9069710 104.4889947
  14.3249618  42.8094748 104.3805754  14.2799954  41.6401893 105.3411099
  18.0246038  34.4252250 102.1687384  17.1162916  34.3567658 101.8746145
  17.9733634  34.9024195 102.9969209  11.8462782  35.9010388  93.8070783
  11.7262407  36.3467439  94.6456263  11.1515371  36.2495706  93.2484321
   9.6069674  48.6714030  97.4560914   9.5293704  49.6221855  97.5349395
   9.0031318  48.3259903  98.1135841  17.5447848  36.3731861  94.6351117
  18.4565705  36.6059248  94.4598815  17.0357496  36.9568906  94.0726196
  16.1517431  41.3557680 102.0264699  15.5226293  41.5203394 101.3240766
  15.7643093  41.7699289 102.7975663  20.0306663  42.2912118  99.3809062
  19.3457701  42.6711019  98.8306096  20.1150512  42.9007444 100.1141010
  11.7045393  41.0932088  99.2914784  12.1683738  41.3719791  98.5019406
  11.4402191  40.1915533  99.1087874  10.6414279  37.2155240  96.1004349
  11.3438322  37.6676284  96.5678275  10.3094907  36.5739059  96.7284242
  18.4003422  42.8144032 104.1526763  19.2220866  42.4124219 103.8709445
  18.3965825  42.7112266 105.1042879  26.4909415  39.1582781 100.5011735
  25.7373124  38.5890179 100.3455739  26.6256956  39.1245445 101.4482369
  11.8808043  44.0296183  96.1766454  11.7453718  44.8747719  96.6051302
  12.4217856  44.2315461  95.4132388   5.3337441  41.5471621  96.7494379
   5.8461961  42.3414871  96.8999944   5.9860154  40.8497911  96.6827981
   7.1432325  44.6637377  98.8317132   7.3198954  45.5855342  98.6438116
   7.9389159  44.3495797  99.2611512   8.2663641  46.1815551 104.8327475
   8.8171066  46.0532614 104.0604469   7.4275117  46.4810440 104.4822367
   3.2986357  39.8760275  97.5253950   4.1361579  40.2857284  97.3087657
   3.4764625  38.9359717  97.4954143  15.1950790  37.5435356  93.2137783
  14.6797413  38.3139961  93.4526170  14.9228098  36.8700492  93.8370844
  12.7797901  32.3885057  98.2723021  11.9239497  31.9991907  98.0928660
  13.1924852  32.4677018  97.4122806  20.1685064  40.2967711  95.1490956
  19.3914507  39.9578870  94.7046118  20.8476545  40.3020334  94.4745921
  14.9837093  35.4162448  95.0397564  14.6787228  35.7308597  95.8907707
  15.9367535  35.4943868  95.0824897  13.4283525  41.5752671  96.6890518
  12.9004886  40.8405431  96.3763755  12.9271027  42.3527348  96.4430486
  18.4076371  39.7701692 101.8057564  17.7500045  40.4600953 101.8937693
  19.2116770  40.1598124 102.1491550  17.2181829  38.1246065  99.8561506
  17.7313711  38.7576056 100.3583215  17.8683053  37.5247260  99.4904866
   8.4871839  34.2676799  93.0693014   7.6509152  34.6051485  93.3902289
   8.3476609  34.1325778  92.1320151  11.5736125  39.3932882  89.6925491
  10.6663187  39.1622135  89.8916640  12.0707157  38.5970501  89.8799472
  14.4804204  48.1030389  92.6122177  13.8065902  48.4062086  93.2207135
  14.8670026  48.9059469  92.2627634  14.4797708  36.9986936  97.2322527
  15.2269527  37.5108333  96.9229649  14.7489298  36.6770989  98.0926920
  12.7524358  39.4945477  94.2149481  11.8435577  39.2104509  94.3121951
  12.7819442  39.9144555  93.3552788  17.9843626  43.1052066  97.9840648
  17.5305953  42.2642976  98.0405839  17.3537592  43.7413464  98.3215429
  16.9276545  34.0344052  99.2141316  16.1899302  33.5221438  99.5451558
  17.1803319  33.5944434  98.4024593  16.4276565  44.9428563  98.9190467
  16.7199539  45.5033620  98.2002832  16.9375185  45.2357124  99.6743626
  11.3009252  37.1074097 100.3159276  11.3557862  36.1547934 100.2401753
  10.4900454  37.2633536 100.8000575  12.4500446  41.0354220  91.5537559
  12.0119876  40.3190079  91.0943197  13.1910887  41.2630335  90.9922651
   9.2401612  35.7251157  98.0749655   8.4269478  36.0245327  98.4814847
   9.7360606  35.3306846  98.7924137  11.3910190  45.7208914 100.0083920
  11.3486369  45.9469760  99.0792452  12.3072889  45.4872288 100.1569721
  20.5673561  39.3111417  97.6113878  20.4291459  39.5013013  96.6835067
  20.2109780  40.0730800  98.0681929  20.5942940  41.3787944 102.6225149
  21.0279447  41.2863233 103.4708204  21.3074521  41.3545445 101.9845165
   9.5075991  42.5971943  99.8045882  10.3016589  42.1022263  99.6028457
   8.7967683  42.0689806  99.4413588  14.3270835  44.9790038 104.1558250
  14.3807858  45.5480975 104.9235966  13.4585617  45.1491923 103.7912287
   5.8158754  36.7415025  95.8805635   4.8856342  36.6799480  96.0975597
   5.9116226  36.2190977  95.0842276  21.4558490  41.4211645 105.1558035
  21.6494380  42.3257455 105.4017310  21.3559108  40.9619064 105.9896620
  12.0847267  43.1700965 103.4843720  11.9458353  42.8019749 104.3569658
  11.2961863  43.6848604 103.3127677  12.6795419  48.2710061  94.8269256
  12.8547175  47.7998104  95.6414879  11.9928207  48.8975827  95.0550517
  13.6352482  42.5482567 100.8732557  13.3002315  42.5083337 101.7690207
  13.1356428  41.8827283 100.4002968  16.5711674  39.8938602  91.1469617
  15.9540844  39.1685430  91.0502670  16.1028162  40.6547962  90.8036691
   7.2456504  51.4199424 101.6009116   7.4853102  52.0517948 102.2788135
   6.4025701  51.0687464 101.8874476   8.3610220  34.1124026  90.2690921
   7.4839686  33.9912827  89.9053168   8.8367973  33.3210104  90.0169810
  11.7584366  47.2278546 104.0050620  11.6854537  48.0333518 104.5169925
  11.3161759  47.4270512 103.1798642  11.5474146  46.4650316  97.5153442
  10.7641667  47.0071997  97.6091666  12.2466891  46.9824296  97.9147683
  14.8570796  32.2744946 100.1587647  15.3539495  31.5214908  99.8388717
  14.0857777  32.3109263  99.5930856  22.7100553  37.9785311 101.8005939
  22.6990429  38.8610027 101.4299872  21.8417933  37.6256862 101.6060476
  14.2183049  47.1265380 106.1608779  14.9311022  47.7612845 106.0884680
  13.7273078  47.2229246 105.3448781  15.9400576  41.0316633  97.7326071
  15.0056855  41.1518096  97.5630775  16.1177245  40.1289100  97.4686080
  19.3273128  36.8733952  98.2676105  19.7933580  37.7061944  98.1936407
  19.7780628  36.4078934  98.9721363  17.3949359  43.2177774  95.2662257
  17.6709203  43.1034368  96.1756131  16.5253858  42.8195259  95.2274430
  14.0303423  47.4664125  98.9095070  14.2125817  46.6485781  99.3722823
  14.8536409  47.6831817  98.4719960  14.3645588  46.3932310  96.1710119
  14.8933355  45.8824764  95.5580281  14.6273808  46.0774840  97.0355652
   7.7201336  47.4447426  98.9307895   7.0511712  47.9293554  98.4471935
   7.5814206  47.6916647  99.8451273  11.8606605  49.4791170 105.5290553
  12.4124913  49.6422791 106.2939638  12.2012798  50.0695608 104.8570578
   3.0888913  35.7065881  95.7103827   3.3842354  34.7976560  95.6570881
   2.1876949  35.6853621  95.3884829  14.9974992  47.4273145 102.5154235
  14.8726132  46.6262885 102.0065181  15.6554083  47.9219339 102.0268205
  17.0609901  45.2282166 104.1433785  16.1140236  45.1087517 104.0712112
  17.4092674  44.3404664 104.2260047   4.8176755  33.3879979  95.8343152
   4.4889461  32.5077358  95.6518258   5.1716126  33.3327648  96.7219541
  14.0656334  45.0234882 100.3438138  13.9181296  44.0951589 100.5245708
  14.8909827  45.0454972  99.8595213   7.9318578  33.6752949  96.2018630
   8.2714651  34.2038870  95.4797238   8.3790699  34.0133355  96.9777196
  17.6690456  45.8463440 101.4303010  18.5937003  45.6406302 101.2927462
  17.5005759  45.5979842 102.3392352   9.9186725  32.1727570  94.4011923
  10.6395088  32.5508823  93.8975639   9.2952029  32.8916447  94.5046900
  14.0617848  32.8772719  95.3370255  14.2781463  33.7597357  95.0359083
  13.5811915  32.4858933  94.6075897  17.4585772  46.3649108  96.7865102
  17.6322649  45.7995530  96.0338954  17.9514663  47.1650003  96.6044592
  10.0650348  31.7075361  97.2309459  10.1866260  30.7792007  97.4300347
   9.7752391  31.7214047  96.3187775  23.3125163  39.1285531  98.4055402
  23.7556309  38.3792856  98.0074525  22.4351673  39.1195667  98.0229134
  18.4460944  45.6815872  93.8862000  19.1411849  46.3022565  94.1049315
  18.7884095  44.8311224  94.1614378  20.3452368  43.1315578  95.4149331
  20.8703692  43.4702851  94.6898651  20.2574720  42.1962593  95.2312465
  12.0293028  49.1987561  99.7744584  11.5898019  48.7063940 100.4677441
  12.7801145  48.6560529  99.5336659   4.5085367  45.3899102  99.7769212
   5.3343387  45.0902874  99.3967856   4.1579419  44.6206724 100.2259001
   9.4766900  44.7425570 101.8466886   8.8546910  44.0796275 101.5469114
  10.1471767  44.7686702 101.1640533   2.7093972  43.3085428 100.7358146
   1.8725881  42.8807603 100.5542147   2.6817618  43.5017872 101.6728937
   9.0380407  43.2929494  95.3225346   9.1868528  43.9764958  94.6692019
   9.8446851  43.2734584  95.8374802  21.6562345  43.0337889 108.2775279
  21.3647154  43.3967870 109.1138740  21.0434477  42.3204898 108.0988611
  22.8558028  40.5990769 100.7977849  23.6904919  41.0380573 100.9615409
  22.9917157  40.1229422  99.9786095   6.7933040  39.3194671  96.3286415
   6.5479082  38.4157001  96.5266625   6.9628955  39.3211822  95.3865893
   6.0628688  35.0523029  93.8272577   5.3697933  35.1267384  93.1712613
   5.8180440  34.2883372  94.3494094  12.5375813  45.7877624  92.7937094
  11.9649780  46.4067811  92.3407566  13.1108607  46.3376986  93.3277016
  15.7573073  46.0714774  93.9245676  16.6903746  46.0060336  94.1278551
  15.6696285  46.9071041  93.4660209  18.3861089  45.3880645  90.8849624
  18.3074721  45.0540508  91.7785381  19.2070756  45.8802412  90.8841096
  21.0839280  38.2542384 104.0925942  21.0515601  37.3158385 104.2785626
  21.6939904  38.3326421 103.3591767  12.9222611  37.1238437  90.1353146
  13.8681716  36.9944645  90.2041564  12.5436856  36.3853099  90.6122574
  26.9015830  39.3158391 103.2331979  27.6319219  39.0543679 103.7939682
  26.2922776  38.5787113 103.2734047  24.9831127  37.4566253 103.8306430
  24.2564291  37.3222218 103.2222922  24.5678414  37.7643082 104.6363148
  11.1065529  35.0488413  90.0708031  10.1996984  34.7521526  90.1470745
  11.3841510  34.7518231  89.2042318  12.7227594  29.5925303  96.2252273
  11.9128323  29.2472388  96.6007519  13.4112011  29.2832847  96.8139884
   9.8764313  31.9075348  90.2120011  10.7383477  32.2330247  90.4715828
  10.0614657  31.1206844  89.6993076  18.0296950  30.7803875  97.3555234
  17.4495619  31.4388679  96.9733286  17.7632882  29.9581219  96.9442651
  16.8121828  32.9403965  96.4111582  15.9247683  33.2253616  96.1931777
  17.2275817  32.7797729  95.5638859  20.1636364  32.9650486 100.1265921
  20.9396754  33.4546939 100.3990538  19.4384498  33.3908540 100.5837791
  22.6008922  33.6778105 101.1839862  23.1953413  33.4373841 100.4733170
  22.6735506  32.9585236 101.8113398   4.8206078  47.5211716 101.4983027
   4.6860546  46.7612117 100.9321025   4.4038140  48.2452616 101.0311815
  15.9565041  42.7048640  90.5059602  16.6600891  42.9098642  91.1217257
  15.2327690  43.2725402  90.7708685  16.7862851  38.4558501  96.6261872
  16.7298053  38.9127053  95.7869504  17.3391194  37.6949186  96.4484715
  20.5967657  34.2448233  97.4511992  20.3404592  33.8444869  98.2820199
  19.9720525  34.9592027  97.3262131  24.9079995  36.9844306  99.9583283
  24.3479553  37.0537496 100.7314845  24.3023499  36.8085291  99.2382779
   7.9775204  48.4181033 101.7101469   7.8607588  49.3626466 101.6080159
   7.1567650  48.1154595 102.0987268  17.8651738  43.1431169  92.5558062
  18.6997342  42.7112368  92.3735537  17.7036081  42.9713183  93.4834956
  17.5197631  39.6463282  93.9214401  17.4646434  39.4807554  92.9802845
  16.8943686  40.3539315  94.0776591  10.8293756  29.1471391  93.4999720
  10.8172426  30.0913231  93.6567990  11.7217178  28.9641537  93.2059181
   9.0029718  49.0709295 104.9257398   9.9056965  49.1032906 105.2423893
   8.7767088  48.1409746 104.9403733  10.7583320  47.8240282 101.5867476
   9.8078951  47.8242143 101.4731849  11.0615806  47.0773016 101.0703511
  26.4936014  53.6600820 102.6513239  27.1314424  53.5407568 101.9476579
  26.3756856  54.6081664 102.7101191  23.3025720  53.6128248 102.5874763
  22.9644231  53.4969313 101.6995298  24.1715488  53.2119413 102.5675769
  19.1612536  55.4663725  98.5771654  18.5977401  55.3753662  97.8087942
  19.0464931  54.6463629  99.0574147  23.7845503  54.7663100 108.5460969
  23.7734144  54.3715898 107.6741473  23.9466142  54.0329173 109.1394740
  16.7076968  56.9614916 101.4155875  17.4998259  56.6205741 101.0002174
  16.9473618  57.0709891 102.3358028  24.7412094  59.1334692  93.8886119
  24.0900074  59.7188773  93.5020133  25.5356457  59.6640887  93.9481157
  18.6667721  56.2223830  94.2873254  19.4398597  55.6752817  94.1486129
  19.0193120  57.0868079  94.4987715  20.5052764  57.5500212 107.4940153
  20.2142630  58.4545843 107.3786819  21.1409748  57.5916739 108.2084222
  21.4308971  54.9277060 104.0841513  22.0272543  54.7033083 103.3698475
  21.4883942  54.1861806 104.6866960  21.0033999  52.3816496  91.9191703
  21.2559520  51.8598017  91.1575166  20.0658558  52.2182641  92.0218387
  26.0477282  51.3852274  99.7266447  26.8340371  50.9671697  99.3756864
  26.3115986  52.2898366  99.8948095  26.2187359  56.8225124  94.4255104
  25.5833192  56.8959751  95.1376008  25.8884766  57.4118723  93.7474183
  31.4485709  51.3227507 100.6299425  32.1810881  50.7526724 100.8637255
  30.6925065  50.9349108 101.0705931  20.7230288  54.2844602  94.1216078
  20.6066546  53.6089505  94.7897163  20.8332548  53.7976976  93.3048231
  23.0661829  53.7454749  97.8262768  22.7020036  53.2185370  98.5375689
  23.9228945  53.3553218  97.6529253  28.9711130  45.0349081 105.0894034
  28.6394454  45.9044492 104.8655249  28.3756743  44.7185365 105.7688064
  22.7067316  48.7744648  92.8224116  22.8741718  49.6424885  93.1894587
  22.5164485  48.9371930  91.8985405  25.4642649  57.2361627 104.4889947
  25.1643372  58.1386666 104.3805754  25.1193709  56.9693811 105.3411099
  18.9155131  53.6875424 100.5226651  17.9905627  53.5551638 100.7304343
  19.1639544  54.4669643 101.0196593  28.8639793  49.7544168 102.1687384
  27.9556670  49.6859576 101.8746145  28.8127389  50.2316112 102.9969209
  22.6856537  51.2302306  93.8070783  22.5656162  51.6759357  94.6456263
  21.9909125  51.5787624  93.2484321  16.2763942  53.3308698 101.3570440
  16.4056323  53.5843177 102.2709852  15.5961393  53.9236406 101.0375095
  20.4463429  64.0005948  97.4560914  20.3687459  64.9513773  97.5349395
  19.8425072  63.6551820  98.1135841  22.9380659  51.1733813 110.1122281
  22.1613993  51.7327733 110.1025146  23.5771222  51.6590596 110.6337151
  30.7301439  47.9560606 103.9465258  30.0875820  48.2493139 103.3005052
  30.2256368  47.8413526 104.7518454  28.3841603  51.7023779  94.6351117
  29.2959459  51.9351166  94.4598815  27.8751250  52.2860823  94.0726196
  21.1927031  53.9819266 109.6740248  21.9341715  54.5204310 109.3975072
  20.4864016  54.6085555 109.8311800  26.6682371  56.1248407 108.2712410
  27.0765727  55.6830817 107.5267042  25.9459632  55.5501034 108.5246603
  23.0213441  51.0621014 105.6445967  23.8674636  51.4860427 105.7880616
  22.9612078  50.4054638 106.3384530  26.9911185  56.6849598 102.0264699
  26.3620048  56.8495312 101.3240766  26.6036847  57.0991207 102.7975663
  30.8700417  57.6204035  99.3809062  30.1851455  58.0002937  98.8306096
  30.9544266  58.2299362 100.1141010  26.1712886  48.7225382 107.3027140
  25.9273818  49.4767443 106.7661416  26.4472816  49.1010730 108.1374387
  28.1251349  55.2663994 105.9804406  28.3368244  55.9095754 105.3038787
  28.0781097  54.4326311 105.5126336  25.7277578  47.8781815 102.8840978
  24.8662057  48.1763069 103.1757716  25.7540012  48.0952214 101.9522011
  22.5439147  56.4224006  99.2914784  23.0077493  56.7011709  98.5019406
  22.2795945  55.5207450  99.1087874  19.4363228  55.9695487 102.2294547
  20.0064585  56.3982756 101.5912031  20.0271340  55.6878072 102.9278733
  21.4808033  52.5447158  96.1004349  22.1832077  52.9968202  96.5678275
  21.1488662  51.9030977  96.7284242  19.9288395  51.1358915 110.4755558
  19.2987055  51.8175196 110.7090955  19.8224483  51.0241996 109.5308696
  15.2233367  50.8030711 101.4021482  14.4332421  51.0588239 100.9261593
  15.7144615  51.6179049 101.5073523  29.2397177  58.1435950 104.1526763
  30.0614620  57.7416137 103.8709445  29.2359580  58.0404184 105.1042879
  17.1748113  51.1675290  98.3604959  16.3779276  51.2793984  98.8788455
  16.9473705  51.5061942  97.4945850  23.0053780  57.6919993 106.3087474
  23.0698213  58.1540400 107.1445645  22.2964704  57.0617358 106.4369783
  13.5071070  51.0561201 103.8336473  13.7579109  51.9408211 104.0994049
  14.0430619  50.8765803 103.0611565  37.3303170  54.4874698 100.5011735
  36.5766878  53.9182096 100.3455739  37.4650711  54.4537363 101.4482369
  22.7201798  59.3588101  96.1766454  22.5847473  60.2039636  96.6051302
  23.2611610  59.5607378  95.4132388  16.1731195  56.8763539  96.7494379
  16.6855716  57.6706789  96.8999944  16.8253908  56.1789829  96.6827981
  17.9826080  59.9929295  98.8317132  18.1592708  60.9147260  98.6438116
  18.7782913  59.6787714  99.2611512  22.1237098  46.8537560 110.4301066
  22.8646812  47.4544713 110.3505528  22.3555021  46.1115197 109.8719108
  17.2678436  52.0393927 108.7079295  17.1531952  51.1379184 109.0086394
  16.4122954  52.2857624 108.3564112  24.3470274  59.9811667 110.3066796
  23.9034128  59.1948046 109.9887701  25.0087488  60.1690818 109.6410687
  19.1057395  61.5107469 104.8327475  19.6564820  61.3824532 104.0604469
  18.2668871  61.8102358 104.4822367  26.4451512  60.2614467 108.3348197
  26.4269988  61.0823348 107.8428466  27.3671432  60.1368542 108.5598338
  22.9024566  57.7758597 109.1771706  23.4352903  57.0146885 108.9471014
  22.3738648  57.4832248 109.9195860  26.0694261  42.8818663 104.7065347
  25.7258531  43.7720304 104.6304458  26.4373224  42.6920320 103.8434932
  14.1380112  55.2052193  97.5253950  14.9755334  55.6149201  97.3087657
  14.3158380  54.2651635  97.4954143  26.0344544  52.8727274  93.2137783
  25.5191168  53.6431878  93.4526170  25.7621853  52.1992410  93.8370844
  23.6191655  47.7176974  98.2723021  22.7633251  47.3283825  98.0928660
  24.0318607  47.7968935  97.4122806  25.1490802  45.2523318 102.6714581
  24.6455597  45.2153453 101.8582386  25.4421409  46.1616060 102.7311237
  21.3933688  45.3362047 101.6780762  22.2586684  45.1404856 101.3186652
  21.4611197  45.1072399 102.6050119  31.0078818  55.6259628  95.1490956
  30.2308261  55.2870788  94.7046118  31.6870299  55.6312251  94.4745921
  25.8230847  50.7454366  95.0397564  25.5180983  51.0600515  95.8907707
  26.7761289  50.8235786  95.0824897  24.2677279  56.9044589  96.6890518
  23.7398641  56.1697349  96.3763755  23.7664782  57.6819265  96.4430486
  29.2470125  55.0993610 101.8057564  28.5893800  55.7892871 101.8937693
  30.0510524  55.4890041 102.1491550  18.9996007  47.5664255  99.0497129
  19.5739759  47.3439437  98.3170322  19.5866989  47.6352950  99.8025731
  28.0575584  53.4537982  99.8561506  28.5707466  54.0867974 100.3583215
  28.7076808  52.8539178  99.4904866  19.3265594  49.5968716  93.0693014
  18.4902906  49.9343403  93.3902289  19.1870363  49.4617696  92.1320151
  21.3018674  44.4405504  97.7772199  20.6483087  44.1254521  97.1528813
  21.2599149  43.8181245  98.5032022  22.4129879  54.7224799  89.6925491
  21.5056941  54.4914053  89.8916640  22.9100911  53.9262419  89.8799472
  25.3197958  63.4322307  92.6122177  24.6459657  63.7354003  93.2207135
  25.7063780  64.2351387  92.2627634  24.5356415  50.9287438 102.1019846
  23.6178976  51.1502385 101.9441534  24.9516558  51.0033748 101.2431554
  25.3191463  52.3278853  97.2322527  26.0663281  52.8400251  96.9229649
  25.5883052  52.0062906  98.0926920  23.5918113  54.8237394  94.2149481
  22.6829332  54.5396427  94.3121951  23.6213197  55.2436473  93.3552788
  28.8237380  58.4343984  97.9840648  28.3699707  57.5934894  98.0405839
  28.1931347  59.0705382  98.3215429  27.7670300  49.3635970  99.2141316
  27.0293057  48.8513356  99.5451558  28.0197073  48.9236351  98.4024593
  27.2670319  60.2720480  98.9190467  27.5593294  60.8325537  98.2002832
  27.7768940  60.5649041  99.6743626  27.8681927  42.1412222  99.8083085
  28.1740804  41.2809585  99.5209000  28.5934532  42.7329842  99.6082079
  14.1606283  52.5442908  98.1964683  13.9630683  51.9512269  97.4715750
  13.6052947  52.2395119  98.9140622  22.1403007  52.4366015 100.3159276
  22.1951617  51.4839851 100.2401753  21.3294209  52.5925454 100.8000575
  23.2894201  56.3646138  91.5537559  22.8513630  55.6481997  91.0943197
  24.0304641  56.5922253  90.9922651  20.0795367  51.0543075  98.0749655
  19.2663232  51.3537245  98.4814847  20.5754361  50.6598763  98.7924137
  22.2303945  61.0500831 100.0083920  22.1880123  61.2761678  99.0792452
  23.1466643  60.8164206 100.1569721  25.6769578  51.5184899 106.9064549
  26.0318966  51.7456372 107.7659015  26.3241710  51.8503276 106.2841804
  31.4067315  54.6403335  97.6113878  31.2685214  54.8304931  96.6835067
  31.0503534  55.4022718  98.0681929  19.5709441  48.6261430 103.6910890
  20.2108821  48.4850189 102.9933853  18.7386972  48.3395943 103.3149492
  31.4336695  56.7079862 102.6225149  31.8673202  56.6155151 103.4708204
  32.1468276  56.6837362 101.9845165  20.3469745  57.9263860  99.8045882
  21.1410344  57.4314181  99.6028457  19.6361438  57.3981724  99.4413588
  25.1664590  60.3081956 104.1558250  25.2201612  60.8772892 104.9235966
  24.2979371  60.4783841 103.7912287  16.6552509  52.0706942  95.8805635
  15.7250097  52.0091398  96.0975597  16.7509981  51.5482895  95.0842276
  16.5738058  48.5961755  98.4683877  16.8344875  49.5107088  98.3593037
  17.3955230  48.1286198  98.6180490  18.0462983  50.0099512 105.6382701
  18.7186037  49.8016874 104.9895350  17.2192770  49.8121598 105.1987934
  32.2952244  56.7503563 105.1558035  32.4888135  57.6549373 105.4017310
  32.1952863  56.2910982 105.9896620  23.9488555  46.6361453 107.6548362
  23.3016470  47.3351403 107.5612839  24.7189571  47.0697597 108.0224610
  27.3567353  56.9010305 110.7298915  27.2052860  56.6720857 109.8128999
  27.3472033  57.8580907 110.7430261  24.1252690  54.4742218 105.7145182
  25.0544750  54.6253378 105.5414149  23.7043720  54.5626239 104.8593828
  22.9241021  58.4992882 103.4843720  22.7852107  58.1311667 104.3569658
  22.1355618  59.0140522 103.3127677  23.5189173  63.6001979  94.8269256
  23.6940929  63.1290022  95.6414879  22.8321961  64.2267745  95.0550517
  24.4746236  57.8774485 100.8732557  24.1396069  57.8375255 101.7690207
  23.9750182  57.2119201 100.4002968  18.4490480  53.2842115 106.3985138
  18.3110278  52.5522354 106.9996678  19.3595404  53.1951015 106.1169326
  27.4105428  55.2230520  91.1469617  26.7934599  54.4977348  91.0502670
  26.9421917  55.9839880  90.8036691  21.0772781  52.9962075 105.8868818
  21.7872400  52.3555267 105.8455437  21.0342089  53.2474969 106.8094999
  29.0659560  59.9329428 108.8075397  29.0072106  59.2488648 108.1405980
  29.4679078  60.6748418 108.3556023  19.7901715  49.9827292 107.7064458
  19.2539072  49.5318031 108.3586054  19.2018424  50.1173201 106.9634922
  18.0850259  66.7491342 101.6009116  18.3246857  67.3809866 102.2788135
  17.2419455  66.3979382 101.8874476  19.2003974  49.4415944  90.2690921
  18.3233440  49.3204745  89.9053168  19.6761727  48.6502022  90.0169810
  29.0676967  57.8969012 107.0389377  28.1803746  57.5594934 107.1615776
  29.6375518  57.1652043 107.2758142  10.7206114  54.2293104 100.3632428
  11.4077154  53.9154834  99.7753444  10.5654243  55.1334468 100.0899680
  15.5240836  49.1183300 104.7917452  15.4399025  48.5108970 104.0567862
  14.7023543  49.6092318 104.7926948  22.5978120  62.5570464 104.0050620
  22.5248292  63.3625436 104.5169925  22.1555514  62.7562430 103.1798642
  22.3867900  61.7942234  97.5153442  21.6035422  62.3363914  97.6091666
  23.0860645  62.3116214  97.9147683  25.6964550  47.6036864 100.1587647
  26.1933250  46.8506826  99.8388717  24.9251532  47.6401180  99.5930856
  33.5494308  53.3077229 101.8005939  33.5384184  54.1901945 101.4299872
  32.6811687  52.9548780 101.6060476  25.0576804  62.4557298 106.1608779
  25.7704776  63.0904763 106.0884680  24.5666833  62.5521164 105.3448781
  26.7794331  56.3608551  97.7326071  25.8450610  56.4810013  97.5630775
  26.9570999  55.4581018  97.4686080  22.2799519  49.7454247  99.8859332
  21.9097306  49.1925287 100.5740237  22.7758611  49.1412380  99.3334332
  30.1666882  52.2025870  98.2676105  30.6327334  53.0353862  98.1936407
  30.6174383  51.7370852  98.9721363  20.1088718  60.2051742 106.9814350
  20.8098177  60.8388225 107.1343744  19.6383833  60.5466473 106.2209989
  28.2343113  58.5469691  95.2662257  28.5102957  58.4326286  96.1756131
  27.3647612  58.1487176  95.2274430  28.1383545  44.5706457 102.3067006
  27.2246625  44.8010684 102.4749213  28.5676646  44.6544901 103.1581038
  27.9090003  52.7596349 104.8066900  27.2561454  53.0072257 104.1519353
  28.2870383  51.9460487 104.4729377  24.8697177  62.7956042  98.9095070
  25.0519572  61.9777698  99.3722823  25.6930163  63.0123735  98.4719960
  25.2039343  61.7224227  96.1710119  25.7327109  61.2116682  95.5580281
  25.4667562  61.4066758  97.0355652  23.9577577  53.5016160 111.2932937
  23.2818214  53.4010289 111.9635312  24.7805210  53.3455374 111.7568934
  15.7056436  59.7388097 103.9145452  16.2909872  58.9931785 104.0473357
  15.5081274  60.0492053 104.7982116  18.5595091  62.7739344  98.9307895
  17.8905466  63.2585472  98.4471935  18.4207960  63.0208565  99.8451273
  10.2974090  52.3093697 102.6349896  10.3358190  51.7757288 103.4287014
   9.7914383  51.7828902 102.0160873  22.7000359  64.8083088 105.5290553
  23.2518667  64.9714709 106.2939638  23.0406553  65.3987525 104.8570578
  17.6764853  47.1558237 106.1312438  17.7406179  48.0173068 105.7189836
  17.6131973  46.5432239 105.3984796  17.1517125  49.2281370 109.7785472
  17.7789164  48.8458447 110.3922996  16.2945044  49.0095572 110.1441165
  27.5511234  59.6344345 111.3839208  28.0951138  60.2474303 110.8894162
  26.9698079  60.1923924 111.9006221  13.9282668  51.0357799  95.7103827
  14.2236109  50.1268477  95.6570881  13.0270704  51.0145539  95.3884829
  25.8368747  62.7565063 102.5154235  25.7119886  61.9554803 102.0065181
  26.4947838  63.2511256 102.0268205  17.4576915  49.1113796 101.6931376
  16.7363501  49.7249763 101.5538849  18.2470171  49.6471560 101.6148021
  27.9003655  60.5574083 104.1433785  26.9533991  60.4379434 104.0712112
  28.2486428  59.6696581 104.2260047  20.2603228  46.4468222 107.9672027
  20.7837630  46.6930519 108.7298337  20.0415562  47.2788257 107.5475165
  15.6570509  48.7171897  95.8343152  15.3283216  47.8369276  95.6518258
  16.0109880  48.6619565  96.7219541  24.9050088  60.3526799 100.3438138
  24.7575051  59.4243507 100.5245708  25.7303582  60.3746890  99.8595213
  18.7712333  49.0044867  96.2018630  19.1108405  49.5330788  95.4797238
  19.2184453  49.3425273  96.9777196  28.5084210  61.1755358 101.4303010
  29.4330758  60.9698220 101.2927462  28.3399514  60.9271759 102.3392352
  21.4655773  47.3881917 105.6521698  21.1252594  46.5889730 106.0542378
  20.7594780  47.6883628 105.0798531  22.1172245  44.4731230 104.1049021
  22.9398315  43.9991708 103.9827911  22.3610309  45.2521713 104.6047707
  20.7580480  47.5019488  94.4011923  21.4788842  47.8800741  93.8975639
  20.1345784  48.2208365  94.5046900  24.9011603  48.2064637  95.3370255
  25.1175217  49.0889275  95.0359083  24.4205670  47.8150850  94.6075897
  19.6410824  51.1650350 101.9140999  19.4955405  51.4790653 102.8065281
  19.1636028  51.7835251 101.3611898  21.5007207  48.1552898 101.9621889
  21.4868776  47.2593992 101.6254187  22.2179635  48.1623562 102.5960175
  23.3533338  48.5890238 104.0075016  23.0951115  49.5107309 104.0059347
  22.8218378  48.1920673 104.6975481  28.2979526  61.6941026  96.7865102
  28.4716404  61.1287448  96.0338954  28.7908418  62.4941920  96.6044592
  14.1156486  53.7055695 104.8528661  13.5709954  54.4815503 104.9848935
  14.9935836  54.0526499 104.6947782  20.9044103  47.0367279  97.2309459
  21.0260014  46.1083925  97.4300347  20.6146145  47.0505965  96.3187775
  23.7735293  44.7222189 100.3676179  23.7956990  44.7861522  99.4128159
  24.1903352  43.8826698 100.5616685  34.1518918  54.4577449  98.4055402
  34.5950064  53.7084774  98.0074525  33.2745428  54.4487585  98.0229134
  29.2854699  61.0107790  93.8862000  29.9805604  61.6314483  94.1049315
  29.6277849  60.1603141  94.1614378  14.9022508  52.8325591 107.7458817
  14.1604244  52.9808226 108.3323448  14.5815252  53.0933857 106.8825567
  31.1846122  58.4607496  95.4149331  31.7097446  58.7994768  94.6898651
  31.0968475  57.5254511  95.2312465  22.8466171  62.3741569 107.5439208
  23.1553297  62.1290716 108.4161907  23.6441653  62.5788208 107.0558078
  22.8686783  64.5279479  99.7744584  22.4291773  64.0355858 100.4677441
  23.6194900  63.9852446  99.5336659  15.3479122  60.7191020  99.7769212
  16.1737142  60.4194792  99.3967856  14.9973174  59.9498642 100.2259001
  20.3160655  60.0717488 101.8466886  19.6940664  59.4088193 101.5469114
  20.9865522  60.0978620 101.1640533  13.5487727  58.6377346 100.7358146
  12.7119635  58.2099520 100.5542147  13.5211372  58.8309789 101.6728937
  20.3885182  48.5499276 111.4399392  20.4373338  49.4261399 111.0577161
  20.9307697  48.0076669 110.8671035  30.8740028  59.0940399 110.7200529
  30.0835572  59.0764538 110.1805028  30.6373383  59.6328693 111.4749565
  30.9937903  55.9432866 108.0333257  31.0435908  55.7782873 108.9748780
  30.8851826  55.0760125 107.6431138  19.8774162  58.6221411  95.3225346
  20.0262282  59.3056876  94.6692019  20.6840605  58.6026501  95.8374802
  28.2841666  51.9263794 109.3492564  29.1851528  51.7870258 109.0576562
  28.3589640  52.0918248 110.2890742  22.6184471  49.3030648 108.1945750
  21.7487780  49.5964214 107.9228339  22.8543951  49.8871093 108.9153014
  32.4956100  58.3629807 108.2775279  32.2040908  58.7259788 109.1138740
  31.8828231  57.6496815 108.0988611  33.6951782  55.9282687 100.7977849
  34.5298674  56.3672491 100.9615409  33.8310911  55.4521340  99.9786095
  30.7443288  53.4862422 106.7455337  31.2197410  53.6790068 105.9374188
  29.8208854  53.5421608 106.4998721  17.6326795  54.6486589  96.3286415
  17.3872837  53.7448919  96.5266625  17.8022709  54.6503739  95.3865893
  25.3223505  45.5210265 105.7111171  25.8405449  46.2571292 105.3857659
  24.9678637  45.8274259 106.5457930  16.9022442  50.3814946  93.8272577
  16.2091687  50.4559301  93.1712613  16.6574194  49.6175290  94.3494094
  25.5736099  41.9410548 101.2312067  25.8537853  41.2733737 101.8572494
  26.3586706  42.1339643 100.7186731  23.3769567  61.1169542  92.7937094
  22.8043534  61.7359729  92.3407566  23.9502361  61.6668903  93.3277016
  29.4444957  50.3628182 104.9783642  30.3962380  50.4626279 104.9995867
  29.2748408  49.5706450 105.4881727  27.4659337  47.4483765 105.1643043
  26.8709269  47.7288778 104.4689532  27.1809033  47.9377666 105.9359785
  26.5966827  61.4006692  93.9245676  27.5297500  61.3352254  94.1278551
  26.5090040  62.2362959  93.4660209  29.2254844  60.7172562  90.8849624
  29.1468475  60.3832426  91.7785381  30.0464511  61.2094330  90.8841096
  31.9233035  53.5834301 104.0925942  31.8909355  52.6450302 104.2785626
  32.5333659  53.6618338 103.3591767  23.7616366  52.4530354  90.1353146
  24.7075471  52.3236563  90.2041564  23.3830611  51.7145016  90.6122574
  32.0727523  50.3745345 104.1384225  31.5566572  49.5903802 103.9514154
  32.9567472  50.0464062 104.3030745  29.7338250  44.1186360 100.0980038
  29.5363072  43.8101449 100.9823370  30.3437956  44.8447999 100.2277968
  37.7409585  54.6450308 103.2331979  38.4712973  54.3835596 103.7939682
  37.1316530  53.9079030 103.2734047  35.8224882  52.7858171 103.8306430
  35.0958046  52.6514136 103.2222922  35.4072169  53.0935000 104.6363148
  23.6455058  56.5048101 111.5953803  24.5658068  56.6826700 111.7893850
  23.6104641  55.5604146 111.4433502  21.9459283  50.3780331  90.0708031
  21.0390738  50.0813444  90.1470745  22.2235264  50.0810149  89.2042318
  12.8637223  51.6986694 100.5207078  12.5440008  50.8452002 100.2281452
  12.3170652  51.9135272 101.2765045  16.6417131  54.4149135 104.2376584
  16.8603141  55.3466243 104.2564618  17.0542905  54.0557110 105.0231388
  23.5621349  44.9217221  96.2252273  22.7522077  44.5764306  96.6007519
  24.2505766  44.6124764  96.8139884  25.4911897  43.9995267  97.8476569
  26.0442936  44.4190721  98.5066592  25.7281983  43.0731015  97.8899525
  20.7158068  47.2367266  90.2120011  21.5777232  47.5622164  90.4715828
  20.9008412  46.4498762  89.6993076  12.7325483  55.3189606 102.4900199
  12.0388955  54.9043559 101.9770154  13.4798474  55.3610142 101.8933618
  28.8690704  46.1095793  97.3555234  28.2889373  46.7680597  96.9733286
  28.6026637  45.2873137  96.9442651  27.3194270  45.5100850  99.5576554
  27.8194049  45.6217385  98.7490873  27.9629878  45.2061903 100.1977362
  21.3776266  53.4179480 112.4444395  20.8943348  54.2179840 112.6508284
  21.4637205  53.4287425 111.4911839  14.6462226  55.2507860 100.3666214
  14.6232914  55.3495547  99.4148097  14.9562862  56.0973010 100.6883380
  17.3049604  57.3084015 104.4812829  18.2592857  57.2767957 104.4142760
  17.1062127  56.8474638 105.2963055  17.8948986  55.8785131 107.0483626
  18.7141875  56.3729209 107.0718464  18.1685794  54.9617099 107.0201194
  27.6515582  48.2695883  96.4111582  26.7641437  48.5545534  96.1931777
  28.0669571  48.1089646  95.5638859  31.0030118  48.2942404 100.1265921
  31.7790508  48.7838856 100.3990538  30.2778252  48.7200458 100.5837791
  33.4402677  49.0070023 101.1839862  34.0347168  48.7665759 100.4733170
  33.5129261  48.2877154 101.8113398  15.6599833  62.8503634 101.4983027
  15.5254301  62.0904035 100.9321025  15.2431895  63.5744534 101.0311815
  26.7958796  58.0340558  90.5059602  27.4994646  58.2390560  91.1217257
  26.0721444  58.6017319  90.7708685  27.6256606  53.7850419  96.6261872
  27.5691807  54.2418970  95.7869504  28.1784948  53.0241103  96.4484715
  31.4361412  49.5740151  97.4511992  31.1798346  49.1736786  98.2820199
  30.8114280  50.2883945  97.3262131  35.7473750  52.3136224  99.9583283
  35.1873308  52.3829413 100.7314845  35.1417253  52.1377209  99.2382779
  18.8168958  63.7472951 101.7101469  18.7001343  64.6918384 101.6080159
  17.9961405  63.4446513 102.0987268  28.7045493  58.4723087  92.5558062
  29.5391097  58.0404285  92.3735537  28.5429836  58.3005100  93.4834956
  28.3591385  54.9755200  93.9214401  28.3040189  54.8099472  92.9802845
  27.7337440  55.6831233  94.0776591  13.1483900  50.2123264 107.7475823
  13.7942764  49.7022218 108.2363049  12.9401051  50.9491946 108.3219249
  25.6737292  57.2804112 113.2467964  26.5428452  57.4544764 112.8854599
  25.1944044  58.0998529 113.1243693  21.6687511  44.4763309  93.4999720
  21.6566180  45.4205149  93.6567990  22.5610932  44.2933454  93.2059181
  19.8423473  64.4001213 104.9257398  20.7450719  64.4324823 105.2423893
  19.6160843  63.4701664 104.9403733  21.5977075  63.1532199 101.5867476
  20.6472706  63.1534061 101.4731849  21.9009561  62.4064934 101.0703511
  25.4839630  41.0706086  97.7545656  24.7172026  40.5164572  97.9002339
  25.8950335  41.1427954  98.6159808  37.3329768  68.9892738 102.6513239
  37.9708178  68.8699485 101.9476579  37.2150611  69.9373582 102.7101191
  34.1419474  68.9420166 102.5874763  33.8037986  68.8261231 101.6995298
  35.0109243  68.5411331 102.5675769  30.0006290  70.7955642  98.5771654
  29.4371155  70.7045579  97.8087942  29.8858685  69.9755547  99.0574147
  34.6239257  70.0955018 108.5460969  34.6127898  69.7007816 107.6741473
  34.7859897  69.3621090 109.1394740  27.5470722  72.2906834 101.4155875
  28.3392014  71.9497659 101.0002174  27.7867372  72.4001809 102.3358028
  35.5805849  74.4626610  93.8886119  34.9293829  75.0480691  93.5020133
  36.3750212  74.9932805  93.9481157  29.5061476  71.5515747  94.2873254
  30.2792352  71.0044734  94.1486129  29.8586875  72.4159997  94.4987715
  31.3446518  72.8792130 107.4940153  31.0536384  73.7837760 107.3786819
  31.9803503  72.9208657 108.2084222  32.2702725  70.2568978 104.0841513
  32.8666298  70.0325000 103.3698475  32.3277697  69.5153724 104.6866960
  31.8427754  67.7108413  91.9191703  32.0953274  67.1889935  91.1575166
  30.9052313  67.5474559  92.0218387  36.8871037  66.7144192  99.7266447
  37.6734126  66.2963615  99.3756864  37.1509741  67.6190284  99.8948095
  37.0581114  72.1517042  94.4255104  36.4226947  72.2251669  95.1376008
  36.7278520  72.7410641  93.7474183  42.2879464  66.6519425 100.6299425
  43.0204636  66.0818642 100.8637255  41.5318819  66.2641025 101.0705931
  31.5624042  69.6136519  94.1216078  31.4460301  68.9381423  94.7897163
  31.6726302  69.1268893  93.3048231  33.9055583  69.0746666  97.8262768
  33.5413791  68.5477287  98.5375689  34.7622699  68.6845135  97.6529253
  39.8104884  60.3640999 105.0894034  39.4788209  61.2336410 104.8655249
  39.2150497  60.0477283 105.7688064  33.5461070  64.1036566  92.8224116
  33.7135473  64.9716803  93.1894587  33.3558239  64.2663848  91.8985405
  36.3036404  72.5653545 104.4889947  36.0037127  73.4678584 104.3805754
  35.9587463  72.2985728 105.3411099  29.7548885  69.0167342 100.5226651
  28.8299382  68.8843556 100.7304343  30.0033298  69.7961561 101.0196593
  39.7033547  65.0836085 102.1687384  38.7950425  65.0151494 101.8746145
  39.6521143  65.5608030 102.9969209  33.5250291  66.5594224  93.8070783
  33.4049916  67.0051274  94.6456263  32.8302880  66.9079541  93.2484321
  27.1157696  68.6600615 101.3570440  27.2450077  68.9135094 102.2709852
  26.4355147  69.2528323 101.0375095  31.2857183  79.3297865  97.4560914
  31.2081213  80.2805690  97.5349395  30.6818827  78.9843738  98.1135841
  33.7774413  66.5025731 110.1122281  33.0007747  67.0619651 110.1025146
  34.4164976  66.9882514 110.6337151  41.5695194  63.2852524 103.9465258
  40.9269574  63.5785057 103.3005052  41.0650122  63.1705444 104.7518454
  39.2235357  67.0315697  94.6351117  40.1353214  67.2643084  94.4598815
  38.7145004  67.6152741  94.0726196  32.0320785  69.3111184 109.6740248
  32.7735470  69.8496228 109.3975072  31.3257771  69.9377473 109.8311800
  37.5076125  71.4540325 108.2712410  37.9159481  71.0122735 107.5267042
  36.7853387  70.8792952 108.5246603  33.8607195  66.3912931 105.6445967
  34.7068390  66.8152345 105.7880616  33.8005833  65.7346556 106.3384530
  37.8304940  72.0141515 102.0264699  37.2013802  72.1787229 101.3240766
  37.4430602  72.4283125 102.7975663  41.7094172  72.9495953  99.3809062
  41.0245210  73.3294854  98.8306096  41.7938021  73.5591280 100.1141010
  37.0106640  64.0517300 107.3027140  36.7667572  64.8059360 106.7661416
  37.2866571  64.4302647 108.1374387  38.9645103  70.5955912 105.9804406
  39.1761998  71.2387672 105.3038787  38.9174851  69.7618229 105.5126336
  36.5671332  63.2073733 102.8840978  35.7055811  63.5054986 103.1757716
  36.5933767  63.4244132 101.9522011  33.3832902  71.7515923  99.2914784
  33.8471247  72.0303626  98.5019406  33.1189700  70.8499368  99.1087874
  30.2756983  71.2987405 102.2294547  30.8458340  71.7274673 101.5912031
  30.8665095  71.0169990 102.9278733  32.3201788  67.8739076  96.1004349
  33.0225831  68.3260119  96.5678275  31.9882416  67.2322895  96.7284242
  30.7682149  66.4650832 110.4755558  30.1380810  67.1467113 110.7090955
  30.6618237  66.3533914 109.5308696  26.0627122  66.1322628 101.4021482
  25.2726176  66.3880157 100.9261593  26.5538369  66.9470966 101.5073523
  40.0790931  73.4727868 104.1526763  40.9008375  73.0708055 103.8709445
  40.0753334  73.3696102 105.1042879  28.0141867  66.4967208  98.3604959
  27.2173030  66.6085902  98.8788455  27.7867459  66.8353860  97.4945850
  33.8447535  73.0211911 106.3087474  33.9091967  73.4832318 107.1445645
  33.1358459  72.3909276 106.4369783  24.3464825  66.3853119 103.8336473
  24.5972863  67.2700129 104.0994049  24.8824373  66.2057720 103.0611565
  48.1696924  69.8166616 100.5011735  47.4160633  69.2474014 100.3455739
  48.3044465  69.7829281 101.4482369  33.5595552  74.6880018  96.1766454
  33.4241227  75.5331554  96.6051302  34.1005365  74.8899296  95.4132388
  30.0462892  60.7671598 112.8380809  29.6529837  60.2137797 113.5128453
  30.8629032  61.0782177 113.2287327  27.0124950  72.2055456  96.7494379
  27.5249470  72.9998707  96.8999944  27.6647663  71.5081747  96.6827981
  28.8219834  75.3221213  98.8317132  28.9986463  76.2439177  98.6438116
  29.6176668  75.0079632  99.2611512  32.9630853  62.1829477 110.4301066
  33.7040566  62.7836630 110.3505528  33.1948776  61.4407115 109.8719108
  28.1072191  67.3685845 108.7079295  27.9925706  66.4671102 109.0086394
  27.2516709  67.6149541 108.3564112  35.1864029  75.3103585 110.3066796
  34.7427883  74.5239963 109.9887701  35.8481242  75.4982735 109.6410687
  29.9451150  76.8399386 104.8327475  30.4958575  76.7116450 104.0604469
  29.1062626  77.1394275 104.4822367  37.2845267  75.5906385 108.3348197
  37.2663742  76.4115266 107.8428466  38.2065187  75.4660460 108.5598338
  33.7418321  73.1050514 109.1771706  34.2746658  72.3438802 108.9471014
  33.2132402  72.8124166 109.9195860  36.9088016  58.2110580 104.7065347
  36.5652285  59.1012222 104.6304458  37.2766978  58.0212238 103.8434932
  24.9773866  70.5344111  97.5253950  25.8149088  70.9441119  97.3087657
  25.1552134  69.5943553  97.4954143  36.8738299  68.2019191  93.2137783
  36.3584922  68.9723796  93.4526170  36.6015607  67.5284327  93.8370844
  34.4585410  63.0468892  98.2723021  33.6027006  62.6575743  98.0928660
  34.8712361  63.1260853  97.4122806  35.9884556  60.5815235 102.6714581
  35.4849352  60.5445371 101.8582386  36.2815163  61.4907978 102.7311237
  32.2327442  60.6653965 101.6780762  33.0980439  60.4696774 101.3186652
  32.3004951  60.4364317 102.6050119  41.8472573  70.9551546  95.1490956
  41.0702015  70.6162705  94.7046118  42.5264054  70.9604169  94.4745921
  36.6624602  66.0746283  95.0397564  36.3574737  66.3892433  95.8907707
  37.6155044  66.1527703  95.0824897  35.1071034  72.2336507  96.6890518
  34.5792395  71.4989266  96.3763755  34.6058536  73.0111183  96.4430486
  40.0863880  70.4285527 101.8057564  39.4287554  71.1184789 101.8937693
  40.8904279  70.8181959 102.1491550  29.8389761  62.8956173  99.0497129
  30.4133513  62.6731355  98.3170322  30.4260744  62.9644868  99.8025731
  38.8969338  68.7829900  99.8561506  39.4101220  69.4159892 100.3583215
  39.5470562  68.1831095  99.4904866  30.1659348  64.9260634  93.0693014
  29.3296661  65.2635321  93.3902289  30.0264118  64.7909614  92.1320151
  32.1412429  59.7697422  97.7772199  31.4876841  59.4546439  97.1528813
  32.0992903  59.1473162  98.5032022  33.2523634  70.0516717  89.6925491
  32.3450696  69.8205970  89.8916640  33.7494666  69.2554336  89.8799472
  36.1591713  78.7614224  92.6122177  35.4853411  79.0645921  93.2207135
  36.5457535  79.5643305  92.2627634  35.3750169  66.2579355 102.1019846
  34.4572731  66.4794302 101.9441534  35.7910313  66.3325666 101.2431554
  36.1585217  67.6570771  97.2322527  36.9057036  68.1692168  96.9229649
  36.4276807  67.3354824  98.0926920  34.4311867  70.1529312  94.2149481
  33.5223086  69.8688345  94.3121951  34.4606951  70.5728390  93.3552788
  39.6631135  73.7635901  97.9840648  39.2093462  72.9226811  98.0405839
  39.0325101  74.3997300  98.3215429  38.6064054  64.6927887  99.2141316
  37.8686811  64.1805274  99.5451558  38.8590828  64.2528269  98.4024593
  38.1064074  75.6012398  98.9190467  38.3987048  76.1617455  98.2002832
  38.6162694  75.8940959  99.6743626  38.7075682  57.4704139  99.8083085
  39.0134558  56.6101503  99.5209000  39.4328286  58.0621760  99.6082079
  25.0000038  67.8734826  98.1964683  24.8024437  67.2804187  97.4715750
  24.4446702  67.5687036  98.9140622  32.9796761  67.7657932 100.3159276
  33.0345371  66.8131769 100.2401753  32.1687963  67.9217372 100.8000575
  34.1287955  71.6938056  91.5537559  33.6907385  70.9773914  91.0943197
  34.8698396  71.9214170  90.9922651  30.9189121  66.3834992  98.0749655
  30.1056987  66.6829163  98.4814847  31.4148115  65.9890681  98.7924137
  33.0697699  76.3792749 100.0083920  33.0273878  76.6053595  99.0792452
  33.9860398  76.1456124 100.1569721  36.5163333  66.8476817 106.9064549
  36.8712721  67.0748290 107.7659015  37.1635464  67.1795193 106.2841804
  42.2461070  69.9695253  97.6113878  42.1078968  70.1596849  96.6835067
  41.8897289  70.7314635  98.0681929  30.4103196  63.9553348 103.6910890
  31.0502575  63.8142107 102.9933853  29.5780726  63.6687861 103.3149492
  42.2730449  72.0371780 102.6225149  42.7066956  71.9447069 103.4708204
  42.9862030  72.0129280 101.9845165  31.1863500  73.2555778  99.8045882
  31.9804098  72.7606098  99.6028457  30.4755192  72.7273641  99.4413588
  36.0058344  75.6373874 104.1558250  36.0595367  76.2064810 104.9235966
  35.1373126  75.8075759 103.7912287  27.4946263  67.3998860  95.8805635
  26.5643851  67.3383315  96.0975597  27.5903735  66.8774813  95.0842276
  27.4131812  63.9253673  98.4683877  27.6738630  64.8399006  98.3593037
  28.2348985  63.4578115  98.6180490  28.8856738  65.3391430 105.6382701
  29.5579791  65.1308792 104.9895350  28.0586524  65.1413516 105.1987934
  43.1345999  72.0795480 105.1558035  43.3281889  72.9841291 105.4017310
  43.0346617  71.6202899 105.9896620  34.7882310  61.9653371 107.6548362
  34.1410225  62.6643320 107.5612839  35.5583325  62.3989515 108.0224610
  38.1961108  72.2302223 110.7298915  38.0446614  72.0012775 109.8128999
  38.1865787  73.1872824 110.7430261  34.9646444  69.8034136 105.7145182
  35.8938504  69.9545295 105.5414149  34.5437474  69.8918157 104.8593828
  33.7634776  73.8284800 103.4843720  33.6245862  73.4603585 104.3569658
  32.9749372  74.3432440 103.3127677  34.3582928  78.9293897  94.8269256
  34.5334683  78.4581940  95.6414879  33.6715716  79.5559663  95.0550517
  35.3139991  73.2066403 100.8732557  34.9789824  73.1667173 101.7690207
  34.8143937  72.5411119 100.4002968  29.2884235  68.6134033 106.3985138
  29.1504033  67.8814272 106.9996678  30.1989158  68.5242933 106.1169326
  38.2499183  70.5522437  91.1469617  37.6328353  69.8269265  91.0502670
  37.7815671  71.3131797  90.8036691  31.9166536  68.3253992 105.8868818
  32.6266154  67.6847184 105.8455437  31.8735844  68.5766887 106.8094999
  39.9053314  75.2621346 108.8075397  39.8465860  74.5780566 108.1405980
  40.3072833  76.0040336 108.3556023  30.6295470  65.3119210 107.7064458
  30.0932827  64.8609949 108.3586054  30.0412178  65.4465119 106.9634922
  28.9244013  82.0783259 101.6009116  29.1640611  82.7101784 102.2788135
  28.0813210  81.7271299 101.8874476  30.0397729  64.7707861  90.2690921
  29.1627195  64.6496662  89.9053168  30.5155482  63.9793940  90.0169810
  39.9070722  73.2260929 107.0389377  39.0197500  72.8886851 107.1615776
  40.4769273  72.4943961 107.2758142  21.5599869  69.5585021 100.3632428
  22.2470909  69.2446751  99.7753444  21.4047997  70.4626386 100.0899680
  26.3634591  64.4475218 104.7917452  26.2792780  63.8400887 104.0567862
  25.5417297  64.9384236 104.7926948  33.4371875  77.8862382 104.0050620
  33.3642046  78.6917353 104.5169925  32.9949268  78.0854348 103.1798642
  33.2261655  77.1234152  97.5153442  32.4429176  77.6655832  97.6091666
  33.9254400  77.6408131  97.9147683  36.5358305  62.9328781 100.1587647
  37.0327004  62.1798744  99.8388717  35.7645286  62.9693098  99.5930856
  44.3888062  68.6369147 101.8005939  44.3777938  69.5193862 101.4299872
  43.5205442  68.2840698 101.6060476  35.8970558  77.7849216 106.1608779
  36.6098531  78.4196681 106.0884680  35.4060587  77.8813082 105.3448781
  37.6188085  71.6900469  97.7326071  36.6844364  71.8101931  97.5630775
  37.7964754  70.7872935  97.4686080  33.1193273  65.0746164  99.8859332
  32.7491061  64.5217205 100.5740237  33.6152366  64.4704298  99.3334332
  41.0060637  67.5317788  98.2676105  41.4721089  68.3645779  98.1936407
  41.4568137  67.0662769  98.9721363  30.9482472  75.5343659 106.9814350
  31.6491932  76.1680142 107.1343744  30.4777587  75.8758391 106.2209989
  39.0736868  73.8761609  95.2662257  39.3496712  73.7618204  96.1756131
  38.2041367  73.4779094  95.2274430  38.9777299  59.8998375 102.3067006
  38.0640379  60.1302602 102.4749213  39.4070401  59.9836819 103.1581038
  38.7483758  68.0888267 104.8066900  38.0955208  68.3364174 104.1519353
  39.1264138  67.2752405 104.4729377  35.7090932  78.1247960  98.9095070
  35.8913326  77.3069616  99.3722823  36.5323918  78.3415652  98.4719960
  36.0433097  77.0516145  96.1710119  36.5720864  76.5408600  95.5580281
  36.3061317  76.7358675  97.0355652  34.7971331  68.8308078 111.2932937
  34.1211968  68.7302207 111.9635312  35.6198965  68.6747292 111.7568934
  26.5450190  75.0680014 103.9145452  27.1303627  74.3223702 104.0473357
  26.3475029  75.3783971 104.7982116  29.3988845  78.1031262  98.9307895
  28.7299221  78.5877389  98.4471935  29.2601715  78.3500482  99.8451273
  21.1367845  67.6385615 102.6349896  21.1751944  67.1049205 103.4287014
  20.6308138  67.1120820 102.0160873  33.5394114  80.1375005 105.5290553
  34.0912422  80.3006627 106.2939638  33.8800307  80.7279443 104.8570578
  28.5158607  62.4850155 106.1312438  28.5799934  63.3464986 105.7189836
  28.4525727  61.8724157 105.3984796  27.9910880  64.5573288 109.7785472
  28.6182918  64.1750365 110.3922996  27.1338798  64.3387490 110.1441165
  38.3904988  74.9636263 111.3839208  38.9344892  75.5766221 110.8894162
  37.8091833  75.5215841 111.9006221  24.7676422  66.3649717  95.7103827
  25.0629863  65.4560395  95.6570881  23.8664458  66.3437456  95.3884829
  36.6762501  78.0856981 102.5154235  36.5513641  77.2846721 102.0065181
  37.3341592  78.5803174 102.0268205  28.2970669  64.4405713 101.6931376
  27.5757255  65.0541681 101.5538849  29.0863925  64.9763478 101.6148021
  38.7397410  75.8866001 104.1433785  37.7927745  75.7671352 104.0712112
  39.0880183  74.9988499 104.2260047  31.0996983  61.7760140 107.9672027
  31.6231385  62.0222436 108.7298337  30.8809316  62.6080175 107.5475165
  26.4964264  64.0463814  95.8343152  26.1676970  63.1661193  95.6518258
  26.8503635  63.9911483  96.7219541  35.7443843  75.6818717 100.3438138
  35.5968805  74.7535425 100.5245708  36.5697336  75.7038808  99.8595213
  29.6106087  64.3336784  96.2018630  29.9502160  64.8622705  95.4797238
  30.0578208  64.6717190  96.9777196  39.3477965  76.5047276 101.4303010
  40.2724512  76.2990137 101.2927462  39.1793268  76.2563677 102.3392352
  32.3049528  62.7173835 105.6521698  31.9646348  61.9181648 106.0542378
  31.5988534  63.0175546 105.0798531  32.9566000  59.8023147 104.1049021
  33.7792069  59.3283626 103.9827911  33.2004063  60.5813631 104.6047707
  31.5974234  62.8311406  94.4011923  32.3182597  63.2092659  93.8975639
  30.9739538  63.5500283  94.5046900  35.7405357  63.5356555  95.3370255
  35.9568972  64.4181193  95.0359083  35.2599424  63.1442768  94.6075897
  30.4804579  66.4942268 101.9140999  30.3349159  66.8082571 102.8065281
  30.0029782  67.1127168 101.3611898  32.3400961  63.4844816 101.9621889
  32.3262530  62.5885909 101.6254187  33.0573390  63.4915480 102.5960175
  34.1927092  63.9182156 104.0075016  33.9344870  64.8399227 104.0059347
  33.6612133  63.5212591 104.6975481  39.1373281  77.0232943  96.7865102
  39.3110158  76.4579366  96.0338954  39.6302172  77.8233838  96.6044592
  24.9550241  69.0347612 104.8528661  24.4103709  69.8107420 104.9848935
  25.8329591  69.3818417 104.6947782  31.7437857  62.3659196  97.2309459
  31.8653769  61.4375842  97.4300347  31.4539900  62.3797882  96.3187775
  34.6129048  60.0514107 100.3676179  34.6350745  60.1153440  99.4128159
  35.0297107  59.2118615 100.5616685  44.9912672  69.7869366  98.4055402
  45.4343818  69.0376691  98.0074525  44.1139182  69.7779503  98.0229134
  40.1248453  76.3399708  93.8862000  40.8199358  76.9606400  94.1049315
  40.4671604  75.4895059  94.1614378  25.7416263  68.1617509 107.7458817
  24.9997999  68.3100144 108.3323448  25.4209007  68.4225774 106.8825567
  42.0239877  73.7899413  95.4149331  42.5491201  74.1286686  94.6898651
  41.9362229  72.8546429  95.2312465  33.6859925  77.7033487 107.5439208
  33.9947052  77.4582634 108.4161907  34.4835407  77.9080125 107.0558078
  33.7080537  79.8571397  99.7744584  33.2685528  79.3647775 100.4677441
  34.4588654  79.3144364  99.5336659  26.1872876  76.0482937  99.7769212
  27.0130896  75.7486709  99.3967856  25.8366928  75.2790560 100.2259001
  31.1554409  75.4009406 101.8466886  30.5334419  74.7380111 101.5469114
  31.8259276  75.4270537 101.1640533  24.3881481  73.9669264 100.7358146
  23.5513390  73.5391438 100.5542147  24.3605127  74.1601707 101.6728937
  31.2278937  63.8791194 111.4399392  31.2767092  64.7553316 111.0577161
  31.7701451  63.3368587 110.8671035  41.7133783  74.4232317 110.7200529
  40.9229326  74.4056456 110.1805028  41.4767137  74.9620611 111.4749565
  41.8331658  71.2724783 108.0333257  41.8829663  71.1074791 108.9748780
  41.7245581  70.4052042 107.6431138  30.7167916  73.9513329  95.3225346
  30.8656037  74.6348793  94.6692019  31.5234360  73.9318419  95.8374802
  39.1235420  67.2555711 109.3492564  40.0245283  67.1162176 109.0576562
  39.1983395  67.4210166 110.2890742  33.4578225  64.6322566 108.1945750
  32.5881535  64.9256132 107.9228339  33.6937706  65.2163011 108.9153014
  43.3349854  73.6921725 108.2775279  43.0434663  74.0551705 109.1138740
  42.7221986  72.9788733 108.0988611  44.5345537  71.2574605 100.7977849
  45.3692428  71.6964409 100.9615409  44.6704666  70.7813258  99.9786095
  41.5837043  68.8154339 106.7455337  42.0591164  69.0081986 105.9374188
  40.6602608  68.8713525 106.4998721  28.4720549  69.9778507  96.3286415
  28.2266591  69.0740837  96.5266625  28.6416464  69.9795657  95.3865893
  36.1617259  60.8502183 105.7111171  36.6799203  61.5863210 105.3857659
  35.8072392  61.1566176 106.5457930  27.7416197  65.7106864  93.8272577
  27.0485442  65.7851219  93.1712613  27.4967949  64.9467208  94.3494094
  36.4129853  57.2702465 101.2312067  36.6931607  56.6025655 101.8572494
  37.1980460  57.4631561 100.7186731  34.2163322  76.4461459  92.7937094
  33.6437289  77.0651647  92.3407566  34.7896116  76.9960821  93.3277016
  40.2838712  65.6920099 104.9783642  41.2356135  65.7918197 104.9995867
  40.1142162  64.8998368 105.4881727  38.3053091  62.7775683 105.1643043
  37.7103023  63.0580695 104.4689532  38.0202788  63.2669584 105.9359785
  37.4360582  76.7298610  93.9245676  38.3691255  76.6644171  94.1278551
  37.3483794  77.5654876  93.4660209  40.0648598  76.0464480  90.8849624
  39.9862230  75.7124343  91.7785381  40.8858265  76.5386248  90.8841096
  42.7626789  68.9126219 104.0925942  42.7303110  67.9742220 104.2785626
  43.3727413  68.9910256 103.3591767  34.6010120  67.7822272  90.1353146
  35.5469225  67.6528480  90.2041564  34.2224365  67.0436934  90.6122574
  42.9121278  65.7037263 104.1384225  42.3960327  64.9195719 103.9514154
  43.7961226  65.3755979 104.3030745  40.5732005  59.4478278 100.0980038
  40.3756826  59.1393366 100.9823370  41.1831710  60.1739917 100.2277968
  48.5803339  69.9742226 103.2331979  49.3106728  69.7127514 103.7939682
  47.9710285  69.2370948 103.2734047  46.6618636  68.1150089 103.8306430
  45.9351800  67.9806054 103.2222922  46.2465923  68.4226917 104.6363148
  34.4848813  71.8340018 111.5953803  35.4051822  72.0118617 111.7893850
  34.4498396  70.8896064 111.4433502  32.7853037  65.7072249  90.0708031
  31.8784493  65.4105361  90.1470745  33.0629018  65.4102067  89.2042318
  23.7030978  67.0278612 100.5207078  23.3833762  66.1743920 100.2281452
  23.1564406  67.2427190 101.2765045  27.4810885  69.7441053 104.2376584
  27.6996895  70.6758161 104.2564618  27.8936659  69.3849027 105.0231388
  34.4015103  60.2509138  96.2252273  33.5915832  59.9056223  96.6007519
  35.0899520  59.9416682  96.8139884  36.3305651  59.3287185  97.8476569
  36.8836690  59.7482638  98.5066592  36.5675738  58.4022933  97.8899525
  32.3538751  65.3174259 113.6279333  32.2535478  66.2668616 113.5591424
  32.1360293  64.9892498 112.7555403  31.5551822  62.5659184  90.2120011
  32.4170986  62.8914082  90.4715828  31.7402166  61.7790680  89.6993076
  23.5719238  70.6481523 102.4900199  22.8782709  70.2335476 101.9770154
  24.3192229  70.6902060 101.8933618  39.7084459  61.4387710  97.3555234
  39.1283128  62.0972514  96.9733286  39.4420391  60.6165055  96.9442651
  38.1588025  60.8392768  99.5576554  38.6587803  60.9509302  98.7490873
  38.8023633  60.5353821 100.1977362  32.2170021  68.7471398 112.4444395
  31.7337102  69.5471758 112.6508284  32.3030960  68.7579342 111.4911839
  25.4855980  70.5799777 100.3666214  25.4626669  70.6787464  99.4148097
  25.7956617  71.4264928 100.6883380  28.1443358  72.6375932 104.4812829
  29.0986612  72.6059875 104.4142760  27.9455882  72.1766556 105.2963055
  28.7342740  71.2077048 107.0483626  29.5535629  71.7021127 107.0718464
  29.0079548  70.2909016 107.0201194  38.4909337  63.5987801  96.4111582
  37.6035192  63.8837451  96.1931777  38.9063326  63.4381564  95.5638859
  41.8423873  63.6234322 100.1265921  42.6184263  64.1130774 100.3990538
  41.1172007  64.0492376 100.5837791  44.2796431  64.3361941 101.1839862
  44.8740922  64.0957677 100.4733170  44.3523015  63.6169071 101.8113398
  26.4993587  78.1795552 101.4983027  26.3648055  77.4195953 100.9321025
  26.0825649  78.9036452 101.0311815  37.6352550  73.3632475  90.5059602
  38.3388400  73.5682478  91.1217257  36.9115199  73.9309237  90.7708685
  38.4650360  69.1142337  96.6261872  38.4085562  69.5710888  95.7869504
  39.0178703  68.3533021  96.4484715  42.2755166  64.9032068  97.4511992
  42.0192100  64.5028704  98.2820199  41.6508034  65.6175862  97.3262131
  46.5867504  67.6428142  99.9583283  46.0267062  67.7121331 100.7314845
  45.9811007  67.4669126  99.2382779  29.6562713  79.0764869 101.7101469
  29.5395097  80.0210301 101.6080159  28.8355159  78.7738430 102.0987268
  39.5439247  73.8015004  92.5558062  40.3784851  73.3696203  92.3735537
  39.3823590  73.6297018  93.4834956  39.1985140  70.3047118  93.9214401
  39.1433943  70.1391389  92.9802845  38.5731195  71.0123151  94.0776591
  23.9877655  65.5415182 107.7475823  24.6336518  65.0314136 108.2363049
  23.7794806  66.2783864 108.3219249  36.5131047  72.6096030 113.2467964
  37.3822206  72.7836682 112.8854599  36.0337798  73.4290446 113.1243693
  32.5081265  59.8055227  93.4999720  32.4959935  60.7497067  93.6567990
  33.4004687  59.6225372  93.2059181  30.6817227  79.7293131 104.9257398
  31.5844474  79.7616741 105.2423893  30.4554597  78.7993582 104.9403733
  32.4370829  78.4824117 101.5867476  31.4866460  78.4825979 101.4731849
  32.7403315  77.7356852 101.0703511  36.3233385  56.3998003  97.7545656
  35.5565780  55.8456490  97.9002339  36.7344090  56.4719872  98.6159808
  28.3275146  62.6882799 111.8450838  29.1906607  62.3319604 112.0554162
  27.7540556  62.3496694 112.5326242  48.1723523  84.3184656 102.6513239
  48.8101933  84.1991403 101.9476579  48.0544365  85.2665500 102.7101191
  44.9813229  84.2712084 102.5874763  44.6431740  84.1553148 101.6995298
  45.8502997  83.8703249 102.5675769  40.8400045  86.1247560  98.5771654
  40.2764910  86.0337497  97.8087942  40.7252440  85.3047465  99.0574147
  45.4633012  85.4246935 108.5460969  45.4521653  85.0299734 107.6741473
  45.6253651  84.6913008 109.1394740  38.3864476  87.6198752 101.4155875
  39.1785768  87.2789576 101.0002174  38.6261127  87.7293727 102.3358028
  46.4199603  89.7918528  93.8886119  45.7687583  90.3772608  93.5020133
  47.2143966  90.3224723  93.9481157  40.3455230  86.8807665  94.2873254
  41.1186106  86.3336652  94.1486129  40.6980629  87.7451914  94.4987715
  42.1840273  88.2084047 107.4940153  41.8930139  89.1129678 107.3786819
  42.8197257  88.2500575 108.2084222  43.1096480  85.5860896 104.0841513
  43.7060052  85.3616918 103.3698475  43.1671451  84.8445641 104.6866960
  42.6821508  83.0400331  91.9191703  42.9347029  82.5181852  91.1575166
  41.7446067  82.8766476  92.0218387  47.7264791  82.0436109  99.7266447
  48.5127880  81.6255533  99.3756864  47.9903495  82.9482202  99.8948095
  47.8974868  87.4808960  94.4255104  47.2620701  87.5543586  95.1376008
  47.5672275  88.0702559  93.7474183  53.1273218  81.9811343 100.6299425
  53.8598390  81.4110559 100.8637255  52.3712574  81.5932943 101.0705931
  42.4017797  84.9428437  94.1216078  42.2854055  84.2673340  94.7897163
  42.5120057  84.4560811  93.3048231  44.7449338  84.4038584  97.8262768
  44.3807545  83.8769205  98.5375689  45.6016454  84.0137053  97.6529253
  50.6498639  75.6932917 105.0894034  50.3181963  76.5628328 104.8655249
  50.0544252  75.3769201 105.7688064  44.3854825  79.4328484  92.8224116
  44.5529227  80.3008720  93.1894587  44.1951994  79.5955766  91.8985405
  47.1430158  87.8945463 104.4889947  46.8430881  88.7970502 104.3805754
  46.7981218  87.6277646 105.3411099  40.5942640  84.3459260 100.5226651
  39.6693136  84.2135474 100.7304343  40.8427053  85.1253479 101.0196593
  50.5427302  80.4128003 102.1687384  49.6344179  80.3443411 101.8746145
  50.4914898  80.8899948 102.9969209  44.3644046  81.8886141  93.8070783
  44.2443671  82.3343192  94.6456263  43.6696634  82.2371459  93.2484321
  37.9551451  83.9892533 101.3570440  38.0843832  84.2427012 102.2709852
  37.2748902  84.5820241 101.0375095  42.1250938  94.6589783  97.4560914
  42.0474968  95.6097608  97.5349395  41.5212581  94.3135656  98.1135841
  44.6168168  81.8317648 110.1122281  43.8401502  82.3911569 110.1025146
  45.2558731  82.3174431 110.6337151  52.4088948  78.6144441 103.9465258
  51.7663328  78.9076974 103.3005052  51.9043877  78.4997362 104.7518454
  50.0629112  82.3607614  94.6351117  50.9746968  82.5935001  94.4598815
  49.5538759  82.9444659  94.0726196  42.8714540  84.6403102 109.6740248
  43.6129224  85.1788146 109.3975072  42.1651525  85.2669391 109.8311800
  48.3469880  86.7832242 108.2712410  48.7553236  86.3414653 107.5267042
  47.6247141  86.2084870 108.5246603  44.7000950  81.7204849 105.6445967
  45.5462145  82.1444263 105.7880616  44.6399587  81.0638473 106.3384530
  48.6698694  87.3433433 102.0264699  48.0407557  87.5079147 101.3240766
  48.2824356  87.7575042 102.7975663  52.5487926  88.2787871  99.3809062
  51.8638964  88.6586772  98.8306096  52.6331775  88.8883197 100.1141010
  47.8500395  79.3809217 107.3027140  47.6061327  80.1351278 106.7661416
  48.1260325  79.7594565 108.1374387  49.8038858  85.9247830 105.9804406
  50.0155753  86.5679590 105.3038787  49.7568606  85.0910146 105.5126336
  47.4065087  78.5365650 102.8840978  46.5449566  78.8346904 103.1757716
  47.4327521  78.7536049 101.9522011  44.2226656  87.0807841  99.2914784
  44.6865002  87.3595544  98.5019406  43.9583454  86.1791286  99.1087874
  41.1150737  86.6279323 102.2294547  41.6852094  87.0566591 101.5912031
  41.7058849  86.3461907 102.9278733  43.1595542  83.2030993  96.1004349
  43.8619585  83.6552037  96.5678275  42.8276171  82.5614812  96.7284242
  41.6075904  81.7942750 110.4755558  40.9774564  82.4759031 110.7090955
  41.5011992  81.6825832 109.5308696  36.9020876  81.4614546 101.4021482
  36.1119930  81.7172075 100.9261593  37.3932123  82.2762884 101.5073523
  50.9184686  88.8019785 104.1526763  51.7402129  88.3999973 103.8709445
  50.9147089  88.6988019 105.1042879  38.8535621  81.8259125  98.3604959
  38.0566785  81.9377820  98.8788455  38.6261214  82.1645778  97.4945850
  44.6841289  88.3503829 106.3087474  44.7485722  88.8124236 107.1445645
  43.9752213  87.7201193 106.4369783  35.1858579  81.7145037 103.8336473
  35.4366618  82.5992046 104.0994049  35.7218128  81.5349638 103.0611565
  59.0090679  85.1458534 100.5011735  58.2554387  84.5765932 100.3455739
  59.1438220  85.1121198 101.4482369  44.3989307  90.0171936  96.1766454
  44.2634982  90.8623472  96.6051302  44.9399119  90.2191214  95.4132388
  40.8856646  76.0963516 112.8380809  40.4923592  75.5429714 113.5128453
  41.7022787  76.4074094 113.2287327  37.8518704  87.5347374  96.7494379
  38.3643225  88.3290624  96.8999944  38.5041417  86.8373665  96.6827981
  39.6613589  90.6513130  98.8317132  39.8380217  91.5731095  98.6438116
  40.4570422  90.3371550  99.2611512  43.8024607  77.5121395 110.4301066
  44.5434321  78.1128548 110.3505528  44.0342530  76.7699033 109.8719108
  38.9465945  82.6977762 108.7079295  38.8319461  81.7963019 109.0086394
  38.0910463  82.9441459 108.3564112  46.0257783  90.6395503 110.3066796
  45.5821637  89.8531881 109.9887701  46.6874997  90.8274653 109.6410687
  40.7844904  92.1691304 104.8327475  41.3352329  92.0408367 104.0604469
  39.9456380  92.4686193 104.4822367  48.1239021  90.9198302 108.3348197
  48.1057497  91.7407183 107.8428466  49.0458941  90.7952378 108.5598338
  44.5812075  88.4342432 109.1771706  45.1140412  87.6730720 108.9471014
  44.0526156  88.1416084 109.9195860  47.7481770  73.5402498 104.7065347
  47.4046040  74.4304140 104.6304458  48.1160733  73.3504156 103.8434932
  35.8167621  85.8636028  97.5253950  36.6542843  86.2733037  97.3087657
  35.9945889  84.9235471  97.4954143  47.7132053  83.5311109  93.2137783
  47.1978677  84.3015714  93.4526170  47.4409362  82.8576245  93.8370844
  45.2979164  78.3760810  98.2723021  44.4420760  77.9867660  98.0928660
  45.7106116  78.4552771  97.4122806  46.8278311  75.9107153 102.6714581
  46.3243106  75.8737288 101.8582386  47.1208918  76.8199896 102.7311237
  43.0721197  75.9945883 101.6780762  43.9374193  75.7988691 101.3186652
  43.1398706  75.7656235 102.6050119  52.6866327  86.2843464  95.1490956
  51.9095770  85.9454623  94.7046118  53.3657808  86.2896087  94.4745921
  47.5018356  81.4038201  95.0397564  47.1968492  81.7184350  95.8907707
  48.4548798  81.4819621  95.0824897  45.9464788  87.5628424  96.6890518
  45.4186150  86.8281184  96.3763755  45.4452291  88.3403101  96.4430486
  50.9257634  85.7577445 101.8057564  50.2681309  86.4476706 101.8937693
  51.7298033  86.1473877 102.1491550  40.6783516  78.2248091  99.0497129
  41.2527268  78.0023272  98.3170322  41.2654498  78.2936785  99.8025731
  49.7363093  84.1121818  99.8561506  50.2494975  84.7451809 100.3583215
  50.3864317  83.5123013  99.4904866  41.0053103  80.2552552  93.0693014
  40.1690415  80.5927238  93.3902289  40.8657872  80.1201532  92.1320151
  42.9806183  75.0989340  97.7772199  42.3270596  74.7838357  97.1528813
  42.9386658  74.4765080  98.5032022  44.0917388  85.3808635  89.6925491
  43.1844450  85.1497888  89.8916640  44.5888420  84.5846254  89.8799472
  46.9985467  94.0906142  92.6122177  46.3247166  94.3937839  93.2207135
  47.3851289  94.8935222  92.2627634  46.2143924  81.5871273 102.1019846
  45.2966485  81.8086220 101.9441534  46.6304067  81.6617584 101.2431554
  46.9978972  82.9862689  97.2322527  47.7450790  83.4984086  96.9229649
  47.2670561  82.6646742  98.0926920  45.2705622  85.4821230  94.2149481
  44.3616841  85.1980262  94.3121951  45.3000706  85.9020308  93.3552788
  50.5024889  89.0927819  97.9840648  50.0487216  88.2518729  98.0405839
  49.8718856  89.7289217  98.3215429  49.4457809  80.0219805  99.2141316
  48.7080565  79.5097191  99.5451558  49.6984582  79.5820187  98.4024593
  48.9457828  90.9304316  98.9190467  49.2380803  91.4909373  98.2002832
  49.4556449  91.2232877  99.6743626  49.5469436  72.7996057  99.8083085
  49.8528313  71.9393421  99.5209000  50.2722041  73.3913677  99.6082079
  35.8393792  83.2026744  98.1964683  35.6418192  82.6096104  97.4715750
  35.2840456  82.8978954  98.9140622  43.8190516  83.0949850 100.3159276
  43.8739126  82.1423687 100.2401753  43.0081718  83.2509289 100.8000575
  44.9681710  87.0229973  91.5537559  44.5301139  86.3065832  91.0943197
  45.7092150  87.2506088  90.9922651  41.7582876  81.7126910  98.0749655
  40.9450741  82.0121080  98.4814847  42.2541870  81.3182599  98.7924137
  43.9091454  91.7084667 100.0083920  43.8667632  91.9345513  99.0792452
  44.8254152  91.4748041 100.1569721  47.3557087  82.1768734 106.9064549
  47.7106475  82.4040208 107.7659015  48.0029219  82.5087111 106.2841804
  53.0854824  85.2987170  97.6113878  52.9472723  85.4888766  96.6835067
  52.7291043  86.0606553  98.0681929  41.2496950  79.2845265 103.6910890
  41.8896330  79.1434025 102.9933853  40.4174481  78.9979779 103.3149492
  53.1124204  87.3663697 102.6225149  53.5460711  87.2738986 103.4708204
  53.8255785  87.3421198 101.9845165  42.0257254  88.5847696  99.8045882
  42.8197853  88.0898016  99.6028457  41.3148947  88.0565559  99.4413588
  46.8452099  90.9665791 104.1558250  46.8989121  91.5356728 104.9235966
  45.9766880  91.1367676 103.7912287  38.3340018  82.7290778  95.8805635
  37.4037606  82.6675233  96.0975597  38.4297490  82.2066730  95.0842276
  38.2525567  79.2545590  98.4683877  38.5132384  80.1690924  98.3593037
  39.0742739  78.7870033  98.6180490  39.7250492  80.6683348 105.6382701
  40.3973546  80.4600710 104.9895350  38.8980279  80.4705434 105.1987934
  53.9739753  87.4087398 105.1558035  54.1675644  88.3133208 105.4017310
  53.8740372  86.9494817 105.9896620  45.6276064  77.2945288 107.6548362
  44.9803979  77.9935238 107.5612839  46.3977080  77.7281432 108.0224610
  49.0354862  87.5594141 110.7298915  48.8840369  87.3304692 109.8128999
  49.0259542  88.5164742 110.7430261  45.8040199  85.1326053 105.7145182
  46.7332259  85.2837213 105.5414149  45.3831229  85.2210074 104.8593828
  44.6028530  89.1576718 103.4843720  44.4639616  88.7895502 104.3569658
  43.8143127  89.6724357 103.3127677  45.1976682  94.2585814  94.8269256
  45.3728438  93.7873857  95.6414879  44.5109470  94.8851580  95.0550517
  46.1533745  88.5358321 100.8732557  45.8183578  88.4959090 101.7690207
  45.6537691  87.8703036 100.4002968  40.1277989  83.9425951 106.3985138
  39.9897787  83.2106189 106.9996678  41.0382913  83.8534851 106.1169326
  49.0892937  85.8814355  91.1469617  48.4722108  85.1561183  91.0502670
  48.6209426  86.6423715  90.8036691  42.7560290  83.6545910 105.8868818
  43.4659909  83.0139102 105.8455437  42.7129598  83.9058805 106.8094999
  50.7447069  90.5913263 108.8075397  50.6859615  89.9072483 108.1405980
  51.1466587  91.3332253 108.3556023  41.4689224  80.6411128 107.7064458
  40.9326581  80.1901866 108.3586054  40.8805933  80.7757037 106.9634922
  39.7637768  97.4075177 101.6009116  40.0034366  98.0393701 102.2788135
  38.9206964  97.0563217 101.8874476  40.8791483  80.0999779  90.2690921
  40.0020949  79.9788580  89.9053168  41.3549236  79.3085857  90.0169810
  50.7464476  88.5552847 107.0389377  49.8591255  88.2178769 107.1615776
  51.3163027  87.8235878 107.2758142  32.3993623  84.8876939 100.3632428
  33.0864663  84.5738669  99.7753444  32.2441752  85.7918304 100.0899680
  37.2028345  79.7767135 104.7917452  37.1186534  79.1692805 104.0567862
  36.3811052  80.2676154 104.7926948  44.2765629  93.2154299 104.0050620
  44.2035801  94.0209271 104.5169925  43.8343023  93.4146265 103.1798642
  44.0655409  92.4526070  97.5153442  43.2822931  92.9947750  97.6091666
  44.7648154  92.9700049  97.9147683  47.3752059  78.2620699 100.1587647
  47.8720759  77.5090661  99.8388717  46.6039041  78.2985016  99.5930856
  55.2281817  83.9661065 101.8005939  55.2171693  84.8485780 101.4299872
  54.3599196  83.6132615 101.6060476  46.7364313  93.1141134 106.1608779
  47.4492285  93.7488598 106.0884680  46.2454342  93.2105000 105.3448781
  48.4581840  87.0192386  97.7326071  47.5238119  87.1393849  97.5630775
  48.6358508  86.1164853  97.4686080  43.9587028  80.4038082  99.8859332
  43.5884815  79.8509122 100.5740237  44.4546120  79.7996215  99.3334332
  51.8454391  82.8609705  98.2676105  52.3114843  83.6937697  98.1936407
  52.2961892  82.3954687  98.9721363  41.7876226  90.8635577 106.9814350
  42.4885686  91.4972060 107.1343744  41.3171341  91.2050309 106.2209989
  49.9130622  89.2053527  95.2662257  50.1890466  89.0910121  96.1756131
  49.0435121  88.8071012  95.2274430  49.8171054  75.2290292 102.3067006
  48.9034134  75.4594519 102.4749213  50.2464155  75.3128737 103.1581038
  49.5877512  83.4180184 104.8066900  48.9348963  83.6656092 104.1519353
  49.9657892  82.6044323 104.4729377  46.5484686  93.4539878  98.9095070
  46.7307081  92.6361534  99.3722823  47.3717672  93.6707570  98.4719960
  46.8826852  92.3808063  96.1710119  47.4114618  91.8700517  95.5580281
  47.1455071  92.0650593  97.0355652  45.6365085  84.1599995 111.2932937
  44.9605723  84.0594125 111.9635312  46.4592719  84.0039209 111.7568934
  37.3843945  90.3971932 103.9145452  37.9697381  89.6515620 104.0473357
  37.1868783  90.7075889 104.7982116  40.2382600  93.4323179  98.9307895
  39.5692975  93.9169307  98.4471935  40.0995469  93.6792400  99.8451273
  31.9761599  82.9677532 102.6349896  32.0145699  82.4341123 103.4287014
  31.4701892  82.4412738 102.0160873  44.3787868  95.4666923 105.5290553
  44.9306176  95.6298544 106.2939638  44.7194062  96.0571361 104.8570578
  39.3552362  77.8142073 106.1312438  39.4193688  78.6756904 105.7189836
  39.2919482  77.2016074 105.3984796  38.8304634  79.8865205 109.7785472
  39.4576673  79.5042283 110.3922996  37.9732553  79.6679407 110.1441165
  49.2298743  90.2928180 111.3839208  49.7738647  90.9058139 110.8894162
  48.6485588  90.8507759 111.9006221  35.6070177  81.6941634  95.7103827
  35.9023618  80.7852313  95.6570881  34.7058213  81.6729374  95.3884829
  47.5156256  93.4148898 102.5154235  47.3907395  92.6138638 102.0065181
  48.1735347  93.9095092 102.0268205  39.1364424  79.7697631 101.6931376
  38.4151010  80.3833599 101.5538849  39.9257680  80.3055396 101.6148021
  49.5791164  91.2157919 104.1433785  48.6321500  91.0963270 104.0712112
  49.9273937  90.3280417 104.2260047  41.9390737  77.1052057 107.9672027
  42.4625139  77.3514354 108.7298337  41.7203071  77.9372092 107.5475165
  37.3358018  79.3755732  95.8343152  37.0070725  78.4953111  95.6518258
  37.6897389  79.3203401  96.7219541  46.5837597  91.0110635 100.3438138
  46.4362560  90.0827342 100.5245708  47.4091091  91.0330725  99.8595213
  40.4499842  79.6628702  96.2018630  40.7895914  80.1914623  95.4797238
  40.8971962  80.0009108  96.9777196  50.1871719  91.8339194 101.4303010
  51.1118267  91.6282055 101.2927462  50.0187023  91.5855595 102.3392352
  43.1443282  78.0465753 105.6521698  42.8040103  77.2473566 106.0542378
  42.4382289  78.3467463 105.0798531  43.7959754  75.1315065 104.1049021
  44.6185824  74.6575543 103.9827911  44.0397818  75.9105549 104.6047707
  42.4367989  78.1603323  94.4011923  43.1576351  78.5384576  93.8975639
  41.8133293  78.8792200  94.5046900  46.5799112  78.8648472  95.3370255
  46.7962726  79.7473110  95.0359083  46.0993179  78.4734686  94.6075897
  41.3198333  81.8234186 101.9140999  41.1742914  82.1374489 102.8065281
  40.8423537  82.4419086 101.3611898  43.1794716  78.8136734 101.9621889
  43.1656285  77.9177827 101.6254187  43.8967144  78.8207397 102.5960175
  45.0320847  79.2474074 104.0075016  44.7738624  80.1691144 104.0059347
  44.5005887  78.8504508 104.6975481  49.9767035  92.3524861  96.7865102
  50.1503913  91.7871283  96.0338954  50.4695927  93.1525756  96.6044592
  35.7943995  84.3639530 104.8528661  35.2497463  85.1399338 104.9848935
  36.6723345  84.7110335 104.6947782  42.5831612  77.6951114  97.2309459
  42.7047523  76.7667760  97.4300347  42.2933654  77.7089800  96.3187775
  45.4522802  75.3806024 100.3676179  45.4744499  75.4445357  99.4128159
  45.8690861  74.5410533 100.5616685  55.8306427  85.1161284  98.4055402
  56.2737573  84.3668609  98.0074525  54.9532937  85.1071420  98.0229134
  50.9642208  91.6691625  93.8862000  51.6593112  92.2898318  94.1049315
  51.3065358  90.8186977  94.1614378  36.5810017  83.4909426 107.7458817
  35.8391753  83.6392062 108.3323448  36.2602761  83.7517692 106.8825567
  52.8633631  89.1191331  95.4149331  53.3884955  89.4578604  94.6898651
  52.7755984  88.1838346  95.2312465  44.5253680  93.0325405 107.5439208
  44.8340806  92.7874551 108.4161907  45.3229162  93.2372043 107.0558078
  44.5474292  95.1863314  99.7744584  44.1079282  94.6939693 100.4677441
  45.2982409  94.6436282  99.5336659  37.0266631  91.3774855  99.7769212
  37.8524651  91.0778627  99.3967856  36.6760683  90.6082477 100.2259001
  41.9948164  90.7301323 101.8466886  41.3728173  90.0672028 101.5469114
  42.6653031  90.7562455 101.1640533  35.2275236  89.2961181 100.7358146
  34.3907144  88.8683356 100.5542147  35.1998881  89.4893625 101.6728937
  42.0672691  79.2083111 111.4399392  42.1160847  80.0845234 111.0577161
  42.6095206  78.6660504 110.8671035  52.5527537  89.7524235 110.7200529
  51.7623081  89.7348373 110.1805028  52.3160892  90.2912528 111.4749565
  52.6725412  86.6016701 108.0333257  52.7223417  86.4366708 108.9748780
  52.5639335  85.7343960 107.6431138  41.5561671  89.2805247  95.3225346
  41.7049791  89.9640711  94.6692019  42.3628114  89.2610337  95.8374802
  49.9629175  82.5847629 109.3492564  50.8639037  82.4454094 109.0576562
  50.0377149  82.7502084 110.2890742  44.2971980  79.9614484 108.1945750
  43.4275289  80.2548050 107.9228339  44.5331460  80.5454929 108.9153014
  54.1743609  89.0213642 108.2775279  53.8828417  89.3843623 109.1138740
  53.5615740  88.3080651 108.0988611  55.3739291  86.5866522 100.7977849
  56.2086183  87.0256326 100.9615409  55.5098420  86.1105175  99.9786095
  52.4230797  84.1446257 106.7455337  52.8984919  84.3373903 105.9374188
  51.4996363  84.2005443 106.4998721  39.3114304  85.3070424  96.3286415
  39.0660346  84.4032754  96.5266625  39.4810218  85.3087575  95.3865893
  47.0011014  76.1794101 105.7111171  47.5192958  76.9155128 105.3857659
  46.6466146  76.4858094 106.5457930  38.5809951  81.0398782  93.8272577
  37.8879196  81.1143137  93.1712613  38.3361703  80.2759125  94.3494094
  47.2523608  72.5994383 101.2312067  47.5325362  71.9317572 101.8572494
  48.0374215  72.7923479 100.7186731  45.0557076  91.7753377  92.7937094
  44.4831043  92.3943564  92.3407566  45.6289870  92.3252739  93.3277016
  51.1232466  81.0212017 104.9783642  52.0749889  81.1210115 104.9995867
  50.9535917  80.2290286 105.4881727  49.1446846  78.1067600 105.1643043
  48.5496778  78.3872613 104.4689532  48.8596542  78.5961501 105.9359785
  48.2754336  92.0590527  93.9245676  49.2085009  91.9936089  94.1278551
  48.1877549  92.8946794  93.4660209  50.9042353  91.3756398  90.8849624
  50.8255984  91.0416261  91.7785381  51.7252020  91.8678165  90.8841096
  53.6020544  84.2418137 104.0925942  53.5696864  83.3034138 104.2785626
  54.2121168  84.3202174 103.3591767  45.4403875  83.1114190  90.1353146
  46.3862980  82.9820398  90.2041564  45.0618120  82.3728852  90.6122574
  53.7515032  81.0329180 104.1384225  53.2354081  80.2487637 103.9514154
  54.6354981  80.7047897 104.3030745  51.4125759  74.7770196 100.0980038
  51.2150581  74.4685284 100.9823370  52.0225465  75.5031835 100.2277968
  59.4197094  85.3034144 103.2331979  60.1500482  85.0419432 103.7939682
  58.8104039  84.5662866 103.2734047  57.5012391  83.4442006 103.8306430
  56.7745555  83.3097971 103.2222922  57.0859678  83.7518835 104.6363148
  45.3242567  87.1631936 111.5953803  46.2445577  87.3410535 111.7893850
  45.2892150  86.2187981 111.4433502  43.6246792  81.0364166  90.0708031
  42.7178247  80.7397279  90.1470745  43.9022773  80.7393984  89.2042318
  34.5424732  82.3570530 100.5207078  34.2227517  81.5035838 100.2281452
  33.9958161  82.5719108 101.2765045  38.3204640  85.0732971 104.2376584
  38.5390650  86.0050078 104.2564618  38.7330414  84.7140945 105.0231388
  45.2408858  75.5801056  96.2252273  44.4309586  75.2348141  96.6007519
  45.9293275  75.2708600  96.8139884  47.1699406  74.6579103  97.8476569
  47.7230445  75.0774556  98.5066592  47.4069492  73.7314851  97.8899525
  43.1932505  80.6466176 113.6279333  43.0929232  81.5960533 113.5591424
  42.9754047  80.3184415 112.7555403  42.3945577  77.8951101  90.2120011
  43.2564741  78.2206000  90.4715828  42.5795921  77.1082597  89.6993076
  34.4112992  85.9773441 102.4900199  33.7176464  85.5627394 101.9770154
  35.1585983  86.0193978 101.8933618  50.5478213  76.7679628  97.3555234
  49.9676882  77.4264432  96.9733286  50.2814146  75.9456972  96.9442651
  48.9981779  76.1684686  99.5576554  49.4981558  76.2801220  98.7490873
  49.6417387  75.8645738 100.1977362  43.0563775  84.0763315 112.4444395
  42.5730857  84.8763675 112.6508284  43.1424714  84.0871260 111.4911839
  36.3249735  85.9091695 100.3666214  36.3020423  86.0079382  99.4148097
  36.6350371  86.7556846 100.6883380  38.9837113  87.9667850 104.4812829
  39.9380366  87.9351792 104.4142760  38.7849636  87.5058474 105.2963055
  39.5736495  86.5368966 107.0483626  40.3929384  87.0313045 107.0718464
  39.8473303  85.6200934 107.0201194  49.3303091  78.9279718  96.4111582
  48.4428946  79.2129369  96.1931777  49.7457080  78.7673482  95.5638859
  52.6817627  78.9526239 100.1265921  53.4578017  79.4422692 100.3990538
  51.9565761  79.3784293 100.5837791  55.1190186  79.6653858 101.1839862
  55.7134677  79.4249594 100.4733170  55.1916770  78.9460989 101.8113398
  37.3387342  93.5087469 101.4983027  37.2041809  92.7487870 100.9321025
  36.9219404  94.2328369 101.0311815  48.4746305  88.6924393  90.5059602
  49.1782155  88.8974395  91.1217257  47.7508953  89.2601155  90.7708685
  49.3044115  84.4434254  96.6261872  49.2479316  84.9002806  95.7869504
  49.8572457  83.6824939  96.4484715  53.1148921  80.2323986  97.4511992
  52.8585855  79.8320622  98.2820199  52.4901789  80.9467780  97.3262131
  57.4261259  82.9720059  99.9583283  56.8660817  83.0413249 100.7314845
  56.8204762  82.7961044  99.2382779  40.4956467  94.4056786 101.7101469
  40.3788852  95.3502219 101.6080159  39.6748914  94.1030348 102.0987268
  50.3833002  89.1306922  92.5558062  51.2178606  88.6988121  92.3735537
  50.2217345  88.9588936  93.4834956  50.0378894  85.6339035  93.9214401
  49.9827698  85.4683307  92.9802845  49.4124949  86.3415068  94.0776591
  34.8271409  80.8707100 107.7475823  35.4730273  80.3606054 108.2363049
  34.6188560  81.6075781 108.3219249  47.3524801  87.9387947 113.2467964
  48.2215961  88.1128600 112.8854599  46.8731553  88.7582364 113.1243693
  43.3475020  75.1347144  93.4999720  43.3353689  76.0788984  93.6567990
  44.2398441  74.9517290  93.2059181  41.5210982  95.0585048 104.9257398
  42.4238228  95.0908659 105.2423893  41.2948352  94.1285499 104.9403733
  43.2764584  93.8116035 101.5867476  42.3260215  93.8117896 101.4731849
  43.5797070  93.0648769 101.0703511  47.1627139  71.7289921  97.7545656
  46.3959535  71.1748408  97.9002339  47.5737844  71.8011790  98.6159808
  39.1668900  78.0174717 111.8450838  40.0300362  77.6611522 112.0554162
  38.5934311  77.6788612 112.5326242  59.0117277  99.6476573 102.6513239
  59.6495687  99.5283321 101.9476579  58.8938120 100.5957417 102.7101191
  55.8206983  99.6004001 102.5874763  55.4825495  99.4845066 101.6995298
  56.6896752  99.1995166 102.5675769  51.6793799 101.4539478  98.5771654
  51.1158664 101.3629415  97.8087942  51.5646194 100.6339382  99.0574147
  56.3026766 100.7538853 108.5460969  56.2915407 100.3591651 107.6741473
  56.4647406 100.0204926 109.1394740  49.2258231 102.9490669 101.4155875
  50.0179523 102.6081494 101.0002174  49.4654881 103.0585644 102.3358028
  57.2593358 105.1210445  93.8886119  56.6081338 105.7064526  93.5020133
  58.0537721 105.6516640  93.9481157  51.1848985 102.2099583  94.2873254
  51.9579861 101.6628570  94.1486129  51.5374384 103.0743832  94.4987715
  53.0234027 103.5375965 107.4940153  52.7323893 104.4421596 107.3786819
  53.6591012 103.5792492 108.2084222  53.9490234 100.9152813 104.0841513
  54.5453807 100.6908836 103.3698475  54.0065206 100.1737559 104.6866960
  53.5215263  98.3692249  91.9191703  53.7740783  97.8473770  91.1575166
  52.5839822  98.2058394  92.0218387  58.5658546  97.3728027  99.7266447
  59.3521635  96.9547450  99.3756864  58.8297250  98.2774119  99.8948095
  58.7368623 102.8100877  94.4255104  58.1014456 102.8835504  95.1376008
  58.4066029 103.3994476  93.7474183  63.9666973  97.3103260 100.6299425
  64.6992145  96.7402477 100.8637255  63.2106328  96.9224861 101.0705931
  53.2411551 100.2720355  94.1216078  53.1247810  99.5965258  94.7897163
  53.3513811  99.7852729  93.3048231  55.5843092  99.7330502  97.8262768
  55.2201300  99.2061123  98.5375689  56.4410208  99.3428971  97.6529253
  61.4892393  91.0224834 105.0894034  61.1575718  91.8920245 104.8655249
  60.8938006  90.7061118 105.7688064  55.2248579  94.7620401  92.8224116
  55.3922982  95.6300638  93.1894587  55.0345748  94.9247683  91.8985405
  57.9823913 103.2237380 104.4889947  57.6824636 104.1262419 104.3805754
  57.6374972 102.9569564 105.3411099  51.4336394  99.6751177 100.5226651
  50.5086891  99.5427391 100.7304343  51.6820807 100.4545396 101.0196593
  61.3821056  95.7419921 102.1687384  60.4737934  95.6735329 101.8746145
  61.3308652  96.2191866 102.9969209  55.2037800  97.2178059  93.8070783
  55.0837425  97.6635110  94.6456263  54.5090389  97.5663377  93.2484321
  48.7945205  99.3184451 101.3570440  48.9237586  99.5718930 102.2709852
  48.1142656  99.9112159 101.0375095  52.9644692 109.9881701  97.4560914
  52.8868722 110.9389526  97.5349395  52.3606336 109.6427573  98.1135841
  55.4561922  97.1609566 110.1122281  54.6795256  97.7203486 110.1025146
  56.0952485  97.6466349 110.6337151  63.2482703  93.9436359 103.9465258
  62.6057083  94.2368892 103.3005052  62.7437631  93.8289279 104.7518454
  60.9022866  97.6899532  94.6351117  61.8140723  97.9226919  94.4598815
  60.3932513  98.2736576  94.0726196  53.7108294  99.9695020 109.6740248
  54.4522979 100.5080063 109.3975072  53.0045280 100.5961308 109.8311800
  59.1863634 102.1124160 108.2712410  59.5946990 101.6706571 107.5267042
  58.4640896 101.5376788 108.5246603  55.5394704  97.0496767 105.6445967
  56.3855899  97.4736180 105.7880616  55.4793342  96.3930391 106.3384530
  59.5092449 102.6725351 102.0264699  58.8801311 102.8371065 101.3240766
  59.1218111 103.0866960 102.7975663  63.3881681 103.6079788  99.3809062
  62.7032719 103.9878690  98.8306096  63.4725530 104.2175115 100.1141010
  58.6894149  94.7101135 107.3027140  58.4455081  95.4643196 106.7661416
  58.9654080  95.0886483 108.1374387  60.6432612 101.2539747 105.9804406
  60.8549507 101.8971507 105.3038787  60.5962360 100.4202064 105.5126336
  58.2458841  93.8657568 102.8840978  57.3843320  94.1638822 103.1757716
  58.2721276  94.0827967 101.9522011  55.0620411 102.4099759  99.2914784
  55.5258756 102.6887462  98.5019406  54.7977209 101.5083203  99.1087874
  51.9544492 101.9571240 102.2294547  52.5245849 102.3858509 101.5912031
  52.5452604 101.6753825 102.9278733  53.9989297  98.5322911  96.1004349
  54.7013340  98.9843955  96.5678275  53.6669925  97.8906730  96.7284242
  52.4469658  97.1234668 110.4755558  51.8168319  97.8050949 110.7090955
  52.3405746  97.0117749 109.5308696  47.7414631  96.7906464 101.4021482
  46.9513685  97.0463992 100.9261593  48.2325878  97.6054802 101.5073523
  61.7578440 104.1311703 104.1526763  62.5795884 103.7291890 103.8709445
  61.7540843 104.0279937 105.1042879  49.6929376  97.1551043  98.3604959
  48.8960539  97.2669737  98.8788455  49.4654968  97.4937695  97.4945850
  55.5235044 103.6795746 106.3087474  55.5879476 104.1416153 107.1445645
  54.8145967 103.0493111 106.4369783  46.0252334  97.0436954 103.8336473
  46.2760372  97.9283964 104.0994049  46.5611882  96.8641556 103.0611565
  69.8484433 100.4750451 100.5011735  69.0948142  99.9057849 100.3455739
  69.9831974 100.4413116 101.4482369  55.2383061 105.3463854  96.1766454
  55.1028736 106.1915389  96.6051302  55.7792874 105.5483131  95.4132388
  51.7250401  91.4255434 112.8380809  51.3317346  90.8721632 113.5128453
  52.5416541  91.7366012 113.2287327  48.6912459 102.8639292  96.7494379
  49.2036979 103.6582542  96.8999944  49.3435171 102.1665582  96.6827981
  50.5007343 105.9805048  98.8317132  50.6773972 106.9023013  98.6438116
  51.2964177 105.6663467  99.2611512  54.6418362  92.8413313 110.4301066
  55.3828075  93.4420466 110.3505528  54.8736285  92.0990950 109.8719108
  49.7859700  98.0269680 108.7079295  49.6713215  97.1254937 109.0086394
  48.9304218  98.2733377 108.3564112  56.8651538 105.9687420 110.3066796
  56.4215392 105.1823799 109.9887701  57.5268751 106.1566571 109.6410687
  51.6238659 107.4983222 104.8327475  52.1746084 107.3700285 104.0604469
  50.7850135 107.7978111 104.4822367  58.9632776 106.2490220 108.3348197
  58.9451251 107.0699101 107.8428466  59.8852696 106.1244295 108.5598338
  55.4205830 103.7634350 109.1771706  55.9534167 103.0022638 108.9471014
  54.8919911 103.4708001 109.9195860  58.5875525  88.8694416 104.7065347
  58.2439794  89.7596057 104.6304458  58.9554487  88.6796073 103.8434932
  46.6561375 101.1927946  97.5253950  47.4936597 101.6024954  97.3087657
  46.8339643 100.2527388  97.4954143  58.5525808  98.8603027  93.2137783
  58.0372431  99.6307631  93.4526170  58.2803116  98.1868163  93.8370844
  56.1372919  93.7052727  98.2723021  55.2814515  93.3159578  98.0928660
  56.5499870  93.7844688  97.4122806  57.6672065  91.2399071 102.6714581
  57.1636861  91.2029206 101.8582386  57.9602672  92.1491813 102.7311237
  53.9114951  91.3237800 101.6780762  54.7767948  91.1280609 101.3186652
  53.9792460  91.0948152 102.6050119  63.5260082 101.6135381  95.1490956
  62.7489524 101.2746541  94.7046118  64.2051563 101.6188004  94.4745921
  58.3412111  96.7330119  95.0397564  58.0362246  97.0476268  95.8907707
  59.2942553  96.8111539  95.0824897  56.7858543 102.8920342  96.6890518
  56.2579904 102.1573102  96.3763755  56.2846045 103.6695018  96.4430486
  61.7651389 101.0869363 101.8057564  61.1075063 101.7768624 101.8937693
  62.5691788 101.4765795 102.1491550  51.5177270  93.5540008  99.0497129
  52.0921022  93.3315190  98.3170322  52.1048253  93.6228703  99.8025731
  60.5756847  99.4413735  99.8561506  61.0888729 100.0743727 100.3583215
  61.2258071  98.8414931  99.4904866  51.8446857  95.5844469  93.0693014
  51.0084170  95.9219156  93.3902289  51.7051627  95.4493449  92.1320151
  53.8199938  90.4281257  97.7772199  53.1664350  90.1130274  97.1528813
  53.7780412  89.8056998  98.5032022  54.9311143 100.7100552  89.6925491
  54.0238204 100.4789806  89.8916640  55.4282175  99.9138172  89.8799472
  57.8379222 109.4198060  92.6122177  57.1640920 109.7229756  93.2207135
  58.2245044 110.2227140  92.2627634  57.0537678  96.9163191 102.1019846
  56.1360240  97.1378138 101.9441534  57.4697822  96.9909501 101.2431554
  57.8372726  98.3154607  97.2322527  58.5844545  98.8276004  96.9229649
  58.1064316  97.9938659  98.0926920  56.1099376 100.8113147  94.2149481
  55.2010595 100.5272180  94.3121951  56.1394460 101.2312226  93.3552788
  61.3418644 104.4219737  97.9840648  60.8880971 103.5810647  98.0405839
  60.7112610 105.0581135  98.3215429  60.2851563  95.3511723  99.2141316
  59.5474320  94.8389109  99.5451558  60.5378337  94.9112104  98.4024593
  59.7851583 106.2596233  98.9190467  60.0774557 106.8201291  98.2002832
  60.2950203 106.5524794  99.6743626  60.3863190  88.1287975  99.8083085
  60.6922067  87.2685338  99.5209000  61.1115795  88.7205595  99.6082079
  46.6787547  98.5318661  98.1964683  46.4811946  97.9388022  97.4715750
  46.1234211  98.2270872  98.9140622  54.6584270  98.4241768 100.3159276
  54.7132880  97.4715604 100.2401753  53.8475472  98.5801207 100.8000575
  55.8075464 102.3521891  91.5537559  55.3694894 101.6357750  91.0943197
  56.5485905 102.5798006  90.9922651  52.5976630  97.0418828  98.0749655
  51.7844496  97.3412998  98.4814847  53.0935624  96.6474516  98.7924137
  54.7485208 107.0376585 100.0083920  54.7061387 107.2637431  99.0792452
  55.6647907 106.8039959 100.1569721  58.1950842  97.5060652 106.9064549
  58.5500230  97.7332125 107.7659015  58.8422973  97.8379029 106.2841804
  63.9248579 100.6279088  97.6113878  63.7866477 100.8180684  96.6835067
  63.5684798 101.3898471  98.0681929  52.0890705  94.6137183 103.6910890
  52.7290084  94.4725942 102.9933853  51.2568235  94.3271696 103.3149492
  63.9517958 102.6955615 102.6225149  64.3854465 102.6030904 103.4708204
  64.6649539 102.6713115 101.9845165  52.8651009 103.9139614  99.8045882
  53.6591607 103.4189934  99.6028457  52.1542701 103.3857477  99.4413588
  57.6845853 106.2957709 104.1558250  57.7382876 106.8648645 104.9235966
  56.8160635 106.4659594 103.7912287  49.1733772  98.0582695  95.8805635
  48.2431360  97.9967151  96.0975597  49.2691244  97.5358648  95.0842276
  49.0919321  94.5837508  98.4683877  49.3526139  95.4982841  98.3593037
  49.9136494  94.1161951  98.6180490  50.5644247  95.9975265 105.6382701
  51.2367300  95.7892627 104.9895350  49.7374033  95.7997351 105.1987934
  64.8133508 102.7379316 105.1558035  65.0069398 103.6425126 105.4017310
  64.7134126 102.2786735 105.9896620  56.4669819  92.6237206 107.6548362
  55.8197734  93.3227156 107.5612839  57.2370834  93.0573350 108.0224610
  59.8748617 102.8886058 110.7298915  59.7234123 102.6596610 109.8128999
  59.8653296 103.8456660 110.7430261  56.6433953 100.4617971 105.7145182
  57.5726013 100.6129131 105.5414149  56.2224983 100.5501992 104.8593828
  55.4422285 104.4868636 103.4843720  55.3033371 104.1187420 104.3569658
  54.6536881 105.0016275 103.3127677  56.0370437 109.5877732  94.8269256
  56.2122192 109.1165775  95.6414879  55.3503225 110.2143498  95.0550517
  56.9927500 103.8650238 100.8732557  56.6577333 103.8251008 101.7690207
  56.4931446 103.1994954 100.4002968  50.9671744  99.2717868 106.3985138
  50.8291542  98.5398107 106.9996678  51.8776667  99.1826768 106.1169326
  59.9286692 101.2106273  91.1469617  59.3115862 100.4853101  91.0502670
  59.4603180 101.9715633  90.8036691  53.5954045  98.9837828 105.8868818
  54.3053663  98.3431020 105.8455437  53.5523353  99.2350722 106.8094999
  61.5840823 105.9205181 108.8075397  61.5253369 105.2364401 108.1405980
  61.9860342 106.6624171 108.3556023  52.3082979  95.9703045 107.7064458
  51.7720336  95.5193784 108.3586054  51.7199687  96.1048954 106.9634922
  50.6031522 112.7367095 101.6009116  50.8428120 113.3685619 102.2788135
  49.7600719 112.3855135 101.8874476  51.7185238  95.4291697  90.2690921
  50.8414704  95.3080498  89.9053168  52.1942991  94.6377775  90.0169810
  61.5858231 103.8844765 107.0389377  60.6985009 103.5470687 107.1615776
  62.1556782 103.1527796 107.2758142  43.2387378 100.2168857 100.3632428
  43.9258417  99.9030587  99.7753444  43.0835506 101.1210221 100.0899680
  48.0422100  95.1059053 104.7917452  47.9580289  94.4984723 104.0567862
  47.2204806  95.5968071 104.7926948  55.1159384 108.5446217 104.0050620
  55.0429555 109.3501189 104.5169925  54.6736777 108.7438183 103.1798642
  54.9049164 107.7817987  97.5153442  54.1216685 108.3239667  97.6091666
  55.6041909 108.2991967  97.9147683  58.2145814  93.5912617 100.1587647
  58.7114513  92.8382579  99.8388717  57.4432795  93.6276933  99.5930856
  66.0675571  99.2952982 101.8005939  66.0565447 100.1777698 101.4299872
  65.1992951  98.9424533 101.6060476  57.5758067 108.4433051 106.1608779
  58.2886040 109.0780516 106.0884680  57.0848096 108.5396917 105.3448781
  59.2975594 102.3484304  97.7326071  58.3631873 102.4685766  97.5630775
  59.4752263 101.4456771  97.4686080  54.7980782  95.7330000  99.8859332
  54.4278570  95.1801040 100.5740237  55.2939875  95.1288133  99.3334332
  62.6848146  98.1901623  98.2676105  63.1508598  99.0229615  98.1936407
  63.1355646  97.7246605  98.9721363  52.6269981 106.1927495 106.9814350
  53.3279440 106.8263978 107.1343744  52.1565096 106.5342226 106.2209989
  60.7524377 104.5345444  95.2662257  61.0284221 104.4202039  96.1756131
  59.8828876 104.1362929  95.2274430  60.6564808  90.5582210 102.3067006
  59.7427888  90.7886437 102.4749213  61.0857910  90.6420654 103.1581038
  60.4271267  98.7472102 104.8066900  59.7742717  98.9948010 104.1519353
  60.8051647  97.9336240 104.4729377  57.3878441 108.7831795  98.9095070
  57.5700835 107.9653451  99.3722823  58.2111427 108.9999488  98.4719960
  57.7220606 107.7099980  96.1710119  58.2508373 107.1992435  95.5580281
  57.9848826 107.3942511  97.0355652  56.4758840  99.4891913 111.2932937
  55.7999477  99.3886043 111.9635312  57.2986474  99.3331127 111.7568934
  48.2237699 105.7263850 103.9145452  48.8091136 104.9807538 104.0473357
  48.0262538 106.0367806 104.7982116  51.0776354 108.7615097  98.9307895
  50.4086730 109.2461225  98.4471935  50.9389224 109.0084318  99.8451273
  42.8155354  98.2969450 102.6349896  42.8539453  97.7633041 103.4287014
  42.3095647  97.7704655 102.0160873  55.2181623 110.7958841 105.5290553
  55.7699931 110.9590462 106.2939638  55.5587816 111.3863278 104.8570578
  50.1946116  93.1433990 106.1312438  50.2587443  94.0048821 105.7189836
  50.1313236  92.5307992 105.3984796  49.6698389  95.2157123 109.7785472
  50.2970427  94.8334200 110.3922996  48.8126307  94.9971325 110.1441165
  46.4463931  97.0233552  95.7103827  46.7417372  96.1144230  95.6570881
  45.5451967  97.0021292  95.3884829  58.3550010 108.7440816 102.5154235
  58.2301150 107.9430556 102.0065181  59.0129101 109.2387010 102.0268205
  49.9758178  95.0989549 101.6931376  49.2544764  95.7125516 101.5538849
  50.7651434  95.6347313 101.6148021  60.4184919 106.5449836 104.1433785
  59.4715254 106.4255187 104.0712112  60.7667692 105.6572334 104.2260047
  52.7784492  92.4343975 107.9672027  53.3018894  92.6806272 108.7298337
  52.5596825  93.2664010 107.5475165  48.1751773  94.7047650  95.8343152
  47.8464479  93.8245029  95.6518258  48.5291144  94.6495318  96.7219541
  57.4231352 106.3402552 100.3438138  57.2756314 105.4119260 100.5245708
  58.2484845 106.3622643  99.8595213  51.2893596  94.9920620  96.2018630
  51.6289669  95.5206541  95.4797238  51.7365717  95.3301026  96.9777196
  61.0265474 107.1631111 101.4303010  61.9512021 106.9573973 101.2927462
  60.8580777 106.9147512 102.3392352  53.9837037  93.3757670 105.6521698
  53.6433857  92.5765483 106.0542378  53.2776043  93.6759381 105.0798531
  54.6353509  90.4606983 104.1049021  55.4579578  89.9867461 103.9827911
  54.8791572  91.2397466 104.6047707  53.2761743  93.4895241  94.4011923
  53.9970106  93.8676494  93.8975639  52.6527047  94.2084118  94.5046900
  57.4192866  94.1940390  95.3370255  57.6356481  95.0765028  95.0359083
  56.9386933  93.8026604  94.6075897  52.1592088  97.1526103 101.9140999
  52.0136668  97.4666406 102.8065281  51.6817291  97.7711004 101.3611898
  54.0188470  94.1428651 101.9621889  54.0050039  93.2469745 101.6254187
  54.7360899  94.1499315 102.5960175  55.8714601  94.5765992 104.0075016
  55.6132379  95.4983062 104.0059347  55.3399641  94.1796426 104.6975481
  60.8160790 107.6816779  96.7865102  60.9897667 107.1163201  96.0338954
  61.3089681 108.4817674  96.6044592  46.6337750  99.6931448 104.8528661
  46.0891218 100.4691256 104.9848935  47.5117100 100.0402252 104.6947782
  53.4225366  93.0243032  97.2309459  53.5441278  92.0959678  97.4300347
  53.1327409  93.0381718  96.3187775  56.2916557  90.7097942 100.3676179
  56.3138254  90.7737275  99.4128159  56.7084616  89.8702451 100.5616685
  66.6700181 100.4453202  98.4055402  67.1131327  99.6960527  98.0074525
  65.7926691 100.4363338  98.0229134  61.8035962 106.9983543  93.8862000
  62.4986867 107.6190236  94.1049315  62.1459112 106.1478894  94.1614378
  47.4203772  98.8201344 107.7458817  46.6785508  98.9683979 108.3323448
  47.0996516  99.0809610 106.8825567  63.7027385 104.4483249  95.4149331
  64.2278710 104.7870521  94.6898651  63.6149738 103.5130264  95.2312465
  55.3647434 108.3617322 107.5439208  55.6734561 108.1166469 108.4161907
  56.1622916 108.5663961 107.0558078  55.3868046 110.5155232  99.7744584
  54.9473037 110.0231611 100.4677441  56.1376163 109.9728200  99.5336659
  47.8660385 106.7066773  99.7769212  48.6918405 106.4070545  99.3967856
  47.5154437 105.9374395 100.2259001  52.8341918 106.0593241 101.8466886
  52.2121928 105.3963946 101.5469114  53.5046785 106.0854373 101.1640533
  46.0668990 104.6253099 100.7358146  45.2300899 104.1975274 100.5542147
  46.0392636 104.8185543 101.6728937  52.9066446  94.5375029 111.4399392
  52.9554601  95.4137152 111.0577161  53.4488960  93.9952422 110.8671035
  63.5119167 101.9308619 108.0333257  63.5617172 101.7658626 108.9748780
  63.4033090 101.0635878 107.6431138  52.3955425 104.6097164  95.3225346
  52.5443546 105.2932629  94.6692019  53.2021869 104.5902254  95.8374802
  60.8022929  97.9139547 109.3492564  61.7032792  97.7746011 109.0576562
  60.8770903  98.0794001 110.2890742  55.1365734  95.2906401 108.1945750
  54.2669044  95.5839967 107.9228339  55.3725215  95.8746846 108.9153014
  65.0137363 104.3505560 108.2775279  64.7222172 104.7135541 109.1138740
  64.4009495 103.6372568 108.0988611  66.2133046 101.9158440 100.7977849
  67.0479937 102.3548244 100.9615409  66.3492175 101.4397093  99.9786095
  63.2624552  99.4738175 106.7455337  63.7378673  99.6665821 105.9374188
  62.3390117  99.5297361 106.4998721  50.1508058 100.6362342  96.3286415
  49.9054100  99.7324672  96.5266625  50.3203973 100.6379492  95.3865893
  57.8404768  91.5086018 105.7111171  58.3586712  92.2447045 105.3857659
  57.4859901  91.8150012 106.5457930  49.4203706  96.3690699  93.8272577
  48.7272951  96.4435054  93.1712613  49.1755458  95.6051043  94.3494094
  58.0917362  87.9286301 101.2312067  58.3719116  87.2609490 101.8572494
  58.8767969  88.1215396 100.7186731  55.8950831 107.1045295  92.7937094
  55.3224798 107.7235482  92.3407566  56.4683624 107.6544656  93.3277016
  61.9626221  96.3503935 104.9783642  62.9143644  96.4502032 104.9995867
  61.7929671  95.5582203 105.4881727  59.9840600  93.4359518 105.1643043
  59.3890532  93.7164531 104.4689532  59.6990297  93.9253419 105.9359785
  59.1148091 107.3882445  93.9245676  60.0478764 107.3228007  94.1278551
  59.0271303 108.2238712  93.4660209  61.7436107 106.7048315  90.8849624
  61.6649739 106.3708179  91.7785381  62.5645774 107.1970083  90.8841096
  64.4414298  99.5710055 104.0925942  64.4090619  98.6326055 104.2785626
  65.0514922  99.6494091 103.3591767  56.2797629  98.4406107  90.1353146
  57.2256734  98.3112316  90.2041564  55.9011874  97.7020769  90.6122574
  64.5908787  96.3621098 104.1384225  64.0747836  95.5779555 103.9514154
  65.4748735  96.0339815 104.3030745  62.2519514  90.1062114 100.0980038
  62.0544335  89.7977202 100.9823370  62.8619219  90.8323752 100.2277968
  70.2590848 100.6326061 103.2331979  70.9894237 100.3711349 103.7939682
  69.6497794  99.8954783 103.2734047  68.3406145  98.7733924 103.8306430
  67.6139309  98.6389889 103.2222922  67.9253432  99.0810753 104.6363148
  56.1636322 102.4923854 111.5953803  57.0839331 102.6702453 111.7893850
  56.1285905 101.5479899 111.4433502  54.4640546  96.3656084  90.0708031
  53.5572002  96.0689197  90.1470745  54.7416527  96.0685902  89.2042318
  45.3818487  97.6862447 100.5207078  45.0621271  96.8327755 100.2281452
  44.8351915  97.9011025 101.2765045  49.1598394 100.4024888 104.2376584
  49.3784404 101.3341996 104.2564618  49.5724168 100.0432863 105.0231388
  56.0802612  90.9092974  96.2252273  55.2703341  90.5640059  96.6007519
  56.7687029  90.6000517  96.8139884  58.0093160  89.9871020  97.8476569
  58.5624199  90.4066474  98.5066592  58.2463247  89.0606769  97.8899525
  54.0326260  95.9758094 113.6279333  53.9322987  96.9252451 113.5591424
  53.8147802  95.6476333 112.7555403  53.2339331  93.2243019  90.2120011
  54.0958495  93.5497917  90.4715828  53.4189675  92.4374515  89.6993076
  45.2506747 101.3065359 102.4900199  44.5570218 100.8919312 101.9770154
  45.9979738 101.3485895 101.8933618  61.3871968  92.0971546  97.3555234
  60.8070637  92.7556350  96.9733286  61.1207900  91.2748890  96.9442651
  59.8375534  91.4976603  99.5576554  60.3375312  91.6093138  98.7490873
  60.4811142  91.1937656 100.1977362  53.8957530  99.4055233 112.4444395
  53.4124611 100.2055593 112.6508284  53.9818469  99.4163178 111.4911839
  47.1643489 101.2383613 100.3666214  47.1414177 101.3371300  99.4148097
  47.4744126 102.0848763 100.6883380  49.8230867 103.2959768 104.4812829
  50.7774121 103.2643710 104.4142760  49.6243391 102.8350391 105.2963055
  50.4130249 101.8660884 107.0483626  51.2323138 102.3604962 107.0718464
  50.6867057 100.9492852 107.0201194  60.1696846  94.2571636  96.4111582
  59.2822701  94.5421287  96.1931777  60.5850835  94.0965399  95.5638859
  63.5211382  94.2818157 100.1265921  64.2971772  94.7714609 100.3990538
  62.7959516  94.7076211 100.5837791  65.9583940  94.9945776 101.1839862
  66.5528431  94.7541512 100.4733170  66.0310524  94.2752907 101.8113398
  48.1781096 108.8379387 101.4983027  48.0435564 108.0779788 100.9321025
  47.7613158 109.5620287 101.0311815  59.3140059 104.0216311  90.5059602
  60.0175909 104.2266313  91.1217257  58.5902708 104.5893072  90.7708685
  60.1437869  99.7726172  96.6261872  60.0873071 100.2294723  95.7869504
  60.6966212  99.0116856  96.4484715  63.9542675  95.5615904  97.4511992
  63.6979609  95.1612539  98.2820199  63.3295543  96.2759698  97.3262131
  68.2655013  98.3011977  99.9583283  67.7054571  98.3705166 100.7314845
  67.6598516  98.1252962  99.2382779  51.3350222 109.7348704 101.7101469
  51.2182606 110.6794137 101.6080159  50.5142668 109.4322266 102.0987268
  61.2226756 104.4598840  92.5558062  62.0572360 104.0280038  92.3735537
  61.0611099 104.2880853  93.4834956  60.8772649 100.9630953  93.9214401
  60.8221452 100.7975225  92.9802845  60.2518704 101.6706986  94.0776591
  45.6665164  96.1999017 107.7475823  46.3124027  95.6897971 108.2363049
  45.4582315  96.9367699 108.3219249  54.1868774  90.4639062  93.4999720
  54.1747444  91.4080902  93.6567990  55.0792196  90.2809208  93.2059181
  52.3604736 110.3876966 104.9257398  53.2631983 110.4200576 105.2423893
  52.1342106 109.4577417 104.9403733  54.1158338 109.1407953 101.5867476
  53.1653969 109.1409814 101.4731849  54.4190824 108.3940687 101.0703511
  58.0020894  87.0581839  97.7545656  57.2353289  86.5040325  97.9002339
  58.4131599  87.1303708  98.6159808  50.0062655  93.3466635 111.8450838
  50.8694116  92.9903439 112.0554162  49.4328065  93.0080529 112.5326242
  66.6600738 114.9295919 102.5874763  66.3219249 114.8136984 101.6995298
  67.5290506 114.5287084 102.5675769  62.5187554 116.7831395  98.5771654
  61.9552419 116.6921332  97.8087942  62.4039949 115.9631300  99.0574147
  60.0651985 118.2782587 101.4155875  60.8573277 117.9373412 101.0002174
  60.3048636 118.3877562 102.3358028  68.0987112 120.4502363  93.8886119
  67.4475092 121.0356444  93.5020133  68.8931475 120.9808558  93.9481157
  62.0242739 117.5391500  94.2873254  62.7973615 116.9920487  94.1486129
  62.3768138 118.4035750  94.4987715  64.3609017 113.6984166  91.9191703
  64.6134538 113.1765688  91.1575166  63.4233576 113.5350312  92.0218387
  69.4052300 112.7019945  99.7266447  70.1915389 112.2839368  99.3756864
  69.6691004 113.6066037  99.8948095  69.5762377 118.1392795  94.4255104
  68.9408210 118.2127422  95.1376008  69.2459784 118.7286394  93.7474183
  74.8060727 112.6395178 100.6299425  75.5385899 112.0694395 100.8637255
  74.0500083 112.2516778 101.0705931  64.0805306 115.6012272  94.1216078
  63.9641564 114.9257176  94.7897163  64.1907566 115.1144646  93.3048231
  66.4236847 115.0622419  97.8262768  66.0595054 114.5353040  98.5375689
  67.2803963 114.6720889  97.6529253  72.3286148 106.3516752 105.0894034
  71.9969472 107.2212163 104.8655249  71.7331761 106.0353036 105.7688064
  66.0642334 110.0912319  92.8224116  66.2316736 110.9592556  93.1894587
  65.8739503 110.2539601  91.8985405  62.2730149 115.0043095 100.5226651
  61.3480645 114.8719309 100.7304343  62.5214562 115.7837314 101.0196593
  66.0431555 112.5469977  93.8070783  65.9231180 112.9927027  94.6456263
  65.3484143 112.8955294  93.2484321  59.6338960 114.6476368 101.3570440
  59.7631341 114.9010847 102.2709852  58.9536411 115.2404076 101.0375095
  63.8038447 125.3173618  97.4560914  63.7262477 126.2681443  97.5349395
  63.2000090 124.9719491  98.1135841  71.7416621 113.0191450  94.6351117
  72.6534477 113.2518837  94.4598815  71.2326268 113.6028494  94.0726196
  69.0852596 109.1949486 102.8840978  68.2237075 109.4930739 103.1757716
  69.1115030 109.4119885 101.9522011  65.9014165 117.7391676  99.2914784
  66.3652511 118.0179379  98.5019406  65.6370963 116.8375121  99.1087874
  62.7938246 117.2863158 102.2294547  63.3639603 117.7150426 101.5912031
  63.3846358 117.0045743 102.9278733  64.8383051 113.8614829  96.1004349
  65.5407094 114.3135872  96.5678275  64.5063680 113.2198648  96.7284242
  58.5808385 112.1198381 101.4021482  57.7907439 112.3755910 100.9261593
  59.0719632 112.9346719 101.5073523  60.5323130 112.4842961  98.3604959
  59.7354294 112.5961655  98.8788455  60.3048723 112.8229613  97.4945850
  56.8646088 112.3728872 103.8336473  57.1154126 113.2575882 104.0994049
  57.4005636 112.1933473 103.0611565  66.0776816 120.6755771  96.1766454
  65.9422491 121.5207307  96.6051302  66.6186628 120.8775049  95.4132388
  59.5306213 118.1931209  96.7494379  60.0430734 118.9874460  96.8999944
  60.1828926 117.4957500  96.6827981  61.3401098 121.3096966  98.8317132
  61.5167726 122.2314930  98.6438116  62.1357931 120.9955385  99.2611512
  69.4269279 104.1986333 104.7065347  69.0833549 105.0887975 104.6304458
  69.7948242 104.0087991 103.8434932  57.4955130 116.5219864  97.5253950
  58.3330352 116.9316872  97.3087657  57.6733398 115.5819306  97.4954143
  69.3919562 114.1894944  93.2137783  68.8766185 114.9599549  93.4526170
  69.1196870 113.5160081  93.8370844  66.9766673 109.0344645  98.2723021
  66.1208269 108.6451496  98.0928660  67.3893625 109.1136606  97.4122806
  68.5065820 106.5690988 102.6714581  68.0030615 106.5321124 101.8582386
  68.7996427 107.4783731 102.7311237  64.7508706 106.6529718 101.6780762
  65.6161702 106.4572527 101.3186652  64.8186215 106.4240070 102.6050119
  74.3653836 116.9427299  95.1490956  73.5883279 116.6038458  94.7046118
  75.0445317 116.9479922  94.4745921  69.1805865 112.0622036  95.0397564
  68.8756001 112.3768186  95.8907707  70.1336307 112.1403456  95.0824897
  67.6252297 118.2212260  96.6890518  67.0973659 117.4865019  96.3763755
  67.1239800 118.9986936  96.4430486  62.3571025 108.8831926  99.0497129
  62.9314777 108.6607108  98.3170322  62.9442007 108.9520621  99.8025731
  71.4150602 114.7705653  99.8561506  71.9282484 115.4035645 100.3583215
  72.0651826 114.1706848  99.4904866  62.6840612 110.9136387  93.0693014
  61.8477924 111.2511074  93.3902289  62.5445381 110.7785367  92.1320151
  64.6593692 105.7573175  97.7772199  64.0058105 105.4422192  97.1528813
  64.6174167 105.1348915  98.5032022  65.7704897 116.0392470  89.6925491
  64.8631959 115.8081723  89.8916640  66.2675929 115.2430089  89.8799472
  68.6772976 124.7489977  92.6122177  68.0034675 125.0521674  93.2207135
  69.0638798 125.5519058  92.2627634  67.8931433 112.2455108 102.1019846
  66.9753994 112.4670056 101.9441534  68.3091576 112.3201419 101.2431554
  68.6766481 113.6446524  97.2322527  69.4238299 114.1567921  96.9229649
  68.9458070 113.3230577  98.0926920  66.9493131 116.1405065  94.2149481
  66.0404350 115.8564098  94.3121951  66.9788214 116.5604143  93.3552788
  71.1245318 110.6803640  99.2141316  70.3868074 110.1681027  99.5451558
  71.3772091 110.2404022  98.4024593  71.2256945 103.4579892  99.8083085
  71.5315822 102.5977256  99.5209000  71.9509550 104.0497513  99.6082079
  57.5181301 113.8610579  98.1964683  57.3205701 113.2679940  97.4715750
  56.9627965 113.5562789  98.9140622  65.4978025 113.7533685 100.3159276
  65.5526635 112.8007522 100.2401753  64.6869227 113.9093125 100.8000575
  66.6469218 117.6813809  91.5537559  66.2088648 116.9649667  91.0943197
  67.3879659 117.9089923  90.9922651  63.4370385 112.3710745  98.0749655
  62.6238250 112.6704916  98.4814847  63.9329379 111.9766434  98.7924137
  74.7642333 115.9571006  97.6113878  74.6260232 116.1472602  96.6835067
  74.4078552 116.7190388  98.0681929  62.9284459 109.9429101 103.6910890
  63.5683839 109.8017860 102.9933853  62.0961990 109.6563614 103.3149492
  63.7044763 119.2431531  99.8045882  64.4985362 118.7481851  99.6028457
  62.9936456 118.7149394  99.4413588  60.0127527 113.3874613  95.8805635
  59.0825115 113.3259068  96.0975597  60.1084999 112.8650566  95.0842276
  59.9313076 109.9129426  98.4683877  60.1919893 110.8274759  98.3593037
  60.7530248 109.4453868  98.6180490  61.4038001 111.3267183 105.6382701
  62.0761055 111.1184545 104.9895350  60.5767788 111.1289269 105.1987934
  66.8764191 124.9169650  94.8269256  67.0515947 124.4457693  95.6414879
  66.1896979 125.5435416  95.0550517  70.7680446 116.5398190  91.1469617
  70.1509617 115.8145018  91.0502670  70.2996935 117.3007550  90.8036691
  62.5578992 110.7583615  90.2690921  61.6808458 110.6372415  89.9053168
  63.0336745 109.9669693  90.0169810  54.0781132 115.5460774 100.3632428
  54.7652172 115.2322504  99.7753444  53.9229261 116.4502139 100.0899680
  58.8815854 110.4350971 104.7917452  58.7974043 109.8276640 104.0567862
  58.0598561 110.9259989 104.7926948  65.7442918 123.1109905  97.5153442
  64.9610440 123.6531585  97.6091666  66.4435663 123.6283885  97.9147683
  69.0539568 108.9204534 100.1587647  69.5508268 108.1674497  99.8388717
  68.2826550 108.9568851  99.5930856  70.1369349 117.6776222  97.7326071
  69.2025628 117.7977684  97.5630775  70.3146017 116.7748688  97.4686080
  65.6374537 111.0621917  99.8859332  65.2672324 110.5092958 100.5740237
  66.1333629 110.4580051  99.3334332  73.5241900 113.5193541  98.2676105
  73.9902352 114.3521532  98.1936407  73.9749401 113.0538522  98.9721363
  71.5918131 119.8637362  95.2662257  71.8677975 119.7493957  96.1756131
  70.7222630 119.4654847  95.2274430  71.4958563 105.8874128 102.3067006
  70.5821643 106.1178355 102.4749213  71.9251664 105.9712572 103.1581038
  68.5614361 123.0391898  96.1710119  69.0902127 122.5284353  95.5580281
  68.8242580 122.7234428  97.0355652  53.6549108 113.6261368 102.6349896
  53.6933208 113.0924958 103.4287014  53.1489401 113.0996573 102.0160873
  61.0339871 108.4725908 106.1312438  61.0981197 109.3340739 105.7189836
  60.9706991 107.8599910 105.3984796  57.2857686 112.3525470  95.7103827
  57.5811127 111.4436148  95.6570881  56.3845722 112.3313209  95.3884829
  60.8151933 110.4281466 101.6931376  60.0938519 111.0417434 101.5538849
  61.6045189 110.9639231 101.6148021  59.0145527 110.0339567  95.8343152
  58.6858234 109.1536946  95.6518258  59.3684898 109.9787236  96.7219541
  62.1287351 110.3212537  96.2018630  62.4683423 110.8498458  95.4797238
  62.5759471 110.6592943  96.9777196  64.8230791 108.7049588 105.6521698
  64.4827612 107.9057401 106.0542378  64.1169798 109.0051299 105.0798531
  65.4747263 105.7898900 104.1049021  66.2973333 105.3159379 103.9827911
  65.7185327 106.5689384 104.6047707  64.1155498 108.8187159  94.4011923
  64.8363860 109.1968412  93.8975639  63.4920802 109.5376036  94.5046900
  68.2586621 109.5232308  95.3370255  68.4750235 110.4056946  95.0359083
  67.7780688 109.1318521  94.6075897  62.9985842 112.4818021 101.9140999
  62.8530423 112.7958324 102.8065281  62.5211046 113.1002921 101.3611898
  64.8582225 109.4720569 101.9621889  64.8443794 108.5761662 101.6254187
  65.5754653 109.4791233 102.5960175  66.7108356 109.9057909 104.0075016
  66.4526133 110.8274980 104.0059347  66.1793396 109.5088344 104.6975481
  57.4731504 115.0223365 104.8528661  56.9284972 115.7983173 104.9848935
  58.3510854 115.3694170 104.6947782  64.2619121 108.3534949  97.2309459
  64.3835032 107.4251595  97.4300347  63.9721163 108.3673635  96.3187775
  67.1310311 106.0389860 100.3676179  67.1532008 106.1029193  99.4128159
  67.5478370 105.1994368 100.5616685  72.6429717 122.3275461  93.8862000
  73.3380621 122.9482153  94.1049315  72.9852867 121.4770812  94.1614378
  74.5421140 119.7775166  95.4149331  75.0672464 120.1162439  94.6898651
  74.4543493 118.8422182  95.2312465  58.7054140 122.0358690  99.7769212
  59.5312160 121.7362462  99.3967856  58.3548192 121.2666313 100.2259001
  56.9062745 119.9545017 100.7358146  56.0694653 119.5267191 100.5542147
  56.8786390 120.1477460 101.6728937  63.2349180 119.9389082  95.3225346
  63.3837300 120.6224546  94.6692019  64.0415623 119.9194172  95.8374802
  60.9901813 115.9654260  96.3286415  60.7447855 115.0616590  96.5266625
  61.1597727 115.9671410  95.3865893  68.6798523 106.8377936 105.7111171
  69.1980467 107.5738963 105.3857659  68.3253655 107.1441929 106.5457930
  60.2597460 111.6982617  93.8272577  59.5666705 111.7726972  93.1712613
  60.0149212 110.9342961  94.3494094  68.9311117 103.2578219 101.2312067
  69.2112871 102.5901408 101.8572494  69.7161724 103.4507314 100.7186731
  66.7344585 122.4337212  92.7937094  66.1618552 123.0527400  92.3407566
  67.3077379 122.9836574  93.3277016  69.9541845 122.7174363  93.9245676
  70.8872518 122.6519924  94.1278551  69.8665058 123.5530629  93.4660209
  72.5829862 122.0340233  90.8849624  72.5043493 121.7000096  91.7785381
  73.4039529 122.5262001  90.8841096  67.1191384 113.7698025  90.1353146
  68.0650489 113.6404233  90.2041564  66.7405629 113.0312687  90.6122574
  73.0913268 105.4354031 100.0980038  72.8938089 105.1269119 100.9823370
  73.7012974 106.1615670 100.2277968  65.3034301 111.6948002  90.0708031
  64.3965756 111.3981114  90.1470745  65.5810282 111.3977820  89.2042318
  56.2212241 113.0154365 100.5207078  55.9015026 112.1619673 100.2281452
  55.6745670 113.2302943 101.2765045  59.9992149 115.7316806 104.2376584
  60.2178159 116.6633914 104.2564618  60.4117923 115.3724780 105.0231388
  66.9196367 106.2384891  96.2252273  66.1097095 105.8931976  96.6007519
  67.6080784 105.9292435  96.8139884  68.8486915 105.3162938  97.8476569
  69.4017954 105.7358391  98.5066592  69.0857001 104.3898686  97.8899525
  64.0733086 108.5534937  90.2120011  64.9352250 108.8789835  90.4715828
  64.2583430 107.7666433  89.6993076  56.0900501 116.6357276 102.4900199
  55.3963973 116.2211229 101.9770154  56.8373492 116.6777813 101.8933618
  72.2265722 107.4263463  97.3555234  71.6464391 108.0848267  96.9733286
  71.9601655 106.6040808  96.9442651  70.6769288 106.8268521  99.5576554
  71.1769067 106.9385055  98.7490873  71.3204896 106.5229574 100.1977362
  58.0037244 116.5675530 100.3666214  57.9807932 116.6663218  99.4148097
  58.3137880 117.4140681 100.6883380  71.0090600 109.5863554  96.4111582
  70.1216455 109.8713204  96.1931777  71.4244589 109.4257317  95.5638859
  74.3605136 109.6110075 100.1265921  75.1365526 110.1006527 100.3990538
  73.6353270 110.0368129 100.5837791  76.7977695 110.3237694 101.1839862
  77.3922186 110.0833430 100.4733170  76.8704279 109.6044824 101.8113398
  70.1533814 119.3508228  90.5059602  70.8569664 119.5558231  91.1217257
  69.4296462 119.9184990  90.7708685  70.9831624 115.1018090  96.6261872
  70.9266825 115.5586641  95.7869504  71.5359966 114.3408774  96.4484715
  74.7936430 110.8907821  97.4511992  74.5373364 110.4904457  98.2820199
  74.1689298 111.6051615  97.3262131  72.0620511 119.7890757  92.5558062
  72.8966115 119.3571956  92.3735537  71.9004854 119.6172771  93.4834956
  71.7166403 116.2922871  93.9214401  71.6615207 116.1267142  92.9802845
  71.0912458 116.9998904  94.0776591  56.5058918 111.5290935 107.7475823
  57.1517782 111.0189889 108.2363049  56.2976069 112.2659617 108.3219249
  65.0262529 105.7930980  93.4999720  65.0141198 106.7372820  93.6567990
  65.9185950 105.6101125  93.2059181  68.8414648 102.3873756  97.7545656
  68.0747044 101.8332243  97.9002339  69.2525353 102.4595625  98.6159808
  73.5234366 126.2428305  93.0693014  72.6871679 126.5802991  93.3902289
  73.3839136 126.1077285  92.1320151  73.3972747 126.0875532  90.2690921
  72.5202213 125.9664333  89.9053168  73.8730500 125.2961610  90.0169810
  71.0991215 127.0274535  93.8272577  70.4060460 127.1018890  93.1712613
  70.8542967 126.2634878  94.3494094  76.1428055 127.0239919  90.0708031
  75.2359511 126.7273032  90.1470745  76.4204036 126.7269737  89.2042318
  74.9126840 123.8826854  90.2120011  75.7746004 124.2081753  90.4715828
  75.0977184 123.0958350  89.6993076  75.8656283 121.1222897  93.4999720
  75.8534953 122.0664737  93.6567990  76.7579705 120.9393043  93.2059181
  15.6542260  15.3371025  89.3758545  16.2920670  15.2177772  88.6721885
  15.5363103  16.2851869  89.4346497  12.4631967  15.2898453  89.3120070
  12.1250478  15.1739518  88.4240605  13.3321735  14.8889618  89.2921076
   8.3218782  17.1433930  85.3016961   7.7583647  17.0523867  84.5333249
   8.2071177  16.3233834  85.7819453  13.9018341  20.8104897  80.6131426
  13.2506321  21.3958978  80.2265440  14.6962704  21.3411092  80.6726463
   7.8273968  17.8994035  81.0118560   8.6004844  17.3523022  80.8731436
   8.1799367  18.7638284  81.2233022  10.1640246  14.0586701  78.6437010
  10.4165767  13.5368222  77.8820473   9.2264805  13.8952846  78.7463694
  15.2083529  13.0622479  86.4511753  15.9946618  12.6441902  86.1002170
  15.4722233  13.9668571  86.6193402  15.3793606  18.4995329  81.1500410
  14.7439439  18.5729956  81.8621315  15.0491013  19.0888928  80.4719489
  20.6091956  12.9997712  87.3544732  21.3417128  12.4296929  87.5882561
  19.8531312  12.6119313  87.7951237   9.8836535  15.9614807  80.8461385
   9.7672793  15.2859710  81.5142469   9.9938795  15.4747181  80.0293538
  12.2268076  15.4224954  84.5508074  11.8626283  14.8955575  85.2620996
  13.0835192  15.0323423  84.3774560  11.8673563  10.4514853  79.5469423
  12.0347965  11.3195090  79.9139894  11.6770732  10.6142135  78.6230712
  14.6248896  18.9131832  91.2135253  14.3249619  19.8156871  91.1051060
  14.2799955  18.6464015  92.0656406  18.0246040  11.4314372  88.8932690
  17.1162917  11.3629781  88.5991451  17.9733635  11.9086317  89.7214516
  11.8462784  12.9072511  80.5316090  11.7262409  13.3529562  81.3701570
  11.1515372  13.2557829  79.9729628   9.6069676  25.6776153  84.1806221
   9.5293705  26.6283978  84.2594701   9.0031319  25.3322025  84.8381147
  17.5447850  13.3793984  81.3596424  18.4565706  13.6121371  81.1844121
  17.0357497  13.9631028  80.7971502  16.1517432  18.3619803  88.7510005
  15.5226294  18.5265517  88.0486073  15.7643094  18.7761412  89.5220969
  20.0306664  19.2974240  86.1054369  19.3457702  19.6773142  85.5551402
  20.1150513  19.9069567  86.8386317  11.7045394  18.0994211  86.0160090
  12.1683739  18.3781914  85.2264713  11.4402192  17.1977655  85.8333181
  10.6414280  14.2217363  82.8249655  11.3438323  14.6738407  83.2923582
  10.3094908  13.5801182  83.4529549  18.4003423  19.8206155  90.8772070
  19.2220867  19.4186342  90.5954751  18.3965826  19.7174389  91.8288186
  26.4909417  16.1644903  87.2257041  25.7373125  15.5952301  87.0701046
  26.6256958  16.1307568  88.1727676  11.8808045  21.0358306  82.9011761
  11.7453719  21.8809841  83.3296608  12.4217857  21.2377583  82.1377694
   5.3337442  18.5533744  83.4739686   5.8461963  19.3476994  83.6245250
   5.9860155  17.8560034  83.4073287   7.1432327  21.6699500  85.5562439
   7.3198955  22.5917465  85.3683423   7.9389160  21.3557919  85.9856819
   8.2663642  23.1877674  91.5572781   8.8171067  23.0594737  90.7849775
   7.4275118  23.4872563  91.2067674  15.1950791  14.5497479  79.9383089
  14.6797414  15.3202083  80.1771477  14.9228099  13.8762615  80.5616151
  20.1685065  17.3029833  81.8736263  19.3914508  16.9640993  81.4291425
  20.8476546  17.3082456  81.1991228  14.9837094  12.4224571  81.7642870
  14.6787230  12.7370720  82.6153014  15.9367536  12.5005991  81.8070203
  13.4283526  18.5814794  83.4135824  12.9004887  17.8467554  83.1009062
  12.9271029  19.3589470  83.1675793  18.4076372  16.7763814  88.5302871
  17.7500046  17.4663076  88.6182999  19.2116771  17.1660246  88.8736857
  17.2181831  15.1308187  86.5806812  17.7313712  15.7638179  87.0828522
  17.8683055  14.5309383  86.2150172  11.5736126  16.3995004  76.4170797
  10.6663188  16.1684258  76.6161946  12.0707158  15.6032624  76.6044779
  14.4804205  25.1092511  79.3367484  13.8065904  25.4124208  79.9452441
  14.8670027  25.9121592  78.9872941  14.4797709  14.0049058  83.9567833
  15.2269528  14.5170456  83.6474955  14.7489299  13.6833111  84.8172227
  12.7524359  16.5007599  80.9394787  11.8435579  16.2166632  81.0367257
  12.7819443  16.9206678  80.0798094  17.9843627  20.1114189  84.7085955
  17.5305954  19.2705098  84.7651145  17.3537594  20.7475587  85.0460735
  16.9276546  11.0406175  85.9386622  16.1899303  10.5283561  86.2696865
  17.1803320  10.6006556  85.1269899  16.4276566  21.9490685  85.6435773
  16.7199541  22.5095742  84.9248139  16.9375187  22.2419246  86.3988932
  11.3009254  14.1136220  87.0404583  11.3557863  13.1610056  86.9647059
  10.4900456  14.2695659  87.5245881  12.4500447  18.0416343  78.2782866
  12.0119877  17.3252202  77.8188503  13.1910888  18.2692458  77.7167957
   9.2401613  12.7313279  84.7994962   8.4269479  13.0307450  85.2060154
   9.7360608  12.3368968  85.5169444  11.3910191  22.7271036  86.7329226
  11.3486370  22.9531883  85.8037758  12.3072890  22.4934411  86.8815028
  20.5673562  16.3173540  84.3359185  20.4291461  16.5075136  83.4080374
  20.2109781  17.0792923  84.7927236  20.5942942  18.3850067  89.3470456
  21.0279448  18.2925356  90.1953510  21.3074522  18.3607567  88.7090472
   9.5075992  19.6034065  86.5291189  10.3016591  19.1084386  86.3273764
   8.7967685  19.0751929  86.1658895  14.3270837  21.9852161  90.8803557
  14.3807859  22.5543097  91.6481273  13.4585618  22.1554046  90.5157594
  21.4558491  18.4273767  91.8803342  21.6494381  19.3319578  92.1262616
  21.3559109  17.9681187  92.7141927  12.0847268  20.1763087  90.2089026
  11.9458354  19.8081872  91.0814964  11.2961864  20.6910727  90.0372984
  12.6795420  25.2772184  81.5514563  12.8547176  24.8060227  82.3660185
  11.9928208  25.9037950  81.7795823  13.6352483  19.5544690  87.5977864
  13.3002316  19.5145460  88.4935514  13.1356429  18.8889406  87.1248274
  16.5711675  16.9000724  77.8714924  15.9540846  16.1747553  77.7747976
  16.1028163  17.6610085  77.5281998   7.2456505  28.4261547  88.3254423
   7.4853104  29.0580071  89.0033441   6.4025702  28.0749587  88.6119782
  11.7584367  24.2340669  90.7295927  11.6854539  25.0395641  91.2415231
  11.3161760  24.4332635  89.9043948  11.5474147  23.4712439  84.2398748
  10.7641669  24.0134119  84.3336973  12.2466892  23.9886419  84.6392990
  14.8570797   9.2807069  86.8832954  15.3539497   8.5277031  86.5634024
  14.0857778   9.3171385  86.3176163  22.7100554  14.9847434  88.5251245
  22.6990431  15.8672150  88.1545178  21.8417934  14.6318985  88.3305782
  14.2183051  24.1327503  92.8854086  14.9311023  24.7674968  92.8129987
  13.7273079  24.2291369  92.0694087  15.9400578  18.0378756  84.4571377
  15.0056856  18.1580218  84.2876082  16.1177246  17.1351223  84.1931387
  19.3273129  13.8796075  84.9921411  19.7933581  14.7124067  84.9181714
  19.7780630  13.4141057  85.6966670  17.3949360  20.2239896  81.9907563
  17.6709204  20.1096491  82.9001437  16.5253859  19.8257381  81.9519736
  14.0303424  24.4726247  85.6340377  14.2125819  23.6547903  86.0968129
  14.8536410  24.6893939  85.1965267  14.3645590  23.3994432  82.8955425
  14.8933356  22.8886887  82.2825588  14.6273809  23.0836963  83.7600959
   7.7201338  24.4509549  85.6553201   7.0511713  24.9355677  85.1717241
   7.5814207  24.6978769  86.5696580  11.8606606  26.4853293  92.2535860
  12.4124914  26.6484914  93.0184945  12.2012800  27.0757730  91.5815885
  14.9974993  24.4335268  89.2399542  14.8726133  23.6325008  88.7310487
  15.6554085  24.9281461  88.7513512  17.0609902  22.2344288  90.8679092
  16.1140237  22.1149639  90.7957419  17.4092675  21.3466786  90.9505353
  14.0656335  22.0297004  87.0683444  13.9181298  21.1013712  87.2491014
  14.8909829  22.0517095  86.5840519  17.6690457  22.8525563  88.1548317
  18.5937004  22.6468424  88.0172768  17.5005760  22.6041964  89.0637658
  14.0617849   9.8834842  82.0615561  14.2781464  10.7659480  81.7604390
  13.5811917   9.4921055  81.3321203  17.4585773  23.3711231  83.5110408
  17.6322651  22.8057653  82.7584261  17.9514664  24.1712125  83.3289898
  23.3125164  16.1347653  85.1300708  23.7556310  15.3854979  84.7319831
  22.4351675  16.1257790  84.7474440  18.4460946  22.6877995  80.6107307
  19.1411850  23.3084688  80.8294621  18.7884096  21.8373346  80.8859685
  20.3452369  20.1377700  82.1394638  20.8703693  20.4764973  81.4143958
  20.2574721  19.2024716  81.9557772  12.0293030  26.2049684  86.4989891
  11.5898020  25.7126062  87.1922747  12.7801146  25.6622651  86.2581966
   4.5085369  22.3961225  86.5014519   5.3343388  22.0964996  86.1213162
   4.1579421  21.6268847  86.9504307   9.4766902  21.7487693  88.5712192
   8.8546911  21.0858398  88.2714420  10.1471769  21.7748825  87.8885840
   2.7093974  20.3147551  87.4603452   1.8725882  19.8869725  87.2787454
   2.6817619  20.5079994  88.3974244   9.0380409  20.2991616  82.0470653
   9.1868529  20.9827081  81.3937326   9.8446852  20.2796706  82.5620109
  21.6562347  20.0400012  95.0020586  21.3647155  20.4029993  95.8384047
  21.0434478  19.3267020  94.8233918  22.8558029  17.6052892  87.5223156
  23.6904920  18.0442696  87.6860716  22.9917158  17.1291545  86.7031402
   6.7933042  16.3256794  83.0531722   6.5479084  15.4219124  83.2511932
   6.9628956  16.3273944  82.1111200  12.5375814  22.7939747  79.5182400
  11.9649781  23.4129934  79.0652872  13.1108608  23.3439108  80.0522322
  15.7573074  23.0776897  80.6490983  16.6903747  23.0122458  80.8523858
  15.6696287  23.9133164  80.1905515  18.3861091  22.3942767  77.6094930
  18.3074722  22.0602631  78.5030688  19.2070757  22.8864535  77.6086403
  21.0839282  15.2604506  90.8171249  21.0515602  14.3220507  91.0030933
  21.6939905  15.3388543  90.0837074  12.9222613  14.1300559  76.8598453
  13.8681717  14.0006767  76.9286871  12.5436858  13.3915221  77.3367881
  26.9015832  16.3220513  89.9577286  27.6319220  16.0605801  90.5184989
  26.2922777  15.5849235  89.9979354  24.9831129  14.4628376  90.5551737
  24.2564292  14.3284341  89.9468228  24.5678416  14.7705204  91.3608455
  11.1065530  12.0550536  76.7953338  10.1996985  11.7583648  76.8716052
  11.3841511  11.7580354  75.9287624  18.0296951   7.7865997  84.0800540
  17.4495620   8.4450801  83.6978593  17.7632884   6.9643342  83.6687958
  16.8121829   9.9466088  83.1356889  15.9247684  10.2315738  82.9177083
  17.2275818   9.7859851  82.2884165  20.1636365   9.9712609  86.8511228
  20.9396755  10.4609061  87.1235845  19.4384499  10.3970663  87.3083097
  22.6008924  10.6840228  87.9085168  23.1953414  10.4435964  87.1978477
  22.6735507   9.9647359  88.5358705   4.8206079  24.5273839  88.2228333
   4.6860547  23.7674240  87.6566331   4.4038142  25.2514739  87.7557122
  15.9565042  19.7110762  77.2304908  16.6600892  19.9160765  77.8462564
  15.2327691  20.2787524  77.4953992  16.7862853  15.4620624  83.3507179
  16.7298054  15.9189175  82.5114811  17.3391195  14.7011308  83.1730021
  20.5967659  11.2510356  84.1757298  20.3404593  10.8506991  85.0065506
  19.9720527  11.9654150  84.0507437  24.9079996  13.9906429  86.6828590
  24.3479554  14.0599618  87.4560152  24.3023500  13.8147413  85.9628086
   7.9775205  25.4243156  88.4346776   7.8607589  26.3688588  88.3325466
   7.1567651  25.1216718  88.8232575  17.8651740  20.1493292  79.2803369
  18.6997344  19.7174490  79.0980843  17.7036083  19.9775305  80.2080263
  17.5197632  16.6525405  80.6459708  17.4646436  16.4869676  79.7048152
  16.8943687  17.3601438  80.8021898   9.0029719  26.0771418  91.6502704
   9.9056966  26.1095028  91.9669199   8.7767089  25.1471869  91.6649040
  10.7583321  24.8302404  88.3112783   9.8078952  24.8304266  88.1977155
  11.0615808  24.0835139  87.7948818  26.4936015  30.6662943  89.3758545
  27.1314425  30.5469690  88.6721885  26.3756858  31.6143787  89.4346497
  23.3025721  30.6190371  89.3120070  22.9644233  30.5031436  88.4240605
  24.1715489  30.2181536  89.2921076  19.1612537  32.4725847  85.3016961
  18.5977402  32.3815784  84.5333249  19.0464932  31.6525752  85.7819453
  23.7845504  31.7725223  95.2706276  23.7734145  31.3778021  94.3986779
  23.9466144  31.0391295  95.8640047  16.7076969  33.9677039  88.1401181
  17.4998261  33.6267864  87.7247481  16.9473619  34.0772014  89.0603335
  24.7412096  36.1396815  80.6131426  24.0900075  36.7250895  80.2265440
  25.5356458  36.6703010  80.6726463  18.6667723  33.2285952  81.0118560
  19.4398599  32.6814939  80.8731436  19.0193122  34.0930201  81.2233022
  20.5052765  34.5562334  94.2185459  20.2142631  35.4607965  94.1032126
  21.1409750  34.5978862  94.9329529  21.4308972  31.9339183  90.8086819
  22.0272544  31.7095205  90.0943782  21.4883944  31.1923928  91.4112267
  21.0034001  29.3878618  78.6437010  21.2559521  28.8660140  77.8820473
  20.0658560  29.2244764  78.7463694  26.0477283  28.3914397  86.4511753
  26.8340373  27.9733820  86.1002170  26.3115988  29.2960489  86.6193402
  26.2187361  33.8287247  81.1500410  25.5833194  33.9021873  81.8621315
  25.8884767  34.4180846  80.4719489  31.4485710  28.3289630  87.3544732
  32.1810882  27.7588847  87.5882561  30.6925066  27.9411230  87.7951237
  20.7230289  31.2906724  80.8461385  20.6066547  30.6151628  81.5142469
  20.8332549  30.8039098  80.0293538  23.0661830  30.7516871  84.5508074
  22.7020037  30.2247492  85.2620996  23.9228946  30.3615340  84.3774560
  28.9711131  22.0411204  91.8139340  28.6394456  22.9106615  91.5900555
  28.3756744  21.7247488  92.4933371  22.7067317  25.7806771  79.5469423
  22.8741720  26.6487007  79.9139894  22.5164486  25.9434053  78.6230712
  25.4642650  34.2423750  91.2135253  25.1643373  35.1448789  91.1051060
  25.1193710  33.9755933  92.0656406  18.9155132  30.6937547  87.2471958
  17.9905628  30.5613761  87.4549649  19.1639545  31.4731766  87.7441900
  28.8639794  26.7606290  88.8932690  27.9556671  26.6921699  88.5991451
  28.8127390  27.2378235  89.7214516  22.6856538  28.2364429  80.5316090
  22.5656163  28.6821479  81.3701570  21.9909126  28.5849746  79.9729628
  16.2763943  30.3370820  88.0815747  16.4056324  30.5905299  88.9955158
  15.5961394  30.9298528  87.7620402  20.4463430  41.0068070  84.1806221
  20.3687460  41.9575895  84.2594701  19.8425074  40.6613943  84.8381147
  22.9380660  28.1795936  96.8367588  22.1613994  28.7389856  96.8270452
  23.5771223  28.6652719  97.3582458  30.7301441  24.9622729  90.6710564
  30.0875821  25.2555262  90.0250359  30.2256369  24.8475649  91.4763761
  28.3841604  28.7085902  81.3596424  29.2959460  28.9413288  81.1844121
  27.8751251  29.2922946  80.7971502  21.1927032  30.9881389  96.3985555
  21.9341717  31.5266433  96.1220378  20.4864018  31.6147678  96.5557107
  26.6682372  33.1310530  94.9957716  27.0765728  32.6892940  94.2512349
  25.9459633  32.5563157  95.2491909  23.0213442  28.0683136  92.3691273
  23.8674637  28.4922550  92.5125922  22.9612080  27.4116761  93.0629836
  26.9911187  33.6911720  88.7510005  26.3620049  33.8557434  88.0486073
  26.6036849  34.1053330  89.5220969  30.8700418  34.6266158  86.1054369
  30.1851457  35.0065059  85.5551402  30.9544268  35.2361485  86.8386317
  26.1712887  25.7287505  94.0272447  25.9273819  26.4829565  93.4906723
  26.4472818  26.1072852  94.8619694  28.1251350  32.2726117  92.7049712
  28.3368245  32.9157877  92.0284094  28.0781098  31.4388434  92.2371643
  25.7277579  24.8843938  89.6086285  24.8662058  25.1825191  89.9003022
  25.7540014  25.1014337  88.6767317  22.5439148  33.4286128  86.0160090
  23.0077494  33.7073831  85.2264713  22.2795946  32.5269573  85.8333181
  19.4363229  32.9757610  88.9539853  20.0064587  33.4044878  88.3157338
  20.0271341  32.6940195  89.6524039  21.4808034  29.5509281  82.8249655
  22.1832078  30.0030324  83.2923582  21.1488663  28.9093099  83.4529549
  19.9288396  28.1421037  97.2000865  19.2987057  28.8237318  97.4336262
  19.8224484  28.0304119  96.2554003  15.2233368  27.8092833  88.1266789
  14.4332422  28.0650362  87.6506900  15.7144616  28.6241171  88.2318829
  29.2397178  35.1498072  90.8772070  30.0614622  34.7478260  90.5954751
  29.2359581  35.0466307  91.8288186  17.1748114  28.1737413  85.0850266
  16.3779277  28.2856107  85.6033761  16.9473706  28.5124065  84.2191156
  23.0053781  34.6982116  93.0332780  23.0698214  35.1602523  93.8690952
  22.2964705  34.0679481  93.1615090  13.5071071  28.0623324  90.5581780
  13.7579110  28.9470334  90.8239356  14.0430620  27.8827925  89.7856872
  37.3303171  31.4936821  87.2257041  36.5766879  30.9244219  87.0701046
  37.4650712  31.4599485  88.1727676  22.7201799  36.3650223  82.9011761
  22.5847474  37.2101759  83.3296608  23.2611612  36.5669501  82.1377694
  16.1731196  33.8825661  83.4739686  16.6855717  34.6768912  83.6245250
  16.8253909  33.1851952  83.4073287  17.9826081  36.9991418  85.5562439
  18.1592709  37.9209382  85.3683423  18.7782915  36.6849837  85.9856819
  22.1237100  23.8599682  97.1546372  22.8646813  24.4606835  97.0750835
  22.3555023  23.1177320  96.5964415  17.2678438  29.0456049  95.4324602
  17.1531953  28.1441307  95.7331701  16.4122955  29.2919746  95.0809419
  24.3470275  36.9873790  97.0312103  23.9034130  36.2010168  96.7133007
  25.0087489  37.1752940  96.3655993  19.1057397  38.5169591  91.5572781
  19.6564822  38.3886655  90.7849775  18.2668873  38.8164480  91.2067674
  26.4451514  37.2676590  95.0593504  26.4269989  38.0885471  94.5673773
  27.3671434  37.1430665  95.2843645  22.9024568  34.7820719  95.9017012
  23.4352904  34.0209007  95.6716320  22.3738649  34.4894371  96.6441167
  26.0694263  19.8880785  91.4310654  25.7258532  20.7782427  91.3549765
  26.4373225  19.6982443  90.5680239  14.1380113  32.2114316  84.2499256
  14.9755335  32.6211324  84.0332964  14.3158381  31.2713758  84.2199450
  26.0344545  29.8789396  79.9383089  25.5191169  30.6494001  80.1771477
  25.7621854  29.2054532  80.5616151  23.6191656  24.7239097  84.9968328
  22.7633253  24.3345947  84.8173966  24.0318608  24.8031058  84.1368113
  25.1490803  22.2585440  89.3959887  24.6455599  22.2215575  88.5827693
  25.4421410  23.1678183  89.4556544  21.3933689  22.3424170  88.4026069
  22.2586686  22.1466979  88.0431959  21.4611198  22.1134522  89.3295426
  31.0078819  32.6321751  81.8736263  30.2308262  32.2932910  81.4291425
  31.6870300  32.6374374  81.1991228  25.8230849  27.7516488  81.7642870
  25.5180984  28.0662638  82.6153014  26.7761291  27.8297908  81.8070203
  24.2677280  33.9106712  83.4135824  23.7398642  33.1759471  83.1009062
  23.7664783  34.6881388  83.1675793  29.2470126  32.1055732  88.5302871
  28.5893801  32.7954994  88.6182999  30.0510526  32.4952164  88.8736857
  18.9996008  24.5726378  85.7742436  19.5739760  24.3501559  85.0415629
  19.5866990  24.6415072  86.5271037  28.0575585  30.4600105  86.5806812
  28.5707467  31.0930097  87.0828522  28.7076809  29.8601300  86.2150172
  19.3265595  26.6030839  79.7938321  18.4902907  26.9405526  80.1147596
  19.1870365  26.4679819  78.8565458  21.3018676  21.4467627  84.5017505
  20.6483088  21.1316644  83.8774120  21.2599150  20.8243367  85.2277328
  22.4129881  31.7286922  76.4170797  21.5056942  31.4976175  76.6161946
  22.9100913  30.9324541  76.6044779  25.3197959  40.4384429  79.3367484
  24.6459658  40.7416126  79.9452441  25.7063781  41.2413509  78.9872941
  24.5356416  27.9349560  88.8265153  23.6178977  28.1564507  88.6686841
  24.9516560  28.0095871  87.9676860  25.3191464  29.3340976  83.9567833
  26.0663283  29.8462373  83.6474955  25.5883053  29.0125029  84.8172227
  23.5918114  31.8299517  80.9394787  22.6829333  31.5458550  81.0367257
  23.6213198  32.2498595  80.0798094  27.7670301  26.3698092  85.9386622
  27.0293058  25.8575479  86.2696865  28.0197074  25.9298474  85.1269899
  27.2670321  37.2782603  85.6435773  27.5593295  37.8387660  84.9248139
  27.7768941  37.5711164  86.3988932  27.8681928  19.1474344  86.5328392
  28.1740805  18.2871708  86.2454307  28.5934533  19.7391965  86.3327386
  14.1606284  29.5505031  84.9209990  13.9630684  28.9574392  84.1961056
  13.6052948  29.2457241  85.6385928  22.1403008  29.4428137  87.0404583
  22.1951618  28.4901974  86.9647059  21.3294210  29.5987576  87.5245881
  23.2894202  33.3708260  78.2782866  22.8513632  32.6544119  77.8188503
  24.0304643  33.5984375  77.7167957  20.0795368  28.0605197  84.7994962
  19.2663233  28.3599368  85.2060154  20.5754362  27.6660886  85.5169444
  22.2303946  38.0562954  86.7329226  22.1880125  38.2823800  85.8037758
  23.1466645  37.8226329  86.8815028  25.6769580  28.5247022  93.6309856
  26.0318967  28.7518495  94.4904321  26.3241711  28.8565398  93.0087111
  31.4067317  31.6465457  84.3359185  31.2685215  31.8367053  83.4080374
  31.0503535  32.4084840  84.7927236  19.5709443  25.6323553  90.4156197
  20.2108822  25.4912312  89.7179160  18.7386973  25.3458066  90.0394799
  31.4336696  33.7141985  89.3470456  31.8673203  33.6217274  90.1953510
  32.1468277  33.6899485  88.7090472  20.3469747  34.9325983  86.5291189
  21.1410345  34.4376303  86.3273764  19.6361439  34.4043846  86.1658895
  25.1664591  37.3144079  90.8803557  25.2201613  37.8835015  91.6481273
  24.2979372  37.4845964  90.5157594  16.6552510  29.0769065  82.6050942
  15.7250098  29.0153520  82.8220904  16.7509982  28.5545018  81.8087583
  16.5738059  25.6023878  85.1929183  16.8344876  26.5169211  85.0838344
  17.3955231  25.1348320  85.3425796  18.0462984  27.0161635  92.3628008
  18.7186038  26.8078997  91.7140657  17.2192771  26.8183721  91.9233240
  32.2952246  33.7565685  91.8803342  32.4888136  34.6611496  92.1262616
  32.1952864  33.2973104  92.7141927  23.9488556  23.6423576  94.3793669
  23.3016472  24.3413525  94.2858145  24.7189572  24.0759720  94.7469917
  27.3567354  33.9072428  97.4544222  27.2052861  33.6782980  96.5374306
  27.3472034  34.8643029  97.4675567  24.1252691  31.4804341  92.4390489
  25.0544751  31.6315500  92.2659456  23.7043721  31.5688361  91.5839135
  22.9241023  35.5055005  90.2089026  22.7852108  35.1373789  91.0814964
  22.1355619  36.0202644  90.0372984  23.5189175  40.6064102  81.5514563
  23.6940930  40.1352145  82.3660185  22.8321963  41.2329868  81.7795823
  24.4746238  34.8836608  87.5977864  24.1396070  34.8437378  88.4935514
  23.9750183  34.2181324  87.1248274  18.4490482  30.2904238  93.1230445
  18.3110280  29.5584477  93.7241984  19.3595405  30.2013138  92.8414633
  27.4105429  32.2292642  77.8714924  26.7934600  31.5039470  77.7747976
  26.9421918  32.9902002  77.5281998  21.0772782  30.0024197  92.6114125
  21.7872401  29.3617389  92.5700743  21.0342091  30.2537092  93.5340306
  29.0659561  36.9391550  95.5320704  29.0072107  36.2550771  94.8651287
  29.4679079  37.6810540  95.0801330  19.7901716  26.9889415  94.4309764
  19.2539073  26.5380153  95.0831361  19.2018425  27.1235324  93.6880229
  18.0850260  43.7553464  88.3254423  18.3246858  44.3871988  89.0033441
  17.2419456  43.4041504  88.6119782  19.2003975  26.4478066  76.9936228
  18.3233442  26.3266867  76.6298475  19.6761728  25.6564145  76.7415117
  29.0676968  34.9031134  93.7634684  28.1803747  34.5657056  93.8861083
  29.6375519  34.1714166  94.0003449  10.7206115  31.2355226  87.0877735
  11.4077155  30.9216956  86.4998750  10.5654244  32.1396591  86.8144986
  15.5240838  26.1245423  91.5162759  15.4399026  25.5171092  90.7813169
  14.7023544  26.6154441  91.5172255  22.5978122  39.5632587  90.7295927
  22.5248293  40.3687558  91.2415231  22.1555515  39.7624553  89.9043948
  22.3867901  38.8004357  84.2398748  21.6035423  39.3426037  84.3336973
  23.0860647  39.3178336  84.6392990  25.6964551  24.6098986  86.8832954
  26.1933251  23.8568949  86.5634024  24.9251533  24.6463303  86.3176163
  33.5494309  30.3139352  88.5251245  33.5384185  31.1964067  88.1545178
  32.6811688  29.9610903  88.3305782  25.0576805  39.4619421  92.8854086
  25.7704777  40.0966886  92.8129987  24.5666834  39.5583287  92.0694087
  26.7794332  33.3670673  84.4571377  25.8450611  33.4872136  84.2876082
  26.9571001  32.4643140  84.1931387  22.2799520  26.7516369  86.6104638
  21.9097308  26.1987410  87.2985544  22.7758613  26.1474503  86.0579638
  30.1666883  29.2087993  84.9921411  30.6327336  30.0415984  84.9181714
  30.6174384  28.7432974  85.6966670  20.1088719  37.2113864  93.7059656
  20.8098178  37.8450347  93.8589051  19.6383834  37.5528596  92.9455296
  28.1383546  21.5768580  89.0312313  27.2246626  21.8072807  89.1994520
  28.5676648  21.6607024  89.8826345  27.9090005  29.7658472  91.5312207
  27.2561455  30.0134379  90.8764659  28.2870385  28.9522610  91.1974684
  24.8697179  39.8018165  85.6340377  25.0519573  38.9839821  86.0968129
  25.6930165  40.0185857  85.1965267  25.2039344  38.7286350  82.8955425
  25.7327111  38.2178805  82.2825588  25.4667564  38.4128880  83.7600959
  23.9577578  30.5078283  98.0178244  23.2818215  30.4072412  98.6880619
  24.7805212  30.3517496  98.4814241  15.7056437  36.7450219  90.6390759
  16.2909874  35.9993907  90.7718663  15.5081275  37.0554176  91.5227423
  18.5595092  39.7801467  85.6553201  17.8905467  40.2647594  85.1717241
  18.4207962  40.0270687  86.5696580  10.2974092  29.3155819  89.3595202
  10.3358191  28.7819410  90.1532320   9.7914384  28.7891025  88.7406179
  22.7000361  41.8145210  92.2535860  23.2518669  41.9776832  93.0184945
  23.0406554  42.4049648  91.5815885  17.6764854  24.1620360  92.8557744
  17.7406180  25.0235191  92.4435142  17.6131974  23.5494362  92.1230103
  17.1517126  26.2343493  96.5030779  17.7789165  25.8520570  97.1168303
  16.2945045  26.0157694  96.8686471  27.5511235  36.6406468  98.1084514
  28.0951139  37.2536426  97.6139469  26.9698080  37.1986046  98.6251527
  13.9282669  28.0419922  82.4349134  14.2236110  27.1330600  82.3816187
  13.0270705  28.0207661  82.1130136  25.8368748  39.7627186  89.2399542
  25.7119887  38.9616926  88.7310487  26.4947839  40.2573379  88.7513512
  17.4576916  26.1175918  88.4176682  16.7363502  26.7311886  88.2784155
  18.2470172  26.6533683  88.3393328  27.9003656  37.5636206  90.8679092
  26.9533992  37.4441557  90.7957419  28.2486429  36.6758704  90.9505353
  20.2603230  23.4530345  94.6917334  20.7837631  23.6992641  95.4543643
  20.0415563  24.2850380  94.2720471  15.6570511  25.7234019  82.5588459
  15.3283217  24.8431398  82.3763565  16.0109881  25.6681688  83.4464848
  24.9050090  37.3588922  87.0683444  24.7575052  36.4305629  87.2491014
  25.7303583  37.3809013  86.5840519  18.7712334  26.0106989  82.9263936
  19.1108406  26.5392910  82.2042545  19.2184454  26.3487395  83.7022503
  28.5084211  38.1817481  88.1548317  29.4330759  37.9760342  88.0172768
  28.3399515  37.9333882  89.0637658  21.4655775  24.3944040  92.3767004
  21.1252595  23.5951853  92.7787684  20.7594781  24.6945751  91.8043838
  22.1172247  21.4793352  90.8294327  22.9398316  21.0053830  90.7073218
  22.3610310  22.2583836  91.3293014  20.7580481  24.5081611  81.1257229
  21.4788844  24.8862863  80.6220946  20.1345785  25.2270488  81.2292207
  24.9011604  25.2126760  82.0615561  25.1175218  26.0951398  81.7604390
  24.4205671  24.8212973  81.3321203  19.6410825  28.1712473  88.6386306
  19.4955406  28.4852776  89.5310588  19.1636029  28.7897373  88.0857205
  21.5007208  25.1615021  88.6867196  21.4868777  24.2656114  88.3499494
  22.2179636  25.1685685  89.3205482  23.3533339  25.5952361  90.7320323
  23.0951117  26.5169432  90.7304654  22.8218379  25.1982796  91.4220787
  14.1156487  30.7117817  91.5773967  13.5709956  31.4877625  91.7094242
  14.9935837  31.0588622  91.4193089  20.9044104  24.0429401  83.9554766
  21.0260015  23.1146047  84.1545653  20.6146146  24.0568087  83.0433081
  23.7735295  21.7284312  87.0921486  23.7956991  21.7923645  86.1373465
  24.1903354  20.8888820  87.2861992  34.1518919  31.4639571  85.1300708
  34.5950065  30.7146896  84.7319831  33.2745429  31.4549708  84.7474440
  14.9022509  29.8387714  94.4704124  14.1604245  29.9870349  95.0568755
  14.5815254  30.0995979  93.6070874  22.8466172  39.3803692  94.2684514
  23.1553298  39.1352839  95.1407214  23.6441654  39.5850330  93.7803384
  22.8686784  41.5341601  86.4989891  22.4291774  41.0417980  87.1922747
  23.6194901  40.9914569  86.2581966  15.3479123  37.7253142  86.5014519
  16.1737143  37.4256914  86.1213162  14.9973175  36.9560765  86.9504307
  20.3160656  37.0779611  88.5712192  19.6940665  36.4150316  88.2714420
  20.9865523  37.1040742  87.8885840  13.5487728  35.6439469  87.4603452
  12.7119636  35.2161643  87.2787454  13.5211373  35.8371912  88.3974244
  20.3885184  25.5561399  98.1644698  20.4373339  26.4323521  97.7822468
  20.9307698  25.0138792  97.5916342  30.8740029  36.1002522  97.4445835
  30.0835573  36.0826661  96.9050335  30.6373384  36.6390815  98.1994872
  30.9937904  32.9494988  94.7578564  31.0435909  32.7844996  95.6994087
  30.8851828  32.0822247  94.3676445  19.8774163  35.6283534  82.0470653
  20.0262283  36.3118998  81.3937326  20.6840607  35.6088624  82.5620109
  28.2841667  28.9325916  96.0737871  29.1851530  28.7932381  95.7821869
  28.3589641  29.0980371  97.0136048  22.6184472  26.3092771  94.9191057
  21.7487782  26.6026337  94.6473646  22.8543952  26.8933216  95.6398321
  32.4956101  35.3691930  95.0020586  32.2040910  35.7321910  95.8384047
  31.8828232  34.6558938  94.8233918  33.6951784  32.9344809  87.5223156
  34.5298675  33.3734614  87.6860716  33.8310912  32.4583463  86.7031402
  30.7443289  30.4924544  93.4700644  31.2197411  30.6852191  92.6619495
  29.8208855  30.5483730  93.2244027  17.6326796  31.6548711  83.0531722
  17.3872838  30.7511041  83.2511932  17.8022711  31.6565862  82.1111200
  25.3223506  22.5272388  92.4356477  25.8405450  23.2633415  92.1102966
  24.9678639  22.8336381  93.2703237  16.9022444  27.3877069  80.5517883
  16.2091689  27.4621424  79.8957919  16.6574195  26.6237413  81.0739400
  25.5736100  18.9472670  87.9557374  25.8537854  18.2795859  88.5817801
  26.3586707  19.1401766  87.4432038  23.3769569  38.1231664  79.5182400
  22.8043536  38.7421851  79.0652872  23.9502362  38.6731026  80.0522322
  29.4444958  27.3690304  91.7028949  30.3962381  27.4688402  91.7241173
  29.2748409  26.5768573  92.2127034  27.4659338  24.4545888  91.8888350
  26.8709270  24.7350900  91.1934839  27.1809035  24.9439789  92.6605091
  26.5966828  38.4068814  80.6490983  27.5297502  38.3414376  80.8523858
  26.5090041  39.2425081  80.1905515  31.9233036  30.5896424  90.8171249
  31.8909356  29.6512425  91.0030933  32.5333660  30.6680461  90.0837074
  23.7616367  29.4592477  76.8598453  24.7075472  29.3298685  76.9286871
  23.3830612  28.7207139  77.3367881  32.0727525  27.3807468  90.8629532
  31.5566573  26.5965924  90.6759461  32.9567473  27.0526184  91.0276051
  29.7338252  21.1248483  86.8225345  29.5363073  20.8163571  87.7068677
  30.3437957  21.8510122  86.9523275  37.7409586  31.6512431  89.9577286
  38.4712975  31.3897719  90.5184989  37.1316532  30.9141153  89.9979354
  35.8224883  29.7920294  90.5551737  35.0958047  29.6576258  89.9468228
  35.4072170  30.0997122  91.3608455  23.6455060  33.5110223  98.3199110
  24.5658069  33.6888822  98.5139156  23.6104643  32.5666269  98.1678809
  21.9459284  27.3842453  76.7953338  21.0390740  27.0875566  76.8716052
  22.2235265  27.0872272  75.9287624  12.8637225  28.7048817  87.2452384
  12.5440009  27.8514125  86.9526758  12.3170653  28.9197395  88.0010352
  16.6417132  31.4211258  90.9621891  16.8603142  32.3528366  90.9809925
  17.0542906  31.0619232  91.7476695  23.5621350  21.9279343  82.9497579
  22.7522078  21.5826428  83.3252825  24.2505767  21.6186887  83.5385191
  25.4911898  21.0057390  84.5721876  26.0442937  21.4252843  85.2311899
  25.7281985  20.0793138  84.6144832  20.7158069  24.2429389  76.9365317
  21.5777233  24.5684287  77.1961135  20.9008413  23.4560885  76.4238383
  12.7325485  32.3251728  89.2145506  12.0388956  31.9105681  88.7015460
  13.4798476  32.3672265  88.6178925  28.8690705  23.1157915  84.0800540
  28.2889374  23.7742719  83.6978593  28.6026638  22.2935260  83.6687958
  27.3194272  22.5162973  86.2821861  27.8194050  22.6279507  85.4736179
  27.9629880  22.2124026  86.9222669  21.3776268  30.4241602  99.1689702
  20.8943349  31.2241963  99.3753591  21.4637207  30.4349547  98.2157146
  14.6462227  32.2569982  87.0911521  14.6232915  32.3557669  86.1393404
  14.9562864  33.1035133  87.4128687  17.3049605  34.3146137  91.2058135
  18.2592859  34.2830079  91.1388067  17.1062129  33.8536761  92.0208361
  17.8948987  32.8847253  93.7728933  18.7141876  33.3791332  93.7963770
  18.1685795  31.9679221  93.7446501  27.6515583  25.2758006  83.1356889
  26.7641438  25.5607656  82.9177083  28.0669572  25.1151769  82.2884165
  31.0030120  25.3004526  86.8511228  31.7790510  25.7900979  87.1235845
  30.2778254  25.7262581  87.3083097  33.4402678  26.0132146  87.9085168
  34.0347169  25.7727882  87.1978477  33.5129262  25.2939276  88.5358705
  15.6599834  39.8565757  88.2228333  15.5254302  39.0966158  87.6566331
  15.2431896  40.5806656  87.7557122  26.7958797  35.0402680  77.2304908
  27.4994647  35.2452683  77.8462564  26.0721446  35.6079442  77.4953992
  27.6256607  30.7912541  83.3507179  27.5691809  31.2481093  82.5114811
  28.1784950  30.0303226  83.1730021  31.4361413  26.5802273  84.1757298
  31.1798347  26.1798909  85.0065506  30.8114281  27.2946067  84.0507437
  35.7473751  29.3198347  86.6828590  35.1873309  29.3891536  87.4560152
  35.1417254  29.1439331  85.9628086  18.8168960  40.7535074  88.4346776
  18.7001344  41.6980506  88.3325466  17.9961406  40.4508635  88.8232575
  28.3591386  31.9817323  80.6459708  28.3040190  31.8161594  79.7048152
  27.7337442  32.6893356  80.8021898  13.1483901  27.2185387  94.4721130
  13.7942765  26.7084341  94.9608355  12.9401053  27.9554069  95.0464555
  25.6737294  34.2866235  99.9713271  26.5428453  34.4606887  99.6099906
  25.1944045  35.1060651  99.8489000  21.6687512  21.4825432  80.2245026
  21.6566182  22.4267272  80.3813297  22.5610934  21.2995577  79.9304487
  19.8423474  41.4063336  91.6502704  20.7450721  41.4386946  91.9669199
  19.6160844  40.4763786  91.6649040  21.5977076  40.1594322  88.3112783
  20.6472707  40.1596184  88.1977155  21.9009562  39.4127057  87.7948818
  25.4839631  18.0768208  84.4790963  24.7172027  17.5226695  84.6247645
  25.8950336  18.1490077  85.3405115  34.1419476  45.9482289  89.3120070
  33.8037987  45.8323353  88.4240605  35.0109244  45.5473454  89.2921076
  34.6239259  47.1017140  95.2706276  34.6127899  46.7069939  94.3986779
  34.7859898  46.3683213  95.8640047  27.5470723  49.2968957  88.1401181
  28.3392015  48.9559781  87.7247481  27.7867373  49.4063932  89.0603335
  31.3446520  49.8854252  94.2185459  31.0536386  50.7899883  94.1032126
  31.9803504  49.9270780  94.9329529  32.2702727  47.2631101  90.8086819
  32.8666299  47.0387123  90.0943782  32.3277698  46.5215846  91.4112267
  39.8104885  37.3703122  91.8139340  39.4788210  38.2398533  91.5900555
  39.2150499  37.0539406  92.4933371  29.7548886  46.0229464  87.2471958
  28.8299383  45.8905679  87.4549649  30.0033300  46.8023684  87.7441900
  27.1157697  45.6662738  88.0815747  27.2450079  45.9197217  88.9955158
  26.4355149  46.2590446  87.7620402  31.2857185  56.3359988  84.1806221
  31.2081214  57.2867813  84.2594701  30.6818828  55.9905860  84.8381147
  33.7774414  43.5087853  96.8367588  33.0007748  44.0681774  96.8270452
  34.4164977  43.9944636  97.3582458  41.5695195  40.2914646  90.6710564
  40.9269575  40.5847179  90.0250359  41.0650124  40.1767567  91.4763761
  32.0320787  46.3173307  96.3985555  32.7735471  46.8558351  96.1220378
  31.3257772  46.9439596  96.5557107  37.5076126  48.4602447  94.9957716
  37.9159482  48.0184858  94.2512349  36.7853388  47.8855075  95.2491909
  33.8607196  43.3975054  92.3691273  34.7068392  43.8214468  92.5125922
  33.8005834  42.7408678  93.0629836  37.0106642  41.0579422  94.0272447
  36.7667574  41.8121483  93.4906723  37.2866572  41.4364770  94.8619694
  33.3832903  48.7578046  86.0160090  33.8471248  49.0365749  85.2264713
  33.1189701  47.8561491  85.8333181  30.2756984  48.3049527  88.9539853
  30.8458341  48.7336796  88.3157338  30.8665096  48.0232112  89.6524039
  30.7682150  43.4712955  97.2000865  30.1380811  44.1529236  97.4336262
  30.6618238  43.3596037  96.2554003  26.0627123  43.1384751  88.1266789
  25.2726177  43.3942280  87.6506900  26.5538370  43.9533089  88.2318829
  28.0141868  43.5029330  85.0850266  27.2173032  43.6148024  85.6033761
  27.7867460  43.8415982  84.2191156  33.8447536  50.0274033  93.0332780
  33.9091968  50.4894441  93.8690952  33.1358460  49.3971398  93.1615090
  24.3464826  43.3915241  90.5581780  24.5972864  44.2762251  90.8239356
  24.8824374  43.2119843  89.7856872  33.5595554  51.6942141  82.9011761
  33.4241228  52.5393677  83.3296608  34.1005366  51.8961419  82.1377694
  30.0462893  37.7733721  99.5626116  29.6529839  37.2199919 100.2373760
  30.8629034  38.0844299  99.9532633  28.8219836  52.3283335  85.5562439
  28.9986464  53.2501300  85.3683423  29.6176669  52.0141754  85.9856819
  32.9630854  39.1891600  97.1546372  33.7040568  39.7898753  97.0750835
  33.1948777  38.4469238  96.5964415  28.1072192  44.3747967  95.4324602
  27.9925707  43.4733224  95.7331701  27.2516710  44.6211664  95.0809419
  35.1864030  52.3165707  97.0312103  34.7427884  51.5302086  96.7133007
  35.8481244  52.5044858  96.3655993  29.9451151  53.8461509  91.5572781
  30.4958576  53.7178572  90.7849775  29.1062627  54.1456398  91.2067674
  37.2845268  52.5968507  95.0593504  37.2663743  53.4177388  94.5673773
  38.2065188  52.4722583  95.2843645  33.7418322  50.1112637  95.9017012
  34.2746659  49.3500925  95.6716320  33.2132403  49.8186289  96.6441167
  36.9088017  35.2172703  91.4310654  36.5652287  36.1074344  91.3549765
  37.2766980  35.0274360  90.5680239  24.9773868  47.5406233  84.2499256
  25.8149090  47.9503242  84.0332964  25.1552135  46.6005675  84.2199450
  36.1591714  55.7676347  79.3367484  35.4853413  56.0708044  79.9452441
  36.5457536  56.5705427  78.9872941  38.1064075  52.6074521  85.6435773
  38.3987050  53.1679578  84.9248139  38.6162696  52.9003082  86.3988932
  25.0000039  44.8796949  84.9209990  24.8024439  44.2866309  84.1961056
  24.4446703  44.5749159  85.6385928  33.0697700  53.3854872  86.7329226
  33.0273879  53.6115718  85.8037758  33.9860399  53.1518246  86.8815028
  36.5163334  43.8538939  93.6309856  36.8712722  44.0810412  94.4904321
  37.1635465  44.1857316  93.0087111  31.1863501  50.2617901  86.5291189
  31.9804100  49.7668221  86.3273764  30.4755193  49.7335764  86.1658895
  36.0058346  52.6435996  90.8803557  36.0595368  53.2126933  91.6481273
  35.1373127  52.8137881  90.5157594  27.4131814  40.9315795  85.1929183
  27.6738631  41.8461129  85.0838344  28.2348986  40.4640238  85.3425796
  28.8856739  42.3453552  92.3628008  29.5579792  42.1370915  91.7140657
  28.0586525  42.1475638  91.9233240  43.1346000  49.0857603  91.8803342
  43.3281890  49.9903413  92.1262616  43.0346618  48.6265022  92.7141927
  34.7882311  38.9715493  94.3793669  34.1410226  39.6705443  94.2858145
  35.5583326  39.4051637  94.7469917  38.1961109  49.2364346  97.4544222
  38.0446615  49.0074897  96.5374306  38.1865788  50.1934947  97.4675567
  34.9646445  46.8096258  92.4390489  35.8938505  46.9607418  92.2659456
  34.5437475  46.8980279  91.5839135  33.7634777  50.8346923  90.2089026
  33.6245863  50.4665707  91.0814964  32.9749373  51.3494562  90.0372984
  34.3582929  55.9356019  81.5514563  34.5334685  55.4644062  82.3660185
  33.6715717  56.5621785  81.7795823  29.2884236  45.6196155  93.1230445
  29.1504034  44.8876394  93.7241984  30.1989160  45.5305056  92.8414633
  31.9166537  45.3316115  92.6114125  32.6266155  44.6909307  92.5700743
  31.8735845  45.5829010  93.5340306  39.9053316  52.2683468  95.5320704
  39.8465862  51.5842688  94.8651287  40.3072834  53.0102458  95.0801330
  30.6295471  42.3181333  94.4309764  30.0932828  41.8672071  95.0831361
  30.0412179  42.4527242  93.6880229  28.9244014  59.0845382  88.3254423
  29.1640613  59.7163906  89.0033441  28.0813211  58.7333422  88.6119782
  39.9070723  50.2323052  93.7634684  39.0197502  49.8948974  93.8861083
  40.4769274  49.5006083  94.0003449  21.5599870  46.5647144  87.0877735
  22.2470910  46.2508874  86.4998750  21.4047999  47.4688508  86.8144986
  26.3634592  41.4537340  91.5162759  26.2792781  40.8463010  90.7813169
  25.5417298  41.9446359  91.5172255  33.4371876  54.8924504  90.7295927
  33.3642048  55.6979476  91.2415231  32.9949269  55.0916470  89.9043948
  33.2261656  54.1296274  84.2398748  32.4429178  54.6717955  84.3336973
  33.9254401  54.6470254  84.6392990  35.8970560  54.7911338  92.8854086
  36.6098532  55.4258803  92.8129987  35.4060588  54.8875204  92.0694087
  30.9482473  52.5405782  93.7059656  31.6491933  53.1742265  93.8589051
  30.4777588  52.8820513  92.9455296  38.9777301  36.9060497  89.0312313
  38.0640381  37.1364724  89.1994520  39.4070402  36.9898941  89.8826345
  38.7483759  45.0950389  91.5312207  38.0955209  45.3426297  90.8764659
  39.1264139  44.2814528  91.1974684  35.7090933  55.1310083  85.6340377
  35.8913328  54.3131738  86.0968129  36.5323919  55.3477775  85.1965267
  36.0433099  54.0578268  82.8955425  36.5720865  53.5470722  82.2825588
  36.3061318  53.7420798  83.7600959  34.7971332  45.8370200  98.0178244
  34.1211969  45.7364330  98.6880619  35.6198966  45.6809414  98.4814241
  26.5450191  52.0742137  90.6390759  27.1303628  51.3285825  90.7718663
  26.3475030  52.3846094  91.5227423  29.3988847  55.1093384  85.6553201
  28.7299222  55.5939512  85.1717241  29.2601716  55.3562605  86.5696580
  21.1367846  44.6447737  89.3595202  21.1751946  44.1111328  90.1532320
  20.6308139  44.1182943  88.7406179  33.5394115  57.1437128  92.2535860
  34.0912423  57.3068749  93.0184945  33.8800309  57.7341566  91.5815885
  28.5158608  39.4912278  92.8557744  28.5799935  40.3527109  92.4435142
  28.4525729  38.8786279  92.1230103  27.9910881  41.5635410  96.5030779
  28.6182920  41.1812488  97.1168303  27.1338800  41.3449612  96.8686471
  38.3904989  51.9698385  98.1084514  38.9344893  52.5828344  97.6139469
  37.8091834  52.5277964  98.6251527  24.7676424  43.3711839  82.4349134
  25.0629865  42.4622518  82.3816187  23.8664459  43.3499579  82.1130136
  36.6762502  55.0919103  89.2399542  36.5513642  54.2908843  88.7310487
  37.3341594  55.5865297  88.7513512  28.2970671  41.4467836  88.4176682
  27.5757256  42.0603804  88.2784155  29.0863926  41.9825601  88.3393328
  38.7397411  52.8928123  90.8679092  37.7927746  52.7733475  90.7957419
  39.0880184  52.0050622  90.9505353  31.0996984  38.7822262  94.6917334
  31.6231386  39.0284559  95.4543643  30.8809317  39.6142297  94.2720471
  26.4964265  41.0525937  82.5588459  26.1676971  40.1723316  82.3763565
  26.8503636  40.9973606  83.4464848  35.7443844  52.6880840  87.0683444
  35.5968807  51.7597547  87.2491014  36.5697338  52.7100930  86.5840519
  39.3477966  53.5109398  88.1548317  40.2724513  53.3052260  88.0172768
  39.1793269  53.2625800  89.0637658  32.3049529  39.7235958  92.3767004
  31.9646350  38.9243771  92.7787684  31.5988535  40.0237668  91.8043838
  32.9566001  36.8085270  90.8294327  33.7792070  36.3345748  90.7073218
  33.2004065  37.5875754  91.3293014  39.1373282  54.0295066  83.5110408
  39.3110160  53.4641488  82.7584261  39.6302173  54.8295961  83.3289898
  24.9550242  46.0409735  91.5773967  24.4103710  46.8169543  91.7094242
  25.8329592  46.3880539  91.4193089  25.7416264  45.1679631  94.4704124
  24.9998000  45.3162267  95.0568755  25.4209008  45.4287897  93.6070874
  33.6859926  54.7095609  94.2684514  33.9947053  54.4644756  95.1407214
  34.4835408  54.9142248  93.7803384  33.7080539  56.8633519  86.4989891
  33.2685529  56.3709898  87.1922747  34.4588655  56.3206487  86.2581966
  26.1872877  53.0545060  86.5014519  27.0130897  52.7548832  86.1213162
  25.8366929  52.2852682  86.9504307  31.1554411  52.4071528  88.5712192
  30.5334420  51.7442233  88.2714420  31.8259278  52.4332660  87.8885840
  24.3881483  50.9731386  87.4603452  23.5513391  50.5453561  87.2787454
  24.3605128  51.1663830  88.3974244  31.2278938  40.8853316  98.1644698
  31.2767094  41.7615439  97.7822468  31.7701452  40.3430709  97.5916342
  41.7133784  51.4294439  97.4445835  40.9229328  51.4118578  96.9050335
  41.4767138  51.9682733  98.1994872  41.8331659  48.2786906  94.7578564
  41.8829664  48.1136913  95.6994087  41.7245582  47.4114165  94.3676445
  30.7167918  50.9575452  82.0470653  30.8656038  51.6410916  81.3937326
  31.5234361  50.9380542  82.5620109  39.1235421  44.2617834  96.0737871
  40.0245284  44.1224299  95.7821869  39.1983396  44.4272289  97.0136048
  33.4578227  41.6384689  94.9191057  32.5881536  41.9318255  94.6473646
  33.6937707  42.2225134  95.6398321  43.3349856  50.6983847  95.0020586
  43.0434664  51.0613828  95.8384047  42.7221987  49.9850856  94.8233918
  41.5837044  45.8216462  93.4700644  42.0591166  46.0144108  92.6619495
  40.6602609  45.8775648  93.2244027  36.1617260  37.8564306  92.4356477
  36.6799204  38.5925332  92.1102966  35.8072393  38.1628299  93.2703237
  36.4129855  34.2764588  87.9557374  36.6931608  33.6087777  88.5817801
  37.1980462  34.4693684  87.4432038  34.2163323  53.4523582  79.5182400
  33.6437290  54.0713769  79.0652872  34.7896117  54.0022944  80.0522322
  40.2838713  42.6982222  91.7028949  41.2356136  42.7980320  91.7241173
  40.1142163  41.9060491  92.2127034  38.3053092  39.7837805  91.8888350
  37.7103025  40.0642818  91.1934839  38.0202789  40.2731706  92.6605091
  37.4360583  53.7360732  80.6490983  38.3691256  53.6706294  80.8523858
  37.3483796  54.5716999  80.1905515  42.7626791  45.9188342  90.8171249
  42.7303111  44.9804342  91.0030933  43.3727414  45.9972378  90.0837074
  42.9121279  42.7099385  90.8629532  42.3960328  41.9257842  90.6759461
  43.7961228  42.3818102  91.0276051  40.5732006  36.4540401  86.8225345
  40.3756827  36.1455489  87.7068677  41.1831712  37.1802040  86.9523275
  46.6618638  45.1212211  90.5551737  45.9351801  44.9868176  89.9468228
  46.2465925  45.4289040  91.3608455  34.4848814  48.8402141  98.3199110
  35.4051824  49.0180740  98.5139156  34.4498397  47.8958186  98.1678809
  23.7030979  44.0340735  87.2452384  23.3833763  43.1806043  86.9526758
  23.1564407  44.2489313  88.0010352  27.4810887  46.7503176  90.9621891
  27.6996896  47.6820283  90.9809925  27.8936660  46.3911150  91.7476695
  32.3538752  42.3236381 100.3524640  32.2535479  43.2730738 100.2836731
  32.1360294  41.9954620  99.4800710  23.5719239  47.6543646  89.2145506
  22.8782711  47.2397599  88.7015460  24.3192230  47.6964183  88.6178925
  32.2170022  45.7533520  99.1689702  31.7337104  46.5533880  99.3753591
  32.3030961  45.7641465  98.2157146  25.4855982  47.5861900  87.0911521
  25.4626670  47.6849587  86.1393404  25.7956618  48.4327051  87.4128687
  28.1443360  49.6438055  91.2058135  29.0986613  49.6121997  91.1388067
  27.9455883  49.1828679  92.0208361  28.7342742  48.2139171  93.7728933
  29.5535631  48.7083250  93.7963770  29.0079549  47.2971139  93.7446501
  44.2796433  41.3424063  87.9085168  44.8740923  41.1019799  87.1978477
  44.3523016  40.6231194  88.5358705  26.4993588  55.1857674  88.2228333
  26.3648056  54.4258075  87.6566331  26.0825651  55.9098574  87.7557122
  29.6562714  56.0826991  88.4346776  29.5395098  57.0272424  88.3325466
  28.8355160  55.7800553  88.8232575  23.9877656  42.5477305  94.4721130
  24.6336520  42.0376259  94.9608355  23.7794807  43.2845986  95.0464555
  36.5131048  49.6158152  99.9713271  37.3822208  49.7898805  99.6099906
  36.0337800  50.4352569  99.8489000  30.6817228  56.7355253  91.6502704
  31.5844475  56.7678863  91.9669199  30.4554598  55.8055704  91.6649040
  32.4370830  55.4886240  88.3112783  31.4866461  55.4888101  88.1977155
  32.7403316  54.7418974  87.7948818  28.3275147  39.6944922  98.5696144
  29.1906608  39.3381727  98.7799469  27.7540558  39.3558817  99.2571549
  48.1723524  61.3246778  89.3758545  48.8101934  61.2053526  88.6721885
  48.0544367  62.2727622  89.4346497  44.9813230  61.2774206  89.3120070
  44.6431742  61.1615271  88.4240605  45.8502998  60.8765371  89.2921076
  40.8400046  63.1309683  85.3016961  40.2764911  63.0399620  84.5333249
  40.7252441  62.3109587  85.7819453  45.4633013  62.4309058  95.2706276
  45.4521654  62.0361856  94.3986779  45.6253653  61.6975131  95.8640047
  38.3864478  64.6260874  88.1401181  39.1785770  64.2851699  87.7247481
  38.6261128  64.7355849  89.0603335  46.4199605  66.7980650  80.6131426
  45.7687584  67.3834731  80.2265440  47.2143967  67.3286845  80.6726463
  40.3455232  63.8869788  81.0118560  41.1186108  63.3398775  80.8731436
  40.6980631  64.7514037  81.2233022  42.1840274  65.2146170  94.2185459
  41.8930140  66.1191801  94.1032126  42.8197259  65.2562697  94.9329529
  43.1096481  62.5923018  90.8086819  43.7060053  62.3679041  90.0943782
  43.1671453  61.8507764  91.4112267  42.6821510  60.0462454  78.6437010
  42.9347030  59.5243975  77.8820473  41.7446069  59.8828599  78.7463694
  47.7264792  59.0498232  86.4511753  48.5127882  58.6317655  86.1002170
  47.9903497  59.9544324  86.6193402  47.8974870  64.4871082  81.1500410
  47.2620703  64.5605709  81.8621315  47.5672276  65.0764681  80.4719489
  53.1273219  58.9873465  87.3544732  53.8598391  58.4172682  87.5882561
  52.3712575  58.5995066  87.7951237  42.4017798  61.9490560  80.8461385
  42.2854056  61.2735463  81.5142469  42.5120058  61.4622934  80.0293538
  44.7449339  61.4100707  84.5508074  44.3807546  60.8831328  85.2620996
  45.6016455  61.0199176  84.3774560  50.6498640  52.6995039  91.8139340
  50.3181965  53.5690450  91.5900555  50.0544253  52.3831323  92.4933371
  47.1430159  64.9007585  91.2135253  46.8430882  65.8032624  91.1051060
  46.7981219  64.6339769  92.0656406  40.5942641  61.3521382  87.2471958
  39.6693137  61.2197596  87.4549649  40.8427054  62.1315601  87.7441900
  50.5427303  57.4190126  88.8932690  49.6344180  57.3505534  88.5991451
  50.4914899  57.8962070  89.7214516  44.3644047  58.8948264  80.5316090
  44.2443672  59.3405315  81.3701570  43.6696635  59.2433582  79.9729628
  37.9551452  60.9954656  88.0815747  38.0843833  61.2489135  88.9955158
  37.2748903  61.5882364  87.7620402  42.1250939  71.6651906  84.1806221
  42.0474969  72.6159731  84.2594701  41.5212583  71.3197778  84.8381147
  44.6168169  58.8379771  96.8367588  43.8401503  59.3973691  96.8270452
  45.2558732  59.3236554  97.3582458  52.4088950  55.6206564  90.6710564
  51.7663330  55.9139097  90.0250359  51.9043878  55.5059484  91.4763761
  50.0629113  59.3669737  81.3596424  50.9746969  59.5997124  81.1844121
  49.5538760  59.9506781  80.7971502  42.8714541  61.6465224  96.3985555
  43.6129226  62.1850268  96.1220378  42.1651527  62.2731513  96.5557107
  48.3469881  63.7894365  94.9957716  48.7553237  63.3476775  94.2512349
  47.6247142  63.2146992  95.2491909  44.7000951  58.7266972  92.3691273
  45.5462146  59.1506385  92.5125922  44.6399589  58.0700596  93.0629836
  48.6698695  64.3495556  88.7510005  48.0407558  64.5141270  88.0486073
  48.2824358  64.7637165  89.5220969  52.5487927  65.2849993  86.1054369
  51.8638966  65.6648895  85.5551402  52.6331777  65.8945320  86.8386317
  47.8500396  56.3871340  94.0272447  47.6061328  57.1413401  93.4906723
  48.1260327  56.7656688  94.8619694  49.8038859  62.9309952  92.7049712
  50.0155754  63.5741712  92.0284094  49.7568607  62.0972269  92.2371643
  47.4065088  55.5427773  89.6086285  46.5449567  55.8409027  89.9003022
  47.4327523  55.7598172  88.6767317  44.2226657  64.0869964  86.0160090
  44.6865003  64.3657667  85.2264713  43.9583455  63.1853408  85.8333181
  41.1150738  63.6341445  88.9539853  41.6852095  64.0628714  88.3157338
  41.7058850  63.3524030  89.6524039  43.1595543  60.2093116  82.8249655
  43.8619587  60.6614160  83.2923582  42.8276172  59.5676935  83.4529549
  41.6075905  58.8004873  97.2000865  40.9774566  59.4821153  97.4336262
  41.5011993  58.6887954  96.2554003  36.9020877  58.4676669  88.1266789
  36.1119931  58.7234197  87.6506900  37.3932125  59.2825007  88.2318829
  50.9184687  65.8081908  90.8772070  51.7402131  65.4062095  90.5954751
  50.9147090  65.7050142  91.8288186  38.8535623  58.8321248  85.0850266
  38.0566786  58.9439942  85.6033761  38.6261215  59.1707900  84.2191156
  44.6841290  65.3565951  93.0332780  44.7485723  65.8186358  93.8690952
  43.9752214  64.7263316  93.1615090  35.1858580  58.7207159  90.5581780
  35.4366619  59.6054169  90.8239356  35.7218129  58.5411761  89.7856872
  59.0090680  62.1520656  87.2257041  58.2554388  61.5828054  87.0701046
  59.1438221  62.1183321  88.1727676  44.3989308  67.0234059  82.9011761
  44.2634983  67.8685594  83.3296608  44.9399121  67.2253336  82.1377694
  40.8856648  53.1025638  99.5626116  40.4923593  52.5491837 100.2373760
  41.7022788  53.4136217  99.9532633  37.8518705  64.5409497  83.4739686
  38.3643226  65.3352747  83.6245250  38.5041418  63.8435787  83.4073287
  39.6613590  67.6575253  85.5562439  39.8380218  68.5793218  85.3683423
  40.4570424  67.3433672  85.9856819  43.8024609  54.5183518  97.1546372
  44.5434322  55.1190671  97.0750835  44.0342531  53.7761155  96.5964415
  38.9465947  59.7039885  95.4324602  38.8319462  58.8025142  95.7331701
  38.0910464  59.9503582  95.0809419  46.0257784  67.6457625  97.0312103
  45.5821639  66.8594004  96.7133007  46.6874998  67.8336776  96.3655993
  40.7844906  69.1753427  91.5572781  41.3352331  69.0470490  90.7849775
  39.9456381  69.4748316  91.2067674  48.1239022  67.9260425  95.0593504
  48.1057498  68.7469306  94.5673773  49.0458943  67.8014500  95.2843645
  44.5812077  65.4404555  95.9017012  45.1140413  64.6792843  95.6716320
  44.0526158  65.1478206  96.6441167  47.7481772  50.5464620  91.4310654
  47.4046041  51.4366262  91.3549765  48.1160734  50.3566278  90.5680239
  35.8167622  62.8698151  84.2499256  36.6542844  63.2795159  84.0332964
  35.9945890  61.9297593  84.2199450  47.7132054  60.5373232  79.9383089
  47.1978678  61.3077836  80.1771477  47.4409363  59.8638368  80.5616151
  45.2979165  55.3822932  84.9968328  44.4420762  54.9929783  84.8173966
  45.7106117  55.4614893  84.1368113  46.8278312  52.9169276  89.3959887
  46.3243108  52.8799411  88.5827693  47.1208919  53.8262018  89.4556544
  43.0721198  53.0008005  88.4026069  43.9374195  52.8050814  88.0431959
  43.1398707  52.7718357  89.3295426  52.6866328  63.2905586  81.8736263
  51.9095771  62.9516746  81.4291425  53.3657809  63.2958209  81.1991228
  47.5018357  58.4100324  81.7642870  47.1968493  58.7246473  82.6153014
  48.4548800  58.4881744  81.8070203  45.9464789  64.5690547  83.4135824
  45.4186151  63.8343307  83.1009062  45.4452292  65.3465223  83.1675793
  50.9257635  62.7639568  88.5302871  50.2681310  63.4538829  88.6182999
  51.7298035  63.1535999  88.8736857  40.6783517  55.2310213  85.7742436
  41.2527269  55.0085395  85.0415629  41.2654499  55.2998908  86.5271037
  49.7363094  61.1183940  86.5806812  50.2494976  61.7513932  87.0828522
  50.3864318  60.5185136  86.2150172  41.0053104  57.2614674  79.7938321
  40.1690416  57.5989361  80.1147596  40.8657874  57.1263654  78.8565458
  44.0917390  62.3870757  76.4170797  43.1844451  62.1560011  76.6161946
  44.5888422  61.5908377  76.6044779  46.9985468  71.0968264  79.3367484
  46.3247167  71.3999961  79.9452441  47.3851290  71.8997345  78.9872941
  46.2143925  58.5933396  88.8265153  45.2966486  58.8148343  88.6686841
  46.6304069  58.6679706  87.9676860  46.9978973  59.9924811  83.9567833
  47.7450792  60.5046209  83.6474955  47.2670562  59.6708864  84.8172227
  45.2705623  62.4883352  80.9394787  44.3616842  62.2042385  81.0367257
  45.3000707  62.9082431  80.0798094  50.5024890  66.0989942  84.7085955
  50.0487217  65.2580852  84.7651145  49.8718857  66.7351340  85.0460735
  49.4457810  57.0281928  85.9386622  48.7080567  56.5159314  86.2696865
  49.6984583  56.5882309  85.1269899  48.9457830  67.9366438  85.6435773
  49.2380804  68.4971495  84.9248139  49.4556450  68.2294999  86.3988932
  35.8393793  60.2088866  84.9209990  35.6418193  59.6158227  84.1961056
  35.2840457  59.9041076  85.6385928  43.8190517  60.1011973  87.0404583
  43.8739127  59.1485809  86.9647059  43.0081719  60.2571412  87.5245881
  44.9681711  64.0292096  78.2782866  44.5301141  63.3127955  77.8188503
  45.7092152  64.2568211  77.7167957  41.7582877  58.7189032  84.7994962
  40.9450742  59.0183203  85.2060154  42.2541871  58.3244721  85.5169444
  43.9091455  68.7146789  86.7329226  43.8667634  68.9407636  85.8037758
  44.8254154  68.4810164  86.8815028  47.3557089  59.1830857  93.6309856
  47.7106476  59.4102330  94.4904321  48.0029220  59.5149234  93.0087111
  53.0854826  62.3049293  84.3359185  52.9472724  62.4950889  83.4080374
  52.7291044  63.0668676  84.7927236  41.2496952  56.2907388  90.4156197
  41.8896331  56.1496147  89.7179160  40.4174482  56.0041901  90.0394799
  53.1124205  64.3725820  89.3470456  53.5460712  64.2801109  90.1953510
  53.8255786  64.3483320  88.7090472  42.0257256  65.5909818  86.5291189
  42.8197854  65.0960139  86.3273764  41.3148948  65.0627682  86.1658895
  46.8452100  67.9727914  90.8803557  46.8989122  68.5418850  91.6481273
  45.9766881  68.1429799  90.5157594  38.3340019  59.7352900  82.6050942
  37.4037607  59.6737356  82.8220904  38.4297491  59.2128853  81.8087583
  38.2525568  56.2607713  85.1929183  38.5132385  57.1753046  85.0838344
  39.0742740  55.7932156  85.3425796  39.7250493  57.6745470  92.3628008
  40.3973547  57.4662832  91.7140657  38.8980280  57.4767556  91.9233240
  53.9739755  64.4149521  91.8803342  54.1675645  65.3195331  92.1262616
  53.8740373  63.9556940  92.7141927  45.6276065  54.3007411  94.3793669
  44.9803980  54.9997361  94.2858145  46.3977081  54.7343555  94.7469917
  49.0354863  64.5656263  97.4544222  48.8840370  64.3366815  96.5374306
  49.0259543  65.5226865  97.4675567  45.8040200  62.1388176  92.4390489
  46.7332260  62.2899336  92.2659456  45.3831230  62.2272197  91.5839135
  44.6028532  66.1638840  90.2089026  44.4639617  65.7957625  91.0814964
  43.8143128  66.6786480  90.0372984  45.1976684  71.2647937  81.5514563
  45.3728439  70.7935980  82.3660185  44.5109472  71.8913703  81.7795823
  46.1533747  65.5420443  87.5977864  45.8183579  65.5021213  88.4935514
  45.6537692  64.8765159  87.1248274  40.1277991  60.9488073  93.1230445
  39.9897789  60.2168312  93.7241984  41.0382914  60.8596973  92.8414633
  42.7560291  60.6608032  92.6114125  43.4659910  60.0201225  92.5700743
  42.7129600  60.9120927  93.5340306  50.7447070  67.5975386  95.5320704
  50.6859616  66.9134606  94.8651287  51.1466588  68.3394376  95.0801330
  41.4689225  57.6473250  94.4309764  40.9326582  57.1963989  95.0831361
  40.8805934  57.7819159  93.6880229  39.7637769  74.4137300  88.3254423
  40.0034367  75.0455824  89.0033441  38.9206965  74.0625340  88.6119782
  40.8791484  57.1061902  76.9936228  40.0020951  56.9850703  76.6298475
  41.3549237  56.3147980  76.7415117  50.7464477  65.5614970  93.7634684
  49.8591256  65.2240892  93.8861083  51.3163028  64.8298001  94.0003449
  32.3993624  61.8939061  87.0877735  33.0864664  61.5800792  86.4998750
  32.2441753  62.7980426  86.8144986  37.2028347  56.7829258  91.5162759
  37.1186535  56.1754928  90.7813169  36.3811053  57.2738276  91.5172255
  44.2765631  70.2216422  90.7295927  44.2035802  71.0271394  91.2415231
  43.8343024  70.4208388  89.9043948  44.0655410  69.4588192  84.2398748
  43.2822932  70.0009872  84.3336973  44.7648155  69.9762172  84.6392990
  47.3752060  55.2682822  86.8832954  47.8720760  54.5152784  86.5634024
  46.6039042  55.3047138  86.3176163  55.2281818  60.9723187  88.5251245
  55.2171694  61.8547903  88.1545178  54.3599197  60.6194738  88.3305782
  46.7364314  70.1203256  92.8854086  47.4492286  70.7550721  92.8129987
  46.2454343  70.2167122  92.0694087  48.4581841  64.0254509  84.4571377
  47.5238120  64.1455971  84.2876082  48.6358510  63.1226976  84.1931387
  43.9587029  57.4100205  86.6104638  43.5884817  56.8571245  87.2985544
  44.4546122  56.8058338  86.0579638  51.8454392  59.8671828  84.9921411
  52.3114845  60.6999820  84.9181714  52.2961893  59.4016810  85.6966670
  41.7876228  67.8697700  93.7059656  42.4885687  68.5034183  93.8589051
  41.3171343  68.2112431  92.9455296  49.9130624  66.2115649  81.9907563
  50.1890467  66.0972244  82.9001437  49.0435122  65.8133134  81.9519736
  49.8171055  52.2352415  89.0312313  48.9034135  52.4656642  89.1994520
  50.2464157  52.3190859  89.8826345  49.5877514  60.4242307  91.5312207
  48.9348964  60.6718214  90.8764659  49.9657894  59.6106445  91.1974684
  46.5484688  70.4602000  85.6340377  46.7307082  69.6423656  86.0968129
  47.3717674  70.6769692  85.1965267  46.8826853  69.3870185  82.8955425
  47.4114620  68.8762640  82.2825588  47.1455073  69.0712716  83.7600959
  45.6365087  61.1662118  98.0178244  44.9605724  61.0656247  98.6880619
  46.4592721  61.0101332  98.4814241  37.3843946  67.4034055  90.6390759
  37.9697383  66.6577743  90.7718663  37.1868784  67.7138011  91.5227423
  40.2382601  70.4385302  85.6553201  39.5692976  70.9231430  85.1717241
  40.0995471  70.6854522  86.5696580  31.9761601  59.9739655  89.3595202
  32.0145700  59.4403246  90.1532320  31.4701893  59.4474860  88.7406179
  44.3787870  72.4729046  92.2535860  44.9306178  72.6360667  93.0184945
  44.7194063  73.0633483  91.5815885  39.3552363  54.8204195  92.8557744
  39.4193689  55.6819026  92.4435142  39.2919483  54.2078197  92.1230103
  38.8304635  56.8927328  96.5030779  39.4576674  56.5104405  97.1168303
  37.9732554  56.6741530  96.8686471  49.2298744  67.2990303  98.1084514
  49.7738648  67.9120261  97.6139469  48.6485589  67.8569881  98.6251527
  35.6070178  58.7003757  82.4349134  35.9023619  57.7914435  82.3816187
  34.7058214  58.6791496  82.1130136  47.5156257  70.4211021  89.2399542
  47.3907396  69.6200761  88.7310487  48.1735348  70.9157214  88.7513512
  39.1364425  56.7759754  88.4176682  38.4151011  57.3895721  88.2784155
  39.9257681  57.3117518  88.3393328  49.5791165  68.2220041  90.8679092
  48.6321501  68.1025392  90.7957419  49.9273938  67.3342539  90.9505353
  41.9390739  54.1114180  94.6917334  42.4625140  54.3576477  95.4543643
  41.7203072  54.9434215  94.2720471  37.3358020  56.3817855  82.5588459
  37.0070726  55.5015234  82.3763565  37.6897390  56.3265523  83.4464848
  46.5837599  68.0172757  87.0683444  46.4362561  67.0889465  87.2491014
  47.4091092  68.0392848  86.5840519  40.4499843  56.6690824  82.9263936
  40.7895915  57.1976746  82.2042545  40.8971963  57.0071231  83.7022503
  50.1871720  68.8401316  88.1548317  51.1118268  68.6344177  88.0172768
  50.0187024  68.5917717  89.0637658  43.1443284  55.0527875  92.3767004
  42.8040104  54.2535688  92.7787684  42.4382290  55.3529586  91.8043838
  43.7959756  52.1377188  90.8294327  44.6185825  51.6637666  90.7073218
  44.0397819  52.9167671  91.3293014  41.3198334  58.8296308  88.6386306
  41.1742915  59.1436611  89.5310588  40.8423538  59.4481209  88.0857205
  43.1794717  55.8198856  88.6867196  43.1656286  54.9239950  88.3499494
  43.8967145  55.8269520  89.3205482  45.0320848  56.2536196  90.7320323
  44.7738626  57.1753267  90.7304654  44.5005888  55.8566631  91.4220787
  49.9767037  69.3586984  83.5110408  50.1503914  68.7933406  82.7584261
  50.4695928  70.1587878  83.3289898  35.7943996  61.3701653  91.5773967
  35.2497465  62.1461461  91.7094242  36.6723346  61.7172457  91.4193089
  42.5831613  54.7013237  83.9554766  42.7047524  53.7729883  84.1545653
  42.2933655  54.7151922  83.0433081  55.8306428  62.1223407  85.1300708
  56.2737574  61.3730732  84.7319831  54.9532938  62.1133543  84.7474440
  50.9642209  68.6753748  80.6107307  51.6593114  69.2960441  80.8294621
  51.3065359  67.8249099  80.8859685  36.5810018  60.4971549  94.4704124
  35.8391754  60.6454184  95.0568755  36.2602763  60.7579815  93.6070874
  52.8633632  66.1253453  82.1394638  53.3884956  66.4640726  81.4143958
  52.7755985  65.1900469  81.9557772  44.5253681  70.0387527  94.2684514
  44.8340807  69.7936674  95.1407214  45.3229163  70.2434166  93.7803384
  44.5474293  72.1925437  86.4989891  44.1079283  71.7001815  87.1922747
  45.2982410  71.6498404  86.2581966  37.0266632  68.3836978  86.5014519
  37.8524652  68.0840750  86.1213162  36.6760684  67.6144600  86.9504307
  41.9948165  67.7363446  88.5712192  41.3728174  67.0734151  88.2714420
  42.6653032  67.7624578  87.8885840  35.2275237  66.3023304  87.4603452
  34.3907145  65.8745478  87.2787454  35.1998882  66.4955747  88.3974244
  42.0672693  56.2145234  98.1644698  42.1160848  57.0907357  97.7822468
  42.6095207  55.6722627  97.5916342  52.5527538  66.7586357  97.4445835
  51.7623082  66.7410496  96.9050335  52.3160893  67.2974651  98.1994872
  52.6725413  63.6078824  94.7578564  52.7223418  63.4428831  95.6994087
  52.5639337  62.7406083  94.3676445  41.5561672  66.2867369  82.0470653
  41.7049792  66.9702834  81.3937326  42.3628116  66.2672459  82.5620109
  49.9629176  59.5909752  96.0737871  50.8639039  59.4516216  95.7821869
  50.0377150  59.7564206  97.0136048  44.2971981  56.9676606  94.9191057
  43.4275290  57.2610172  94.6473646  44.5331461  57.5517051  95.6398321
  54.1743610  66.0275765  95.0020586  53.8828418  66.3905746  95.8384047
  53.5615741  65.3142773  94.8233918  55.3739293  63.5928645  87.5223156
  56.2086184  64.0318449  87.6860716  55.5098421  63.1167298  86.7031402
  52.4230798  61.1508380  93.4700644  52.8984920  61.3436026  92.6619495
  51.4996364  61.2067565  93.2244027  39.3114305  62.3132547  83.0531722
  39.0660347  61.4094877  83.2511932  39.4810220  62.3149697  82.1111200
  47.0011015  53.1856223  92.4356477  47.5192959  53.9217250  92.1102966
  46.6466148  53.4920217  93.2703237  38.5809953  58.0460904  80.5517883
  37.8879198  58.1205259  79.8957919  38.3361704  57.2821248  81.0739400
  45.0557078  68.7815500  79.5182400  44.4831045  69.4005687  79.0652872
  45.6289871  69.3314861  80.0522322  51.1232467  58.0274140  91.7028949
  52.0749890  58.1272237  91.7241173  50.9535918  57.2352408  92.2127034
  49.1446847  55.1129723  91.8888350  48.5496779  55.3934736  91.1934839
  48.8596544  55.6023624  92.6605091  48.2754337  69.0652650  80.6490983
  49.2085011  68.9998211  80.8523858  48.1877550  69.9008917  80.1905515
  50.9042354  68.3818520  77.6094930  50.8255986  68.0478384  78.5030688
  51.7252021  68.8740288  77.6086403  53.6020545  61.2480259  90.8171249
  53.5696865  60.3096260  91.0030933  54.2121169  61.3264296  90.0837074
  45.4403876  60.1176312  76.8598453  46.3862981  59.9882521  76.9286871
  45.0618121  59.3790974  77.3367881  53.7515034  58.0391303  90.8629532
  53.2354082  57.2549759  90.6759461  54.6354982  57.7110019  91.0276051
  51.4125761  51.7832318  86.8225345  51.2150582  51.4747407  87.7068677
  52.0225466  52.5093957  86.9523275  59.4197095  62.3096266  89.9577286
  60.1500484  62.0481554  90.5184989  58.8104041  61.5724988  89.9979354
  57.5012392  60.4504129  90.5551737  56.7745556  60.3160094  89.9468228
  57.0859679  60.7580957  91.3608455  45.3242569  64.1694059  98.3199110
  46.2445578  64.3472658  98.5139156  45.2892152  63.2250104  98.1678809
  43.6246793  58.0426289  76.7953338  42.7178249  57.7459402  76.8716052
  43.9022774  57.7456107  75.9287624  34.5424734  59.3632652  87.2452384
  34.2227518  58.5097960  86.9526758  33.9958162  59.5781230  88.0010352
  38.3204641  62.0795093  90.9621891  38.5390651  63.0112201  90.9809925
  38.7330415  61.7203068  91.7476695  43.1932506  57.6528299 100.3524640
  43.0929233  58.6022656 100.2836731  42.9754049  57.3246538  99.4800710
  34.4112994  62.9835564  89.2145506  33.7176465  62.5689516  88.7015460
  35.1585985  63.0256100  88.6178925  50.5478214  53.7741750  84.0800540
  49.9676883  54.4326554  83.6978593  50.2814147  52.9519095  83.6687958
  48.9981781  53.1746808  86.2821861  49.4981559  53.2863343  85.4736179
  49.6417389  52.8707861  86.9222669  43.0563777  61.0825438  99.1689702
  42.5730858  61.8825798  99.3753591  43.1424716  61.0933383  98.2157146
  36.3249736  62.9153817  87.0911521  36.3020424  63.0141505  86.1393404
  36.6350373  63.7618968  87.4128687  38.9837114  64.9729972  91.2058135
  39.9380368  64.9413915  91.1388067  38.7849638  64.5120596  92.0208361
  39.5736496  63.5431089  93.7728933  40.3929385  64.0375167  93.7963770
  39.8473304  62.6263057  93.7446501  49.3303092  55.9341841  83.1356889
  48.4428947  56.2191491  82.9177083  49.7457081  55.7735604  82.2884165
  52.6817628  55.9588362  86.8511228  53.4578019  56.4484814  87.1235845
  51.9565763  56.3846416  87.3083097  55.1190187  56.6715981  87.9085168
  55.7134678  56.4311717  87.1978477  55.1916771  55.9523112  88.5358705
  37.3387343  70.5149592  88.2228333  37.2041811  69.7549993  87.6566331
  36.9219405  71.2390492  87.7557122  49.3044116  61.4496377  83.3507179
  49.2479317  61.9064928  82.5114811  49.8572459  60.6887061  83.1730021
  53.1148922  57.2386109  84.1757298  52.8585856  56.8382744  85.0065506
  52.4901790  57.9529903  84.0507437  57.4261260  59.9782182  86.6828590
  56.8660818  60.0475371  87.4560152  56.8204763  59.8023167  85.9628086
  40.4956469  71.4118909  88.4346776  40.3788853  72.3564341  88.3325466
  39.6748915  71.1092471  88.8232575  50.3833003  66.1369045  79.2803369
  51.2178607  65.7050243  79.0980843  50.2217346  65.9651058  80.2080263
  50.0378895  62.6401158  80.6459708  49.9827699  62.4745429  79.7048152
  49.4124951  63.3477191  80.8021898  34.8271410  57.8769222  94.4721130
  35.4730274  57.3668176  94.9608355  34.6188562  58.6137904  95.0464555
  47.3524803  64.9450070  99.9713271  48.2215962  65.1190722  99.6099906
  46.8731554  65.7644487  99.8489000  41.5210983  72.0647171  91.6502704
  42.4238230  72.0970781  91.9669199  41.2948353  71.1347622  91.6649040
  43.2764585  70.8178157  88.3112783  42.3260216  70.8180019  88.1977155
  43.5797071  70.0710892  87.7948818  39.1668901  55.0236839  98.5696144
  40.0300363  54.6673644  98.7799469  38.5934312  54.6850734  99.2571549
  59.0117278  76.6538696  89.3758545  59.6495688  76.5345443  88.6721885
  58.8938121  77.6019540  89.4346497  55.8206985  76.6066124  89.3120070
  55.4825496  76.4907189  88.4240605  56.6896753  76.2057289  89.2921076
  51.6793800  78.4601600  85.3016961  51.1158665  78.3691537  84.5333249
  51.5646195  77.6401505  85.7819453  56.3026768  77.7600976  95.2706276
  56.2915408  77.3653774  94.3986779  56.4647407  77.0267048  95.8640047
  49.2258232  79.9552792  88.1401181  50.0179524  79.6143617  87.7247481
  49.4654882  80.0647767  89.0603335  51.1848986  79.2161705  81.0118560
  51.9579862  78.6690692  80.8731436  51.5374385  80.0805955  81.2233022
  53.0234029  80.5438087  94.2185459  52.7323895  81.4483718  94.1032126
  53.6591013  80.5854615  94.9329529  53.9490236  77.9214936  90.8086819
  54.5453808  77.6970958  90.0943782  54.0065207  77.1799681  91.4112267
  53.5215264  75.3754371  78.6437010  53.7740785  74.8535893  77.8820473
  52.5839823  75.2120517  78.7463694  61.4892394  68.0286957  91.8139340
  61.1575719  68.8982368  91.5900555  60.8938008  67.7123241  92.4933371
  55.2248581  71.7682524  79.5469423  55.3922983  72.6362760  79.9139894
  55.0345750  71.9309806  78.6230712  57.9823914  80.2299503  91.2135253
  57.6824637  81.1324542  91.1051060  57.6374973  79.9631686  92.0656406
  51.4336395  76.6813300  87.2471958  50.5086892  76.5489514  87.4549649
  51.6820808  77.4607519  87.7441900  61.3821058  72.7482043  88.8932690
  60.4737935  72.6797452  88.5991451  61.3308653  73.2253988  89.7214516
  55.2037802  74.2240182  80.5316090  55.0837427  74.6697232  81.3701570
  54.5090390  74.5725499  79.9729628  48.7945206  76.3246573  88.0815747
  48.9237588  76.5781052  88.9955158  48.1142658  76.9174281  87.7620402
  52.9644694  86.9943823  84.1806221  52.8868723  87.9451648  84.2594701
  52.3606337  86.6489696  84.8381147  55.4561923  74.1671689  96.8367588
  54.6795257  74.7265609  96.8270452  56.0952486  74.6528472  97.3582458
  53.7108296  76.9757142  96.3985555  54.4522980  77.5142186  96.1220378
  53.0045281  77.6023431  96.5557107  59.1863635  79.1186283  94.9957716
  59.5946991  78.6768693  94.2512349  58.4640897  78.5438910  95.2491909
  55.5394705  74.0558889  92.3691273  56.3855901  74.4798303  92.5125922
  55.4793343  73.3992514  93.0629836  59.5092450  79.6787473  88.7510005
  58.8801312  79.8433187  88.0486073  59.1218112  80.0929083  89.5220969
  58.6894151  71.7163258  94.0272447  58.4455083  72.4705318  93.4906723
  58.9654081  72.0948605  94.8619694  60.6432613  78.2601870  92.7049712
  60.8549509  78.9033630  92.0284094  60.5962362  77.4264187  92.2371643
  58.2458842  70.8719691  89.6086285  57.3843321  71.1700944  89.9003022
  58.2721277  71.0890090  88.6767317  55.0620412  79.4161881  86.0160090
  55.5258757  79.6949584  85.2264713  54.7977210  78.5145326  85.8333181
  51.9544493  78.9633363  88.9539853  52.5245850  79.3920631  88.3157338
  52.5452605  78.6815948  89.6524039  53.9989298  75.5385034  82.8249655
  54.7013341  75.9906077  83.2923582  53.6669926  74.8968853  83.4529549
  52.4469659  74.1296790  97.2000865  51.8168320  74.8113071  97.4336262
  52.3405747  74.0179872  96.2554003  47.7414632  73.7968586  88.1266789
  46.9513686  74.0526115  87.6506900  48.2325879  74.6116924  88.2318829
  61.7578441  81.1373826  90.8772070  62.5795885  80.7354013  90.5954751
  61.7540844  81.0342060  91.8288186  49.6929377  74.1613166  85.0850266
  48.8960541  74.2731860  85.6033761  49.4654969  74.4999818  84.2191156
  55.5235045  80.6857869  93.0332780  55.5879477  81.1478276  93.8690952
  54.8145969  80.0555234  93.1615090  46.0252335  74.0499077  90.5581780
  46.2760373  74.9346087  90.8239356  46.5611883  73.8703678  89.7856872
  55.2383063  82.3525976  82.9011761  55.1028737  83.1977512  83.3296608
  55.7792875  82.5545254  82.1377694  51.7250402  68.4317556  99.5626116
  51.3317348  67.8783755 100.2373760  52.5416542  68.7428135  99.9532633
  48.6912460  79.8701414  83.4739686  49.2036980  80.6644665  83.6245250
  49.3435173  79.1727705  83.4073287  50.5007345  82.9867171  85.5562439
  50.6773973  83.9085135  85.3683423  51.2964178  82.6725590  85.9856819
  54.6418363  69.8475435  97.1546372  55.3828077  70.4482588  97.0750835
  54.8736286  69.1053073  96.5964415  49.7859701  75.0331802  95.4324602
  49.6713216  74.1317060  95.7331701  48.9304219  75.2795499  95.0809419
  56.8651539  82.9749543  97.0312103  56.4215393  82.1885921  96.7133007
  57.5268752  83.1628693  96.3655993  51.6238660  84.5045344  91.5572781
  52.1746085  84.3762408  90.7849775  50.7850136  84.8040233  91.2067674
  58.9632777  83.2552343  95.0593504  58.9451252  84.0761224  94.5673773
  59.8852697  83.1306418  95.2843645  55.4205831  80.7696472  95.9017012
  55.9534168  80.0084760  95.6716320  54.8919912  80.4770124  96.6441167
  58.5875526  65.8756538  91.4310654  58.2439795  66.7658180  91.3549765
  58.9554489  65.6858196  90.5680239  46.6561377  78.1990069  84.2499256
  47.4936599  78.6087077  84.0332964  46.8339644  77.2589511  84.2199450
  56.1372920  70.7114850  84.9968328  55.2814516  70.3221700  84.8173966
  56.5499872  70.7906811  84.1368113  57.6672066  68.2461193  89.3959887
  57.1636862  68.2091328  88.5827693  57.9602673  69.1553936  89.4556544
  53.9114952  68.3299923  88.4026069  54.7767949  68.1342732  88.0431959
  53.9792461  68.1010275  89.3295426  61.7651390  78.0931485  88.5302871
  61.1075064  78.7830747  88.6182999  62.5691789  78.4827917  88.8736857
  51.5177271  70.5602131  85.7742436  52.0921023  70.3377312  85.0415629
  52.1048254  70.6290825  86.5271037  51.8446859  72.5906592  79.7938321
  51.0084171  72.9281279  80.1147596  51.7051628  72.4555572  78.8565458
  53.8199939  67.4343380  84.5017505  53.1664351  67.1192397  83.8774120
  53.7780413  66.8119120  85.2277328  57.0537680  73.9225313  88.8265153
  56.1360241  74.1440260  88.6686841  57.4697823  73.9971624  87.9676860
  59.7851584  83.2658356  85.6435773  60.0774558  83.8263413  84.9248139
  60.2950205  83.5586917  86.3988932  60.3863192  65.1350097  86.5328392
  60.6922069  64.2747461  86.2454307  61.1115797  65.7267718  86.3327386
  46.6787548  75.5380784  84.9209990  46.4811948  74.9450145  84.1961056
  46.1234212  75.2332994  85.6385928  54.6584271  75.4303890  87.0404583
  54.7132881  74.4777727  86.9647059  53.8475474  75.5863330  87.5245881
  52.5976631  74.0480950  84.7994962  51.7844497  74.3475121  85.2060154
  53.0935626  73.6536639  85.5169444  54.7485209  84.0438707  86.7329226
  54.7061388  84.2699553  85.8037758  55.6647908  83.8102082  86.8815028
  58.1950843  74.5122775  93.6309856  58.5500231  74.7394248  94.4904321
  58.8422974  74.8441151  93.0087111  52.0890706  71.6199306  90.4156197
  52.7290085  71.4788065  89.7179160  51.2568237  71.3333819  90.0394799
  63.9517960  79.7017738  89.3470456  64.3854466  79.6093027  90.1953510
  64.6649540  79.6775238  88.7090472  52.8651010  80.9201736  86.5291189
  53.6591609  80.4252056  86.3273764  52.1542702  80.3919599  86.1658895
  57.6845855  83.3019832  90.8803557  57.7382877  83.8710768  91.6481273
  56.8160636  83.4721717  90.5157594  49.1733774  75.0644818  82.6050942
  48.2431362  75.0029273  82.8220904  49.2691246  74.5420771  81.8087583
  49.0919323  71.5899631  85.1929183  49.3526140  72.5044964  85.0838344
  49.9136495  71.1224073  85.3425796  50.5644248  73.0037388  92.3628008
  51.2367301  72.7954750  91.7140657  49.7374034  72.8059474  91.9233240
  64.8133509  79.7441438  91.8803342  65.0069399  80.6487249  92.1262616
  64.7134127  79.2848857  92.7141927  56.4669820  69.6299329  94.3793669
  55.8197735  70.3289278  94.2858145  57.2370835  70.0635473  94.7469917
  59.8748618  79.8948181  97.4544222  59.7234124  79.6658733  96.5374306
  59.8653297  80.8518782  97.4675567  56.6433954  77.4680094  92.4390489
  57.5726014  77.6191253  92.2659456  56.2224984  77.5564114  91.5839135
  55.4422286  81.4930758  90.2089026  55.3033372  81.1249542  91.0814964
  54.6536882  82.0078398  90.0372984  56.0370438  86.5939855  81.5514563
  56.2122194  86.1227898  82.3660185  55.3503226  87.2205621  81.7795823
  56.9927501  80.8712361  87.5977864  56.6577334  80.8313131  88.4935514
  56.4931447  80.2057077  87.1248274  50.9671745  76.2779991  93.1230445
  50.8291543  75.5460230  93.7241984  51.8776669  76.1888891  92.8414633
  53.5954046  75.9899950  92.6114125  54.3053664  75.3493142  92.5700743
  53.5523354  76.2412845  93.5340306  61.5840825  82.9267303  95.5320704
  61.5253371  82.2426524  94.8651287  61.9860343  83.6686293  95.0801330
  52.3082980  72.9765168  94.4309764  51.7720337  72.5255906  95.0831361
  51.7199688  73.1111077  93.6880229  50.6031523  89.7429217  88.3254423
  50.8428122  90.3747741  89.0033441  49.7600720  89.3917257  88.6119782
  61.5858232  80.8906887  93.7634684  60.6985011  80.5532809  93.8861083
  62.1556783  80.1589919  94.0003449  43.2387379  77.2230979  87.0877735
  43.9258419  76.9092709  86.4998750  43.0835508  78.1272344  86.8144986
  48.0422101  72.1121176  91.5162759  47.9580290  71.5046845  90.7813169
  47.2204807  72.6030194  91.5172255  55.1159385  85.5508340  90.7295927
  55.0429557  86.3563311  91.2415231  54.6736778  85.7500306  89.9043948
  54.9049165  84.7880110  84.2398748  54.1216687  85.3301790  84.3336973
  55.6041910  85.3054089  84.6392990  58.2145815  70.5974739  86.8832954
  58.7114514  69.8444702  86.5634024  57.4432796  70.6339056  86.3176163
  57.5758069  85.4495174  92.8854086  58.2886041  86.0842639  92.8129987
  57.0848097  85.5459040  92.0694087  54.7980784  72.7392122  86.6104638
  54.4278571  72.1863163  87.2985544  55.2939876  72.1350256  86.0579638
  52.6269982  83.1989617  93.7059656  53.3279442  83.8326100  93.8589051
  52.1565097  83.5404349  92.9455296  60.6564810  67.5644333  89.0312313
  59.7427890  67.7948560  89.1994520  61.0857911  67.6482777  89.8826345
  60.4271268  75.7534225  91.5312207  59.7742718  76.0010132  90.8764659
  60.8051648  74.9398363  91.1974684  57.3878442  85.7893918  85.6340377
  57.5700837  84.9715574  86.0968129  58.2111428  86.0061610  85.1965267
  57.7220608  84.7162103  82.8955425  58.2508374  84.2054558  82.2825588
  57.9848827  84.4004633  83.7600959  56.4758841  76.4954036  98.0178244
  55.7999478  76.3948165  98.6880619  57.2986475  76.3393250  98.4814241
  48.2237700  82.7325972  90.6390759  48.8091137  81.9869660  90.7718663
  48.0262539  83.0429929  91.5227423  51.0776356  85.7677220  85.6553201
  50.4086731  86.2523347  85.1717241  50.9389225  86.0146440  86.5696580
  42.8155355  75.3031573  89.3595202  42.8539455  74.7695163  90.1532320
  42.3095648  74.7766778  88.7406179  55.2181624  87.8020963  92.2535860
  55.7699932  87.9652585  93.0184945  55.5587818  88.3925401  91.5815885
  50.1946117  70.1496113  92.8557744  50.2587444  71.0110944  92.4435142
  50.1313238  69.5370115  92.1230103  49.6698390  72.2219246  96.5030779
  50.2970429  71.8396323  97.1168303  48.8126309  72.0033448  96.8686471
  60.0692498  82.6282221  98.1084514  60.6132402  83.2412179  97.6139469
  59.4879343  83.1861799  98.6251527  46.4463933  74.0295675  82.4349134
  46.7417374  73.1206353  82.3816187  45.5451968  74.0083414  82.1130136
  58.3550011  85.7502939  89.2399542  58.2301151  84.9492679  88.7310487
  59.0129103  86.2449132  88.7513512  49.9758180  72.1051671  88.4176682
  49.2544765  72.7187639  88.2784155  50.7651435  72.6409436  88.3393328
  60.4184920  83.5511959  90.8679092  59.4715255  83.4317310  90.7957419
  60.7667693  82.6634457  90.9505353  52.7784493  69.4406098  94.6917334
  53.3018895  69.6868394  95.4543643  52.5596826  70.2726133  94.2720471
  48.1751774  71.7109772  82.5588459  47.8464480  70.8307151  82.3763565
  48.5291145  71.6557441  83.4464848  57.4231353  83.3464675  87.0683444
  57.2756316  82.4181382  87.2491014  58.2484847  83.3684766  86.5840519
  51.2893597  71.9982742  82.9263936  51.6289670  72.5268663  82.2042545
  51.7365718  72.3363148  83.7022503  61.0265475  84.1693234  88.1548317
  61.9512022  83.9636095  88.0172768  60.8580778  83.9209635  89.0637658
  53.9837038  70.3819793  92.3767004  53.6433859  69.5827606  92.7787684
  53.2776044  70.6821504  91.8043838  54.6353510  67.4669105  90.8294327
  55.4579579  66.9929583  90.7073218  54.8791574  68.2459589  91.3293014
  53.2761745  70.4957364  81.1257229  53.9970107  70.8738617  80.6220946
  52.6527049  71.2146241  81.2292207  57.4192867  71.2002513  82.0615561
  57.6356482  72.0827151  81.7604390  56.9386935  70.8088726  81.3321203
  52.1592089  74.1588226  88.6386306  52.0136669  74.4728529  89.5310588
  51.6817292  74.7773126  88.0857205  54.0188472  71.1490774  88.6867196
  54.0050040  70.2531867  88.3499494  54.7360900  71.1561438  89.3205482
  55.8714602  71.5828114  90.7320323  55.6132380  72.5045185  90.7304654
  55.3399643  71.1858549  91.4220787  60.8160791  84.6878901  83.5110408
  60.9897669  84.1225324  82.7584261  61.3089682  85.4879796  83.3289898
  46.6337751  76.6993570  91.5773967  46.0891219  77.4753378  91.7094242
  47.5117101  77.0464375  91.4193089  53.4225368  70.0305154  83.9554766
  53.5441279  69.1021800  84.1545653  53.1327410  70.0443840  83.0433081
  56.2916558  67.7160065  87.0921486  56.3138255  67.7799398  86.1373465
  56.7084617  66.8764573  87.2861992  47.4203773  75.8263467  94.4704124
  46.6785509  75.9746102  95.0568755  47.0996517  76.0871732  93.6070874
  55.3647435  85.3679445  94.2684514  55.6734562  85.1228592  95.1407214
  56.1622917  85.5726083  93.7803384  55.3868047  87.5217354  86.4989891
  54.9473038  87.0293733  87.1922747  56.1376164  86.9790322  86.2581966
  47.8660386  83.7128895  86.5014519  48.6918406  83.4132667  86.1213162
  47.5154438  82.9436518  86.9504307  52.8341920  83.0655364  88.5712192
  52.2121929  82.4026069  88.2714420  53.5046787  83.0916495  87.8885840
  46.0668992  81.6315222  87.4603452  45.2300900  81.2037396  87.2787454
  46.0392637  81.8247665  88.3974244  52.9066447  71.5437152  98.1644698
  52.9554603  72.4199274  97.7822468  53.4488961  71.0014545  97.5916342
  63.3921293  82.0878275  97.4445835  62.6016837  82.0702414  96.9050335
  63.1554647  82.6266569  98.1994872  63.5119168  78.9370741  94.7578564
  63.5617173  78.7720749  95.6994087  63.4033091  78.0698000  94.3676445
  52.3955427  81.6159287  82.0470653  52.5443547  82.2994751  81.3937326
  53.2021870  81.5964377  82.5620109  60.8022930  74.9201669  96.0737871
  61.7032793  74.7808134  95.7821869  60.8770905  75.0856124  97.0136048
  55.1365736  72.2968524  94.9191057  54.2669045  72.5902090  94.6473646
  55.3725216  72.8808969  95.6398321  65.0137365  81.3567683  95.0020586
  64.7222173  81.7197663  95.8384047  64.4009496  80.6434691  94.8233918
  63.2624553  76.4800297  93.4700644  63.7378675  76.6727944  92.6619495
  62.3390118  76.5359483  93.2244027  50.1508060  77.6424465  83.0531722
  49.9054101  76.7386795  83.2511932  50.3203974  77.6441615  82.1111200
  57.8404769  68.5148141  92.4356477  58.3586713  69.2509168  92.1102966
  57.4859902  68.8212134  93.2703237  49.4203707  73.3752822  80.5517883
  48.7272952  73.4497177  79.8957919  49.1755459  72.6113166  81.0739400
  58.0917364  64.9348423  87.9557374  58.3719117  64.2671612  88.5817801
  58.8767971  65.1277519  87.4432038  61.9626222  73.3566057  91.7028949
  62.9143645  73.4564155  91.7241173  61.7929672  72.5644326  92.2127034
  59.9840601  70.4421641  91.8888350  59.3890534  70.7226653  91.1934839
  59.6990298  70.9315542  92.6605091  64.4414300  76.5772177  90.8171249
  64.4090620  75.6388178  91.0030933  65.0514923  76.6556214  90.0837074
  62.2519515  67.1124236  86.8225345  62.0544336  66.8039324  87.7068677
  62.8619221  67.8385875  86.9523275  56.1636323  79.4985976  98.3199110
  57.0839333  79.6764575  98.5139156  56.1285906  78.5542022  98.1678809
  45.3818488  74.6924570  87.2452384  45.0621272  73.8389878  86.9526758
  44.8351916  74.9073148  88.0010352  49.1598396  77.4087011  90.9621891
  49.3784405  78.3404119  90.9809925  49.5724169  77.0494985  91.7476695
  58.0093162  66.9933143  84.5721876  58.5624200  67.4128596  85.2311899
  58.2463248  66.0668891  84.6144832  54.0326261  72.9820217 100.3524640
  53.9322988  73.9314574 100.2836731  53.8147803  72.6538456  99.4800710
  53.2339332  70.2305142  76.9365317  54.0958496  70.5560040  77.1961135
  53.4189677  69.4436638  76.4238383  45.2506748  78.3127481  89.2145506
  44.5570220  77.8981434  88.7015460  45.9979739  78.3548018  88.6178925
  59.8375535  68.5038726  86.2821861  60.3375314  68.6155260  85.4736179
  60.4811143  68.1999779  86.9222669  53.8957531  76.4117355  99.1689702
  53.4124613  77.2117716  99.3753591  53.9818470  76.4225300  98.2157146
  47.1643491  78.2445735  87.0911521  47.1414179  78.3433422  86.1393404
  47.4744127  79.0910886  87.4128687  49.8230869  80.3021890  91.2058135
  50.7774122  80.2705833  91.1388067  49.6243392  79.8412514  92.0208361
  50.4130251  78.8723006  93.7728933  51.2323140  79.3667085  93.7963770
  50.6867058  77.9554974  93.7446501  48.1781097  85.8441510  88.2228333
  48.0435565  85.0841911  87.6566331  47.7613160  86.5682410  87.7557122
  51.3350223  86.7410827  88.4346776  51.2182607  87.6856259  88.3325466
  50.5142669  86.4384388  88.8232575  45.6665165  73.2061140  94.4721130
  46.3124028  72.6960094  94.9608355  45.4582316  73.9429822  95.0464555
  58.1918557  80.2741988  99.9713271  59.0609717  80.4482640  99.6099906
  57.7125309  81.0936404  99.8489000  54.1868775  67.4701185  80.2245026
  54.1747445  68.4143025  80.3813297  55.0792197  67.2871330  79.9304487
  52.3604737  87.3939089  91.6502704  53.2631984  87.4262699  91.9669199
  52.1342107  86.4639540  91.6649040  54.1158339  86.1470075  88.3112783
  53.1653970  86.1471937  88.1977155  54.4190825  85.4002810  87.7948818
  58.0020895  64.0643961  84.4790963  57.2353291  63.5102448  84.6247645
  58.4131600  64.1365830  85.3405115  50.0062656  70.3528757  98.5696144
  50.8694117  69.9965562  98.7799469  49.4328067  70.0142652  99.2571549
  69.8511033  91.9830614  89.3758545  70.4889443  91.8637361  88.6721885
  69.7331876  92.9311457  89.4346497  66.6600739  91.9358042  89.3120070
  66.3219251  91.8199106  88.4240605  67.5290507  91.5349207  89.2921076
  62.5187555  93.7893518  85.3016961  61.9552420  93.6983455  84.5333249
  62.4039950  92.9693422  85.7819453  67.1420522  93.0892893  95.2706276
  67.1309163  92.6945692  94.3986779  67.3041162  92.3558966  95.8640047
  60.0651987  95.2844710  88.1401181  60.8573279  94.9435534  87.7247481
  60.3048637  95.3939685  89.0603335  62.0242741  94.5453623  81.0118560
  62.7973617  93.9982610  80.8731436  62.3768140  95.4097872  81.2233022
  63.8627783  95.8730005  94.2185459  63.5717649  96.7775636  94.1032126
  64.4984768  95.9146533  94.9329529  64.7883990  93.2506854  90.8086819
  65.3847562  93.0262876  90.0943782  64.8458962  92.5091599  91.4112267
  72.3286149  83.3578875  91.8139340  71.9969474  84.2274286  91.5900555
  71.7331762  83.0415159  92.4933371  68.8217668  95.5591421  91.2135253
  68.5218391  96.4616459  91.1051060  68.4768728  95.2923604  92.0656406
  62.2730150  92.0105218  87.2471958  61.3480646  91.8781432  87.4549649
  62.5214563  92.7899437  87.7441900  72.2214812  88.0773961  88.8932690
  71.3131689  88.0089369  88.5991451  72.1702408  88.5545906  89.7214516
  59.6338961  91.6538491  88.0815747  59.7631342  91.9072970  88.9955158
  58.9536412  92.2466199  87.7620402  63.8038448 102.3235741  84.1806221
  63.7262478 103.2743566  84.2594701  63.2000092 101.9781614  84.8381147
  66.2955678  89.4963606  96.8367588  65.5189012  90.0557527  96.8270452
  66.9346241  89.9820389  97.3582458  74.0876458  86.2790399  90.6710564
  73.4450839  86.5722932  90.0250359  73.5831387  86.1643320  91.4763761
  64.5502050  92.3049060  96.3985555  65.2916735  92.8434104  96.1220378
  63.8439036  92.9315349  96.5557107  70.0257390  94.4478200  94.9957716
  70.4340746  94.0060611  94.2512349  69.3034651  93.8730828  95.2491909
  66.3788460  89.3850807  92.3691273  67.2249655  89.8090221  92.5125922
  66.3187098  88.7284431  93.0629836  70.3486204  95.0079391  88.7510005
  69.7195067  95.1725105  88.0486073  69.9611867  95.4221000  89.5220969
  69.5287905  87.0455175  94.0272447  69.2848837  87.7997236  93.4906723
  69.8047836  87.4240523  94.8619694  71.4826368  93.5893788  92.7049712
  71.6943263  94.2325548  92.0284094  71.4356116  92.7556104  92.2371643
  69.0852597  86.2011608  89.6086285  68.2237076  86.4992862  89.9003022
  69.1115032  86.4182007  88.6767317  62.7938247  94.2925281  88.9539853
  63.3639604  94.7212549  88.3157338  63.3846359  94.0107865  89.6524039
  63.2863414  89.4588708  97.2000865  62.6562075  90.1404989  97.4336262
  63.1799502  89.3471790  96.2554003  58.5808386  89.1260504  88.1266789
  57.7907440  89.3818033  87.6506900  59.0719634  89.9408842  88.2318829
  72.5972196  96.4665743  90.8772070  73.4189640  96.0645930  90.5954751
  72.5934599  96.3633977  91.8288186  60.5323132  89.4905083  85.0850266
  59.7354295  89.6023778  85.6033761  60.3048724  89.8291735  84.2191156
  66.3628799  96.0149786  93.0332780  66.4273232  96.4770194  93.8690952
  65.6539723  95.3847151  93.1615090  56.8646089  89.3790994  90.5581780
  57.1154128  90.2638004  90.8239356  57.4005638  89.1995596  89.7856872
  80.6878189  92.8104492  87.2257041  79.9341897  92.2411890  87.0701046
  80.8225730  92.7767156  88.1727676  62.5644157  83.7609474  99.5626116
  62.1711102  83.2075672 100.2373760  63.3810297  84.0720052  99.9532633
  59.5306214  95.1993332  83.4739686  60.0430735  95.9936582  83.6245250
  60.1828927  94.5019622  83.4073287  61.3401099  98.3159088  85.5562439
  61.5167727  99.2377053  85.3683423  62.1357933  98.0017507  85.9856819
  65.4812118  85.1767353  97.1546372  66.2221831  85.7774506  97.0750835
  65.7130040  84.4344991  96.5964415  60.6253456  90.3623720  95.4324602
  60.5106971  89.4608977  95.7331701  59.7697973  90.6087417  95.0809419
  67.7045293  98.3041460  97.0312103  67.2609148  97.5177839  96.7133007
  68.3662507  98.4920611  96.3655993  62.4632415  99.8337262  91.5572781
  63.0139840  99.7054325  90.7849775  61.6243890 100.1332151  91.2067674
  69.8026531  98.5844260  95.0593504  69.7845007  99.4053141  94.5673773
  70.7246452  98.4598336  95.2843645  66.2599586  96.0988390  95.9017012
  66.7927922  95.3376678  95.6716320  65.7313667  95.8062042  96.6441167
  69.4269281  81.2048456  91.4310654  69.0833550  82.0950098  91.3549765
  69.7948243  81.0150113  90.5680239  57.4955131  93.5281986  84.2499256
  58.3330353  93.9378995  84.0332964  57.6733399  92.5881428  84.2199450
  66.9766674  86.0406768  84.9968328  66.1208271  85.6513618  84.8173966
  67.3893626  86.1198729  84.1368113  68.5065821  83.5753111  89.3959887
  68.0030617  83.5383246  88.5827693  68.7996428  84.4845854  89.4556544
  64.7508707  83.6591841  88.4026069  65.6161704  83.4634649  88.0431959
  64.8186216  83.4302192  89.3295426  72.6045144  93.4223403  88.5302871
  71.9468819  94.1122664  88.6182999  73.4085544  93.8119835  88.8736857
  62.3571026  85.8894049  85.7742436  62.9314778  85.6669230  85.0415629
  62.9442008  85.9582743  86.5271037  67.8931434  89.2517231  88.8265153
  66.9753995  89.4732178  88.6686841  68.3091578  89.3263542  87.9676860
  57.5181302  90.8672702  84.9209990  57.3205702  90.2742062  84.1961056
  56.9627966  90.5624912  85.6385928  65.4978026  90.7595808  87.0404583
  65.5526636  89.8069645  86.9647059  64.6869228  90.9155247  87.5245881
  63.4370386  89.3772868  84.7994962  62.6238251  89.6767038  85.2060154
  63.9329380  88.9828557  85.5169444  69.0344598  89.8414692  93.6309856
  69.3893985  90.0686165  94.4904321  69.6816729  90.1733069  93.0087111
  62.9284461  86.9491223  90.4156197  63.5683840  86.8079982  89.7179160
  62.0961991  86.6625737  90.0394799  74.7911714  95.0309655  89.3470456
  75.2248221  94.9384944  90.1953510  75.5043295  95.0067156  88.7090472
  63.7044765  96.2493654  86.5291189  64.4985363  95.7543974  86.3273764
  62.9936457  95.7211517  86.1658895  68.5239609  98.6311749  90.8803557
  68.5776631  99.2002686  91.6481273  67.6554390  98.8013634  90.5157594
  60.0127528  90.3936736  82.6050942  59.0825116  90.3321191  82.8220904
  60.1085000  89.8712688  81.8087583  59.9313077  86.9191548  85.1929183
  60.1919894  87.8336882  85.0838344  60.7530249  86.4515991  85.3425796
  61.4038002  88.3329306  92.3628008  62.0761056  88.1246668  91.7140657
  60.5767789  88.1351392  91.9233240  75.6527264  95.0733356  91.8803342
  75.8463154  95.9779166  92.1262616  75.5527882  94.6140775  92.7141927
  67.3063574  84.9591246  94.3793669  66.6591489  85.6581196  94.2858145
  68.0764590  85.3927390  94.7469917  70.7142372  95.2240099  97.4544222
  70.5627879  94.9950650  96.5374306  70.7047052  96.1810700  97.4675567
  67.4827709  92.7972011  92.4390489  68.4119769  92.9483171  92.2659456
  67.0618739  92.8856032  91.5839135  66.2816041  96.8222676  90.2089026
  66.1427126  96.4541460  91.0814964  65.4930637  97.3370315  90.0372984
  61.8065500  91.6071908  93.1230445  61.6685298  90.8752147  93.7241984
  62.7170423  91.5180809  92.8414633  64.4347800  91.3191868  92.6114125
  65.1447419  90.6785060  92.5700743  64.3917108  91.5704763  93.5340306
  72.4234579  98.2559221  95.5320704  72.3647125  97.5718441  94.8651287
  72.8254097  98.9978211  95.0801330  63.1476734  88.3057086  94.4309764
  62.6114091  87.8547824  95.0831361  62.5593443  88.4402995  93.6880229
  61.4425278 105.0721135  88.3254423  61.6821876 105.7039659  89.0033441
  60.5994474 104.7209175  88.6119782  72.4251986  96.2198805  93.7634684
  71.5378765  95.8824727  93.8861083  72.9950537  95.4881836  94.0003449
  54.0781133  92.5522897  87.0877735  54.7652173  92.2384627  86.4998750
  53.9229262  93.4564261  86.8144986  58.8815856  87.4413093  91.5162759
  58.7974044  86.8338763  90.7813169  58.0598562  87.9322112  91.5172255
  65.9553140 100.8800257  90.7295927  65.8823311 101.6855229  91.2415231
  65.5130533 101.0792223  89.9043948  69.0539569  85.9266657  86.8832954
  69.5508269  85.1736619  86.5634024  68.2826551  85.9630974  86.3176163
  76.9069327  91.6307022  88.5251245  76.8959203  92.5131738  88.1545178
  76.0386706  91.2778573  88.3305782  68.4151823 100.7787091  92.8854086
  69.1279795 101.4134556  92.8129987  67.9241852 100.8750957  92.0694087
  65.6374538  88.0684040  86.6104638  65.2672326  87.5155080  87.2985544
  66.1333631  87.4642173  86.0579638  63.4663737  98.5281535  93.7059656
  64.1673196  99.1618018  93.8589051  62.9958852  98.8696266  92.9455296
  71.4958564  82.8936250  89.0312313  70.5821644  83.1240477  89.1994520
  71.9251666  82.9774694  89.8826345  71.2665023  91.0826142  91.5312207
  70.6136473  91.3302050  90.8764659  71.6445403  90.2690281  91.1974684
  67.3152596  91.8245953  98.0178244  66.6393233  91.7240083  98.6880619
  68.1380230  91.6685167  98.4814241  59.0631455  98.0617890  90.6390759
  59.6484892  97.3161578  90.7718663  58.8656293  98.3721847  91.5227423
  61.9170110 101.0969137  85.6553201  61.2480485 101.5815265  85.1717241
  61.7782980 101.3438358  86.5696580  53.6549110  90.6323490  89.3595202
  53.6933209  90.0987081  90.1532320  53.1489402  90.1058696  88.7406179
  66.0575379 103.1312881  92.2535860  66.6093687 103.2944502  93.0184945
  66.3981572 103.7217319  91.5815885  61.0339872  85.4788031  92.8557744
  61.0981198  86.3402862  92.4435142  60.9706992  84.8662032  92.1230103
  60.5092144  87.5511163  96.5030779  61.1364183  87.1688241  97.1168303
  59.6520063  87.3325365  96.8686471  70.9086253  97.9574138  98.1084514
  71.4526157  98.5704097  97.6139469  70.3273098  98.5153717  98.6251527
  57.2857687  89.3587592  82.4349134  57.5811128  88.4498271  82.3816187
  56.3845723  89.3375332  82.1130136  69.1943766 101.0794856  89.2399542
  69.0694905 100.2784596  88.7310487  69.8522857 101.5741050  88.7513512
  60.8151934  87.4343589  88.4176682  60.0938520  88.0479557  88.2784155
  61.6045190  87.9701354  88.3393328  71.2578674  98.8803877  90.8679092
  70.3109010  98.7609228  90.7957419  71.6061447  97.9926375  90.9505353
  63.6178248  84.7698015  94.6917334  64.1412649  85.0160312  95.4543643
  63.3990581  85.6018050  94.2720471  59.0145529  87.0401690  82.5588459
  58.6858235  86.1599069  82.3763565  59.3684899  86.9849359  83.4464848
  62.1287352  87.3274660  82.9263936  62.4683424  87.8560581  82.2042545
  62.5759472  87.6655066  83.7022503  71.8659229  99.4985151  88.1548317
  72.7905777  99.2928013  88.0172768  71.6974533  99.2501553  89.0637658
  64.8230793  85.7111711  92.3767004  64.4827613  84.9119524  92.7787684
  64.1169799  86.0113421  91.8043838  65.4747264  82.7961023  90.8294327
  66.2973334  82.3221501  90.7073218  65.7185328  83.5751507  91.3293014
  62.9985843  89.4880144  88.6386306  62.8530424  89.8020447  89.5310588
  62.5211047  90.1065044  88.0857205  64.8582226  86.4782692  88.6867196
  64.8443795  85.5823785  88.3499494  65.5754654  86.4853355  89.3205482
  66.7108357  86.9120032  90.7320323  66.4526135  87.8337102  90.7304654
  66.1793397  86.5150466  91.4220787  57.4731505  92.0285488  91.5773967
  56.9284973  92.8045296  91.7094242  58.3510855  92.3756292  91.4193089
  64.2619122  85.3597072  83.9554766  64.3835033  84.4313718  84.1545653
  63.9721164  85.3735758  83.0433081  67.1310312  83.0451982  87.0921486
  67.1532009  83.1091315  86.1373465  67.5478371  82.2056491  87.2861992
  77.5093937  92.7807242  85.1300708  77.9525083  92.0314567  84.7319831
  76.6320447  92.7717378  84.7474440  58.2597527  91.1555384  94.4704124
  57.5179263  91.3038020  95.0568755  57.9390272  91.4163650  93.6070874
  66.2041190 100.6971362  94.2684514  66.5128316 100.4520509  95.1407214
  67.0016672 100.9018001  93.7803384  66.2261802 102.8509272  86.4989891
  65.7866792 102.3585651  87.1922747  66.9769919 102.3082240  86.2581966
  58.7054141  99.0420813  86.5014519  59.5312161  98.7424585  86.1213162
  58.3548193  98.2728435  86.9504307  63.6735674  98.3947281  88.5712192
  63.0515683  97.7317986  88.2714420  64.3440541  98.4208413  87.8885840
  56.9062746  96.9607139  87.4603452  56.0694654  96.5329314  87.2787454
  56.8786391  97.1539583  88.3974244  63.7460202  86.8729069  98.1644698
  63.7948357  87.7491192  97.7822468  64.2882716  86.3306462  97.5916342
  74.2315047  97.4170192  97.4445835  73.4410591  97.3994331  96.9050335
  73.9948402  97.9558486  98.1994872  74.3512922  94.2662659  94.7578564
  74.4010927  94.1012666  95.6994087  74.2426846  93.3989918  94.3676445
  71.6416685  90.2493587  96.0737871  72.5426547  90.1100052  95.7821869
  71.7164659  90.4148042  97.0136048  65.9759490  87.6260442  94.9191057
  65.1062799  87.9194008  94.6473646  66.2118970  88.2100887  95.6398321
  75.8531119  96.6859600  95.0020586  75.5615927  97.0489581  95.8384047
  75.2403250  95.9726609  94.8233918  77.0526801  94.2512480  87.5223156
  77.8873693  94.6902284  87.6860716  77.1885930  93.7751133  86.7031402
  74.1018307  91.8092215  93.4700644  74.5772429  92.0019861  92.6619495
  73.1783873  91.8651401  93.2244027  60.9901814  92.9716382  83.0531722
  60.7447856  92.0678712  83.2511932  61.1597729  92.9733533  82.1111200
  68.6798524  83.8440059  92.4356477  69.1980468  84.5801085  92.1102966
  68.3253657  84.1504052  93.2703237  60.2597462  88.7044740  80.5517883
  59.5666706  88.7789095  79.8957919  60.0149213  87.9405083  81.0739400
  72.8019976  88.6857975  91.7028949  73.7537399  88.7856073  91.7241173
  72.6323427  87.8936244  92.2127034  70.8234356  85.7713558  91.8888350
  70.2284288  86.0518571  91.1934839  70.5384053  86.2607459  92.6605091
  75.2808054  91.9064095  90.8171249  75.2484374  90.9680096  91.0030933
  75.8908678  91.9848131  90.0837074  75.4302543  88.6975138  90.8629532
  74.9141591  87.9133595  90.6759461  76.3142491  88.3693855  91.0276051
  73.0913270  82.4416154  86.8225345  72.8938091  82.1331242  87.7068677
  73.7012975  83.1677793  86.9523275  81.0984604  92.9680102  89.9577286
  81.8287993  92.7065390  90.5184989  80.4891550  92.2308824  89.9979354
  79.1799901  91.1087964  90.5551737  78.4533065  90.9743929  89.9468228
  78.7647188  91.4164793  91.3608455  67.0030078  94.8277894  98.3199110
  67.9233087  95.0056493  98.5139156  66.9679661  93.8833939  98.1678809
  56.2212243  90.0216488  87.2452384  55.9015027  89.1681796  86.9526758
  55.6745671  90.2365066  88.0010352  59.9992150  92.7378929  90.9621891
  60.2178160  93.6696036  90.9809925  60.4117924  92.3786903  91.7476695
  64.8720015  88.3112134 100.3524640  64.7716742  89.2606491 100.2836731
  64.6541558  87.9830373  99.4800710  56.0900503  93.6419399  89.2145506
  55.3963974  93.2273352  88.7015460  56.8373494  93.6839936  88.6178925
  72.2265723  84.4325586  84.0800540  71.6464392  85.0910390  83.6978593
  71.9601656  83.6102930  83.6687958  70.6769290  83.8330644  86.2821861
  71.1769068  83.9447178  85.4736179  71.3204898  83.5291696  86.9222669
  64.7351286  91.7409273  99.1689702  64.2518367  92.5409633  99.3753591
  64.8212225  91.7517218  98.2157146  58.0037245  93.5737653  87.0911521
  57.9807933  93.6725340  86.1393404  58.3137882  94.4202804  87.4128687
  60.6624623  95.6313808  91.2058135  61.6167877  95.5997750  91.1388067
  60.4637147  95.1704432  92.0208361  61.2524005  94.2014924  93.7728933
  62.0716894  94.6959003  93.7963770  61.5260813  93.2846892  93.7446501
  74.3605137  86.6172197  86.8511228  75.1365528  87.1068650  87.1235845
  73.6353272  87.0430251  87.3083097  76.7977696  87.3299816  87.9085168
  77.3922187  87.0895552  87.1978477  76.8704280  86.6106947  88.5358705
  59.0174852 101.1733427  88.2228333  58.8829320 100.4133828  87.6566331
  58.6006914 101.8974327  87.7557122  79.1048769  90.6366017  86.6828590
  78.5448327  90.7059207  87.4560152  78.4992272  90.4607002  85.9628086
  62.1743978 102.0702744  88.4346776  62.0576362 103.0148177  88.3325466
  61.3536424 101.7676306  88.8232575  56.5058919  88.5353058  94.4721130
  57.1517783  88.0252012  94.9608355  56.2976070  89.2721739  95.0464555
  69.0312312  95.6033905  99.9713271  69.9003471  95.7774558  99.6099906
  68.5519063  96.4228322  99.8489000  63.1998492 102.7231006  91.6502704
  64.1025738 102.7554617  91.9669199  62.9735862 101.7931457  91.6649040
  64.9552094 101.4761993  88.3112783  64.0047725 101.4763854  88.1977155
  65.2584580 100.7294727  87.7948818  60.8456410  85.6820675  98.5696144
  61.7087872  85.3257480  98.7799469  60.2721821  85.3434570  99.2571549
  80.6904787 107.3122531  89.3758545  81.3283197 107.1929279  88.6721885
  80.5725630 108.2603375  89.4346497  77.4994494 107.2649959  89.3120070
  77.1613005 107.1491024  88.4240605  78.3684262 106.8641124  89.2921076
  73.3581309 109.1185436  85.3016961  72.7946174 109.0275373  84.5333249
  73.2433704 108.2985340  85.7819453  77.9814277 108.4184811  95.2706276
  77.9702917 108.0237609  94.3986779  78.1434916 107.6850884  95.8640047
  70.9045741 110.6136627  88.1401181  71.6967033 110.2727452  87.7247481
  71.1442391 110.7231602  89.0603335  78.9380868 112.7856403  80.6131426
  78.2868848 113.3710484  80.2265440  79.7325231 113.3162598  80.6726463
  72.8636495 109.8745541  81.0118560  73.6367371 109.3274528  80.8731436
  73.2161894 110.7389790  81.2233022  74.7021538 111.2021923  94.2185459
  74.4111404 112.1067554  94.1032126  75.3378522 111.2438450  94.9329529
  75.6277745 108.5798771  90.8086819  76.2241317 108.3554794  90.0943782
  75.6852716 107.8383517  91.4112267  80.2446056 105.0373985  86.4511753
  81.0309145 104.6193408  86.1002170  80.5084760 105.9420077  86.6193402
  80.4156133 110.4746835  81.1500410  79.7801966 110.5481462  81.8621315
  80.0853540 111.0640434  80.4719489  85.6454483 104.9749218  87.3544732
  86.3779655 104.4048435  87.5882561  84.8893839 104.5870819  87.7951237
  74.9199062 107.9366313  80.8461385  74.8035320 107.2611216  81.5142469
  75.0301322 107.4498687  80.0293538  77.2630603 107.3976460  84.5508074
  76.8988810 106.8707081  85.2620996  78.1197719 107.0074929  84.3774560
  83.1679903  98.6870792  91.8139340  82.8363228  99.5566203  91.5900555
  82.5725517  98.3707076  92.4933371  79.6611423 110.8883338  91.2135253
  79.3612146 111.7908377  91.1051060  79.3162482 110.6215522  92.0656406
  73.1123904 107.3397135  87.2471958  72.1874401 107.2073349  87.4549649
  73.3608317 108.1191354  87.7441900  83.0608567 103.4065879  88.8932690
  82.1525444 103.3381287  88.5991451  83.0096162 103.8837823  89.7214516
  76.8825310 104.8824017  80.5316090  76.7624936 105.3281068  81.3701570
  76.1877899 105.2309335  79.9729628  70.4732715 106.9830409  88.0815747
  70.6025096 107.2364888  88.9955158  69.7930167 107.5758117  87.7620402
  74.6432203 117.6527659  84.1806221  74.5656232 118.6035484  84.2594701
  74.0393846 117.3073531  84.8381147  77.1349432 104.8255524  96.8367588
  76.3582766 105.3849444  96.8270452  77.7739995 105.3112307  97.3582458
  84.9270213 101.6082317  90.6710564  84.2844593 101.9014850  90.0250359
  84.4225142 101.4935237  91.4763761  82.5810377 105.3545490  81.3596424
  83.4928233 105.5872877  81.1844121  82.0720024 105.9382534  80.7971502
  75.3895805 107.6340977  96.3985555  76.1310489 108.1726021  96.1220378
  74.6832790 108.2607266  96.5557107  80.8651144 109.7770118  94.9957716
  81.2734500 109.3352528  94.2512349  80.1428406 109.2022745  95.2491909
  77.2182214 104.7142725  92.3691273  78.0643410 105.1382138  92.5125922
  77.1580852 104.0576349  93.0629836  81.1879959 110.3371309  88.7510005
  80.5588821 110.5017023  88.0486073  80.8005621 110.7512918  89.5220969
  85.0669191 111.2725746  86.1054369  84.3820229 111.6524648  85.5551402
  85.1513040 111.8821073  86.8386317  80.3681660 102.3747093  94.0272447
  80.1242592 103.1289154  93.4906723  80.6441590 102.7532441  94.8619694
  82.3220122 108.9185705  92.7049712  82.5337018 109.5617465  92.0284094
  82.2749871 108.0848022  92.2371643  79.9246351 101.5303526  89.6086285
  79.0630830 101.8284780  89.9003022  79.9508786 101.7473925  88.6767317
  76.7407921 110.0745717  86.0160090  77.2046266 110.3533420  85.2264713
  76.4764719 109.1729161  85.8333181  73.6332002 109.6217198  88.9539853
  74.2033359 110.0504467  88.3157338  74.2240114 109.3399783  89.6524039
  75.6776807 106.1968869  82.8249655  76.3800850 106.6489913  83.2923582
  75.3457435 105.5552688  83.4529549  74.1257168 104.7880626  97.2000865
  73.4955829 105.4696907  97.4336262  74.0193256 104.6763707  96.2554003
  69.4202141 104.4552422  88.1266789  68.6301195 104.7109950  87.6506900
  69.9113388 105.2700760  88.2318829  83.4365950 111.7957661  90.8772070
  84.2583394 111.3937848  90.5954751  83.4328353 111.6925895  91.8288186
  71.3716886 104.8197001  85.0850266  70.5748050 104.9315695  85.6033761
  71.1442478 105.1583653  84.2191156  77.2022554 111.3441704  93.0332780
  77.2666986 111.8062111  93.8690952  76.4933478 110.7139069  93.1615090
  67.7039844 104.7082912  90.5581780  67.9547882 105.5929922  90.8239356
  68.2399392 104.5287514  89.7856872  91.5271943 108.1396409  87.2257041
  90.7735652 107.5703807  87.0701046  91.6619485 108.1059074  88.1727676
  76.9170571 113.0109812  82.9011761  76.7816246 113.8561347  83.3296608
  77.4580384 113.2129089  82.1377694  73.4037911  99.0901391  99.5626116
  73.0104857  98.5367590 100.2373760  74.2204051  99.4011970  99.9532633
  70.3699969 110.5285250  83.4739686  70.8824489 111.3228500  83.6245250
  71.0222682 109.8311540  83.4073287  72.1794854 113.6451006  85.5562439
  72.3561482 114.5668971  85.3683423  72.9751687 113.3309425  85.9856819
  76.3205872 100.5059271  97.1546372  77.0615586 101.1066424  97.0750835
  76.5523795  99.7636908  96.5964415  71.4647210 105.6915638  95.4324602
  71.3500725 104.7900895  95.7331701  70.6091728 105.9379335  95.0809419
  78.5439048 113.6333378  97.0312103  78.1002902 112.8469757  96.7133007
  79.2056261 113.8212529  96.3655993  73.3026169 115.1629180  91.5572781
  73.8533594 115.0346243  90.7849775  72.4637645 115.4624069  91.2067674
  80.6420286 113.9136178  95.0593504  80.6238761 114.7345059  94.5673773
  81.5640206 113.7890253  95.2843645  77.0993340 111.4280308  95.9017012
  77.6321677 110.6668596  95.6716320  76.5707421 111.1353959  96.6441167
  80.2663035  96.5340374  91.4310654  79.9227304  97.4242015  91.3549765
  80.6341998  96.3442031  90.5680239  68.3348886 108.8573904  84.2499256
  69.1724108 109.2670912  84.0332964  68.5127153 107.9173346  84.2199450
  80.2313318 106.5248985  79.9383089  79.7159941 107.2953589  80.1771477
  79.9590626 105.8514121  80.5616151  77.8160429 101.3698685  84.9968328
  76.9602025 100.9805536  84.8173966  78.2287381 101.4490646  84.1368113
  79.3459575  98.9045029  89.3959887  78.8424371  98.8675164  88.5827693
  79.6390182  99.8137771  89.4556544  75.5902461  98.9883758  88.4026069
  76.4555458  98.7926567  88.0431959  75.6579970  98.7594110  89.3295426
  85.2047592 109.2781339  81.8736263  84.4277035 108.9392499  81.4291425
  85.8839073 109.2833962  81.1991228  80.0199621 104.3976077  81.7642870
  79.7149757 104.7122226  82.6153014  80.9730063 104.4757497  81.8070203
  78.4646053 110.5566300  83.4135824  77.9367414 109.8219060  83.1009062
  77.9633556 111.3340976  83.1675793  83.4438899 108.7515321  88.5302871
  82.7862573 109.4414582  88.6182999  84.2479298 109.1411752  88.8736857
  73.1964780 101.2185966  85.7742436  73.7708532 100.9961148  85.0415629
  73.7835763 101.2874661  86.5271037  82.2544358 107.1059693  86.5806812
  82.7676239 107.7389685  87.0828522  82.9045582 106.5060889  86.2150172
  75.4987448  98.0927215  84.5017505  74.8451860  97.7776232  83.8774120
  75.4567922  97.4702956  85.2277328  76.6098653 108.3746510  76.4170797
  75.7025715 108.1435764  76.6161946  77.1069685 107.5784130  76.6044779
  79.5166732 117.0844017  79.3367484  78.8428431 117.3875714  79.9452441
  79.9032554 117.8873098  78.9872941  78.7325188 104.5809149  88.8265153
  77.8147750 104.8024096  88.6686841  79.1485332 104.6555459  87.9676860
  79.5160236 105.9800564  83.9567833  80.2632055 106.4921962  83.6474955
  79.7851826 105.6584617  84.8172227  77.7886886 108.4759105  80.9394787
  76.8798106 108.1918138  81.0367257  77.8181970 108.8958184  80.0798094
  83.0206154 112.0865695  84.7085955  82.5668481 111.2456605  84.7651145
  82.3900121 112.7227093  85.0460735  81.9639073 103.0157681  85.9386622
  81.2261830 102.5035067  86.2696865  82.2165847 102.5758062  85.1269899
  81.4639093 113.9242191  85.6435773  81.7562067 114.4847248  84.9248139
  81.9737714 114.2170752  86.3988932  82.0650701  95.7933933  86.5328392
  82.3709578  94.9331296  86.2454307  82.7903306  96.3851553  86.3327386
  68.3575057 106.1964619  84.9209990  68.1599457 105.6033980  84.1961056
  67.8021721 105.8916829  85.6385928  76.3371780 106.0887726  87.0404583
  76.3920390 105.1361562  86.9647059  75.5262982 106.2447165  87.5245881
  77.4862974 110.0167849  78.2782866  77.0482404 109.3003708  77.8188503
  78.2273415 110.2443964  77.7167957  74.2764140 104.7064786  84.7994962
  73.4632006 105.0058956  85.2060154  74.7723135 104.3120474  85.5169444
  76.4272718 114.7022542  86.7329226  76.3848897 114.9283389  85.8037758
  77.3435417 114.4685917  86.8815028  79.8738352 105.1706610  93.6309856
  80.2287740 105.3978083  94.4904321  80.5210483 105.5024987  93.0087111
  85.6036089 108.2925046  84.3359185  85.4653988 108.4826642  83.4080374
  85.2472308 109.0544429  84.7927236  73.7678215 102.2783141  90.4156197
  74.4077594 102.1371900  89.7179160  72.9355746 101.9917654  90.0394799
  85.6305469 110.3601573  89.3470456  86.0641975 110.2676862  90.1953510
  86.3437049 110.3359073  88.7090472  74.5438519 111.5785571  86.5291189
  75.3379118 111.0835892  86.3273764  73.8330211 111.0503435  86.1658895
  79.3633364 113.9603667  90.8803557  79.4170386 114.5294603  91.6481273
  78.4948145 114.1305552  90.5157594  70.8521283 105.7228653  82.6050942
  69.9218871 105.6613109  82.8220904  70.9478755 105.2004606  81.8087583
  70.7706832 102.2483466  85.1929183  71.0313649 103.1628799  85.0838344
  71.5924004 101.7807909  85.3425796  72.2431757 103.6621223  92.3628008
  72.9154810 103.4538585  91.7140657  71.4161543 103.4643309  91.9233240
  86.4921018 110.4025274  91.8803342  86.6856908 111.3071084  92.1262616
  86.3921636 109.9432693  92.7141927  78.1457329 100.2883164  94.3793669
  77.4985244 100.9873114  94.2858145  78.9158344 100.7219308  94.7469917
  81.5536127 110.5532016  97.4544222  81.4021633 110.3242568  96.5374306
  81.5440806 111.5102618  97.4675567  78.3221463 108.1263929  92.4390489
  79.2513523 108.2775089  92.2659456  77.9012493 108.2147950  91.5839135
  77.1209795 112.1514593  90.2089026  76.9820881 111.7833378  91.0814964
  76.3324391 112.6662233  90.0372984  77.7157947 117.2523690  81.5514563
  77.8909703 116.7811733  82.3660185  77.0290735 117.8789456  81.7795823
  78.6715010 111.5296196  87.5977864  78.3364843 111.4896966  88.4935514
  78.1718956 110.8640912  87.1248274  72.6459254 106.9363826  93.1230445
  72.5079052 106.2044065  93.7241984  73.5564178 106.8472726  92.8414633
  81.6074202 108.8752230  77.8714924  80.9903372 108.1499059  77.7747976
  81.1390690 109.6361591  77.5281998  75.2741555 106.6483786  92.6114125
  75.9841173 106.0076978  92.5700743  75.2310863 106.8996680  93.5340306
  83.2628334 113.5851139  95.5320704  83.2040880 112.9010359  94.8651287
  83.6647852 114.3270129  95.0801330  73.9870489 103.6349003  94.4309764
  73.4507846 103.1839742  95.0831361  73.3987197 103.7694912  93.6880229
  72.2819032 120.4013053  88.3254423  72.5215631 121.0331577  89.0033441
  71.4388229 120.0501093  88.6119782  83.2645741 111.5490723  93.7634684
  82.3772520 111.2116645  93.8861083  83.8344292 110.8173754  94.0003449
  64.9174888 107.8814815  87.0877735  65.6045928 107.5676545  86.4998750
  64.7623017 108.7856179  86.8144986  69.7209610 102.7705011  91.5162759
  69.6367799 102.1630681  90.7813169  68.8992316 103.2614029  91.5172255
  76.7946894 116.2092175  90.7295927  76.7217066 117.0147147  91.2415231
  76.3524287 116.4084141  89.9043948  76.5836674 115.4463945  84.2398748
  75.8004196 115.9885625  84.3336973  77.2829419 115.9637925  84.6392990
  79.8933324 101.2558575  86.8832954  80.3902023 100.5028537  86.5634024
  79.1220305 101.2922891  86.3176163  87.7463081 106.9598940  88.5251245
  87.7352958 107.8423656  88.1545178  86.8780461 106.6070491  88.3305782
  79.2545578 116.1079009  92.8854086  79.9673550 116.7426474  92.8129987
  78.7635606 116.2042875  92.0694087  80.9763105 110.0130262  84.4571377
  80.0419383 110.1331724  84.2876082  81.1539773 109.1102729  84.1931387
  76.4768293 103.3975958  86.6104638  76.1066080 102.8446998  87.2985544
  76.9727385 102.7934091  86.0579638  84.3635656 105.8547581  84.9921411
  84.8296108 106.6875573  84.9181714  84.8143156 105.3892563  85.6966670
  74.3057491 113.8573453  93.7059656  75.0066951 114.4909936  93.8589051
  73.8352606 114.1988184  92.9455296  82.4311887 112.1991402  81.9907563
  82.7071731 112.0847997  82.9001437  81.5616386 111.8008887  81.9519736
  82.3352319  98.2228168  89.0312313  81.4215398  98.4532395  89.1994520
  82.7645420  98.3066612  89.8826345  82.1058777 106.4118060  91.5312207
  81.4530227 106.6593968  90.8764659  82.4839157 105.5982198  91.1974684
  79.0665951 116.4477753  85.6340377  79.2488346 115.6299409  86.0968129
  79.8898937 116.6645446  85.1965267  79.4008117 115.3745938  82.8955425
  79.9295883 114.8638393  82.2825588  79.6636336 115.0588469  83.7600959
  78.1546350 107.1537871  98.0178244  77.4786987 107.0532000  98.6880619
  78.9773984 106.9977085  98.4814241  69.9025209 113.3909808  90.6390759
  70.4878646 112.6453496  90.7718663  69.7050048 113.7013764  91.5227423
  72.7563865 116.4261055  85.6553201  72.0874240 116.9107183  85.1717241
  72.6176734 116.6730276  86.5696580  64.4942864 105.9615408  89.3595202
  64.5326964 105.4278999  90.1532320  63.9883157 105.4350613  88.7406179
  76.8969133 118.4604799  92.2535860  77.4487441 118.6236420  93.0184945
  77.2375327 119.0509236  91.5815885  71.8733626 100.8079948  92.8557744
  71.9374953 101.6694779  92.4435142  71.8100747 100.1953950  92.1230103
  71.3485899 102.8803081  96.5030779  71.9757938 102.4980158  97.1168303
  70.4913818 102.6617283  96.8686471  68.1251442 104.6879510  82.4349134
  68.4204883 103.7790188  82.3816187  67.2239477 104.6667249  82.1130136
  80.0337520 116.4086774  89.2399542  79.9088660 115.6076514  88.7310487
  80.6916611 116.9032967  88.7513512  71.6545689 102.7635507  88.4176682
  70.9332274 103.3771474  88.2784155  72.4438944 103.2993271  88.3393328
  82.0972429 114.2095794  90.8679092  81.1502764 114.0901145  90.7957419
  82.4455202 113.3218292  90.9505353  74.4572002 100.0989933  94.6917334
  74.9806404 100.3452230  95.4543643  74.2384335 100.9309968  94.2720471
  69.8539283 102.3693608  82.5588459  69.5251989 101.4890987  82.3763565
  70.2078654 102.3141276  83.4464848  79.1018862 114.0048510  87.0683444
  78.9543824 113.0765218  87.2491014  79.9272356 114.0268601  86.5840519
  72.9681106 102.6566577  82.9263936  73.3077179 103.1852499  82.2042545
  73.4153227 102.9946984  83.7022503  82.7052984 114.8277069  88.1548317
  83.6299531 114.6219930  88.0172768  82.5368287 114.5793470  89.0637658
  75.6624547 101.0403628  92.3767004  75.3221368 100.2411441  92.7787684
  74.9563553 101.3405339  91.8043838  76.3141019  98.1252941  90.8294327
  77.1367088  97.6513419  90.7073218  76.5579083  98.9043424  91.3293014
  73.8379598 104.8172061  88.6386306  73.6924178 105.1312364  89.5310588
  73.3604801 105.4356962  88.0857205  75.6975981 101.8074609  88.6867196
  75.6837549 100.9115703  88.3499494  76.4148409 101.8145273  89.3205482
  77.5502111 102.2411949  90.7320323  77.2919889 103.1629020  90.7304654
  77.0187152 101.8442384  91.4220787  82.4948300 115.3462737  83.5110408
  82.6685178 114.7809159  82.7584261  82.9877191 116.1463631  83.3289898
  68.3125260 107.3577406  91.5773967  67.7678728 108.1337214  91.7094242
  69.1904610 107.7048210  91.4193089  75.1012877 100.6888990  83.9554766
  75.2228788  99.7605636  84.1545653  74.8114919 100.7027676  83.0433081
  77.9704067  98.3743900  87.0921486  77.9925764  98.4383233  86.1373465
  78.3872126  97.5348409  87.2861992  88.3487691 108.1099160  85.1300708
  88.7918837 107.3606485  84.7319831  87.4714202 108.1009296  84.7474440
  83.4823473 114.6629501  80.6107307  84.1774377 115.2836194  80.8294621
  83.8246623 113.8124852  80.8859685  69.0991282 106.4847302  94.4704124
  68.3573018 106.6329937  95.0568755  68.7784026 106.7455568  93.6070874
  85.3814896 112.1129207  82.1394638  85.9066220 112.4516479  81.4143958
  85.2937248 111.1776222  81.9557772  77.0434944 116.0263280  94.2684514
  77.3522071 115.7812427  95.1407214  77.8410426 116.2309919  93.7803384
  77.0655556 118.1801190  86.4989891  76.6260547 117.6877568  87.1922747
  77.8163673 117.6374157  86.2581966  69.5447895 114.3712731  86.5014519
  70.3705915 114.0716503  86.1213162  69.1941947 113.6020353  86.9504307
  74.5129429 113.7239199  88.5712192  73.8909438 113.0609904  88.2714420
  75.1834296 113.7500331  87.8885840  67.7456500 112.2899057  87.4603452
  66.9088409 111.8621231  87.2787454  67.7180146 112.4831500  88.3974244
  74.5853956 102.2020987  98.1644698  74.6342112 103.0783110  97.7822468
  75.1276470 101.6598380  97.5916342  85.1906677 109.5954577  94.7578564
  85.2404682 109.4304584  95.6994087  85.0820600 108.7281836  94.3676445
  74.0742936 112.2743122  82.0470653  74.2231056 112.9578587  81.3937326
  74.8809379 112.2548212  82.5620109  82.4810439 105.5785505  96.0737871
  83.3820302 105.4391969  95.7821869  82.5558414 105.7439959  97.0136048
  76.8153245 102.9552359  94.9191057  75.9456554 103.2485925  94.6473646
  77.0512725 103.5392804  95.6398321  86.6924874 112.0151518  95.0020586
  86.4009682 112.3781499  95.8384047  86.0797005 111.3018526  94.8233918
  87.8920556 109.5804398  87.5223156  88.7267447 110.0194202  87.6860716
  88.0279685 109.1043051  86.7031402  84.9412062 107.1384133  93.4700644
  85.4166183 107.3311779  92.6619495  84.0177627 107.1943319  93.2244027
  71.8295569 108.3008300  83.0531722  71.5841610 107.3970630  83.2511932
  71.9991483 108.3025450  82.1111200  79.5192278  99.1731976  92.4356477
  80.0374222  99.9093003  92.1102966  79.1647411  99.4795970  93.2703237
  71.0991216 104.0336657  80.5517883  70.4060461 104.1081012  79.8957919
  70.8542968 103.2697001  81.0739400  79.7704873  95.5932259  87.9557374
  80.0506626  94.9255448  88.5817801  80.5555479  95.7861354  87.4432038
  77.5738341 114.7691253  79.5182400  77.0012308 115.3881440  79.0652872
  78.1471135 115.3190614  80.0522322  83.6413731 104.0149893  91.7028949
  84.5931154 104.1147990  91.7241173  83.4717181 103.2228161  92.2127034
  81.6628110 101.1005476  91.8888350  81.0678042 101.3810489  91.1934839
  81.3777807 101.5899377  92.6605091  80.7935601 115.0528403  80.6490983
  81.7266274 114.9873964  80.8523858  80.7058814 115.8884670  80.1905515
  83.4223618 114.3694273  77.6094930  83.3437249 114.0354137  78.5030688
  84.2433284 114.8616041  77.6086403  86.1201809 107.2356012  90.8171249
  86.0878129 106.2972013  91.0030933  86.7302432 107.3140049  90.0837074
  77.9585140 106.1052065  76.8598453  78.9044244 105.9758274  76.9286871
  77.5799385 105.3666727  77.3367881  86.2696297 104.0267056  90.8629532
  85.7535346 103.2425513  90.6759461  87.1536246 103.6985773  91.0276051
  83.9307024  97.7708071  86.8225345  83.7331845  97.4623160  87.7068677
  84.5406730  98.4969710  86.9523275  91.9378359 108.2972019  89.9577286
  92.6681747 108.0357307  90.5184989  91.3285304 107.5600741  89.9979354
  90.0193656 106.4379882  90.5551737  89.2926819 106.3035847  89.9468228
  89.6040943 106.7456710  91.3608455  77.8423832 110.1569812  98.3199110
  78.7626842 110.3348411  98.5139156  77.8073415 109.2125857  98.1678809
  67.0605997 105.3508405  87.2452384  66.7408781 104.4973713  86.9526758
  66.5139425 105.5656983  88.0010352  70.8385905 108.0670846  90.9621891
  71.0571914 108.9987954  90.9809925  71.2511678 107.7078821  91.7476695
  79.6880671  97.6516978  84.5721876  80.2411709  98.0712432  85.2311899
  79.9250757  96.7252726  84.6144832  75.7113770 103.6404052 100.3524640
  75.6110497 104.5898409 100.2836731  75.4935312 103.3122291  99.4800710
  66.9294257 108.9711317  89.2145506  66.2357729 108.5565270  88.7015460
  67.6767248 109.0131853  88.6178925  83.0659478  99.7617503  84.0800540
  82.4858147 100.4202308  83.6978593  82.7995410  98.9394848  83.6687958
  81.5163044  99.1622561  86.2821861  82.0162823  99.2739096  85.4736179
  82.1598652  98.8583614  86.9222669  75.5745040 107.0701191  99.1689702
  75.0912122 107.8701551  99.3753591  75.6605979 107.0809136  98.2157146
  68.8431000 108.9029571  87.0911521  68.8201688 109.0017258  86.1393404
  69.1531636 109.7494721  87.4128687  71.5018377 110.9605726  91.2058135
  72.4561631 110.9289668  91.1388067  71.3030901 110.4996349  92.0208361
  72.0917760 109.5306842  93.7728933  72.9110649 110.0250920  93.7963770
  72.3654567 108.6138810  93.7446501  81.8484356 101.9217594  83.1356889
  80.9610211 102.2067245  82.9177083  82.2638345 101.7611357  82.2884165
  85.1998892 101.9464115  86.8511228  85.9759282 102.4360567  87.1235845
  84.4747026 102.3722169  87.3083097  87.6371451 102.6591734  87.9085168
  88.2315941 102.4187470  87.1978477  87.7098034 101.9398865  88.5358705
  69.8568606 116.5025345  88.2228333  69.7223074 115.7425746  87.6566331
  69.4400669 117.2266245  87.7557122  80.9927569 111.6862269  77.2304908
  81.6963419 111.8912271  77.8462564  80.2690218 112.2539030  77.4953992
  81.8225380 107.4372130  83.3507179  81.7660581 107.8940681  82.5114811
  82.3753722 106.6762814  83.1730021  85.6330185 103.2261862  84.1757298
  85.3767120 102.8258497  85.0065506  85.0083054 103.9405656  84.0507437
  89.9442523 105.9657935  86.6828590  89.3842081 106.0351124  87.4560152
  89.3386027 105.7898920  85.9628086  73.0137732 117.3994662  88.4346776
  72.8970116 118.3440095  88.3325466  72.1930178 117.0968224  88.8232575
  82.9014267 112.1244798  79.2803369  83.7359871 111.6925996  79.0980843
  82.7398610 111.9526811  80.2080263  82.5560159 108.6276911  80.6459708
  82.5008963 108.4621182  79.7048152  81.9306214 109.3352944  80.8021898
  67.3452674 103.8644975  94.4721130  67.9911537 103.3543929  94.9608355
  67.1369825 104.6013657  95.0464555  74.0392246 118.0522924  91.6502704
  74.9419493 118.0846534  91.9669199  73.8129616 117.1223375  91.6649040
  75.7945848 116.8053910  88.3112783  74.8441479 116.8055772  88.1977155
  76.0978334 116.0586645  87.7948818  79.6808404  94.7227797  84.4790963
  78.9140800  94.1686283  84.6247645  80.0919109  94.7949665  85.3405115
  71.6850165 101.0112593  98.5696144  72.5481626 100.6549397  98.7799469
  71.1115576 100.6726487  99.2571549  88.3388248 122.5941877  89.3120070
  88.0006760 122.4782942  88.4240605  89.2078016 122.1933042  89.2921076
  84.1975064 124.4477353  85.3016961  83.6339929 124.3567290  84.5333249
  84.0827459 123.6277258  85.7819453  81.7439496 125.9428545  88.1401181
  82.5360788 125.6019370  87.7247481  81.9836146 126.0523520  89.0603335
  83.7030250 125.2037458  81.0118560  84.4761126 124.6566445  80.8731436
  84.0555649 126.0681708  81.2233022  86.0396527 121.3630124  78.6437010
  86.2922048 120.8411646  77.8820473  85.1021087 121.1996270  78.7463694
  91.0839810 120.3665903  86.4511753  91.8702900 119.9485326  86.1002170
  91.3478515 121.2711995  86.6193402  91.2549888 125.8038753  81.1500410
  90.6195721 125.8773380  81.8621315  90.9247294 126.3932352  80.4719489
  96.4848237 120.3041136  87.3544732  97.2173409 119.7340353  87.5882561
  95.7287593 119.9162736  87.7951237  85.7592816 123.2658230  80.8461385
  85.6429074 122.5903134  81.5142469  85.8695076 122.7790604  80.0293538
  88.1024357 122.7268377  84.5508074  87.7382564 122.1998998  85.2620996
  88.9591473 122.3366846  84.3774560  94.0073658 114.0162710  91.8139340
  93.6756983 114.8858121  91.5900555  93.4119271 113.6998994  92.4933371
  87.7429844 117.7558277  79.5469423  87.9104246 118.6238514  79.9139894
  87.5527013 117.9185559  78.6230712  83.9517659 122.6689053  87.2471958
  83.0268155 122.5365267  87.4549649  84.2002072 123.4483272  87.7441900
  87.7219065 120.2115935  80.5316090  87.6018690 120.6572985  81.3701570
  87.0271653 120.5601252  79.9729628  81.3126470 122.3122326  88.0815747
  81.4418851 122.5656805  88.9955158  80.6323921 122.9050034  87.7620402
  93.4204131 120.6837408  81.3596424  94.3321987 120.9164795  81.1844121
  92.9113778 121.2674452  80.7971502  90.7640106 116.8595444  89.6086285
  89.9024585 117.1576697  89.9003022  90.7902541 117.0765843  88.6767317
  87.5801675 125.4037634  86.0160090  88.0440021 125.6825337  85.2264713
  87.3158473 124.5021079  85.8333181  84.4725756 124.9509116  88.9539853
  85.0427113 125.3796384  88.3157338  85.0633868 124.6691701  89.6524039
  86.5170561 121.5260787  82.8249655  87.2194605 121.9781830  83.2923582
  86.1851190 120.8844606  83.4529549  80.2595895 119.7844339  88.1266789
  79.4694949 120.0401868  87.6506900  80.7507143 120.5992677  88.2318829
  82.2110641 120.1488919  85.0850266  81.4141804 120.2607613  85.6033761
  81.9836233 120.4875571  84.2191156  78.5433598 120.0374830  90.5581780
  78.7941637 120.9221840  90.8239356  79.0793147 119.8579431  89.7856872
  87.7564326 128.3401729  82.9011761  87.6210001 129.1853265  83.3296608
  88.2974138 128.5421007  82.1377694  81.2093723 125.8577167  83.4739686
  81.7218244 126.6520418  83.6245250  81.8616436 125.1603458  83.4073287
  83.0188608 128.9742924  85.5562439  83.1955236 129.8960888  85.3683423
  83.8145442 128.6601343  85.9856819  91.1056790 111.8632291  91.4310654
  90.7621059 112.7533933  91.3549765  91.4735752 111.6733949  90.5680239
  79.1742640 124.1865822  84.2499256  80.0117862 124.5962830  84.0332964
  79.3520908 123.2465264  84.2199450  91.0707072 121.8540902  79.9383089
  90.5553696 122.6245507  80.1771477  90.7984381 121.1806038  80.5616151
  88.6554183 116.6990603  84.9968328  87.7995780 116.3097453  84.8173966
  89.0681135 116.7782564  84.1368113  90.1853330 114.2336946  89.3959887
  89.6818126 114.1967082  88.5827693  90.4783937 115.1429689  89.4556544
  86.4296216 114.3175676  88.4026069  87.2949213 114.1218485  88.0431959
  86.4973725 114.0886028  89.3295426  90.8593375 119.7267994  81.7642870
  90.5543511 120.0414144  82.6153014  91.8123818 119.8049414  81.8070203
  89.3039807 125.8858218  83.4135824  88.7761169 125.1510977  83.1009062
  88.8027310 126.6632894  83.1675793  84.0358535 116.5477884  85.7742436
  84.6102287 116.3253065  85.0415629  84.6229517 116.6166579  86.5271037
  93.0938112 122.4351611  86.5806812  93.6069994 123.0681603  87.0828522
  93.7439336 121.8352806  86.2150172  84.3628122 118.5782345  79.7938321
  83.5265434 118.9157032  80.1147596  84.2232892 118.4431325  78.8565458
  86.3381203 113.4219133  84.5017505  85.6845615 113.1068150  83.8774120
  86.2961677 112.7994873  85.2277328  87.4492407 123.7038428  76.4170797
  86.5419469 123.4727681  76.6161946  87.9463439 122.9076047  76.6044779
  89.5718943 119.9101066  88.8265153  88.6541504 120.1316013  88.6686841
  89.9879087 119.9847377  87.9676860  90.3553991 121.3092482  83.9567833
  91.1025810 121.8213879  83.6474955  90.6245580 120.9876535  84.8172227
  88.6280641 123.8051023  80.9394787  87.7191860 123.5210056  81.0367257
  88.6575725 124.2250101  80.0798094  92.8032828 118.3449598  85.9386622
  92.0655585 117.8326985  86.2696865  93.0559601 117.9049980  85.1269899
  92.9044455 111.1225850  86.5328392  93.2103332 110.2623214  86.2454307
  93.6297060 111.7143471  86.3327386  79.1968811 121.5256537  84.9209990
  78.9993211 120.9325898  84.1961056  78.6415475 121.2208747  85.6385928
  87.1765535 121.4179643  87.0404583  87.2314145 120.4653480  86.9647059
  86.3656737 121.5739083  87.5245881  88.3256729 125.3459767  78.2782866
  87.8876159 124.6295625  77.8188503  89.0667170 125.5735881  77.7167957
  85.1157895 120.0356703  84.7994962  84.3025760 120.3350874  85.2060154
  85.6116889 119.6412392  85.5169444  84.6071970 117.6075059  90.4156197
  85.2471349 117.4663818  89.7179160  83.7749500 117.3209572  90.0394799
  85.3832274 126.9077489  86.5291189  86.1772872 126.4127809  86.3273764
  84.6723966 126.3795352  86.1658895  81.6915037 121.0520571  82.6050942
  80.7612625 120.9905026  82.8220904  81.7872509 120.5296524  81.8087583
  81.6100586 117.5775384  85.1929183  81.8707403 118.4920717  85.0838344
  82.4317758 117.1099826  85.3425796  83.0825511 118.9913141  92.3628008
  83.7548565 118.7830503  91.7140657  82.2555298 118.7935227  91.9233240
  92.4467956 124.2044148  77.8714924  91.8297127 123.4790976  77.7747976
  91.9784445 124.9653508  77.5281998  84.2366502 118.4229572  76.9936228
  83.3595969 118.3018373  76.6298475  84.7124255 117.6315651  76.7415117
  75.7568642 123.2106732  87.0877735  76.4439682 122.8968462  86.4998750
  75.6016771 124.1148097  86.8144986  80.5603365 118.0996929  91.5162759
  80.4761553 117.4922598  90.7813169  79.7386071 118.5905947  91.5172255
  90.7327078 116.5850492  86.8832954  91.2295778 115.8320455  86.5634024
  89.9614060 116.6214809  86.3176163  91.8156859 125.3422180  84.4571377
  90.8813138 125.4623642  84.2876082  91.9933528 124.4394646  84.1931387
  87.3162047 118.7267875  86.6104638  86.9459835 118.1738916  87.2985544
  87.8121140 118.1226009  86.0579638  95.2029410 121.1839499  84.9921411
  95.6689863 122.0167490  84.9181714  95.6536911 120.7184480  85.6966670
  93.1746073 113.5520086  89.0312313  92.2609153 113.7824313  89.1994520
  93.6039175 113.6358530  89.8826345  75.3336619 121.2907326  89.3595202
  75.3720718 120.7570916  90.1532320  74.8276911 120.7642531  88.7406179
  82.7127381 116.1371866  92.8557744  82.7768707 116.9986697  92.4435142
  82.6494501 115.5245868  92.1230103  78.9645196 120.0171428  82.4349134
  79.2598637 119.1082106  82.3816187  78.0633232 119.9959167  82.1130136
  82.4939443 118.0927424  88.4176682  81.7726029 118.7063392  88.2784155
  83.2832699 118.6285189  88.3393328  80.6933038 117.6985525  82.5588459
  80.3645744 116.8182904  82.3763565  81.0472408 117.6433194  83.4464848
  83.8074861 117.9858495  82.9263936  84.1470933 118.5144416  82.2042545
  84.2546981 118.3238901  83.7022503  86.5018302 116.3695546  92.3767004
  86.1615122 115.5703359  92.7787684  85.7957308 116.6697257  91.8043838
  87.1534773 113.4544858  90.8294327  87.9760843 112.9805337  90.7073218
  87.3972837 114.2335342  91.3293014  85.7943008 116.4833117  81.1257229
  86.5151370 116.8614370  80.6220946  85.1708312 117.2021994  81.2292207
  89.9374131 117.1878266  82.0615561  90.1537745 118.0702904  81.7604390
  89.4568198 116.7964479  81.3321203  84.6773352 120.1463979  88.6386306
  84.5317933 120.4604282  89.5310588  84.1998556 120.7648879  88.0857205
  86.5369735 117.1366527  88.6867196  86.5231304 116.2407620  88.3499494
  87.2542163 117.1437191  89.3205482  88.3895866 117.5703867  90.7320323
  88.1313644 118.4920938  90.7304654  87.8580906 117.1734302  91.4220787
  79.1519014 122.6869323  91.5773967  78.6072482 123.4629131  91.7094242
  80.0298364 123.0340128  91.4193089  85.9406631 116.0180907  83.9554766
  86.0622542 115.0897553  84.1545653  85.6508673 116.0319593  83.0433081
  88.8097821 113.7035818  87.0921486  88.8319518 113.7675151  86.1373465
  89.2265880 112.8640326  87.2861992  80.3841650 129.7004648  86.5014519
  81.2099670 129.4008420  86.1213162  80.0335702 128.9312271  86.9504307
  78.5850255 127.6190975  87.4603452  77.7482163 127.1913149  87.2787454
  78.5573900 127.8123418  88.3974244  84.9136690 127.6035040  82.0470653
  85.0624810 128.2870504  81.3937326  85.7203133 127.5840130  82.5620109
  82.6689323 123.6300218  83.0531722  82.4235365 122.7262548  83.2511932
  82.8385238 123.6317368  82.1111200  90.3586033 114.5023894  92.4356477
  90.8767977 115.2384921  92.1102966  90.0041166 114.8087887  93.2703237
  81.9384971 119.3628575  80.5517883  81.2454215 119.4372930  79.8957919
  81.6936722 118.5988919  81.0739400  90.6098627 110.9224176  87.9557374
  90.8900381 110.2547366  88.5817801  91.3949234 111.1153272  87.4432038
  88.7978894 121.4343983  76.8598453  89.7437999 121.3050191  76.9286871
  88.4193139 120.6958645  77.3367881  94.7700779 113.0999989  86.8225345
  94.5725600 112.7915077  87.7068677  95.3800484 113.8261628  86.9523275
  86.9821811 119.3593959  76.7953338  86.0753267 119.0627072  76.8716052
  87.2597792 119.0623778  75.9287624  77.8999752 120.6800323  87.2452384
  77.5802536 119.8265631  86.9526758  77.3533180 120.8948901  88.0010352
  81.6779659 123.3962764  90.9621891  81.8965669 124.3279872  90.9809925
  82.0905433 123.0370738  91.7476695  88.5983877 113.9030849  82.9497579
  87.7884605 113.5577934  83.3252825  89.2868294 113.5938393  83.5385191
  90.5274425 112.9808896  84.5721876  91.0805464 113.4004349  85.2311899
  90.7644512 112.0544644  84.6144832  85.7520596 116.2180895  76.9365317
  86.6139760 116.5435793  77.1961135  85.9370940 115.4312391  76.4238383
  77.7688012 124.3003234  89.2145506  77.0751483 123.8857187  88.7015460
  78.5161003 124.3423771  88.6178925  93.9053232 115.0909421  84.0800540
  93.3251901 115.7494225  83.6978593  93.6389165 114.2686766  83.6687958
  92.3556799 114.4914479  86.2821861  92.8556577 114.6031013  85.4736179
  92.9992407 114.1875532  86.9222669  79.6824754 124.2321488  87.0911521
  79.6595442 124.3309175  86.1393404  79.9925391 125.0786639  87.4128687
  92.6878110 117.2509512  83.1356889  91.8003965 117.5359162  82.9177083
  93.1032099 117.0903275  82.2884165  96.0392646 117.2756033  86.8511228
  96.8153037 117.7652485  87.1235845  95.3140781 117.7014087  87.3083097
  98.4765205 117.9883652  87.9085168  99.0709696 117.7479388  87.1978477
  98.5491789 117.2690782  88.5358705  92.6619134 122.7664047  83.3507179
  92.6054335 123.2232599  82.5114811  93.2147477 122.0054732  83.1730021
  96.4723940 118.5553779  84.1757298  96.2160874 118.1550415  85.0065506
  95.8476808 119.2697573  84.0507437  93.3953913 123.9568829  80.6459708
  93.3402717 123.7913100  79.7048152  92.7699969 124.6644862  80.8021898
  78.1846428 119.1936893  94.4721130  78.8305292 118.6835847  94.9608355
  77.9763579 119.9305575  95.0464555  86.7050039 113.4576938  80.2245026
  86.6928709 114.4018778  80.3813297  87.5973461 113.2747083  79.9304487
  90.5202158 110.0519714  84.4790963  89.7534554 109.4978201  84.6247645
  90.9312863 110.1241583  85.3405115  26.4936016   7.6725065  76.1003852
  27.1314426   7.5531813  75.3967192  26.3756859   8.6205909  76.1591804
  23.3025722   7.6252494  76.0365377  22.9644234   7.5093558  75.1485911
  24.1715491   7.2243659  76.0166383  19.1612538   9.4787970  72.0262268
  18.5977403   9.3877907  71.2578555  19.0464933   8.6587874  72.5064760
  23.7845505   8.7787345  81.9951582  23.7734146   8.3840144  81.1232086
  23.9466145   8.0453418  82.5885354  16.7076970  10.9739162  74.8646488
  17.4998262  10.6329986  74.4492787  16.9473620  11.0834137  75.7848641
  24.7412097  13.1458938  67.3376732  24.0900077  13.7313018  66.9510746
  25.5356460  13.6765133  67.3971770  18.6667724  10.2348075  67.7363867
  19.4398600   9.6877062  67.5976743  19.0193123  11.0992324  67.9478328
  20.5052767  11.5624457  80.9430766  20.2142632  12.4670088  80.8277432
  21.1409751  11.6040985  81.6574836  21.4308973   8.9401306  77.5332126
  22.0272546   8.7157328  76.8189089  21.4883945   8.1986051  78.1357574
  21.0034002   6.3940741  65.3682317  21.2559522   5.8722262  64.6065780
  20.0658561   6.2306886  65.4709000  26.0477285   5.3976519  73.1757060
  26.8340374   4.9795942  72.8247477  26.3115989   6.3022611  73.3438708
  26.2187362  10.8349370  67.8745717  25.5833195  10.9083996  68.5866621
  25.8884768  11.4242968  67.1964796  31.4485712   5.3351752  74.0790038
  32.1810884   4.7650969  74.3127868  30.6925067   4.9473353  74.5196544
  20.7230291   8.2968847  67.5706692  20.6066549   7.6213750  68.2387776
  20.8332550   7.8101221  66.7538845  23.0661831   7.7578994  71.2753381
  22.7020039   7.2309615  71.9866302  23.9228947   7.3677463  71.1019866
  28.9711132  -0.9526673  78.5384647  28.6394457  -0.0831262  78.3145862
  28.3756745  -1.2690389  79.2178677  22.7067318   2.7868894  66.2714729
  22.8741721   3.6549130  66.6385201  22.5164487   2.9496175  65.3476019
  25.4642652  11.2485873  77.9380560  25.1643375  12.1510911  77.8296367
  25.1193711  10.9818056  78.7901713  18.9155133   7.6999669  73.9717264
  17.9905630   7.5675884  74.1794956  19.1639546   8.4793889  74.4687207
  28.8639795   3.7668413  75.6177997  27.9556673   3.6983821  75.3236758
  28.8127391   4.2440358  76.4459823  22.6856539   5.2426551  67.2561396
  22.5656164   5.6883602  68.0946877  21.9909128   5.5911869  66.6974934
  16.2763944   7.3432943  74.8061053  16.4056325   7.5967422  75.7200465
  15.5961395   7.9360651  74.4865708  20.4463431  18.0130193  70.9051528
  20.3687461  18.9638018  70.9840008  19.8425075  17.6676065  71.5626454
  22.9380661   5.1858058  83.5612894  22.1613995   5.7451978  83.5515759
  23.5771224   5.6714841  84.0827765  30.7301442   1.9684851  77.3955871
  30.0875822   2.2617384  76.7495666  30.2256370   1.8537771  78.2009068
  28.3841605   5.7148024  68.0841730  29.2959462   5.9475411  67.9089428
  27.8751253   6.2985069  67.5216809  21.1927033   7.9943512  83.1230861
  21.9341718   8.5328556  82.8465685  20.4864019   8.6209800  83.2802413
  26.6682373  10.1372652  81.7203023  27.0765729   9.6955063  80.9757655
  25.9459635   9.5625280  81.9737216  23.0213443   5.0745259  79.0936580
  23.8674638   5.4984672  79.2371229  22.9612081   4.4178883  79.7875143
  26.9911188  10.6973843  75.4755312  26.3620050  10.8619557  74.7731380
  26.6036850  11.1115452  76.2466276  30.8700420  11.6328281  72.8299676
  30.1851458  12.0127182  72.2796709  30.9544269  12.2423607  73.5631623
  26.1712888   2.7349627  80.7517753  25.9273820   3.4891688  80.2152029
  26.4472819   3.1134975  81.5865001  28.1251351   9.2788240  79.4295019
  28.3368247   9.9220000  78.7529400  28.0781100   8.4450556  78.9616949
  25.7277580   1.8906060  76.3331591  24.8662059   2.1887314  76.6248329
  25.7540015   2.1076459  75.4012624  22.5439150  10.4348251  72.7405397
  23.0077495  10.7135954  71.9510019  22.2795948   9.5331695  72.5578488
  19.4363231   9.9819732  75.6785160  20.0064588  10.4107001  75.0402645
  20.0271343   9.7002317  76.3769346  21.4808036   6.5571403  69.5494962
  22.1832079   7.0092447  70.0168888  21.1488664   5.9155222  70.1774855
  19.9288397   5.1483160  83.9246171  19.2987058   5.8299441  84.1581568
  19.8224485   5.0366241  82.9799310  29.2397179  12.1560195  77.6017376
  30.0614623  11.7540382  77.3200058  29.2359582  12.0528429  78.5533492
  23.0053783  11.7044238  79.7578087  23.0698215  12.1664646  80.5936259
  22.2964707  11.0741603  79.8860397  37.3303172   8.4998944  73.9502348
  36.5766881   7.9306342  73.7946352  37.4650713   8.4661608  74.8972983
  22.7201800  13.3712346  69.6257067  22.5847475  14.2163882  70.0541915
  23.2611613  13.5731624  68.8623001  16.1731198  10.8887784  70.1984992
  16.6855718  11.6831034  70.3490557  16.8253911  10.1914074  70.1318594
  17.9826082  14.0053540  72.2807746  18.1592711  14.9271505  72.0928729
  18.7782916  13.6911959  72.7102125  24.3470277  13.9935912  83.7557409
  23.9034131  13.2072291  83.4378314  25.0087490  14.1815063  83.0901300
  19.1057398  15.5231714  78.2818088  19.6564823  15.3948777  77.5095082
  18.2668874  15.8226603  77.9312981  26.4451515  14.2738712  81.7838811
  26.4269990  15.0947593  81.2919080  27.3671435  14.1492788  82.0088952
  22.9024569  11.7882842  82.6262319  23.4352906  11.0271130  82.3961627
  22.3738650  11.4956494  83.3686473  26.0344547   6.8851519  66.6628396
  25.5191170   7.6556123  66.9016783  25.7621855   6.2116655  67.2861457
  31.0078821   9.6383873  68.5981569  30.2308264   9.2995033  68.1536731
  31.6870302   9.6436497  67.9236534  25.8230850   4.7578611  68.4888177
  25.5180985   5.0724760  69.3398320  26.7761292   4.8360031  68.5315510
  24.2677282  10.9168834  70.1381131  23.7398643  10.1821594  69.8254368
  23.7664784  11.6943511  69.8921099  29.2470128   9.1117855  75.2548177
  28.5893802   9.8017116  75.3428306  30.0510527   9.5014287  75.5982164
  28.0575586   7.4662227  73.3052119  28.5707468   8.0992219  73.8073829
  28.7076810   6.8663423  72.9395479  22.4129882   8.7349045  63.1416104
  21.5056944   8.5038298  63.3407253  22.9100914   7.9386664  63.3290086
  25.3197961  17.4446552  66.0612790  24.6459659  17.7478248  66.6697748
  25.7063783  18.2475632  65.7118247  24.5356417   4.9411683  75.5510460
  23.6178979   5.1626630  75.3932148  24.9516561   5.0157993  74.6922167
  25.3191465   6.3403099  70.6813140  26.0663284   6.8524496  70.3720262
  25.5883055   6.0187151  71.5417533  23.5918115   8.8361639  67.6640094
  22.6829335   8.5520672  67.7612564  23.6213199   9.2560718  66.8043401
  28.8237383  12.4468229  71.4331262  28.3699710  11.6059139  71.4896452
  28.1931349  13.0829627  71.7706042  27.7670302   3.3760215  72.6631929
  27.0293059   2.8637601  72.9942172  28.0197076   2.9360597  71.8515206
  27.2670322  14.2844726  72.3681080  27.5593296  14.8449783  71.6493445
  27.7768942  14.5773287  73.1234239  22.1403009   6.4490260  73.7649889
  22.1951619   5.4964096  73.6892366  21.3294211   6.6049699  74.2491188
  23.2894203  10.3770383  65.0028173  22.8513633   9.6606242  64.5433810
  24.0304644  10.6046498  64.4413264  20.0795369   5.0667320  71.5240268
  19.2663235   5.3661490  71.9305460  20.5754363   4.6723009  72.2414751
  22.2303947  15.0625077  73.4574533  22.1880126  15.2885923  72.5283065
  23.1466646  14.8288451  73.6060334  25.6769581   5.5309144  80.3555162
  26.0318969   5.7580617  81.2149628  26.3241712   5.8627521  79.7332418
  31.4067318   8.6527580  71.0604491  31.2685216   8.8429176  70.1325680
  31.0503537   9.4146963  71.5172542  31.4336697  10.7204107  76.0715763
  31.8673204  10.6279396  76.9198817  32.1468278  10.6961608  75.4335779
  20.3469748  11.9388106  73.2536496  21.1410346  11.4438426  73.0519071
  19.6361440  11.4105969  72.8904201  25.1664592  14.3206201  77.6048863
  25.2201615  14.8897138  78.3726579  24.2979374  14.4908086  77.2402900
  32.2952247  10.7627808  78.6048648  32.4888137  11.6673618  78.8507923
  32.1952865  10.3035227  79.4387233  27.3567356  10.9134551  84.1789529
  27.2052862  10.6845102  83.2619612  27.3472035  11.8705152  84.1920874
  24.1252692   8.4866463  79.1635795  25.0544752   8.6377623  78.9904763
  23.7043722   8.5750484  78.3084442  22.9241024  12.5117128  76.9334333
  22.7852110  12.1435912  77.8060271  22.1355620  13.0264767  76.7618291
  23.5189176  17.6126224  68.2759869  23.6940932  17.1414267  69.0905492
  22.8321964  18.2391990  68.5041130  24.4746239  11.8898730  74.3223171
  24.1396072  11.8499500  75.2180821  23.9750185  11.2243446  73.8493581
  18.4490483   7.2966360  79.8475752  18.3110281   6.5646599  80.4487291
  19.3595406   7.2075260  79.5659940  27.4105431   9.2354765  64.5960230
  26.7934601   8.5101593  64.4993283  26.9421919   9.9964125  64.2527305
  21.0772784   7.0086320  79.3359431  21.7872402   6.3679512  79.2946050
  21.0342092   7.2599215  80.2585612  29.0659562  13.9453673  82.2566011
  29.0072108  13.2612893  81.5896594  29.4679081  14.6872663  81.8046637
  18.0850261  20.7615587  75.0499730  18.3246859  21.3934111  75.7278748
  17.2419458  20.4103627  75.3365089  29.0676970  11.9093257  80.4879990
  28.1803748  11.5719179  80.6106389  29.6375521  11.1776288  80.7248756
  22.5978123  16.5694709  77.4541234  22.5248294  17.3749681  77.9660538
  22.1555516  16.7686675  76.6289255  22.3867903  15.8066479  70.9644055
  21.6035424  16.3488160  71.0582280  23.0860648  16.3240459  71.3638296
  25.6964553   1.6161109  73.6078260  26.1933252   0.8631071  73.2879331
  24.9251534   1.6525425  73.0421470  33.5494310   7.3201474  75.2496552
  33.5384186   8.2026190  74.8790485  32.6811690   6.9673025  75.0551089
  25.0576807  16.4681543  79.6099392  25.7704779  17.1029008  79.5375294
  24.5666835  16.5645409  78.7939394  26.7794333  10.3732796  71.1816684
  25.8450612  10.4934259  71.0121388  26.9571002   9.4705263  70.9176694
  22.2799521   3.7578492  73.3349945  21.9097309   3.2049532  74.0230851
  22.7758614   3.1536625  72.7824945  30.1666885   6.2150115  71.7166718
  30.6327337   7.0478107  71.6427021  30.6174385   5.7495097  72.4211976
  20.1088720  14.2175987  80.4304963  20.8098180  14.8512470  80.5834357
  19.6383835  14.5590718  79.6700602  28.2343116  12.5593937  68.7152870
  28.5102960  12.4450531  69.6246744  27.3647615  12.1611421  68.6765043
  27.9090006   6.7720594  78.2557513  27.2561456   7.0196502  77.6009966
  28.2870386   5.9584732  77.9219991  24.8697180  16.8080287  72.3585684
  25.0519574  15.9901943  72.8213436  25.6930166  17.0247980  71.9210574
  25.2039345  15.7348473  69.6200732  25.7327112  15.2240927  69.0070894
  25.4667565  15.4191003  70.4846265  23.9577579   7.5140405  84.7423550
  23.2818216   7.4134535  85.4125926  24.7805213   7.3579619  85.2059548
  15.7056438  13.7512342  77.3636066  16.2909875  13.0056030  77.4963970
  15.5081277  14.0616299  78.2472730  18.5595093  16.7863589  72.3798508
  17.8905469  17.2709717  71.8962548  18.4207963  17.0332810  73.2941887
  22.7000362  18.8207333  78.9781166  23.2518670  18.9838954  79.7430252
  23.0406555  19.4111771  78.3061191  27.5511236  13.6468590  84.8329821
  28.0951140  14.2598549  84.3384776  26.9698081  14.2048169  85.3496834
  25.8368749  16.7689308  75.9644849  25.7119889  15.9679048  75.4555794
  26.4947840  17.2635502  75.4758819  27.9003658  14.5698328  77.5924399
  26.9533993  14.4503680  77.5202725  28.2486431  13.6820826  77.6750660
  24.9050091  14.3651045  73.7928751  24.7575053  13.4367752  73.9736321
  25.7303584  14.3871135  73.3085826  28.5084213  15.1879603  74.8793624
  29.4330760  14.9822465  74.7418075  28.3399516  14.9396005  75.7882965
  24.9011605   2.2188882  68.7860868  25.1175220   3.1013520  68.4849696
  24.4205672   1.8275096  68.0566510  19.6410827   5.1774595  75.3631613
  19.4955407   5.4914899  76.2555894  19.1636030   5.7959496  74.8102511
  28.2979529  15.7065271  70.2355715  28.4716406  15.1411693  69.4829568
  28.7908420  16.5066166  70.0535205  34.1518920   8.4701694  71.8546015
  34.5950066   7.7209019  71.4565138  33.2745430   8.4611830  71.4719747
  29.2854701  15.0232035  67.3352613  29.9805606  15.6438728  67.5539928
  29.6277852  14.1727386  67.6104991  31.1846125  12.4731741  68.8639944
  31.7097449  12.8119013  68.1389264  31.0968477  11.5378756  68.6803079
  22.8466173  16.3865814  80.9929821  23.1553300  16.1414961  81.8652520
  23.6441655  16.5912453  80.5048691  22.8686785  18.5403724  73.2235197
  22.4291776  18.0480103  73.9168054  23.6194902  17.9976692  72.9827273
  15.3479124  14.7315265  73.2259825  16.1737144  14.4319037  72.8458469
  14.9973176  13.9622887  73.6749614  20.3160657  14.0841733  75.2957499
  19.6940667  13.4212438  74.9959727  20.9865524  14.1102865  74.6131147
  13.5487729  12.6501591  74.1848759  12.7119638  12.2223766  74.0032760
  13.5211375  12.8434035  75.1219550  30.8740031  13.1064644  84.1691142
  30.0835574  13.0888783  83.6295642  30.6373385  13.6452938  84.9240179
  30.9937906   9.9557111  81.4823871  31.0435911   9.7907118  82.4239393
  30.8851829   9.0884370  81.0921751  19.8774164  12.6345656  68.7715960
  20.0262285  13.3181121  68.1182632  20.6840608  12.6150747  69.2865415
  28.2841668   5.9388039  82.7983177  29.1851531   5.7994504  82.5067175
  28.3589643   6.1042494  83.7381355  22.6184473   3.3154894  81.6436364
  21.7487783   3.6088460  81.3718952  22.8543954   3.8995339  82.3643627
  32.4956102  12.3754052  81.7265892  32.2040911  12.7384033  82.5629353
  31.8828234  11.6621061  81.5479224  33.6951785   9.9406932  74.2468462
  34.5298676  10.3796736  74.4106023  33.8310914   9.4645585  73.4276708
  30.7443291   7.4986667  80.1945950  31.2197412   7.6914313  79.3864802
  29.8208856   7.5545853  79.9489334  17.6326797   8.6610834  69.7777028
  17.3872839   7.7573164  69.9757239  17.8022712   8.6627985  68.8356506
  23.3769570  15.1293787  66.2427707  22.8043537  15.7483974  65.7898179
  23.9502364  15.6793149  66.7767629  29.4444960   4.3752427  78.4274256
  30.3962383   4.4750525  78.4486480  29.2748410   3.5830696  78.9372340
  27.4659339   1.4608010  78.6133657  26.8709271   1.7413023  77.9180145
  27.1809036   1.9501911  79.3850398  26.5966830  15.4130937  67.3736289
  27.5297503  15.3476499  67.5769165  26.5090042  16.2487204  66.9150822
  29.2254846  14.7296807  64.3340237  29.1468478  14.3956671  65.2275995
  30.0464513  15.2218575  64.3331709  31.9233037   7.5958547  77.5416555
  31.8909358   6.6574547  77.7276239  32.5333661   7.6742583  76.8082380
  23.7616368   6.4654600  63.5843759  24.7075473   6.3360808  63.6532178
  23.3830613   5.7269262  64.0613188  32.0727526   4.3869590  77.5874839
  31.5566575   3.6028047  77.4004767  32.9567475   4.0588307  77.7521358
  29.7338253  -1.8689394  73.5470651  29.5363074  -2.1774306  74.4313983
  30.3437958  -1.1427755  73.6768581  37.7409587   8.6574554  76.6822592
  38.4712976   8.3959842  77.2430296  37.1316533   7.9203275  76.7224660
  35.8224884   6.7982416  77.2797043  35.0958048   6.6638381  76.6713535
  35.4072171   7.1059245  78.0853761  23.6455061  10.5172346  85.0444416
  24.5658070  10.6950945  85.2384463  23.6104644   9.5728391  84.8924116
  21.9459286   4.3904576  63.5198645  21.0390741   4.0937689  63.5961358
  22.2235267   4.0934394  62.6532931  16.6417133   8.4273380  77.6867198
  16.8603143   9.3590488  77.7055231  17.0542907   8.0681355  78.4722001
  28.8690707   0.1220038  70.8045847  28.2889376   0.7804842  70.4223899
  28.6026639  -0.7002618  70.3933264  27.3194273  -0.4774905  73.0067167
  27.8194051  -0.3658370  72.1981486  27.9629881  -0.7813852  73.6467976
  21.3776269   7.4303725  85.8935008  20.8943351   8.2304085  86.0998897
  21.4637208   7.4411670  84.9402452  14.6462228   9.2632105  73.8156828
  14.6232917   9.3619792  72.8638711  14.9562865  10.1097256  74.1373994
  17.3049606  11.3208260  77.9303442  18.2592860  11.2892202  77.8633374
  17.1062130  10.8598883  78.7453668  17.8948988   9.8909376  80.4974240
  18.7141877  10.3853454  80.5209077  18.1685796   8.9741344  80.4691807
  27.6515585   2.2820128  69.8602195  26.7641440   2.5669779  69.6422390
  28.0669574   2.1213891  69.0129472  31.0030121   2.3066649  73.5756534
  31.7790511   2.7963102  73.8481151  30.2778255   2.7324703  74.0328404
  33.4402679   3.0194268  74.6330475  34.0347170   2.7790004  73.9223783
  33.5129263   2.3001399  75.2604011  15.6599835  16.8627879  74.9473640
  15.5254303  16.1028280  74.3811638  15.2431897  17.5868779  74.4802429
  26.7958798  12.0464803  63.9550215  27.4994648  12.2514805  64.5707871
  26.0721447  12.6141565  64.2199299  27.6256608   7.7974664  70.0752485
  27.5691810   8.2543215  69.2360118  28.1784951   7.0365349  69.8975328
  31.4361414   3.5864396  70.9002605  31.1798349   3.1861032  71.7310813
  30.8114282   4.3008190  70.7752744  35.7473752   6.3260469  73.4073896
  35.1873310   6.3953658  74.1805458  35.1417256   6.1501454  72.6873392
  18.8168961  17.7597196  75.1592082  18.7001345  18.7042629  75.0570773
  17.9961407  17.4570758  75.5477882  28.7045496  12.4847332  66.0048675
  29.5391099  12.0528530  65.8226150  28.5429838  12.3129346  66.9325570
  28.3591388   8.9879445  67.3705015  28.3040191   8.8223717  66.4293459
  27.7337443   9.6955478  67.5267204  25.6737295  11.2928357  86.6958577
  26.5428454  11.4669009  86.3345212  25.1944046  12.1122774  86.5734307
  19.8423475  18.4125458  78.3748011  20.7450722  18.4449068  78.6914506
  19.6160845  17.4825909  78.3894347  21.5977077  17.1656445  75.0358090
  20.6472708  17.1658306  74.9222462  21.9009563  16.4189179  74.5194124
  34.6239260  24.1079263  81.9951582  34.6127901  23.7132061  81.1232086
  34.7859899  23.3745336  82.5885354  27.5470725  26.3031079  74.8646488
  28.3392016  25.9621904  74.4492787  27.7867375  26.4126054  75.7848641
  31.3446521  26.8916375  80.9430766  31.0536387  27.7962006  80.8277432
  31.9803505  26.9332902  81.6574836  32.2702728  24.2693223  77.5332126
  32.8666300  24.0449246  76.8189089  32.3277699  23.5277969  78.1357574
  42.2879466  20.6643670  74.0790038  43.0204638  20.0942887  74.3127868
  41.5318822  20.2765271  74.5196544  39.8104887  14.3765244  78.5384647
  39.4788211  15.2460655  78.3145862  39.2150500  14.0601528  79.2178677
  29.7548888  23.0291587  73.9717264  28.8299384  22.8967801  74.1794956
  30.0033301  23.8085806  74.4687207  39.7033550  19.0960330  75.6177997
  38.7950427  19.0275739  75.3236758  39.6521146  19.5732275  76.4459823
  27.1157699  22.6724861  74.8061053  27.2450080  22.9259340  75.7200465
  26.4355150  23.2652569  74.4865708  33.7774416  20.5149976  83.5612894
  33.0007750  21.0743896  83.5515759  34.4164979  21.0006759  84.0827765
  41.5695196  17.2976769  77.3955871  40.9269577  17.5909302  76.7495666
  41.0650125  17.1829689  78.2009068  32.0320788  23.3235429  83.1230861
  32.7735472  23.8620473  82.8465685  31.3257773  23.9501718  83.2802413
  37.5076128  25.4664570  81.7203023  37.9159484  25.0246980  80.9757655
  36.7853389  24.8917197  81.9737216  33.8607198  20.4037177  79.0936580
  34.7068393  20.8276590  79.2371229  33.8005835  19.7470801  79.7875143
  37.0106643  18.0641545  80.7517753  36.7667575  18.8183605  80.2152029
  37.2866573  18.4426893  81.5865001  38.9645106  24.6080157  79.4295019
  39.1762001  25.2511917  78.7529400  38.9174854  23.7742474  78.9616949
  36.5671335  17.2197978  76.3331591  35.7055814  17.5179232  76.6248329
  36.5933769  17.4368377  75.4012624  30.2756985  25.3111650  75.6785160
  30.8458342  25.7398918  75.0402645  30.8665097  25.0294235  76.3769346
  30.7682152  20.4775078  83.9246171  30.1380812  21.1591358  84.1581568
  30.6618240  20.3658159  82.9799310  26.0627124  20.1446874  74.8512096
  25.2726178  20.4004402  74.3752206  26.5538372  20.9595211  74.9564136
  28.0141870  20.5091453  71.8095572  27.2173033  20.6210147  72.3279068
  27.7867462  20.8478105  70.9436463  33.8447537  27.0336156  79.7578087
  33.9091970  27.4956563  80.5936259  33.1358461  26.4033521  79.8860397
  24.3464827  20.3977364  77.2827086  24.5972866  21.2824374  77.5484662
  24.8824376  20.2181966  76.5102178  30.0462894  14.7795843  86.2871422
  29.6529840  14.2262042  86.9619067  30.8629035  15.0906422  86.6777940
  27.0124952  26.2179702  70.1984992  27.5249473  27.0122952  70.3490557
  27.6647665  25.5205992  70.1318594  32.9630855  16.1953722  83.8791679
  33.7040569  16.7960876  83.7996142  33.1948778  15.4531360  83.3209722
  28.1072193  21.3810090  82.1569909  27.9925709  20.4795347  82.4577008
  27.2516711  21.6273786  81.8054725  35.1864031  29.3227830  83.7557409
  34.7427885  28.5364209  83.4378314  35.8481245  29.5106981  83.0901300
  37.2845269  29.6030630  81.7838811  37.2663745  30.4239511  81.2919080
  38.2065189  29.4784705  82.0088952  33.7418323  27.1174759  82.6262319
  34.2746660  26.3563048  82.3961627  33.2132405  26.8248411  83.3686473
  36.9088018  12.2234825  78.1555961  36.5652288  13.1136467  78.0795071
  37.2766981  12.0336483  77.2925546  24.9773869  24.5468356  70.9744563
  25.8149091  24.9565364  70.7578271  25.1552137  23.6067798  70.9444757
  35.9884559  14.5939481  76.1205194  35.4849354  14.5569616  75.3072999
  36.2815166  15.5032223  76.1801851  32.2327445  14.6778210  75.1271376
  33.0980441  14.4821019  74.7677265  32.3004954  14.4488562  76.0540732
  29.8389764  16.9080418  72.4987743  30.4133516  16.6855600  71.7660935
  30.4260746  16.9769113  73.2516344  30.1659351  18.9384879  66.5183628
  29.3296663  19.2759566  66.8392902  30.0264120  18.8033859  65.5810765
  32.1412431  13.7821667  71.2262812  31.4876844  13.4670684  70.6019427
  32.0992906  13.1597408  71.9522635  38.7075684  11.4828385  73.2573698
  39.0134561  10.6225748  72.9699613  39.4328289  12.0746005  73.0572692
  25.0000040  21.8859071  71.6455296  24.8024440  21.2928432  70.9206363
  24.4446704  21.5811281  72.3631235  30.9189124  20.3959237  71.5240268
  30.1056989  20.6953408  71.9305460  31.4148118  20.0014926  72.2414751
  36.5163335  20.8601062  80.3555162  36.8712723  21.0872535  81.2149628
  37.1635467  21.1919439  79.7332418  30.4103198  17.9677593  77.1401503
  31.0502578  17.8266352  76.4424467  29.5780729  17.6812106  76.7640105
  31.1863502  27.2680023  73.2536496  31.9804101  26.7730343  73.0519071
  30.4755195  26.7397886  72.8904201  27.4946266  21.4123105  69.3296248
  26.5643854  21.3507561  69.5466211  27.5903738  20.8899058  68.5332890
  27.4131815  17.9377918  71.9174490  27.6738632  18.8523251  71.8083651
  28.2348987  17.4702360  72.0671103  28.8856740  19.3515675  79.0873315
  29.5579794  19.1433037  78.4385964  28.0586527  19.1537761  78.6478547
  34.7882312  15.9777616  81.1038975  34.1410227  16.6767566  81.0103452
  35.5583328  16.4113760  81.4715224  38.1961110  26.2426468  84.1789529
  38.0446617  26.0137020  83.2619612  38.1865790  27.1997070  84.1920874
  34.9646447  23.8158381  79.1635795  35.8938507  23.9669541  78.9904763
  34.5437477  23.9042402  78.3084442  29.2884237  22.6258278  79.8475752
  29.1504035  21.8938517  80.4487291  30.1989161  22.5367178  79.5659940
  31.9166538  22.3378237  79.3359431  32.6266157  21.6971430  79.2946050
  31.8735846  22.5891132  80.2585612  39.9053317  29.2745591  82.2566011
  39.8465863  28.5904811  81.5896594  40.3072835  30.0164581  81.8046637
  30.6295472  19.3243455  81.1555071  30.0932829  18.8734194  81.8076667
  30.0412181  19.4589364  80.4125535  30.0397731  18.7832107  63.7181535
  29.1627197  18.6620907  63.3543781  30.5155484  17.9918185  63.4660423
  39.9070724  27.2385175  80.4879990  39.0197503  26.9011096  80.6106389
  40.4769275  26.5068206  80.7248756  21.5599871  23.5709266  73.8123042
  22.2470911  23.2570996  73.2244057  21.4048000  24.4750631  73.5390293
  26.3634593  18.4599463  78.2408065  26.2792782  17.8525133  77.5058475
  25.5417300  18.9508481  78.2417562  44.3888065  22.6493392  75.2496552
  44.3777941  23.5318107  74.8790485  43.5205444  22.2964943  75.0551089
  41.0060639  21.5442033  71.7166718  41.4721091  22.3770025  71.6427021
  41.4568140  21.0787015  72.4211976  30.9482475  29.5467905  80.4304963
  31.6491934  30.1804387  80.5834357  30.4777590  29.8882636  79.6700602
  38.9777302  13.9122620  75.7557619  38.0640382  14.1426847  75.9239826
  39.4070403  13.9961064  76.6071652  38.7483760  22.1012512  78.2557513
  38.0955211  22.3488419  77.6009966  39.1264140  21.2876650  77.9219991
  34.7971334  22.8432323  84.7423550  34.1211971  22.7426452  85.4125926
  35.6198967  22.6871537  85.2059548  26.5450193  29.0804260  77.3636066
  27.1303629  28.3347947  77.4963970  26.3475031  29.3908216  78.2472730
  21.1367847  21.6509860  76.0840509  21.1751947  21.1173450  76.8777627
  20.6308140  21.1245065  75.4651486  28.5158610  16.4974400  79.5803051
  28.5799936  17.3589231  79.1680449  28.4525730  15.8848402  78.8475410
  27.9910882  18.5697533  83.2276085  28.6182921  18.1874610  83.8413610
  27.1338801  18.3511735  83.5931778  38.3904991  28.9760508  84.8329821
  38.9344895  29.5890466  84.3384776  37.8091836  29.5340086  85.3496834
  24.7676425  20.3773962  69.1594440  25.0629866  19.4684640  69.1061494
  23.8664461  20.3561701  68.8375443  28.2970672  18.4529958  75.1421989
  27.5757258  19.0665926  75.0029462  29.0863928  18.9887723  75.0638635
  31.0996985  15.7884385  81.4162641  31.6231387  16.0346682  82.1788950
  30.8809319  16.6204420  80.9965778  26.4964266  18.0588060  69.2833765
  26.1676973  17.1785439  69.1008871  26.8503637  18.0035728  70.1710155
  29.6106090  18.3461029  69.6509243  29.9502162  18.8746951  68.9287851
  30.0578210  18.6841436  70.4267810  32.3049530  16.7298080  79.1012311
  31.9646351  15.9305893  79.5032991  31.5988537  17.0299791  78.5289144
  32.9566002  13.8147393  77.5539634  33.7792072  13.3407871  77.4318524
  33.2004066  14.5937876  78.0538320  31.5974237  16.8435651  67.8502536
  32.3182599  17.2216904  67.3466253  30.9739541  17.5624528  67.9537514
  30.4804581  20.5066513  75.3631613  30.3349162  20.8206816  76.2555894
  30.0029785  21.1251413  74.8102511  32.3400964  17.4969061  75.4112502
  32.3262533  16.6010154  75.0744800  33.0573392  17.5039725  76.0450788
  34.1927095  17.9306401  77.4565630  33.9344872  18.8523472  77.4549960
  33.6612135  17.5336836  78.1466094  24.9550243  23.0471858  78.3019274
  24.4103711  23.8231666  78.4339548  25.8329593  23.3942662  78.1438395
  31.7437860  16.3783441  70.6800072  31.8653771  15.4500088  70.8790960
  31.4539902  16.3922127  69.7678388  34.6129050  14.0638352  73.8166792
  34.6350747  14.1277685  72.8618772  35.0297109  13.2242861  74.0107298
  25.7416265  22.1741754  81.1949431  24.9998001  22.3224389  81.7814061
  25.4209009  22.4350019  80.3316180  33.6859928  31.7157732  80.9929821
  33.9947054  31.4706879  81.8652520  34.4835410  31.9204371  80.5048691
  26.1872879  30.0607183  73.2259825  27.0130899  29.7610954  72.8458469
  25.8366931  29.2914805  73.6749614  24.3881484  27.9793509  74.1848759
  23.5513392  27.5515683  74.0032760  24.3605129  28.1725952  75.1219550
  31.2278939  17.8915439  84.8890005  31.2767095  18.7677562  84.5067775
  31.7701454  17.3492832  84.3161648  41.7133785  28.4356562  84.1691142
  40.9229329  28.4180701  83.6295642  41.4767140  28.9744856  84.9240179
  41.8331660  25.2849028  81.4823871  41.8829665  25.1199036  82.4239393
  41.7245583  24.4176287  81.0921751  39.1235423  21.2679956  82.7983177
  40.0245285  21.1286421  82.5067175  39.1983397  21.4334411  83.7381355
  33.4578228  18.6446811  81.6436364  32.5881537  18.9380377  81.3718952
  33.6937708  19.2287256  82.3643627  41.5837045  22.8278585  80.1945950
  42.0591167  23.0206231  79.3864802  40.6602611  22.8837770  79.9489334
  36.1617262  14.8626428  79.1601784  36.6799206  15.5987455  78.8348273
  35.8072394  15.1690421  79.9948543  27.7416199  19.7231109  67.2763190
  27.0485444  19.7975464  66.6203226  27.4967951  18.9591453  67.7984707
  36.4129856  11.2826711  74.6802681  36.6931610  10.6149900  75.3063107
  37.1980463  11.4755806  74.1677345  40.2838714  19.7044345  78.4274256
  41.2356137  19.8042442  78.4486480  40.1142165  18.9122613  78.9372340
  38.3053094  16.7899928  78.6133657  37.7103026  17.0704941  77.9180145
  38.0202790  17.2793829  79.3850398  42.7626792  22.9250464  77.5416555
  42.7303112  21.9866465  77.7276239  43.3727416  23.0034501  76.8082380
  42.9121280  19.7161508  77.5874839  42.3960329  18.9319964  77.4004767
  43.7961229  19.3880224  77.7521358  40.5732007  13.4602523  73.5470651
  40.3756829  13.1517612  74.4313983  41.1831713  14.1864162  73.6768581
  46.6618639  22.1274334  77.2797043  45.9351803  21.9930299  76.6713535
  46.2465926  22.4351162  78.0853761  34.4848815  25.8464263  85.0444416
  35.4051825  26.0242862  85.2384463  34.4498398  24.9020309  84.8924116
  23.7030980  21.0402857  73.9697691  23.3833765  20.1868165  73.6772065
  23.1564409  21.2551435  74.7255658  27.4810888  23.7565298  77.6867198
  27.6996898  24.6882406  77.7055231  27.8936662  23.3973273  78.4722001
  34.4015106  14.2633383  69.6742886  33.5915834  13.9180468  70.0498132
  35.0899523  13.9540927  70.2630498  36.3305654  13.3411430  71.2967183
  36.8836693  13.7606884  71.9557206  36.5675740  12.4147178  71.3390139
  32.3538753  19.3298504  87.0769947  32.2535480  20.2792861  87.0082038
  32.1360295  19.0016743  86.2046017  31.5551825  16.5783429  63.6610624
  32.4170989  16.9038327  63.9206441  31.7402169  15.7914925  63.1483690
  23.5719240  24.6605769  75.9390813  22.8782712  24.2459721  75.4260767
  24.3192231  24.7026305  75.3424232  39.7084461  15.4511955  70.8045847
  39.1283130  16.1096759  70.4223899  39.4420394  14.6289300  70.3933264
  38.1588027  14.8517013  73.0067167  38.6587806  14.9633548  72.1981486
  38.8023635  14.5478066  73.6467976  32.2170023  22.7595643  85.8935008
  31.7337105  23.5596003  86.0998897  32.3030962  22.7703588  84.9402452
  25.4855983  24.5924022  73.8156828  25.4626671  24.6911710  72.8638711
  25.7956619  25.4389173  74.1373994  28.1443361  26.6500177  77.9303442
  29.0986614  26.6184120  77.8633374  27.9455884  26.1890801  78.7453668
  28.7342743  25.2201293  80.4974240  29.5535632  25.7145372  80.5209077
  29.0079551  24.3033262  80.4691807  41.8423875  17.6358567  73.5756534
  42.6184265  18.1255019  73.8481151  41.1172009  18.0616621  74.0328404
  44.2796434  18.3486186  74.6330475  44.8740925  18.1081922  73.9223783
  44.3523018  17.6293317  75.2604011  42.2755169  18.9156314  70.9002605
  42.0192103  18.5152949  71.7310813  41.6508037  19.6300108  70.7752744
  23.9877657  19.5539427  81.1966437  24.6336521  19.0438381  81.6853662
  23.7794808  20.2908109  81.7709862  36.5131049  26.6220275  86.6958577
  37.3822209  26.7960927  86.3345212  36.0337801  27.4414692  86.5734307
  32.5081268  13.8179472  66.9490333  32.4959937  14.7621312  67.1058604
  33.4004690  13.6349617  66.6549794  36.3233387  10.4122249  71.2036270
  35.5565783   9.8580735  71.3492952  36.7344092  10.4844117  72.0650421
  28.3275148  16.7007044  85.2941451  29.1906610  16.3443849  85.5044776
  27.7540559  16.3620939  85.9816855  40.8856649  30.1087761  86.2871422
  40.4923594  29.5553960  86.9619067  41.7022789  30.4198340  86.6777940
  42.0672694  33.2207356  84.8890005  42.1160849  34.0969479  84.5067775
  42.6095208  32.6784750  84.3161648  43.1932508  34.6590422  87.0769947
  43.0929235  35.6084779  87.0082038  42.9754050  34.3308660  86.2046017
  39.1668903  32.0298962  85.2941451  40.0300364  31.6735767  85.5044776
  38.5934313  31.6912857  85.9816855  56.3026769  54.7663098  81.9951582
  56.2915410  54.3715897  81.1232086  56.4647408  54.0329171  82.5885354
  53.0234030  57.5500210  80.9430766  52.7323896  58.4545841  80.8277432
  53.6591014  57.5916738  81.6574836  55.4561925  51.1733811  83.5612894
  54.6795259  51.7327731  83.5515759  56.0952488  51.6590594  84.0827765
  63.2482705  47.9560604  77.3955871  62.6057086  48.2493137  76.7495666
  62.7437634  47.8413524  78.2009068  53.7108297  53.9819265  83.1230861
  54.4522981  54.5204309  82.8465685  53.0045282  54.6085553  83.2802413
  59.1863637  56.1248405  81.7203023  59.5946993  55.6830816  80.9757655
  58.4640898  55.5501033  81.9737216  58.6894152  48.7225380  80.7517753
  58.4455084  49.4767441  80.2152029  58.9654082  49.1010728  81.5865001
  52.4469661  51.1358913  83.9246171  51.8168321  51.8175194  84.1581568
  52.3405749  51.0241994  82.9799310  56.8651540  59.9811665  83.7557409
  56.4215394  59.1948044  83.4378314  57.5268754  60.1690816  83.0901300
  58.9632778  60.2614465  81.7838811  58.9451254  61.0823346  81.2919080
  59.8852698  60.1368541  82.0088952  55.4205832  57.7758595  82.6262319
  55.9534169  57.0146883  82.3961627  54.8919913  57.4832247  83.3686473
  64.8133510  56.7503561  78.6048648  65.0069401  57.6549371  78.8507923
  64.7134129  56.2910980  79.4387233  59.8748619  56.9010304  84.1789529
  59.7234126  56.6720855  83.2619612  59.8653299  57.8580905  84.1920874
  61.5840826  59.9329426  82.2566011  61.5253372  59.2488646  81.5896594
  61.9860344  60.6748416  81.8046637  50.6031525  66.7491340  75.0499730
  50.8428123  67.3809864  75.7278748  49.7600721  66.3979380  75.3365089
  61.5858233  57.8969010  80.4879990  60.6985012  57.5594932  80.6106389
  62.1556784  57.1652041  80.7248756  43.2387380  54.2293102  73.8123042
  43.9258420  53.9154832  73.2244057  43.0835509  55.1334466  73.5390293
  57.5758070  62.4557296  79.6099392  58.2886042  63.0904761  79.5375294
  57.0848099  62.5521162  78.7939394  52.6269984  60.2051740  80.4304963
  53.3279443  60.8388223  80.5834357  52.1565098  60.5466471  79.6700602
  56.4758842  53.5016158  84.7423550  55.7999480  53.4010288  85.4125926
  57.2986476  53.3455372  85.2059548  48.2237702  59.7388095  77.3636066
  48.8091138  58.9931783  77.4963970  48.0262540  60.0492052  78.2472730
  51.0776357  62.7739342  72.3798508  50.4086732  63.2585470  71.8962548
  50.9389226  63.0208563  73.2941887  60.0692500  59.6344343  84.8329821
  60.6132404  60.2474302  84.3384776  59.4879345  60.1923922  85.3496834
  60.4184921  60.5574081  77.5924399  59.4715257  60.4379433  77.5202725
  60.7667694  59.6696579  77.6750660  55.3647437  62.3741567  80.9929821
  55.6734563  62.1290714  81.8652520  56.1622919  62.5788206  80.5048691
  47.8660388  60.7191018  73.2259825  48.6918408  60.4194790  72.8458469
  47.5154440  59.9498640  73.6749614  46.0668993  58.6377344  74.1848759
  45.2300901  58.2099519  74.0032760  46.0392638  58.8309788  75.1219550
  63.3921294  59.0940397  84.1691142  62.6016838  59.0764536  83.6295642
  63.1554649  59.6328691  84.9240179  63.5119169  55.9432864  81.4823871
  63.5617174  55.7782871  82.4239393  63.4033092  55.0760123  81.0921751
  60.8022932  51.9263792  82.7983177  61.7032794  51.7870257  82.5067175
  60.8770906  52.0918247  83.7381355  65.0137366  58.3629805  81.7265892
  64.7222174  58.7259786  82.5629353  64.4009497  57.6496814  81.5479224
  63.2624554  53.4862420  80.1945950  63.7378676  53.6790066  79.3864802
  62.3390120  53.5421606  79.9489334  55.8950833  61.1169540  66.2427707
  55.3224800  61.7359727  65.7898179  56.4683627  61.6668902  66.7767629
  61.9626223  50.3628180  78.4274256  62.9143646  50.4626278  78.4486480
  61.7929674  49.5706449  78.9372340  64.4414301  53.5834300  77.5416555
  64.4090621  52.6450300  77.7276239  65.0514925  53.6618336  76.8082380
  64.5908789  50.3745343  77.5874839  64.0747838  49.5903800  77.4004767
  65.4748738  50.0464060  77.7521358  56.1636324  56.5048099  85.0444416
  57.0839334  56.6826698  85.2384463  56.1285907  55.5604144  84.8924116
  54.0326262  49.9882339  87.0769947  53.9322989  50.9376696  87.0082038
  53.8147804  49.6600578  86.2046017  53.8957532  53.4179478  85.8935008
  53.4124614  54.2179838  86.0998897  53.9818471  53.4287423  84.9402452
  47.1643492  55.2507858  73.8156828  47.1414180  55.3495545  72.8638711
  47.4744128  56.0973009  74.1373994  49.8230870  57.3084013  77.9303442
  50.7774123  57.2767955  77.8633374  49.6243393  56.8474637  78.7453668
  65.9583943  49.0070021  74.6330475  66.5528434  48.7665757  73.9223783
  66.0310527  48.2877152  75.2604011  58.1918558  57.2804110  86.6958577
  59.0609718  57.4544762  86.3345212  57.7125310  58.0998527  86.5734307
  56.8646091  66.3853117  77.2827086  57.1154129  67.2700127  77.5484662
  57.4005639  66.2057719  76.5102178  62.5644158  60.7671596  86.2871422
  62.1711103  60.2137795  86.9619067  63.3810298  61.0782175  86.6777940
  65.4812119  62.1829476  83.8791679  66.2221832  62.7836629  83.7996142
  65.7130042  61.4407113  83.3209722  53.6549111  67.6385613  76.0840509
  53.6933210  67.1049203  76.8777627  53.1489404  67.1120818  75.4651486
  61.0339873  62.4850153  79.5803051  61.0981200  63.3464984  79.1680449
  60.9706993  61.8724155  78.8475410  60.5092146  64.5573286  83.2276085
  61.1364184  64.1750363  83.8413610  59.6520064  64.3387488  83.5931778
  63.6178249  61.7760138  81.4162641  64.1412651  62.0222435  82.1788950
  63.3990582  62.6080173  80.9965778  63.7460203  63.8791192  84.8890005
  63.7948358  64.7553315  84.5067775  64.2882717  63.3368585  84.3161648
  64.8720017  65.3174257  87.0769947  64.7716744  66.2668614  87.0082038
  64.6541559  64.9892496  86.2046017  56.5058921  65.5415180  81.1966437
  57.1517784  65.0314134  81.6853662  56.2976072  66.2783862  81.7709862
  60.8456412  62.6882797  85.2941451  61.7087873  62.3319602  85.5044776
  60.2721822  62.3496692  85.9816855  91.5271945  85.1458532  73.9502348
  90.7735653  84.5765930  73.7946352  91.6619486  85.1121196  74.8972983
  76.3205873  77.5121393  83.8791679  77.0615587  78.1128546  83.7996142
  76.5523796  76.7699031  83.3209722  83.0206155  89.0927817  71.4331262
  82.5668482  88.2518727  71.4896452  82.3900122  89.7289216  71.7706042
  81.4639094  90.9304314  72.3681080  81.7562069  91.4909371  71.6493445
  81.9737715  91.2232875  73.1234239  79.3633365  90.9665790  77.6048863
  79.4170387  91.5356726  78.3726579  78.4948146  91.1367675  77.2402900
  78.1546351  84.1599994  84.7423550  77.4786988  84.0594123  85.4125926
  78.9773985  84.0039207  85.2059548  82.4948301  92.3524859  70.2355715
  82.6685179  91.7871282  69.4829568  82.9877193  93.1525754  70.0535205
  83.4823474  91.6691624  67.3352613  84.1774378  92.2898316  67.5539928
  83.8246624  90.8186975  67.6104991  85.3814897  89.1191329  68.8639944
  85.9066221  89.4578602  68.1389264  85.2937250  88.1838344  68.6803079
  74.5853957  79.2083110  84.8890005  74.6342113  80.0845232  84.5067775
  75.1276472  78.6660503  84.3161648  85.0708803  89.7524233  84.1691142
  84.2804347  89.7348372  83.6295642  84.8342158  90.2912526  84.9240179
  86.6924875  89.0213641  81.7265892  86.4009683  89.3843621  82.5629353
  86.0797006  88.3080649  81.5479224  91.9378360  85.3034142  76.6822592
  92.6681748  85.0419430  77.2430296  91.3285305  84.5662864  76.7224660
  90.0193657  83.4442004  77.2797043  89.2926820  83.3097969  76.6713535
  89.6040944  83.7518833  78.0853761  75.7113771  80.6466175  87.0769947
  75.6110498  81.5960532  87.0082038  75.4935313  80.3184413  86.2046017
  75.5745041  84.0763313  85.8935008  75.0912123  84.8763674  86.0998897
  75.6605980  84.0871258  84.9402452  79.8706067  87.9387946  86.6958577
  80.7397227  88.1128598  86.3345212  79.3912819  88.7582362  86.5734307
  91.5298543  99.6476571  76.1003852  92.1676953  99.5283319  75.3967192
  91.4119386 100.5957415  76.1591804  88.8208032 100.7538851  81.9951582
  88.8096673 100.3591650  81.1232086  88.9828672 100.0204924  82.5885354
  89.7774624 105.1210444  67.3376732  89.1262603 105.7064524  66.9510746
  90.5718987 105.6516639  67.3971770  85.5415293 103.5375963  80.9430766
  85.2505159 104.4421594  80.8277432  86.1772278 103.5792491  81.6574836
  86.4671500 100.9152812  77.5332126  87.0635073 100.6908834  76.8189089
  86.5246472 100.1737557  78.1357574  91.0839812  97.3728025  73.1757060
  91.8702901  96.9547448  72.8247477  91.3478516  98.2774117  73.3438708
  91.2549889 102.8100876  67.8745717  90.6195722 102.8835502  68.5866621
  90.9247295 103.3994474  67.1964796  96.4848239  97.3103259  74.0790038
  97.2173411  96.7402475  74.3127868  95.7287594  96.9224859  74.5196544
  94.0073659  91.0224833  78.5384647  93.6756984  91.8920244  78.3145862
  93.4119272  90.7061117  79.2178677  87.7429845  94.7620400  66.2714729
  87.9104248  95.6300636  66.6385201  87.5527014  94.9247681  65.3476019
  90.5005179 103.2237379  77.9380560  90.2005902 104.1262417  77.8296367
  90.1556238 102.9569562  78.7901713  93.9002322  95.7419919  75.6177997
  92.9919200  95.6735327  75.3236758  93.8489918  96.2191864  76.4459823
  87.7219066  97.2178057  67.2561396  87.6018691  97.6635108  68.0946877
  87.0271655  97.5663375  66.6974934  85.4825958 109.9881699  70.9051528
  85.4049988 110.9389524  70.9840008  84.8787602 109.6427571  71.5626454
  87.9743188  97.1609564  83.5612894  87.1976522  97.7203485  83.5515759
  88.6133751  97.6466347  84.0827765  95.7663969  93.9436357  77.3955871
  95.1238349  94.2368890  76.7495666  95.2618897  93.8289278  78.2009068
  93.4204132  97.6899530  68.0841730  94.3321989  97.9226917  67.9089428
  92.9113779  98.2736575  67.5216809  86.2289560  99.9695018  83.1230861
  86.9704245 100.5080062  82.8465685  85.5226546 100.5961306  83.2802413
  91.7044900 102.1124158  81.7203023  92.1128256 101.6706569  80.9757655
  90.9822162 101.5376786  81.9737216  88.0575970  97.0496765  79.0936580
  88.9037165  97.4736179  79.2371229  87.9974608  96.3930389  79.7875143
  92.0273715 102.6725349  75.4755312  91.3982577 102.8371063  74.7731380
  91.6399377 103.0866958  76.2466276  95.9062947 103.6079787  72.8299676
  95.2213985 103.9878688  72.2796709  95.9906796 104.2175113  73.5631623
  91.2075415  94.7101133  80.7517753  90.9636347  95.4643194  80.2152029
  91.4835346  95.0886481  81.5865001  93.1613878 101.2539746  79.4295019
  93.3730773 101.8971506  78.7529400  93.1143626 100.4202062  78.9616949
  90.7640107  93.8657566  76.3331591  89.9024586  94.1638820  76.6248329
  90.7902542  94.0827965  75.4012624  84.9650924  97.1234666  83.9246171
  84.3349585  97.8050947  84.1581568  84.8587012  97.0117748  82.9799310
  94.2759706 104.1311701  77.6017376  95.0977150 103.7291888  77.3200058
  94.2722109 104.0279935  78.5533492  88.0416310 103.6795744  79.7578087
  88.1060742 104.1416152  80.5936259  87.3327233 103.0493109  79.8860397
 102.3665699 100.4750450  73.9502348 101.6129408  99.9057848  73.7946352
 102.5013240 100.4413114  74.8972983  87.7564327 105.3463852  69.6257067
  87.6210002 106.1915388  70.0541915  88.2974140 105.5483130  68.8623001
  84.2431667  91.4255432  86.2871422  83.8498612  90.8721630  86.9619067
  85.0597807  91.7366010  86.6777940  83.0188609 105.9805046  72.2807746
  83.1955238 106.9023011  72.0928729  83.8145443 105.6663465  72.7102125
  87.1599628  92.8413311  83.8791679  87.9009341  93.4420464  83.7996142
  87.3917551  92.0990949  83.3209722  82.3040966  98.0269678  82.1569909
  82.1894481  97.1254935  82.4577008  81.4485484  98.2733375  81.8054725
  89.3832804 105.9687418  83.7557409  88.9396658 105.1823797  83.4378314
  90.0450017 106.1566569  83.0901300  84.1419925 107.4983220  78.2818088
  84.6927350 107.3700283  77.5095082  83.3031401 107.7978109  77.9312981
  91.4814042 106.2490218  81.7838811  91.4632517 107.0699099  81.2919080
  92.4033962 106.1244294  82.0088952  87.9387096 103.7634348  82.6262319
  88.4715433 103.0022636  82.3961627  87.4101177 103.4708000  83.3686473
  91.1056791  88.8694414  78.1555961  90.7621060  89.7596055  78.0795071
  91.4735753  88.6796071  77.2925546  91.0707074  98.8603025  66.6628396
  90.5553697  99.6307630  66.9016783  90.7984382  98.1868161  67.2861457
  88.6554185  93.7052726  71.7213634  87.7995781  93.3159576  71.5419273
  89.0681136  93.7844686  70.8613420  90.1853331  91.2399069  76.1205194
  89.6818127  91.2029204  75.3072999  90.4783938  92.1491812  76.1801851
  86.4296217  91.3237799  75.1271376  87.2949214  91.1280607  74.7677265
  86.4973726  91.0948150  76.0540732  96.0441348 101.6135380  68.5981569
  95.2670790 101.2746539  68.1536731  96.7232829 101.6188003  67.9236534
  90.8593377  96.7330117  68.4888177  90.5543512  97.0476266  69.3398320
  91.8123819  96.8111537  68.5315510  89.3039809 102.8920340  70.1381131
  88.7761170 102.1573100  69.8254368  88.8027311 103.6695017  69.8921099
  94.2832655 101.0869361  75.2548177  93.6256329 101.7768622  75.3428306
  95.0873054 101.4765793  75.5982164  93.0938113  99.4413733  73.3052119
  93.6069995 100.0743725  73.8073829  93.7439337  98.8414929  72.9395479
  86.3381204  90.4281255  71.2262812  85.6845616  90.1130273  70.6019427
  86.2961678  89.8056996  71.9522635  87.4492409 100.7100551  63.1416104
  86.5419470 100.4789804  63.3407253  87.9463441  99.9138170  63.3290086
  90.3560488 109.4198058  66.0612790  89.6822186 109.7229755  66.6697748
  90.7426310 110.2227138  65.7118247  89.5718944  96.9163189  75.5510460
  88.6541506  97.1378136  75.3932148  89.9879088  96.9909500  74.6922167
  90.3553992  98.3154605  70.6813140  91.1025811  98.8276002  70.3720262
  90.6245582  97.9938657  71.5417533  88.6280642 100.8113145  67.6640094
  87.7191861 100.5272178  67.7612564  88.6575726 101.2312224  66.8043401
  93.8599910 104.4219735  71.4331262  93.4062237 103.5810645  71.4896452
  93.2293876 105.0581133  71.7706042  92.8032829  95.3511721  72.6631929
  92.0655586  94.8389107  72.9942172  93.0559603  94.9112103  71.8515206
  92.3032849 106.2596232  72.3681080  92.5955823 106.8201289  71.6493445
  92.8131469 106.5524793  73.1234239  88.3256730 102.3521889  65.0028173
  87.8876160 101.6357748  64.5433810  89.0667171 102.5798004  64.4413264
  87.2666474 107.0376583  73.4574533  87.2242653 107.2637429  72.5283065
  88.1829173 106.8039957  73.6060334  90.7132108  97.5060650  80.3555162
  91.0681496  97.7332123  81.2149628  91.3604239  97.8379027  79.7332418
  96.4429845 100.6279086  71.0604491  96.3047743 100.8180682  70.1325680
  96.0866064 101.3898469  71.5172542  84.6071971  94.6137181  77.1401503
  85.2471350  94.4725940  76.4424467  83.7749501  94.3271695  76.7640105
  96.4699224 102.6955613  76.0715763  96.9035731 102.6030902  76.9198817
  97.1830805 102.6713114  75.4335779  90.2027119 106.2957707  77.6048863
  90.2564142 106.8648644  78.3726579  89.3341901 106.4659592  77.2402900
  83.0825513  95.9975263  79.0873315  83.7548566  95.7892626  78.4385964
  82.2555299  95.7997349  78.6478547  97.3314774 102.7379314  78.6048648
  97.5250664 103.6425124  78.8507923  97.2315392 102.2786733  79.4387233
  88.9851085  92.6237204  81.1038975  88.3379000  93.3227154  81.0103452
  89.7552100  93.0573348  81.4715224  92.3929883 102.8886057  84.1789529
  92.2415389 102.6596608  83.2619612  92.3834562 103.8456658  84.1920874
  89.1615219 100.4617969  79.1635795  90.0907279 100.6129129  78.9904763
  88.7406249 100.5501990  78.3084442  87.9603551 104.4868634  76.9334333
  87.8214636 104.1187418  77.8060271  87.1718147 105.0016273  76.7618291
  88.5551703 109.5877730  68.2759869  88.7303458 109.1165773  69.0905492
  87.8684491 110.2143496  68.5041130  89.5108766 103.8650236  74.3223171
  89.1758599 103.8251006  75.2180821  89.0112712 103.1994952  73.8493581
  92.4467958 101.2106271  64.5960230  91.8297128 100.4853099  64.4993283
  91.9784446 101.9715631  64.2527305  86.1135311  98.9837826  79.3359431
  86.8234929  98.3431018  79.2946050  86.0704619  99.2350721  80.2585612
  94.1022089 105.9205179  82.2566011  94.0434635 105.2364399  81.5896594
  94.5041608 106.6624169  81.8046637  84.8264245  95.9703044  81.1555071
  84.2901602  95.5193782  81.8076667  84.2380953  96.1048952  80.4125535
  83.1212788 112.7367093  75.0499730  83.3609386 113.3685617  75.7278748
  82.2781985 112.3855133  75.3365089  94.1039497 103.8844763  80.4879990
  93.2166275 103.5470685  80.6106389  94.6738048 103.1527794  80.7248756
  87.6340650 108.5446215  77.4541234  87.5610821 109.3501187  77.9660538
  87.1918043 108.7438181  76.6289255  87.4230430 107.7817985  70.9644055
  86.6397951 108.3239666  71.0582280  88.1223175 108.2991965  71.3638296
  90.7327080  93.5912615  73.6078260  91.2295779  92.8382577  73.2879331
  89.9614061  93.6276932  73.0421470  98.5856837  99.2952980  75.2496552
  98.5746713 100.1777696  74.8790485  97.7174216  98.9424531  75.0551089
  90.0939333 108.4433049  79.6099392  90.8067306 109.0780514  79.5375294
  89.6029362 108.5396915  78.7939394  91.8156860 102.3484302  71.1816684
  90.8813139 102.4685765  71.0121388  91.9933529 101.4456769  70.9176694
  87.3162048  95.7329998  73.3349945  86.9459836  95.1801038  74.0230851
  87.8121141  95.1288131  72.7824945  95.2029412  98.1901621  71.7166718
  95.6689864  99.0229613  71.6427021  95.6536912  97.7246603  72.4211976
  85.1451247 106.1927493  80.4304963  85.8460706 106.8263976  80.5834357
  84.6746362 106.5342224  79.6700602  93.2705643 104.5345443  68.7152870
  93.5465487 104.4202037  69.6246744  92.4010142 104.1362928  68.6765043
  93.1746074  90.5582208  75.7557619  92.2609154  90.7886435  75.9239826
  93.6039176  90.6420652  76.6071652  92.9452533  98.7472100  78.2557513
  92.2923983  98.9948008  77.6009966  93.3232913  97.9336239  77.9219991
  89.9059707 108.7831794  72.3585684  90.0882101 107.9653449  72.8213436
  90.7292693 108.9999486  71.9210574  90.2401872 107.7099979  69.6200732
  90.7689639 107.1992433  69.0070894  90.5030092 107.3942509  70.4846265
  88.9940106  99.4891911  84.7423550  88.3180743  99.3886041  85.4125926
  89.8167740  99.3331125  85.2059548  80.7418965 105.7263848  77.3636066
  81.3272402 104.9807536  77.4963970  80.5443803 106.0367805  78.2472730
  83.5957620 108.7615095  72.3798508  82.9267996 109.2461223  71.8962548
  83.4570490 109.0084316  73.2941887  87.7362889 110.7958839  78.9781166
  88.2881197 110.9590460  79.7430252  88.0769082 111.3863277  78.3061191
  82.7127382  93.1433989  79.5803051  82.7768709  94.0048820  79.1680449
  82.6494502  92.5307990  78.8475410  82.1879655  95.2157121  83.2276085
  82.8151693  94.8334199  83.8413610  81.3307573  94.9971323  83.5931778
  92.5873763 105.6220096  84.8329821  93.1313667 106.2350055  84.3384776
  92.0060608 106.1799675  85.3496834  90.8731276 108.7440814  75.9644849
  90.7482416 107.9430554  75.4555794  91.5310367 109.2387008  75.4758819
  92.9366185 106.5449834  77.5924399  91.9896520 106.4255186  77.5202725
  93.2848958 105.6572333  77.6750660  85.2965758  92.4343973  81.4162641
  85.8200160  92.6806270  82.1788950  85.0778091  93.2664008  80.9965778
  89.9412618 106.3402551  73.7928751  89.7937580 105.4119258  73.9736321
  90.7666111 106.3622641  73.3085826  93.5446740 107.1631109  74.8793624
  94.4693287 106.9573971  74.7418075  93.3762043 106.9147511  75.7882965
  86.5018303  93.3757668  79.1012311  86.1615123  92.5765482  79.5032991
  85.7957309  93.6759379  78.5289144  87.1534775  90.4606981  77.5539634
  87.9760844  89.9867459  77.4318524  87.3972838  91.2397465  78.0538320
  85.7943009  93.4895239  67.8502536  86.5151372  93.8676492  67.3466253
  85.1708313  94.2084116  67.9537514  89.9374132  94.1940388  68.7860868
  90.1537747  95.0765026  68.4849696  89.4568199  93.8026602  68.0566510
  86.5369736  94.1428650  75.4112502  86.5231305  93.2469743  75.0744800
  87.2542164  94.1499313  76.0450788  88.3895867  94.5765990  77.4565630
  88.1313645  95.4983060  77.4549960  87.8580907  94.1796424  78.1466094
  93.3342056 107.6816777  70.2355715  93.5078933 107.1163199  69.4829568
  93.8270947 108.4817672  70.0535205  85.9406632  93.0243030  70.6800072
  86.0622544  92.0959676  70.8790960  85.6508675  93.0381716  69.7678388
  88.8097823  90.7097940  73.8166792  88.8319520  90.7737273  72.8618772
  89.2265882  89.8702449  74.0107298  99.1881447 100.4453200  71.8546015
  99.6312593  99.6960525  71.4565138  98.3107957 100.4363336  71.4719747
  94.3217228 106.9983541  67.3352613  95.0168133 107.6190234  67.5539928
  94.6640378 106.1478892  67.6104991  96.2208651 104.4483247  68.8639944
  96.7459976 104.7870520  68.1389264  96.1331004 103.5130262  68.6803079
  87.8828700 108.3617320  80.9929821  88.1915827 108.1166467  81.8652520
  88.6804182 108.5663959  80.5048691  87.9049312 110.5155230  73.2235197
  87.4654303 110.0231609  73.9168054  88.6557429 109.9728198  72.9827273
  80.3841651 106.7066771  73.2259825  81.2099671 106.4070543  72.8458469
  80.0335703 105.9374393  73.6749614  85.3523184 106.0593239  75.2957499
  84.7303194 105.3963944  74.9959727  86.0228051 106.0854371  74.6131147
  78.5850256 104.6253097  74.1848759  77.7482165 104.1975272  74.0032760
  78.5573902 104.8185541  75.1219550  85.4247712  94.5375027  84.8890005
  85.4735867  95.4137150  84.5067775  85.9670226  93.9952420  84.3161648
  95.9102558 105.0816150  84.1691142  95.1198101 105.0640289  83.6295642
  95.6735912 105.6204444  84.9240179  96.0300433 101.9308617  81.4823871
  96.0798438 101.7658624  82.4239393  95.9214356 101.0635876  81.0921751
  93.3204195  97.9139545  82.7983177  94.2214058  97.7746010  82.5067175
  93.3952169  98.0794000  83.7381355  87.6547000  95.2906400  81.6436364
  86.7850310  95.5839966  81.3718952  87.8906481  95.8746845  82.3643627
  97.5318629 104.3505558  81.7265892  97.2403438 104.7135539  82.5629353
  96.9190761 103.6372567  81.5479224  98.7314312 101.9158438  74.2468462
  99.5661203 102.3548242  74.4106023  98.8673441 101.4397091  73.4276708
  95.7805818  99.4738173  80.1945950  96.2559939  99.6665819  79.3864802
  94.8571383  99.5297359  79.9489334  90.3586034  91.5086017  79.1601784
  90.8767978  92.2447043  78.8348273  90.0041167  91.8150010  79.9948543
  90.6098628  87.9286299  74.6802681  90.8900382  87.2609488  75.3063107
  91.3949235  88.1215395  74.1677345  88.4132097 107.1045293  66.2427707
  87.8406064 107.7235480  65.7898179  88.9864890 107.6544655  66.7767629
  94.4807487  96.3503933  78.4274256  95.4324910  96.4502031  78.4486480
  94.3110937  95.5582202  78.9372340  92.5021866  93.4359516  78.6133657
  91.9071798  93.7164529  77.9180145  92.2171563  93.9253417  79.3850398
  91.6329357 107.3882443  67.3736289  92.5660030 107.3228005  67.5769165
  91.5452569 108.2238710  66.9150822  94.2617373 106.7048313  64.3340237
  94.1831005 106.3708177  65.2275995  95.0827040 107.1970081  64.3331709
  96.9595564  99.5710053  77.5416555  96.9271885  98.6326053  77.7276239
  97.5696188  99.6494089  76.8082380  88.7978895  98.4406106  63.5843759
  89.7438000  98.3112314  63.6532178  88.4193140  97.7020768  64.0613188
  97.1090053  96.3621096  77.5874839  96.5929102  95.5779553  77.4004767
  97.9930001  96.0339813  77.7521358  94.7700780  90.1062112  73.5470651
  94.5725601  89.7977200  74.4313983  95.3800485  90.8323751  73.6768581
 102.7772114 100.6326060  76.6822592 103.5075503 100.3711348  77.2430296
 102.1679060  99.8954782  76.7224660 100.8587411  98.7733922  77.2797043
 100.1320575  98.6389887  76.6713535 100.4434698  99.0810751  78.0853761
  88.6817588 102.4923852  85.0444416  89.6020597 102.6702451  85.2384463
  88.6467171 101.5479897  84.8924116  88.5983878  90.9092972  69.6742886
  87.7884606  90.5640057  70.0498132  89.2868295  90.6000516  70.2630498
  90.5274426  89.9871019  71.2967183  91.0805465  90.4066472  71.9557206
  90.7644513  89.0606767  71.3390139  86.5507526  95.9758092  87.0769947
  86.4504253  96.9252449  87.0082038  86.3329068  95.6476331  86.2046017
  85.7520597  93.2243017  63.6610624  86.6139761  93.5497916  63.9206441
  85.9370941  92.4374513  63.1483690  93.9053234  92.0971544  70.8045847
  93.3251903  92.7556348  70.4223899  93.6389166  91.2748888  70.3933264
  92.3556800  91.4976601  73.0067167  92.8556578  91.6093136  72.1981486
  92.9992408  91.1937654  73.6467976  86.4138796  99.4055231  85.8935008
  85.9305877 100.2055591  86.0998897  86.4999735  99.4163176  84.9402452
  92.6878112  94.2571634  69.8602195  91.8003967  94.5421285  69.6422390
  93.1032101  94.0965398  69.0129472  96.0392648  94.2818155  73.5756534
  96.8153038  94.7714608  73.8481151  95.3140782  94.7076209  74.0328404
  98.4765206  94.9945774  74.6330475  99.0709697  94.7541510  73.9223783
  98.5491790  94.2752905  75.2604011  80.6962362 108.8379385  74.9473640
  80.5616830 108.0779786  74.3811638  80.2794424 109.5620285  74.4802429
  91.8321325 104.0216309  63.9550215  92.5357175 104.2266311  64.5707871
  91.1083974 104.5893071  64.2199299  92.6619135  99.7726170  70.0752485
  92.6054337 100.2294722  69.2360118  93.2147478  99.0116855  69.8975328
  96.4723941  95.5615902  70.9002605  96.2160875  95.1612538  71.7310813
  95.8476809  96.2759696  70.7752744 100.7836279  98.3011975  73.4073896
 100.2235837  98.3705165  74.1805458 100.1779782  98.1252960  72.6873392
  83.8531488 109.7348702  75.1592082  83.7363872 110.6794135  75.0570773
  83.0323934 109.4322264  75.5477882  93.7408022 104.4598838  66.0048675
  94.5753626 104.0280037  65.8226150  93.5792365 104.2880852  66.9325570
  93.3953915 100.9630951  67.3705015  93.3402718 100.7975223  66.4293459
  92.7699970 101.6706984  67.5267204  90.7099822 103.2679863  86.6958577
  91.5790981 103.4420515  86.3345212  90.2306573 104.0874280  86.5734307
  84.8786002 110.3876964  78.3748011  85.7813249 110.4200574  78.6914506
  84.6523372 109.4577415  78.3894347  86.6339604 109.1407951  75.0358090
  85.6835235 109.1409812  74.9222462  86.9372090 108.3940685  74.5194124
  82.5243921  93.3466633  85.2941451  83.3875382  92.9903438  85.5044776
  81.9509331  93.0080528  85.9816855 102.3692298 114.9768489  76.1003852
 103.0070707 114.8575236  75.3967192 102.2513140 115.9249333  76.1591804
  99.1782004 114.9295917  76.0365377  98.8400515 114.8136982  75.1485911
 100.0471772 114.5287082  76.0166383  95.0368820 116.7831394  72.0262268
  94.4733685 116.6921331  71.2578555  94.9221215 115.9631298  72.5064760
  99.6601787 116.0830769  81.9951582  99.6490428 115.6883567  81.1232086
  99.8222426 115.3496842  82.5885354  92.5833251 118.2782585  74.8646488
  93.3754543 117.9373410  74.4492787  92.8229902 118.3877560  75.7848641
  94.5424005 117.5391499  67.7363867  95.3154881 116.9920486  67.5976743
  94.8949404 118.4035748  67.9478328  96.3809048 118.8667881  80.9430766
  96.0898914 119.7713512  80.8277432  97.0166032 118.9084408  81.6574836
  97.3065255 116.2444729  77.5332126  97.9028827 116.0200752  76.8189089
  97.3640226 115.5029475  78.1357574  96.8790283 113.6984165  65.3682317
  97.1315804 113.1765686  64.6065780  95.9414842 113.5350310  65.4709000
 101.9233566 112.7019943  73.1757060 102.7096655 112.2839366  72.8247477
 102.1872270 113.6066035  73.3438708 102.0943643 118.1392793  67.8745717
 101.4589476 118.2127420  68.5866621 101.7641050 118.7286392  67.1964796
 107.3241993 112.6395176  74.0790038 108.0567165 112.0694393  74.3127868
 106.5681349 112.2516777  74.5196544  96.5986572 115.6012271  67.5706692
  96.4822830 114.9257174  68.2387776  96.7088832 115.1144645  66.7538845
  98.9418113 115.0622418  71.2753381  98.5776320 114.5353039  71.9866302
  99.7985229 114.6720887  71.1019866 104.8467413 106.3516750  78.5384647
 104.5150738 107.2212161  78.3145862 104.2513027 106.0353034  79.2178677
  98.5823600 110.0912317  66.2714729  98.7498002 110.9592554  66.6385201
  98.3920769 110.2539599  65.3476019 101.3398933 118.5529296  77.9380560
 101.0399656 119.4554335  77.8296367 100.9949993 118.2861479  78.7901713
  94.7911414 115.0043093  73.9717264  93.8661911 114.8719307  74.1794956
  95.0395828 115.7837312  74.4687207 104.7396077 111.0711836  75.6177997
 103.8312954 111.0027245  75.3236758 104.6883673 111.5483781  76.4459823
  98.5612821 112.5469975  67.2561396  98.4412446 112.9927026  68.0946877
  97.8665409 112.8955293  66.6974934  92.1520226 114.6476367  74.8061053
  92.2812607 114.9010846  75.7200465  91.4717677 115.2404075  74.4865708
  98.8136943 112.4901482  83.5612894  98.0370277 113.0495402  83.5515759
  99.4527506 112.9758265  84.0827765 106.6057723 109.2728275  77.3955871
 105.9632103 109.5660808  76.7495666 106.1012652 109.1581195  78.2009068
 104.2597887 113.0191448  68.0841730 105.1715743 113.2518835  67.9089428
 103.7507534 113.6028492  67.5216809  97.0683315 115.2986935  83.1230861
  97.8097999 115.8371979  82.8465685  96.3620300 115.9253224  83.2802413
 102.5438655 117.4416076  81.7203023 102.9522011 116.9998486  80.9757655
 101.8215916 116.8668703  81.9737216  98.8969725 112.3788683  79.0936580
  99.7430920 112.8028096  79.2371229  98.8368362 111.7222307  79.7875143
 102.8667469 118.0017267  75.4755312 102.2376332 118.1662981  74.7731380
 102.4793131 118.4158876  76.2466276 102.0469170 110.0393051  80.7517753
 101.8030102 110.7935112  80.2152029 102.3229100 110.4178399  81.5865001
 104.0007633 116.5831663  79.4295019 104.2124528 117.2263423  78.7529400
 103.9537381 115.7493980  78.9616949 101.6033862 109.1949484  76.3331591
 100.7418341 109.4930738  76.6248329 101.6296296 109.4119883  75.4012624
  98.4195431 117.7391675  72.7405397  98.8833777 118.0179378  71.9510019
  98.1552229 116.8375119  72.5578488  95.3119512 117.2863156  75.6785160
  95.8820869 117.7150425  75.0402645  95.9027624 117.0045741  76.3769346
  97.3564317 113.8614827  69.5494962  98.0588360 114.3135871  70.0168888
  97.0244946 113.2198646  70.1774855  95.8044679 112.4526584  83.9246171
  95.1743339 113.1342864  84.1581568  95.6980767 112.3409665  82.9799310
  91.0989651 112.1198380  74.8512096  90.3088705 112.3755908  74.3752206
  91.5900898 112.9346717  74.9564136  93.0504396 112.4842959  71.8095572
  92.2535560 112.5961653  72.3279068  92.8229989 112.8229611  70.9436463
  98.8810064 119.0087662  79.7578087  98.9454497 119.4708069  80.5936259
  98.1720988 118.3785027  79.8860397  89.3827354 112.3728870  77.2827086
  89.6335392 113.2575880  77.5484662  89.9186902 112.1933472  76.5102178
  98.5958082 120.6755770  69.6257067  98.4603757 121.5207305  70.0541915
  99.1367894 120.8775047  68.8623001  95.0825421 106.7547349  86.2871422
  94.6892367 106.2013548  86.9619067  95.8991562 107.0657928  86.6777940
  92.0487479 118.1931208  70.1984992  92.5612000 118.9874458  70.3490557
  92.7010192 117.4957498  70.1318594  93.8582364 121.3096964  72.2807746
  94.0348992 122.2314929  72.0928729  94.6539197 120.9955383  72.7102125
  97.9993382 108.1705229  83.8791679  98.7403096 108.7712382  83.7996142
  98.2311305 107.4282866  83.3209722  93.1434720 113.3561596  82.1569909
  93.0288236 112.4546853  82.4577008  92.2879238 113.6025293  81.8054725
  94.9813679 122.8275138  78.2818088  95.5321104 122.6992201  77.5095082
  94.1425155 123.1270027  77.9312981  98.7780850 119.0926266  82.6262319
  99.3109187 118.3314554  82.3961627  98.2494931 118.7999917  83.3686473
 101.9450545 104.1986331  78.1555961 101.6014815 105.0887973  78.0795071
 102.3129508 104.0087989  77.2925546  90.0136396 116.5219862  70.9744563
  90.8511618 116.9316870  70.7578271  90.1914664 115.5819304  70.9444757
 101.9100828 114.1894943  66.6628396 101.3947451 114.9599547  66.9016783
 101.6378136 113.5160079  67.2861457  99.4947939 109.0344643  71.7213634
  98.6389535 108.6451494  71.5419273  99.9074891 109.1136604  70.8613420
 101.0247086 106.5690987  76.1205194 100.5211881 106.5321122  75.3072999
 101.3177693 107.4783729  76.1801851  97.2689972 106.6529716  75.1271376
  98.1342968 106.4572525  74.7677265  97.3367480 106.4240068  76.0540732
 101.6987131 112.0622035  68.4888177 101.3937267 112.3768184  69.3398320
 102.6517573 112.1403455  68.5315510 100.1433563 118.2212258  70.1381131
  99.6154925 117.4865018  69.8254368  99.6421066 118.9986934  69.8921099
  94.8752291 108.8831924  72.4987743  95.4496043 108.6607106  71.7660935
  95.4623273 108.9520619  73.2516344 103.9331868 114.7705651  73.3052119
 104.4463750 115.4035643  73.8073829 104.5833092 114.1706847  72.9395479
  95.2021878 110.9136385  66.5183628  94.3659190 111.2511072  66.8392902
  95.0626647 110.7785365  65.5810765  97.1774958 105.7573173  71.2262812
  96.5239371 105.4422190  70.6019427  97.1355433 105.1348914  71.9522635
  98.2886163 116.0392468  63.1416104  97.3813225 115.8081722  63.3407253
  98.7857195 115.2430088  63.3290086 100.4112699 112.2455107  75.5510460
  99.4935260 112.4670054  75.3932148 100.8272842 112.3201417  74.6922167
 101.1947746 113.6446522  70.6813140 101.9419565 114.1567920  70.3720262
 101.4639336 113.3230575  71.5417533  99.4674397 116.1405063  67.6640094
  98.5585616 115.8564096  67.7612564  99.4969480 116.5604142  66.8043401
 103.6426584 110.6803639  72.6631929 102.9049340 110.1681025  72.9942172
 103.8953357 110.2404020  71.8515206 103.7438211 103.4579891  73.2573698
 104.0497088 102.5977254  72.9699613 104.4690816 104.0497511  73.0572692
  90.0362567 113.8610577  71.6455296  89.8386967 113.2679938  70.9206363
  89.4809231 113.5562787  72.3631235  98.0159291 113.7533684  73.7649889
  98.0707900 112.8007520  73.6892366  97.2050493 113.9093123  74.2491188
  99.1650484 117.6813807  65.0028173  98.7269914 116.9649666  64.5433810
  99.9060925 117.9089922  64.4413264  95.9551651 112.3710743  71.5240268
  95.1419516 112.6704914  71.9305460  96.4510645 111.9766432  72.2414751
 101.5525862 112.8352568  80.3555162 101.9075250 113.0624041  81.2149628
 102.1997994 113.1670945  79.7332418  95.4465725 109.9429099  77.1401503
  96.0865105 109.8017858  76.4424467  94.6143256 109.6563612  76.7640105
  96.2226029 119.2431529  73.2536496  97.0166628 118.7481850  73.0519071
  95.5117722 118.7149393  72.8904201  92.5308793 113.3874611  69.3296248
  91.6006381 113.3259067  69.5466211  92.6266265 112.8650564  68.5332890
  92.4494342 109.9129424  71.9174490  92.7101159 110.8274757  71.8083651
  93.2711514 109.4453867  72.0671103  93.9219267 111.3267181  79.0873315
  94.5942321 111.1184543  78.4385964  93.0949054 111.1289267  78.6478547
  99.8244839 107.9529122  81.1038975  99.1772754 108.6519072  81.0103452
 100.5945855 108.3865266  81.4715224 100.0008974 115.7909887  79.1635795
 100.9301034 115.9421047  78.9904763  99.5800004 115.8793908  78.3084442
  98.7997305 119.8160551  76.9334333  98.6608391 119.4479336  77.8060271
  98.0111902 120.3308191  76.7618291 100.3502520 119.1942154  74.3223171
 100.0152353 119.1542924  75.2180821  99.8506466 118.5286870  73.8493581
  94.3246764 114.6009784  79.8475752  94.1866562 113.8690023  80.4487291
  95.2351688 114.5118684  79.5659940 103.2861712 116.5398188  64.5960230
 102.6690883 115.8145017  64.4993283 102.8178201 117.3007549  64.2527305
  96.9529065 114.3129743  79.3359431  97.6628684 113.6722936  79.2946050
  96.9098373 114.5642638  80.2585612  95.6657999 111.2994961  81.1555071
  95.1295356 110.8485700  81.8076667  95.0774707 111.4340870  80.4125535
  95.0760258 110.7583613  63.7181535  94.1989724 110.6372414  63.3543781
  95.5518011 109.9669691  63.4660423  86.5962398 115.5460772  73.8123042
  87.2833438 115.2322503  73.2244057  86.4410527 116.4502137  73.5390293
  91.3997120 110.4350969  78.2408065  91.3155309 109.8276639  77.5058475
  90.5779827 110.9259987  78.2417562 101.5720834 108.9204533  73.6078260
 102.0689534 108.1674495  73.2879331 100.8007816 108.9568849  73.0421470
 102.6550615 117.6776220  71.1816684 101.7206894 117.7977682  71.0121388
 102.8327283 116.7748687  70.9176694  98.1555803 111.0621916  73.3349945
  97.7853590 110.5092956  74.0230851  98.6514895 110.4580049  72.7824945
 106.0423166 113.5193539  71.7166718 106.5083618 114.3521531  71.6427021
 106.4930667 113.0538521  72.4211976  95.9845001 121.5219411  80.4304963
  96.6854461 122.1555894  80.5834357  95.5140116 121.8634142  79.6700602
 104.0139829 105.8874126  75.7557619 103.1002909 106.1178353  75.9239826
 104.4432930 105.9712570  76.6071652 103.7846287 114.0764018  78.2557513
 103.1317738 114.3239925  77.6009966 104.1626667 113.2628156  77.9219991
  99.8333860 114.8183829  84.7423550  99.1574497 114.7177958  85.4125926
 100.6561494 114.6623043  85.2059548  91.5812720 121.0555766  77.3636066
  92.1666156 120.3099454  77.4963970  91.3837558 121.3659722  78.2472730
  94.4351375 124.0907013  72.3798508  93.7661750 124.5753141  71.8962548
  94.2964244 124.3376233  73.2941887  86.1730374 113.6261366  76.0840509
  86.2114474 113.0924957  76.8777627  85.6670667 113.0996571  75.4651486
  93.5521137 108.4725906  79.5803051  93.6162463 109.3340737  79.1680449
  93.4888257 107.8599908  78.8475410  93.0273409 110.5449039  83.2276085
  93.6545448 110.1626116  83.8413610  92.1701328 110.3263241  83.5931778
  89.8038952 112.3525468  69.1594440  90.0992393 111.4436146  69.1061494
  88.9026988 112.3313207  68.8375443  93.3333199 110.4281465  75.1421989
  92.6119785 111.0417432  75.0029462  94.1226455 110.9639229  75.0638635
  96.1359512 107.7635891  81.4162641  96.6593914 108.0098188  82.1788950
  95.9171846 108.5955926  80.9965778  91.5326793 110.0339566  69.2833765
  91.2039500 109.1536945  69.1008871  91.8866164 109.9787234  70.1710155
  94.6468617 110.3212535  69.6509243  94.9864689 110.8498457  68.9287851
  95.0940737 110.6592942  70.4267810  97.3412057 108.7049586  79.1012311
  97.0008878 107.9057399  79.5032991  96.6351064 109.0051297  78.5289144
  97.9928529 105.7898899  77.5539634  98.8154599 105.3159377  77.4318524
  98.2366593 106.5689382  78.0538320  96.6336764 108.8187157  67.8502536
  97.3545126 109.1968410  67.3466253  96.0102068 109.5376034  67.9537514
 100.7767887 109.5232306  68.7860868 100.9931501 110.4056944  68.4849696
 100.2961954 109.1318519  68.0566510  95.5167108 112.4818019  75.3631613
  95.3711689 112.7958322  76.2555894  95.0392312 113.1002920  74.8102511
  97.3763491 109.4720567  75.4112502  97.3625060 108.5761661  75.0744800
  98.0935919 109.4791231  76.0450788  99.2289622 109.9057907  77.4565630
  98.9707399 110.8274978  77.4549960  98.6974662 109.5088342  78.1466094
  89.9912770 115.0223364  78.3019274  89.4466238 115.7983172  78.4339548
  90.8692120 115.3694168  78.1438395  96.7800387 108.3534947  70.6800072
  96.9016298 107.4251594  70.8790960  96.4902429 108.3673633  69.7678388
  99.6491577 106.0389858  73.8166792  99.6713274 106.1029191  72.8618772
 100.0659636 105.1994367  74.0107298  90.7778792 114.1493260  81.1949431
  90.0360528 114.2975895  81.7814061  90.4571536 114.4101526  80.3316180
  91.2235406 122.0358689  73.2259825  92.0493426 121.7362460  72.8458469
  90.8729458 121.2666311  73.6749614  96.1916939 121.3885157  75.2957499
  95.5696948 120.7255862  74.9959727  96.8621806 121.4146289  74.6131147
  89.4244011 119.9545015  74.1848759  88.5875919 119.5267189  74.0032760
  89.3967656 120.1477458  75.1219550  96.2641466 109.8666945  84.8890005
  96.3129622 110.7429068  84.5067775  96.8063981 109.3244338  84.3161648
  95.7530446 119.9389080  68.7715960  95.9018566 120.6224545  68.1182632
  96.5596889 119.9194170  69.2865415 104.1597949 113.2431463  82.7983177
 105.0607812 113.1037927  82.5067175 104.2345924 113.4085917  83.7381355
  98.4940755 110.6198317  81.6436364  97.6244064 110.9131883  81.3718952
  98.7300235 111.2038762  82.3643627 106.6199572 114.8030091  80.1945950
 107.0953694 114.9957737  79.3864802 105.6965138 114.8589276  79.9489334
  93.5083079 115.9654258  69.7777028  93.2629121 115.0616588  69.9757239
  93.6778993 115.9671408  68.8356506 101.1979789 106.8377934  79.1601784
 101.7161732 107.5738961  78.8348273 100.8434921 107.1441927  79.9948543
  92.7778726 111.6982615  67.2763190  92.0847971 111.7726970  66.6203226
  92.5330478 110.9342959  67.7984707 101.4492383 103.2578217  74.6802681
 101.7294137 102.5901406  75.3063107 102.2342990 103.4507312  74.1677345
 105.3201241 111.6795851  78.4274256 106.2718664 111.7793948  78.4486480
 105.1504692 110.8874119  78.9372340 103.3415621 108.7651434  78.6133657
 102.7465553 109.0456447  77.9180145 103.0565317 109.2545335  79.3850398
  99.6372650 113.7698023  63.5843759 100.5831755 113.6404231  63.6532178
  99.2586895 113.0312685  64.0613188 107.9483807 111.6913014  77.5874839
 107.4322856 110.9071470  77.4004767 108.8323756 111.3631730  77.7521358
 105.6094534 105.4354029  73.5470651 105.4119355 105.1269118  74.4313983
 106.2194240 106.1615668  73.6768581  99.5211342 117.8215770  85.0444416
 100.4414352 117.9994369  85.2384463  99.4860925 116.8771815  84.8924116
  97.8215567 111.6948000  63.5198645  96.9147022 111.3981112  63.5961358
  98.0991548 111.3977818  62.6532931  88.7393507 113.0154363  73.9697691
  88.4196292 112.1619671  73.6772065  88.1926936 113.2302941  74.7255658
  92.5173415 115.7316804  77.6867198  92.7359425 116.6633912  77.7055231
  92.9299189 115.3724779  78.4722001  99.4377633 106.2384889  69.6742886
  98.6278361 105.8931974  70.0498132 100.1262050 105.9292433  70.2630498
 101.3668181 105.3162936  71.2967183 101.9199220 105.7358390  71.9557206
 101.6038267 104.3898684  71.3390139  97.3901280 111.3050010  87.0769947
  97.2898007 112.2544367  87.0082038  97.1722822 110.9768249  86.2046017
  96.5914352 108.5534935  63.6610624  97.4533516 108.8789833  63.9206441
  96.7764696 107.7666431  63.1483690  88.6081767 116.6357275  75.9390813
  87.9145239 116.2211227  75.4260767  89.3554758 116.6777811  75.3424232
 104.7446988 107.4263461  70.8045847 104.1645657 108.0848265  70.4223899
 104.4782921 106.6040806  70.3933264 103.1950554 106.8268519  73.0067167
 103.6950333 106.9385054  72.1981486 103.8386162 106.5229572  73.6467976
  97.2532550 114.7347149  85.8935008  96.7699632 115.5347509  86.0998897
  97.3393489 114.7455094  84.9402452  90.5218510 116.5675528  73.8156828
  90.4989198 116.6663216  72.8638711  90.8319146 117.4140679  74.1373994
  93.1805888 118.6251683  77.9303442  94.1349141 118.5935626  77.8633374
  92.9818411 118.1642307  78.7453668  93.7705270 117.1952800  80.4974240
  94.5898159 117.6896878  80.5209077  94.0442078 116.2784768  80.4691807
 103.5271866 109.5863552  69.8602195 102.6397721 109.8713202  69.6422390
 103.9425855 109.4257315  69.0129472 106.8786402 109.6110073  73.5756534
 107.6546792 110.1006525  73.8481151 106.1534536 110.0368127  74.0328404
 109.3158961 110.3237692  74.6330475 109.9103452 110.0833428  73.9223783
 109.3885545 109.6044823  75.2604011  91.5356117 124.1671303  74.9473640
  91.4010584 123.4071704  74.3811638  91.1188179 124.8912203  74.4802429
 103.5012890 115.1018088  70.0752485 103.4448091 115.5586639  69.2360118
 104.0541232 114.3408772  69.8975328 107.3117696 110.8907820  70.9002605
 107.0554630 110.4904455  71.7310813 106.6870564 111.6051614  70.7752744
 104.2347669 116.2922869  67.3705015 104.1796473 116.1267140  66.4293459
 103.6093724 116.9998902  67.5267204  89.0240184 111.5290933  81.1966437
  89.6699048 111.0189887  81.6853662  88.8157335 112.2659615  81.7709862
  97.5443795 105.7930978  66.9490333  97.5322464 106.7372818  67.1058604
  98.4367216 105.6101123  66.6549794 101.3595914 102.3873755  71.2036270
 100.5928310 101.8332241  71.3492952 101.7706619 102.4595623  72.0650421
  93.3637675 108.6758550  85.2941451  94.2269137 108.3195355  85.5044776
  92.7903086 108.3372445  85.9816855  37.3329772   0.0079106  62.8249159
  37.9708182  -0.1114147  62.1212499  37.2150615   0.9559950  62.8837111
  34.1419478  -0.0393466  62.7610683  33.8037990  -0.1552402  61.8731218
  35.0109246  -0.4402301  62.7411689  30.0006294   1.8142010  58.7507574
  29.4371159   1.7231947  57.9823862  29.8858689   0.9941915  59.2310067
  34.6239261   1.1141386  68.7196889  34.6127902   0.7194184  67.8477392
  34.7859901   0.3807458  69.3130660  27.5470726   3.3093202  61.5891795
  28.3392018   2.9684026  61.1738094  27.7867376   3.4188177  62.5093948
  35.5805853   5.4812978  54.0622039  34.9293832   6.0667058  53.6756053
  36.3750215   6.0119173  54.1217077  29.5061480   2.5702115  54.4609173
  30.2792356   2.0231102  54.3222049  29.8586879   3.4346364  54.6723635
  31.3446522   3.8978497  67.6676073  31.0536388   4.8024128  67.5522739
  31.9803507   3.9395025  68.3820142  32.2702729   1.2755346  64.2577432
  32.8666301   1.0511368  63.5434395  32.3277701   0.5340091  64.8602880
  31.8427758  -1.2705219  52.0927623  32.0953278  -1.7923698  51.3311086
  30.9052317  -1.4339073  52.1954307  36.8871040  -2.2669440  59.9002367
  37.6734130  -2.6850017  59.5492784  37.1509745  -1.3623348  60.0684015
  37.0581118   3.1703410  54.5991023  36.4226951   3.2438036  55.3111928
  36.7278524   3.7597009  53.9210103  42.2879467  -2.3294207  60.8035345
  43.0204639  -2.8994990  61.0373175  41.5318823  -2.7172607  61.2441851
  31.5624046   0.6322887  54.2951998  31.4460304  -0.0432210  54.9633083
  31.6726306   0.1455261  53.4784151  33.9055587   0.0933034  57.9998688
  33.5413794  -0.4336345  58.7111609  34.7622703  -0.2968497  57.8265173
  39.8104888  -8.6172633  65.2629954  39.4788213  -7.7477222  65.0391169
  39.2150501  -8.9336349  65.9423984  33.5461074  -4.8777066  52.9960036
  33.7135477  -4.0096830  53.3630507  33.3558243  -4.7149784  52.0721325
  36.3036407   3.5839913  64.6625866  36.0037130   4.4864952  64.5541674
  35.9587467   3.3172096  65.5147019  29.7548889   0.0353710  60.6962571
  28.8299385  -0.0970076  60.9040263  30.0033302   0.8147929  61.1932513
  39.7033551  -3.8977547  62.3423304  38.7950428  -3.9662139  62.0482065
  39.6521147  -3.4205602  63.1705129  33.5250295  -2.4219409  53.9806703
  33.4049920  -1.9762358  54.8192183  32.8302883  -2.0734091  53.4220241
  27.1157700  -0.3213017  61.5306360  27.2450081  -0.0678538  62.4445772
  26.4355151   0.2714691  61.2111015  31.2857187  10.3484233  57.6296834
  31.2081217  11.2992058  57.7085315  30.6818831  10.0030106  58.2871760
  33.7774417  -2.4787901  70.2858201  33.0007751  -1.9193981  70.2761066
  34.4164980  -1.9931118  70.8073071  41.5695198  -5.6961109  64.1201178
  40.9269578  -5.4028575  63.4740972  41.0650126  -5.8108188  64.9254374
  39.2235361  -1.9497935  54.8087037  40.1353217  -1.7170549  54.6334735
  38.7145008  -1.3660891  54.2462116  32.0320789   0.3297552  69.8476168
  32.7735474   0.8682596  69.5710992  31.3257775   0.9563841  70.0047720
  37.5076129   2.4726692  68.4448330  37.9159485   2.0309103  67.7002962
  36.7853390   1.8979320  68.6982522  33.8607199  -2.5900701  65.8181886
  34.7068394  -2.1661287  65.9616535  33.8005837  -3.2467076  66.5120450
  37.8304944   3.0327883  62.2000618  37.2013806   3.1973597  61.4976686
  37.4430606   3.4469493  62.9711582  41.7094175   3.9682321  59.5544982
  41.0245214   4.3481222  59.0042015  41.7938025   4.5777648  60.2876930
  37.0106644  -4.9296332  67.4763060  36.7667576  -4.1754272  66.9397336
  37.2866575  -4.5510985  68.3110307  38.9645107   1.6142280  66.1540326
  39.1762002   2.2574040  65.4774707  38.9174855   0.7804596  65.6862256
  36.5671336  -5.7739899  63.0576898  35.7055815  -5.4758646  63.3493635
  36.5933771  -5.5569501  62.1257930  33.3832905   2.7702291  59.4650704
  33.8471251   3.0489994  58.6755326  33.1189703   1.8685736  59.2823794
  30.2756986   2.3173773  62.4030467  30.8458344   2.7461041  61.7647951
  30.8665098   2.0356357  63.1014652  32.3201791  -1.1074556  56.2740269
  33.0225835  -0.6553513  56.7414195  31.9882420  -1.7490738  56.9020162
  30.7682153  -2.5162800  70.6491478  30.1380814  -1.8346519  70.8826875
  30.6618241  -2.6279718  69.7044616  40.0790935   4.4914235  64.3262683
  40.9008379   4.0894423  64.0445365  40.0753338   4.3882470  65.2778799
  33.8447538   4.0398279  66.4823394  33.9091971   4.5018686  67.3181565
  33.1358462   3.4095644  66.6105703  48.1696928   0.8352984  60.6747655
  47.4160636   0.2660382  60.5191659  48.3044469   0.8015648  61.6218289
  33.5595556   5.7066386  56.3502374  33.4241231   6.5517922  56.7787222
  34.1005369   5.9085664  55.5868308  27.0124953   3.2241824  56.9230299
  27.5249474   4.0185074  57.0735864  27.6647666   2.5268115  56.8563900
  28.8219838   6.3407580  59.0053052  28.9986466   7.2625545  58.8174036
  29.6176672   6.0266000  59.4347432  35.1864032   6.3289953  70.4802716
  34.7427887   5.5426331  70.1623620  35.8481246   6.5169103  69.8146607
  29.9451154   7.8585754  65.0063394  30.4958579   7.7302818  64.2340388
  29.1062630   8.1580643  64.6558287  37.2845271   6.6092753  68.5084117
  37.2663746   7.4301634  68.0164386  38.2065191   6.4846828  68.7334258
  33.7418325   4.1236882  69.3507626  34.2746661   3.3625170  69.1206934
  33.2132406   3.8310534  70.0931780  36.8738302  -0.7794441  53.3873702
  36.3584926  -0.0089836  53.6262090  36.6015611  -1.4529305  54.0106764
  41.8472576   1.9737914  55.3226876  41.0702019   1.6349073  54.8782038
  42.5264057   1.9790537  54.6481841  36.6624606  -2.9067349  55.2133484
  36.3574741  -2.5921200  56.0643627  37.6155048  -2.8285929  55.2560817
  35.1071037   3.2522875  56.8626438  34.5792399   2.5175634  56.5499675
  34.6058540   4.0297551  56.6166406  40.0863883   1.4471895  61.9793484
  39.4287558   2.1371156  62.0673613  40.8904283   1.8368327  62.3227470
  38.8969342  -0.1983732  60.0297426  39.4101224   0.4346260  60.5319135
  39.5470566  -0.7982537  59.6640786  33.2523638   1.0703085  49.8661411
  32.3450699   0.8392338  50.0652560  33.7494670   0.2740704  50.0535392
  36.1591716   9.7800592  52.7858097  35.4853415  10.0832289  53.3943055
  36.5457538  10.5829672  52.4363554  35.3750173  -2.7234277  62.2755766
  34.4572734  -2.5019330  62.1177454  35.7910317  -2.6487966  61.4167474
  36.1585221  -1.3242861  57.4058446  36.9057040  -0.8121464  57.0965569
  36.4276810  -1.6458808  58.2662840  34.4311871   1.1715680  54.3885401
  33.5223090   0.8874712  54.4857870  34.4606955   1.5914758  53.5288708
  39.6631138   4.7822269  58.1576568  39.2093466   3.9413179  58.2141759
  39.0325105   5.4183668  58.4951348  38.6064058  -4.2885745  59.3877236
  37.8686815  -4.8008359  59.7187478  38.8590832  -4.7285363  58.5760513
  38.1064078   6.6198766  59.0926386  38.3987052   7.1803823  58.3738752
  38.6162698   6.9127327  59.8479546  32.9796765  -1.2155700  60.4895196
  33.0345375  -2.1681863  60.4137673  32.1687967  -1.0596261  60.9736495
  34.1287959   2.7124423  51.7273479  33.6907389   1.9960282  51.2679117
  34.8698400   2.9400538  51.1658571  30.9189125  -2.5978640  58.2485575
  30.1056990  -2.2984469  58.6550767  31.4148119  -2.9922951  58.9660057
  33.0697703   7.3979117  60.1819840  33.0273882   7.6239963  59.2528372
  33.9860402   7.1642492  60.3305641  36.5163337  -2.1336816  67.0800469
  36.8712724  -1.9065342  67.9394935  37.1635468  -1.8018439  66.4577724
  42.2461074   0.9881620  57.7849798  42.1078972   1.1783216  56.8570987
  41.8897292   1.7501003  58.2417849  42.2730453   3.0558147  62.7961069
  42.7066960   2.9633436  63.6444123  42.9862034   3.0315648  62.1581085
  31.1863504   4.2742146  59.9781802  31.9804102   3.7792466  59.7764377
  30.4755196   3.7460009  59.6149508  36.0058348   6.6560241  64.3294170
  36.0595370   7.2251178  65.0971886  35.1373129   6.8262127  63.9648207
  43.1346003   3.0981848  65.3293955  43.3281893   4.0027659  65.5753230
  43.0346621   2.6389267  66.1632540  38.1961111   3.2488591  70.9034835
  38.0446618   3.0199142  69.9864919  38.1865791   4.2059192  70.9166180
  34.9646448   0.8220504  65.8881102  35.8938508   0.9731663  65.7150069
  34.5437478   0.9104524  65.0329748  33.7634780   4.8471168  63.6579639
  33.6245865   4.4789952  64.5305578  32.9749376   5.3618807  63.4863597
  34.3582932   9.9480264  55.0005176  34.5334687   9.4768308  55.8150799
  33.6715720  10.5746031  55.2286437  35.3139995   4.2252771  61.0468477
  34.9789827   4.1853541  61.9426127  34.8143940   3.5597487  60.5738887
  29.2884239  -0.3679599  66.5721058  29.1504037  -1.0999361  67.1732597
  30.1989162  -0.4570699  66.2905246  38.2499186   1.5708805  51.3205537
  37.6328357   0.8455633  51.2238590  37.7815675   2.3318165  50.9772611
  31.9166539  -0.6559640  66.0604738  32.6266158  -1.2966448  66.0191356
  31.8735848  -0.4046745  66.9830919  39.9053318   6.2807713  68.9811317
  39.8465864   5.5966933  68.3141900  40.3072836   7.0226703  68.5291943
  28.9244017  13.0969627  61.7745036  29.1640615  13.7288151  62.4524055
  28.0813213  12.7457667  62.0610395  39.9070725   4.2447297  67.2125297
  39.0197504   3.9073219  67.3351696  40.4769276   3.5130328  67.4494062
  33.4371879   8.9048750  64.1786540  33.3642050   9.7103721  64.6905845
  32.9949272   9.1040715  63.3534562  33.2261658   8.1420520  57.6889362
  32.4429180   8.6842200  57.7827586  33.9254404   8.6594499  58.0883603
  36.5358308  -6.0484851  60.3323567  37.0327008  -6.8014889  60.0124637
  35.7645290  -6.0120534  59.7666776  44.3888066  -0.3444485  61.9741859
  44.3777942   0.5380230  61.6035792  43.5205445  -0.6972935  61.7796396
  35.8970562   8.8035584  66.3344699  36.6098534   9.4383048  66.2620600
  35.4060591   8.8999450  65.5184701  37.6188089   2.7086836  57.9061990
  36.6844368   2.8288299  57.7366695  37.7964758   1.8059303  57.6422000
  33.1193277  -3.9067468  60.0595252  32.7491065  -4.4596428  60.7476157
  33.6152370  -4.5109334  59.5070252  41.0060641  -1.4495844  58.4412025
  41.4721093  -0.6167853  58.3672327  41.4568141  -1.9150863  59.1457283
  30.9482476   6.5530027  67.1550270  31.6491935   7.1866510  67.3079664
  30.4777591   6.8944759  66.3945909  39.0736872   4.8947977  55.4398177
  39.3496716   4.7804571  56.3492051  38.2041370   4.4965462  55.4010350
  38.7483762  -0.8925365  64.9802820  38.0955212  -0.6449458  64.3255273
  39.1264142  -1.7061227  64.6465297  35.7090936   9.1434328  59.0830990
  35.8913330   8.3255984  59.5458743  36.5323922   9.3602020  58.6455880
  36.0433101   8.0702513  56.3446039  36.5720868   7.5594967  55.7316201
  36.3061321   7.7545043  57.2091572  34.7971335  -0.1505554  71.4668857
  34.1211972  -0.2511425  72.1371232  35.6198969  -0.3066341  71.9304854
  26.5450194   6.0866382  64.0881372  27.1303631   5.3410070  64.2209277
  26.3475032   6.3970339  64.9718036  29.3988849   9.1217630  59.1043815
  28.7299224   9.6063757  58.6207855  29.2601719   9.3686850  60.0187193
  33.5394118  11.1561373  65.7026473  34.0912426  11.3192995  66.4675558
  33.8800311  11.7465811  65.0306498  38.3904992   5.9822631  71.5575127
  38.9344896   6.5952589  71.0630082  37.8091837   6.5402209  72.0742140
  36.6762505   9.1043349  62.6890155  36.5513644   8.3033088  62.1801101
  37.3341596   9.5989542  62.2004125  38.7397413   6.9052369  64.3169705
  37.7927749   6.7857720  64.2448032  39.0880186   6.0174867  64.3995967
  35.7443847   6.7005085  60.5174058  35.5968809   5.7721792  60.6981628
  36.5697340   6.7225176  60.0331133  39.3477968   7.5233644  61.6038930
  40.2724516   7.3176505  61.4663381  39.1793272   7.2750045  62.5128272
  35.7405361  -5.4457077  55.5106175  35.9568975  -4.5632440  55.2095003
  35.2599428  -5.8370864  54.7811817  30.4804582  -2.4871364  62.0876919
  30.3349163  -2.1731061  62.9801201  30.0029786  -1.8686464  61.5347818
  39.1373285   8.0419311  56.9601022  39.3110162   7.4765734  56.2074874
  39.6302176   8.8420206  56.7780512  44.9912676   0.8055734  58.5791321
  45.4343822   0.0563059  58.1810445  44.1139186   0.7965870  58.1965053
  40.1248457   7.3586075  54.0597920  40.8199362   7.9792768  54.2785235
  40.4671607   6.5081427  54.3350298  42.0239880   4.8085781  55.5885251
  42.5491204   5.1473054  54.8634571  41.9362233   3.8732796  55.4048385
  33.6859929   8.7219855  67.7175127  33.9947055   8.4769001  68.5897827
  34.4835411   8.9266493  67.2293998  33.7080541  10.8757764  59.9480504
  33.2685531  10.3834143  60.6413361  34.4588658  10.3330732  59.7072579
  26.1872880   7.0669305  59.9505132  27.0130900   6.7673077  59.5703776
  25.8366932   6.2976928  60.3994921  31.1554413   6.4195773  62.0202806
  30.5334422   5.7566478  61.7205034  31.8259280   6.4456905  61.3376453
  24.3881485   4.9855632  60.9094066  23.5513393   4.5577806  60.7278067
  24.3605130   5.1788075  61.8464857  41.7133786   5.4418685  70.8936449
  40.9229330   5.4242823  70.3540948  41.4767141   5.9806978  71.6485485
  41.8331661   2.2911151  68.2069177  41.8829666   2.1261158  69.1484700
  41.7245585   1.4238410  67.8167058  30.7167920   4.9699697  55.4961266
  30.8656040   5.6535161  54.8427939  31.5234364   4.9504787  56.0110722
  39.1235424  -1.7257921  69.5228484  40.0245287  -1.8651456  69.2312482
  39.1983398  -1.5603466  70.4626661  33.4578229  -4.3491066  68.3681670
  32.5881539  -4.0557500  68.0964259  33.6937709  -3.7650621  69.0888934
  43.3349858   4.7108093  68.4511199  43.0434667   5.0738073  69.2874660
  42.7221989   3.9975101  68.2724531  44.5345541   2.2760972  60.9713769
  45.3692432   2.7150776  61.1351329  44.6704669   1.7999626  60.1522015
  41.5837046  -0.1659293  66.9191257  42.0591168   0.0268353  66.1110108
  40.6602612  -0.1100107  66.6734640  28.4720553   0.9964874  56.5022335
  28.2266595   0.0927204  56.7002545  28.6416468   0.9982025  55.5601813
  34.2163326   7.4647827  52.9673014  33.6437293   8.0838014  52.5143485
  34.7896119   8.0147189  53.5012936  40.2838715  -3.2893533  65.1519562
  41.2356138  -3.1895435  65.1731786  40.1142166  -4.0815264  65.6617647
  38.3053095  -6.2037950  65.3378963  37.7103027  -5.9232937  64.6425452
  38.0202792  -5.7144049  66.1095704  37.4360585   7.7484977  54.0981596
  38.3691259   7.6830539  54.3014471  37.3483798   8.5841244  53.6396129
  40.0648602   7.0650848  51.0585543  39.9862234   6.7310711  51.9521301
  40.8858269   7.5572616  51.0577016  42.7626793  -0.0687413  64.2661862
  42.7303113  -1.0071412  64.4521546  43.3727417   0.0096624  63.5327687
  34.6010124  -1.1991360  50.3089066  35.5469229  -1.3285152  50.3777484
  34.2224369  -1.9376698  50.7858494  42.9121282  -3.2776370  64.3120145
  42.3960330  -4.0617913  64.1250074  43.7961230  -3.6057653  64.4766665
  40.5732009  -9.5335354  60.2715958  40.3756830  -9.8420266  61.1559290
  41.1831714  -8.8073715  60.4013888  48.5803343   0.9928594  63.4067899
  49.3106732   0.7313882  63.9675602  47.9710289   0.2557316  63.4469967
  46.6618640  -0.8663544  64.0042350  45.9351804  -1.0007579  63.3958842
  46.2465927  -0.5586715  64.8099068  34.4848817   2.8526386  71.7689723
  35.4051826   3.0304985  71.9629770  34.4498400   1.9082431  71.6169422
  32.7853041  -3.2741384  50.2443951  31.8784497  -3.5708271  50.3206665
  33.0629022  -3.5711566  49.3778238  27.4810889   0.7627421  64.4112504
  27.6996899   1.6944529  64.4300538  27.8936663   0.4035395  65.1967308
  32.3538755  -3.6639374  73.8015253  32.2535481  -2.7145017  73.7327344
  32.1360297  -3.9921135  72.9291323  39.7084462  -7.5425922  57.5291154
  39.1283131  -6.8841118  57.1469206  39.4420395  -8.3648577  57.1178571
  38.1588029  -8.1420864  59.7312474  38.6587807  -8.0304330  58.9226793
  38.8023637  -8.4459811  60.3713282  32.2170025  -0.2342235  72.6180315
  31.7337106   0.5658125  72.8244204  32.3030964  -0.2234290  71.6647759
  25.4855984   1.5986145  60.5402134  25.4626672   1.6973832  59.5884017
  25.7956621   2.4451296  60.8619300  28.1443362   3.6562300  64.6548749
  29.0986616   3.6246242  64.5878680  27.9455886   3.1952924  65.4698975
  28.7342744   2.2263416  67.2219546  29.5535633   2.7207495  67.2454384
  29.0079552   1.3095384  67.1937114  38.4909340  -5.3825832  56.5847502
  37.6035195  -5.0976181  56.3667697  38.9063329  -5.5432068  55.7374779
  41.8423877  -5.3579311  60.3001841  42.6184267  -4.8682858  60.5726458
  41.1172011  -4.9321256  60.7573711  44.2796435  -4.6451691  61.3575782
  44.8740926  -4.8855955  60.6469090  44.3523019  -5.3644561  61.9849318
  26.4993591   9.1981920  61.6718946  26.3648059   8.4382320  61.1056945
  26.0825653   9.9222819  61.2047735  37.6352554   4.3818843  50.6795522
  38.3388404   4.5868846  51.2953177  36.9115203   4.9495605  50.9444605
  38.4650364   0.1328704  56.7997792  38.4085566   0.5897256  55.9605424
  39.0178707  -0.6280611  56.6220635  42.2755170  -4.0781564  57.6247911
  42.0192104  -4.4784928  58.4556119  41.6508038  -3.3637770  57.4998051
  46.5867508  -1.3385491  60.1319203  46.0267066  -1.2692301  60.9050765
  45.9811011  -1.5144506  59.4118699  29.6562717  10.0951237  61.8837389
  29.5395101  11.0396669  61.7816079  28.8355163   9.7924798  62.2723188
  39.5439251   4.8201372  52.7293982  40.3784855   4.3882571  52.5471457
  39.3823594   4.6483386  53.6570876  39.1985143   1.3233486  54.0950321
  39.1433947   1.1577757  53.1538765  38.5731199   2.0309518  54.2512511
  36.5131051   3.6282397  73.4203884  37.3822210   3.8023050  73.0590519
  36.0337802   4.4476814  73.2979613  30.6817231  10.7479498  65.0993318
  31.5844478  10.7803109  65.4159813  30.4554601   9.8179949  65.1139653
  32.4370833   9.5010485  61.7603396  31.4866464   9.5012347  61.6467768
  32.7403319   8.7543220  61.2439431  45.4633016  16.4433303  68.7196889
  45.4521656  16.0486101  67.8477392  45.6253655  15.7099376  69.3130660
  42.6821512  14.0586699  52.0927623  42.9347033  13.5368220  51.3311086
  41.7446071  13.8952844  52.1954307  47.7264795  13.0622477  59.9002367
  48.5127884  12.6441900  59.5492784  47.9903499  13.9668569  60.0684015
  50.6498642   6.7119285  65.2629954  50.3181967   7.5814695  65.0391169
  50.0544256   6.3955569  65.9423984  44.3854829  10.4514852  52.9960036
  44.5529231  11.3195088  53.3630507  44.1951998  10.6142133  52.0721325
  40.5942643  15.3645627  60.6962571  39.6693140  15.2321841  60.9040263
  40.8427057  16.1439847  61.1932513  44.3644050  12.9072509  53.9806703
  44.2443675  13.3529560  54.8192183  43.6696638  13.2557827  53.4220241
  37.9551454  15.0078901  61.5306360  38.0843836  15.2613380  62.4445772
  37.2748906  15.6006609  61.2111015  44.6168171  12.8504016  70.2858201
  43.8401505  13.4097936  70.2761066  45.2558734  13.3360799  70.8073071
  42.8714544  15.6589470  69.8476168  43.6129228  16.1974514  69.5710992
  42.1651529  16.2855758  70.0047720  48.3469883  17.8018610  68.4448330
  48.7553239  17.3601021  67.7002962  47.6247145  17.2271238  68.6982522
  44.7000953  12.7391217  65.8181886  45.5462149  13.1630630  65.9616535
  44.6399591  12.0824841  66.5120450  47.8500399  10.3995585  67.4763060
  47.6061331  11.1537646  66.9397336  48.1260329  10.7780933  68.3110307
  47.4065090   9.5552018  63.0576898  46.5449569   9.8533272  63.3493635
  47.4327525   9.7722417  62.1257930  43.1595546  14.2217361  56.2740269
  43.8619589  14.6738405  56.7414195  42.8276174  13.5801180  56.9020162
  41.6075907  12.8129118  70.6491478  40.9774568  13.4945399  70.8826875
  41.5011995  12.7012199  69.7044616  36.9020880  12.4800914  61.5757402
  36.1119934  12.7358442  61.0997513  37.3932127  13.2949252  61.6809443
  38.8535625  12.8445493  58.5340879  38.0566789  12.9564187  59.0524375
  38.6261217  13.1832145  57.6681769  35.1858583  12.7331404  64.0072393
  35.4366621  13.6178414  64.2729969  35.7218131  12.5536006  63.2347485
  40.8856650   7.1149884  73.0116729  40.4923596   6.5616082  73.6864373
  41.7022791   7.4260462  73.4023247  43.8024611   8.5307763  70.6036986
  44.5434325   9.1314916  70.5241448  44.0342534   7.7885401  70.0455028
  38.9465949  13.7164130  68.8815215  38.8319464  12.8149387  69.1822314
  38.0910467  13.9627827  68.5300032  44.5812079  19.4528800  69.3507626
  45.1140416  18.6917088  69.1206934  44.0526160  19.1602452  70.0931780
  47.7481774   4.5588866  64.8801267  47.4046044   5.4490507  64.8040378
  48.1160737   4.3690523  64.0170852  35.8167625  16.8822396  57.6989870
  36.6542847  17.2919405  57.4823577  35.9945892  15.9421838  57.6690063
  45.2979168   9.3947178  58.4458941  44.4420764   9.0054028  58.2664580
  45.7106120   9.4739138  57.5858726  46.8278315   6.9293521  62.8450501
  46.3243110   6.8923656  62.0318306  47.1208921   7.8386264  62.9047157
  43.0721200   7.0132251  61.8516682  43.9374197   6.8175059  61.4922572
  43.1398709   6.7842602  62.7786039  47.5018360  12.4224569  55.2133484
  47.1968496  12.7370718  56.0643627  48.4548802  12.5005989  55.2560817
  40.6783519   9.2434458  59.2233049  41.2527271   9.0209640  58.4906242
  41.2654502   9.3123153  59.9761650  41.0053107  11.2738920  53.2428934
  40.1690419  11.6113606  53.5638209  40.8657876  11.1387899  52.3056071
  42.9806187   6.1175707  57.9508119  42.3270600   5.8024725  57.3264733
  42.9386661   5.4951448  58.6767941  44.0917392  16.3995002  49.8661411
  43.1844454  16.1684256  50.0652560  44.5888424  15.6032622  50.0535392
  46.2143928  12.6057641  62.2755766  45.2966489  12.8272588  62.1177454
  46.6304071  12.6803951  61.4167474  46.9978975  14.0049057  57.4058446
  47.7450794  14.5170454  57.0965569  47.2670565  13.6833109  58.2662840
  49.4457812  11.0406173  59.3877236  48.7080569  10.5283559  59.7187478
  49.6984586  10.6006554  58.5760513  49.5469440   3.8182425  59.9819005
  49.8528317   2.9579788  59.6944920  50.2722045   4.4100045  59.7817999
  35.8393796  14.2213111  58.3700603  35.6418196  13.6282472  57.6451670
  35.2840460  13.9165322  59.0876542  43.8190520  14.1136218  60.4895196
  43.8739129  13.1610054  60.4137673  43.0081722  14.2695657  60.9736495
  41.7582879  12.7313278  58.2485575  40.9450745  13.0307448  58.6550767
  42.2541874  12.3368966  58.9660057  47.3557091  13.1955102  67.0800469
  47.7106479  13.4226575  67.9394935  48.0029222  13.5273479  66.4577724
  41.2496954  10.3031633  63.8646810  41.8896334  10.1620392  63.1669773
  40.4174485  10.0166147  63.4885412  38.3340022  13.7477145  56.0541555
  37.4037610  13.6861601  56.2711517  38.4297494  13.2253098  55.2578196
  38.2525571  10.2731958  58.6419797  38.5132388  11.1877291  58.5328957
  39.0742743   9.8056401  58.7916410  39.7250496  11.6869715  65.8118621
  40.3973549  11.4787077  65.1631270  38.8980282  11.4891801  65.3723854
  45.6276068   8.3131656  67.8284282  44.9803983   9.0121606  67.7348759
  46.3977083   8.7467800  68.1960530  49.0354866  18.5780508  70.9034835
  48.8840372  18.3491060  69.9864919  49.0259545  19.5351110  70.9166180
  45.8040202  16.1512421  65.8881102  46.7332262  16.3023581  65.7150069
  45.3831232  16.2396442  65.0329748  40.1277993  14.9612318  66.5721058
  39.9897791  14.2292557  67.1732597  41.0382917  14.8721218  66.2905246
  49.0892941  16.9000723  51.3205537  48.4722112  16.1747551  51.2238590
  48.6209429  17.6610083  50.9772611  42.7560294  14.6732278  66.0604738
  43.4659912  14.0325470  66.0191356  42.7129602  14.9245173  66.9830919
  41.4689228  11.6597496  67.8800378  40.9326585  11.2088234  68.5321974
  40.8805936  11.7943404  67.1370842  40.8791487  11.1186147  50.4426841
  40.0020953  10.9974948  50.0789088  41.3549240  10.3272225  50.1905730
  32.3993627  15.9063307  60.5368348  33.0864667  15.5925037  59.9489364
  32.2441756  16.8104671  60.2635600  37.2028349  10.7953503  64.9653372
  37.1186538  10.1879173  64.2303782  36.3811055  11.2862522  64.9662868
  47.3752063   9.2807067  60.3323567  47.8720762   8.5277029  60.0124637
  46.6039044   9.3171383  59.7666776  43.9587032  11.4224450  60.0595252
  43.5884819  10.8695490  60.7476157  44.4546124  10.8182583  59.5070252
  49.8171058   6.2476660  62.4802926  48.9034138   6.4780887  62.6485133
  50.2464159   6.3315104  63.3316958  49.5877516  14.4366552  64.9802820
  48.9348966  14.6842460  64.3255273  49.9657896  13.6230690  64.6465297
  45.6365089  15.1786363  71.4668857  44.9605726  15.0780493  72.1371232
  46.4592723  15.0225577  71.9304854  31.9761603  13.9863900  62.8085815
  32.0145703  13.4527491  63.6022934  31.4701896  13.4599106  62.1896793
  39.3552365   8.8328441  66.3048358  39.4193692   9.6943271  65.8925755
  39.2919486   8.2202442  65.5720716  38.8304638  10.9051573  69.9521392
  39.4576677  10.5228650  70.5658916  37.9732557  10.6865775  70.3177085
  35.6070181  12.7128002  55.8839747  35.9023622  11.8038681  55.8306801
  34.7058216  12.6915742  55.5620749  39.1364428  10.7883999  61.8667295
  38.4151013  11.4019966  61.7274769  39.9257683  11.3241764  61.7883941
  41.9390741   8.1238425  68.1407947  42.4625143   8.3700722  68.9034257
  41.7203074   8.9558460  67.7211085  37.3358022  10.3942100  56.0079072
  37.0070728   9.5139479  55.8254178  37.6897393  10.3389769  56.8955461
  40.4499845  10.6815070  56.3754550  40.7895918  11.2100991  55.6533158
  40.8971966  11.0195476  57.1513116  43.1443286   9.0652120  65.8257618
  42.8040107   8.2659933  66.2278298  42.4382292   9.3653831  65.2534451
  43.7959758   6.1501433  64.2784941  44.6185827   5.6761911  64.1563831
  44.0397822   6.9291917  64.7783627  42.4367993   9.1789691  54.5747842
  43.1576355   9.5570944  54.0711559  41.8133297   9.8978568  54.6782820
  46.5799115   9.8834840  55.5106175  46.7962730  10.7659478  55.2095003
  46.0993183   9.4921054  54.7811817  41.3198337  12.8420553  62.0876919
  41.1742918  13.1560857  62.9801201  40.8423540  13.4605454  61.5347818
  43.1794720   9.8323101  62.1357809  43.1656288   8.9364195  61.7990107
  43.8967148   9.8393765  62.7696095  45.0320850  10.2660442  64.1810936
  44.7738628  11.1877512  64.1795267  44.5005891   9.8690876  64.8711400
  35.7943999  15.3825898  65.0264581  35.2497467  16.1585706  65.1584855
  36.6723349  15.7296702  64.8683702  42.5831616   8.7137482  57.4045379
  42.7047527   7.7854128  57.6036267  42.2933658   8.7276168  56.4923694
  45.4522806   6.3992392  60.5412099  45.4744503   6.4631725  59.5864078
  45.8690865   5.5596901  60.7352605  36.5810021  14.5095794  67.9194737
  35.8391757  14.6578429  68.5059368  36.2602765  14.7704060  67.0561487
  42.0672695  10.2269479  71.6135312  42.1160851  11.1031602  71.2313081
  42.6095209   9.6846872  71.0406955  52.5527541  20.7710602  70.8936449
  51.7623085  20.7534741  70.3540948  52.3160895  21.3098896  71.6485485
  49.9629178  13.6033997  69.5228484  50.8639041  13.4640462  69.2312482
  50.0377153  13.7688452  70.4626661  44.2971984  10.9800851  68.3681670
  43.4275293  11.2734418  68.0964259  44.5331464  11.5641296  69.0888934
  47.0011017   7.1980468  65.8847091  47.5192961   7.9341495  65.5593579
  46.6466150   7.5044462  66.7193850  38.5809955  12.0585150  54.0008497
  37.8879200  12.1329505  53.3448533  38.3361707  11.2945493  54.5230013
  47.2523612   3.6180751  61.4047987  47.5325365   2.9503940  62.0308414
  48.0374219   3.8109847  60.8922651  51.1232470  12.0398385  65.1519562
  52.0749893  12.1396483  65.1731786  50.9535920  11.2476653  65.6617647
  49.1446849   9.1253968  65.3378963  48.5496782   9.4058981  64.6425452
  48.8596546   9.6147869  66.1095704  45.4403879  14.1300558  50.3089066
  46.3862983  14.0006766  50.3777484  45.0618124  13.3915220  50.7858494
  51.4125763   5.7956564  60.2715958  51.2150584   5.4871652  61.1559290
  52.0225469   6.5218203  60.4013888  59.4197098  16.3220511  63.4067899
  60.1500486  16.0605800  63.9675602  58.8104043  15.5849233  63.4469967
  45.3242571  18.1818304  71.7689723  46.2445581  18.3596903  71.9629770
  45.2892154  17.2374349  71.6169422  43.6246796  12.0550534  50.2443951
  42.7178251  11.7583647  50.3206665  43.9022777  11.7580352  49.3778238
  34.5424736  13.3756897  60.6942998  34.2227520  12.5222206  60.4017372
  33.9958164  13.5905476  61.4500965  38.3204644  16.0919338  64.4112504
  38.5390653  17.0236446  64.4300538  38.7330418  15.7327313  65.1967308
  45.2408861   6.5987424  56.3988193  44.4309590   6.2534509  56.7743439
  45.9293278   6.2894967  56.9875804  47.1699410   5.6765471  58.0212489
  47.7230448   6.0960924  58.6802512  47.4069496   4.7501219  58.0635445
  43.1932509  11.6652544  73.8015253  43.0929236  12.6146901  73.7327344
  42.9754051  11.3370783  72.9291323  42.3945580   8.9137469  50.3855931
  43.2564744   9.2392368  50.6451748  42.5795925   8.1268965  49.8728996
  34.4112996  16.9959809  62.6636119  33.7176468  16.5813762  62.1506074
  35.1585987  17.0380345  62.0669538  50.5478217   7.7865996  57.5291154
  49.9676886   8.4450800  57.1469206  50.2814150   6.9643340  57.1178571
  48.9981783   7.1871053  59.7312474  49.4981562   7.2987588  58.9226793
  49.6417391   6.8832106  60.3713282  43.0563779  15.0949683  72.6180315
  42.5730861  15.8950043  72.8244204  43.1424718  15.1057628  71.6647759
  36.3249739  16.9278063  60.5402134  36.3020427  17.0265750  59.5884017
  36.6350375  17.7743213  60.8619300  49.3303095   9.9466086  56.5847502
  48.4428950  10.2315737  56.3667697  49.7457084   9.7859849  55.7374779
  48.4746308  19.7110761  50.6795522  49.1782158  19.9160763  51.2953177
  47.7508957  20.2787523  50.9444605  50.0378898  16.6525403  54.0950321
  49.9827702  16.4869675  53.1538765  49.4124953  17.3601436  54.2512511
  34.8271413  11.8893468  67.9211743  35.4730277  11.3792422  68.4098969
  34.6188564  12.6262149  68.4955169  47.3524805  18.9574315  73.4203884
  48.2215965  19.1314967  73.0590519  46.8731557  19.7768732  73.2979613
  43.3475023   6.1533512  53.6735640  43.3353693   7.0975352  53.8303910
  44.2398445   5.9703658  53.3795101  47.1627143   2.7476289  57.9281576
  46.3959539   2.1934776  58.0738259  47.5737848   2.8198158  58.7895728
  39.1668904   9.0361085  72.0186758  40.0300365   8.6797890  72.2290082
  38.5934315   8.6974980  72.7062162  59.0117281  30.6662941  62.8249159
  59.6495691  30.5469688  62.1212499  58.8938124  31.6143785  62.8837111
  63.9666976  28.3289628  60.8035345  64.6992148  27.7588845  61.0373175
  63.2106332  27.9411229  61.2441851  61.4892397  22.0411202  65.2629954
  61.1575722  22.9106613  65.0391169  60.8938010  21.7247486  65.9423984
  63.2482707  24.9622727  64.1201178  62.6057087  25.2555260  63.4740972
  62.7437635  24.8475647  64.9254374  60.9022870  28.7085900  54.8087037
  61.8140726  28.9413287  54.6334735  60.3932517  29.2922944  54.2462116
  59.5092452  33.6911718  62.2000618  58.8801315  33.8557433  61.4976686
  59.1218115  34.1053328  62.9711582  63.3881684  34.6266156  59.5544982
  62.7032723  35.0065058  59.0042015  63.4725534  35.2361483  60.2876930
  58.6894153  25.7287503  67.4763060  58.4455085  26.4829563  66.9397336
  58.9654084  26.1072851  68.3110307  60.6432616  32.2726115  66.1540326
  60.8549511  32.9157875  65.4774707  60.5962364  31.4388432  65.6862256
  61.7578444  35.1498071  64.3262683  62.5795888  34.7478258  64.0445365
  61.7540847  35.0466305  65.2778799  69.8484437  31.4936819  60.6747655
  69.0948145  30.9244217  60.5191659  69.9831978  31.4599484  61.6218289
  51.7250405  22.4441801  73.0116729  51.3317350  21.8908000  73.6864373
  52.5416545  22.7552380  73.4023247  54.6418366  23.8599680  70.6036986
  55.3828079  24.4606834  70.5241448  54.8736288  23.1177318  70.0455028
  58.5525811  29.8789394  53.3873702  58.0372435  30.6493999  53.6262090
  58.2803120  29.2054531  54.0106764  63.5260085  32.6321749  55.3226876
  62.7489528  32.2932909  54.8782038  64.2051566  32.6374372  54.6481841
  58.3412115  27.7516487  55.2133484  58.0362250  28.0662636  56.0643627
  59.2942557  27.8297906  55.2560817  61.7651392  32.1055730  61.9793484
  61.1075067  32.7954992  62.0673613  62.5691792  32.4952162  62.3227470
  60.5756851  30.4600103  60.0297426  61.0888733  31.0930095  60.5319135
  61.2258075  29.8601299  59.6640786  54.9311147  31.7286920  49.8661411
  54.0238208  31.4976174  50.0652560  55.4282179  30.9324539  50.0535392
  57.8372730  29.3340974  57.4058446  58.5844549  29.8462372  57.0965569
  58.1064319  29.0125027  58.2662840  55.8075468  33.3708259  51.7273479
  55.3694898  32.6544118  51.2679117  56.5485909  33.5984374  51.1658571
  63.9248583  31.6465456  57.7849798  63.7866481  31.8367052  56.8570987
  63.5684801  32.4084839  58.2417849  63.9517962  33.7141983  62.7961069
  64.3854469  33.6217272  63.6444123  64.6649543  33.6899483  62.1581085
  64.8133512  33.7565683  65.3293955  65.0069402  34.6611494  65.5753230
  64.7134130  33.2973102  66.1632540  56.4669822  23.6423574  67.8284282
  55.8197737  24.3413524  67.7348759  57.2370838  24.0759718  68.1960530
  59.9286695  32.2292640  51.3205537  59.3115866  31.5039468  51.2238590
  59.4603184  32.9902001  50.9772611  61.5858234  34.9031133  67.2125297
  60.6985013  34.5657054  67.3351696  62.1556785  34.1714164  67.4494062
  66.0675575  30.3139350  61.9741859  66.0565451  31.1964065  61.6035792
  65.1992954  29.9610901  61.7796396  62.6848149  29.2087991  58.4412025
  63.1508602  30.0415983  58.3672327  63.1355650  28.7432973  59.1457283
  60.6564812  21.5768578  62.4802926  59.7427892  21.8072805  62.6485133
  61.0857914  21.6607022  63.3316958  60.4271271  29.7658470  64.9802820
  59.7742721  30.0134377  64.3255273  60.8051651  28.9522608  64.6465297
  66.6700185  31.4639569  58.5791321  67.1131331  30.7146895  58.1810445
  65.7926695  31.4549706  58.1965053  63.5119170  32.9494986  68.2069177
  63.5617175  32.7844994  69.1484700  63.4033094  32.0822245  67.8167058
  60.8022933  28.9325914  69.5228484  61.7032796  28.7932379  69.2312482
  60.8770907  29.0980369  70.4626661  65.0137367  35.3691928  68.4511199
  64.7222176  35.7321908  69.2874660  64.4009498  34.6558936  68.2724531
  66.2133050  32.9344808  60.9713769  67.0479941  33.3734612  61.1351329
  66.3492178  32.4583461  60.1522015  63.2624555  30.4924543  66.9191257
  63.7378677  30.6852189  66.1110108  62.3390121  30.5483728  66.6734640
  61.9626224  27.3690303  65.1519562  62.9143647  27.4688400  65.1731786
  61.7929675  26.5768571  65.6617647  64.4414302  30.5896422  64.2661862
  64.4090622  29.6512423  64.4521546  65.0514926  30.6680459  63.5327687
  56.2797633  29.4592475  50.3089066  57.2256738  29.3298683  50.3777484
  55.9011878  28.7207137  50.7858494  64.5908791  27.3807466  64.3120145
  64.0747839  26.5965922  64.1250074  65.4748739  27.0526182  64.4766665
  62.2519518  21.1248481  60.2715958  62.0544339  20.8163569  61.1559290
  62.8619223  21.8510120  60.4013888  70.2590852  31.6512429  63.4067899
  70.9894241  31.3897717  63.9675602  69.6497798  30.9141151  63.4469967
  68.3406149  29.7920292  64.0042350  67.6139313  29.6576257  63.3958842
  67.9253436  30.0997120  64.8099068  65.9583944  26.0132144  61.3575782
  66.5528435  25.7727880  60.6469090  66.0310528  25.2939274  61.9849318
  59.3140063  35.0402678  50.6795522  60.0175913  35.2452681  51.2953177
  58.5902712  35.6079440  50.9444605  60.1437873  30.7912540  56.7997792
  60.0873075  31.2481091  55.9605424  60.6966216  30.0303224  56.6220635
  63.9542679  26.5802272  57.6247911  63.6979613  26.1798907  58.4556119
  63.3295547  27.2946065  57.4998051  68.2655017  29.3198345  60.1319203
  67.7054575  29.3891534  60.9050765  67.6598520  29.1439329  59.4118699
  60.8772652  31.9817321  54.0950321  60.8221456  31.8161592  53.1538765
  60.2518708  32.6893354  54.2512511  63.2863416  43.4712953  70.6491478
  62.6562077  44.1529234  70.8826875  63.1799504  43.3596035  69.7044616
  80.6878191  46.8228737  60.6747655  79.9341900  46.2536135  60.5191659
  80.8225733  46.7891401  61.6218289  65.4812120  39.1891598  70.6036986
  66.2221834  39.7898751  70.5241448  65.7130043  38.4469236  70.0455028
  69.4269283  35.2172701  64.8801267  69.0833552  36.1074343  64.8040378
  69.7948246  35.0274359  64.0170852  71.2256949  34.4766260  59.9819005
  71.5315826  33.6163624  59.6944920  71.9509554  35.0683880  59.7817999
  76.9069329  45.6431268  61.9741859  76.8959206  46.5255983  61.6035792
  76.0386709  45.2902818  61.7796396  61.0339874  39.4912276  66.3048358
  61.0981201  40.3527107  65.8925755  60.9706995  38.8786278  65.5720716
  63.6178250  38.7822261  68.1407947  64.1412652  39.0284557  68.9034257
  63.3990583  39.6142295  67.7211085  68.9311121  34.2764586  61.4047987
  69.2112874  33.6087775  62.0308414  69.7161728  34.4693682  60.8922651
  73.0913272  36.4540399  60.2715958  72.8938093  36.1455487  61.1559290
  73.7012978  37.1802038  60.4013888  81.0984607  46.9804347  63.4067899
  81.8287995  46.7189635  63.9675602  80.4891552  46.2433069  63.4469967
  79.1799904  45.1212209  64.0042350  78.4533067  44.9868174  63.3958842
  78.7647191  45.4289038  64.8099068  67.0030080  48.8402139  71.7689723
  67.9233090  49.0180738  71.9629770  66.9679663  47.8958184  71.6169422
  64.8720018  42.3236379  73.8015253  64.7716745  43.2730736  73.7327344
  64.6541560  41.9954618  72.9291323  64.7351288  45.7533518  72.6180315
  64.2518370  46.5533878  72.8244204  64.8212227  45.7641463  71.6647759
  76.7977699  41.3424062  61.3575782  77.3922189  41.1019798  60.6469090
  76.8704282  40.6231192  61.9849318  79.1048771  44.6490262  60.1319203
  78.5448329  44.7183452  60.9050765  78.4992275  44.4731247  59.4118699
  68.8414652  33.4060124  57.9281576  68.0747048  32.8518611  58.0738259
  69.2525357  33.4781993  58.7895728  80.4156136  64.4871081  54.5991023
  79.7801969  64.5605707  55.3111928  80.0853542  65.0764679  53.9210103
  85.6454485  58.9873463  60.8035345  86.3779657  58.4172680  61.0373175
  84.8893841  58.5995064  61.2441851  83.1679906  52.6995038  65.2629954
  82.8363231  53.5690449  65.0391169  82.5725519  52.3831322  65.9423984
  84.9270216  55.6206562  64.1201178  84.2844596  55.9139095  63.4740972
  84.4225144  55.5059482  64.9254374  82.5810379  59.3669735  54.8087037
  83.4928235  59.5997122  54.6334735  82.0720026  59.9506780  54.2462116
  80.3681662  56.3871338  67.4763060  80.1242594  57.1413399  66.9397336
  80.6441593  56.7656686  68.3110307  73.4037914  53.1025637  73.0116729
  73.0104859  52.5491835  73.6864373  74.2204054  53.4136215  73.4023247
  76.3205875  54.5183516  70.6036986  77.0615588  55.1190669  70.5241448
  76.5523797  53.7761154  70.0455028  80.2663038  50.5464619  64.8801267
  79.9227307  51.4366260  64.8040378  80.6342000  50.3566276  64.0170852
  80.2313320  60.5373230  53.3873702  79.7159944  61.3077834  53.6262090
  79.9590629  59.8638366  54.0106764  82.2544360  61.1183938  60.0297426
  82.7676242  61.7513930  60.5319135  82.9045584  60.5185134  59.6640786
  76.6098656  62.3870756  49.8661411  75.7025717  62.1560009  50.0652560
  77.1069687  61.5908375  50.0535392  82.0650703  49.8058178  59.9819005
  82.3709580  48.9455541  59.6944920  82.7903308  50.3975798  59.7817999
  77.4862977  64.0292094  51.7273479  77.0482407  63.3127953  51.2679117
  78.2273418  64.2568209  51.1658571  81.6074204  62.8876476  51.3205537
  80.9903375  62.1623304  51.2238590  81.1390693  63.6485836  50.9772611
  73.3972750  57.1061900  50.4426841  72.5202217  56.9850701  50.0789088
  73.8730503  56.3147978  50.1905730  84.3635658  59.8671826  58.4412025
  84.8296111  60.6999818  58.3672327  84.8143159  59.4016808  59.1457283
  82.3352321  52.2352413  62.4802926  81.4215401  52.4656640  62.6485133
  82.7645423  52.3190857  63.3316958  74.5853959  56.2145232  71.6135312
  74.6342114  57.0907355  71.2313081  75.1276473  55.6722625  71.0406955
  74.0742938  66.2867367  55.4961266  74.2231058  66.9702832  54.8427939
  74.8809381  66.2672457  56.0110722  82.4810442  59.5909750  69.5228484
  83.3820304  59.4516215  69.2312482  82.5558416  59.7564205  70.4626661
  79.7704875  49.6056504  61.4047987  80.0506629  48.9379693  62.0308414
  80.5555482  49.7985600  60.8922651  77.9585142  60.1176311  50.3089066
  78.9044247  59.9882519  50.3777484  77.5799387  59.3790973  50.7858494
  86.2696300  58.0391301  64.3120145  85.7535348  57.2549758  64.1250074
  87.1536248  57.7110018  64.4766665  83.9307027  51.7832317  60.2715958
  83.7331848  51.4747405  61.1559290  84.5406732  52.5093956  60.4013888
  76.1428059  58.0426287  50.2443951  75.2359515  57.7459400  50.3206665
  76.4204040  57.7456105  49.3778238  81.5163047  53.1746806  59.7312474
  82.0162825  53.2863341  58.9226793  82.1598655  52.8707859  60.3713282
  85.1998894  55.9588360  60.3001841  85.9759285  56.4484813  60.5726458
  84.4747029  56.3846414  60.7573711  87.6371453  56.6715979  61.3575782
  88.2315944  56.4311715  60.6469090  87.7098037  55.9523110  61.9849318
  81.8225382  61.4496375  56.7997792  81.7660583  61.9064926  55.9605424
  82.3753725  60.6887060  56.6220635  85.6330188  57.2386107  57.6247911
  85.3767122  56.8382743  58.4556119  85.0083056  57.9529901  57.4998051
  79.6808406  48.7352042  57.9281576  78.9140802  48.1810529  58.0738259
  80.0919111  48.8073911  58.7895728 102.7772116  77.6388182  63.4067899
 103.5075504  77.3773470  63.9675602 102.1679061  76.9016904  63.4469967
  99.6601788  93.0892892  68.7196889  99.6490429  92.6945690  67.8477392
  99.8222428  92.3558964  69.3130660  92.5833253  95.2844708  61.5891795
  93.3754545  94.9435532  61.1738094  92.8229903  95.3939683  62.5093948
 100.6168379  97.4564484  54.0622039  99.9656359  98.0418564  53.6756053
 101.4112742  97.9870679  54.1217077  96.3809049  95.8730003  67.6676073
  96.0898915  96.7775634  67.5522739  97.0166034  95.9146531  68.3820142
  97.3065256  93.2506852  64.2577432  97.9028828  93.0262874  63.5434395
  97.3640228  92.5091597  64.8602880  96.8790284  90.7046287  52.0927623
  97.1315805  90.1827808  51.3311086  95.9414844  90.5412433  52.1954307
 102.0943645  95.1454916  54.5991023 101.4589478  95.2189542  55.3111928
 101.7641051  95.7348515  53.9210103 107.3241994  89.6457299  60.8035345
 108.0567166  89.0756516  61.0373175 106.5681350  89.2578899  61.2441851
  96.5986573  92.6074393  54.2951998  96.4822831  91.9319297  54.9633083
  96.7088833  92.1206767  53.4784151 104.8467415  83.3578873  65.2629954
 104.5150740  84.2274284  65.0391169 104.2513028  83.0415157  65.9423984
 101.3398934  95.5591419  64.6625866 101.0399657  96.4616458  64.5541674
 100.9949994  95.2923602  65.5147019  98.5612822  89.5532097  53.9806703
  98.4412447  89.9989148  54.8192183  97.8665410  89.9017415  53.4220241
  96.3219714 102.3235739  57.6296834  96.2443744 103.2743564  57.7085315
  95.7181358 101.9781612  58.2871760 106.6057724  86.2790397  64.1201178
 105.9632105  86.5722931  63.4740972 106.1012653  86.1643318  64.9254374
 104.2597888  90.0253571  54.8087037 105.1715744  90.2580957  54.6334735
 103.7507535  90.6090615  54.2462116  97.0683316  92.3049058  69.8476168
  97.8098001  92.8434102  69.5710992  96.3620302  92.9315347  70.0047720
 102.5438656  94.4478198  68.4448330 102.9522012  94.0060609  67.7002962
 101.8215917  93.8730826  68.6982522 106.7456702  95.9433827  59.5544982
 106.0607740  96.3232728  59.0042015 106.8300552  96.5529154  60.2876930
 104.0007634  93.5893786  66.1540326 104.2124529  94.2325546  65.4774707
 103.9537382  92.7556103  65.6862256  98.4195432  94.7453797  59.4650704
  98.8833778  95.0241500  58.6755326  98.1552230  93.8437242  59.2823794
  95.3119513  94.2925279  62.4030467  95.8820870  94.7212547  61.7647951
  95.9027625  94.0107863  63.1014652 105.1153462  96.4665741  64.3262683
 105.9370906  96.0645929  64.0445365 105.1115865  96.3633976  65.2778799
  98.8810065  96.0149785  66.4823394  98.9454498  96.4770192  67.3181565
  98.1720989  95.3847150  66.6105703 113.2059455  92.8104490  60.6747655
 112.4523163  92.2411888  60.5191659 113.3406996  92.7767154  61.6218289
  98.5958083  97.6817892  56.3502374  98.4603758  98.5269428  56.7787222
  99.1367896  97.8837170  55.5868308  93.8582365  98.3159087  59.0053052
  94.0348993  99.2377051  58.8174036  94.6539199  98.0017506  59.4347432
 100.2226559  98.3041459  70.4802716  99.7790414  97.5177837  70.1623620
 100.8843773  98.4920609  69.8146607  94.9813681  99.8337260  65.0063394
  95.5321106  99.7054324  64.2340388  94.1425156 100.1332149  64.6558287
 102.3207797  98.5844259  68.5084117 102.3026273  99.4053140  68.0164386
 103.2427717  98.4598334  68.7334258  98.7780852  96.0988388  69.3507626
  99.3109188  95.3376676  69.1206934  98.2494933  95.8062040  70.0931780
 101.9100829  91.1957065  53.3873702 101.3947453  91.9661670  53.6262090
 101.6378138  90.5222201  54.0106764 106.8835103  93.9489420  55.3226876
 106.1064546  93.6100579  54.8782038 107.5626584  93.9542043  54.6481841
 101.6987132  89.0684157  55.2133484 101.3937268  89.3830306  56.0643627
 102.6517575  89.1465577  55.2560817 100.1433564  95.2274381  56.8626438
  99.6154926  94.4927140  56.5499675  99.6421067  96.0049057  56.6166406
  98.2886164  93.0454591  49.8661411  97.3813226  92.8143844  50.0652560
  98.7857196  92.2492210  50.0535392 101.1954243 101.7552098  52.7858097
 100.5215942 102.0583795  53.3943055 101.5820065 102.5581178  52.4363554
  99.4674398  93.1467186  54.3885401  98.5585617  92.8626219  54.4857870
  99.4969482  93.5666264  53.5288708 104.6993665  96.7573775  58.1576568
 104.2455992  95.9164685  58.2141759 104.0687632  97.3935174  58.4951348
 103.1426605  98.5950272  59.0926386 103.4349579  99.1555329  58.3738752
 103.6525225  98.8878833  59.8479546 103.7438212  80.4642013  59.9819005
 104.0497089  79.6039377  59.6944920 104.4690817  81.0559633  59.7817999
  99.1650486  94.6875929  51.7273479  98.7269916  93.9711788  51.2679117
  99.9060927  94.9152044  51.1658571  98.1060230  99.3730623  60.1819840
  98.0636409  99.5991469  59.2528372  99.0222929  99.1393998  60.3305641
 101.5525864  89.8414691  67.0800469 101.9075251  90.0686164  67.9394935
 102.1997995  90.1733067  66.4577724 107.2823601  92.9633126  57.7849798
 107.1441499  93.1534722  56.8570987 106.9259819  93.7252509  58.2417849
 107.3092980  95.0309653  62.7961069 107.7429487  94.9384943  63.6444123
 108.0224561  95.0067154  62.1581085  96.2226031  96.2493652  59.9781802
  97.0166629  95.7543972  59.7764377  95.5117723  95.7211515  59.6149508
 101.0420875  98.6311748  64.3294170 101.0957897  99.2002684  65.0971886
 100.1735656  98.8013633  63.9648207 108.1708530  95.0733354  65.3293955
 108.3644420  95.9779165  65.5753230 108.0709148  94.6140773  66.1632540
 103.2323638  95.2240097  70.9034835 103.0809145  94.9950649  69.9864919
 103.2228318  96.1810698  70.9166180 100.0008975  92.7972010  65.8881102
 100.9301035  92.9483169  65.7150069  99.5800005  92.8856030  65.0329748
  98.7997307  96.8222674  63.6579639  98.6608392  96.4541458  64.5305578
  98.0111903  97.3370313  63.4863597  99.3945459 101.9231770  55.0005176
  99.5697214 101.4519814  55.8150799  98.7078247 102.5497537  55.2286437
 100.3502522  96.2004277  61.0468477 100.0152354  96.1605047  61.9426127
  99.8506467  95.5348993  60.5738887  94.3246766  91.6071907  66.5721058
  94.1866564  90.8752146  67.1732597  95.2351689  91.5180807  66.2905246
 103.2861713  93.5460311  51.3205537 102.6690884  92.8207139  51.2238590
 102.8178202  94.3069671  50.9772611  96.9529066  91.3191866  66.0604738
  97.6628685  90.6785058  66.0191356  96.9098374  91.5704761  66.9830919
 104.9415845  98.2559219  68.9811317 104.8828391  97.5718440  68.3141900
 105.3435363  98.9978209  68.5291943  93.9606544 105.0721133  61.7745036
  94.2003142 105.7039657  62.4524055  93.1175740 104.7209173  62.0610395
 104.9433252  96.2198803  67.2125297 104.0560031  95.8824725  67.3351696
 105.5131803  95.4881835  67.4494062  98.4734406 100.8800256  64.1786540
  98.4004577 101.6855227  64.6905845  98.0311799 101.0792221  63.3534562
  98.2624185 100.1172026  57.6889362  97.4791707 100.6593706  57.7827586
  98.9616930 100.6346005  58.0883603 109.4250593  91.6307021  61.9741859
 109.4140469  92.5131736  61.6035792 108.5567972  91.2778572  61.7796396
 100.9333089 100.7787090  66.3344699 101.6461061 101.4134555  66.2620600
 100.4423118 100.8750956  65.5184701 106.0423167  90.5255662  58.4412025
 106.5083620  91.3583653  58.3672327 106.4930668  90.0600643  59.1457283
  95.9845003  98.5281533  67.1550270  96.6854462  99.1618016  67.3079664
  95.5140118  98.8696265  66.3945909 104.1099399  96.8699483  55.4398177
 104.3859242  96.7556078  56.3492051 103.2403897  96.4716968  55.4010350
 104.0139830  82.8936249  62.4802926 103.1002910  83.1240475  62.6485133
 104.4432932  82.9774693  63.3316958 100.7453463 101.1185834  59.0830990
 100.9275857 100.3007490  59.5458743 101.5686449 101.3353526  58.6455880
 101.0795628 100.0454019  56.3446039 101.6083394  99.5346474  55.7316201
 101.3423848  99.7296549  57.2091572  99.8333862  91.8245952  71.4668857
  99.1574499  91.7240081  72.1371232 100.6561496  91.6685165  71.9304854
  91.5812721  98.0617888  64.0881372  92.1666158  97.3161576  64.2209277
  91.3837559  98.3721845  64.9718036  94.4351376 101.0969136  59.1043815
  93.7661751 101.5815263  58.6207855  94.2964246 101.3438356  60.0187193
  98.5756645 103.1312879  65.7026473  99.1274953 103.2944501  66.4675558
  98.9162838 103.7217317  65.0306498 103.4267519  97.9574137  71.5575127
 103.9707423  98.5704095  71.0630082 102.8454364  98.5153715  72.0742140
 101.7125032 101.0794855  62.6890155 101.5876171 100.2784594  62.1801101
 102.3704123 101.5741048  62.2004125 103.7759940  98.8803875  64.3169705
 102.8290276  98.7609226  64.2448032 104.1242713  97.9926373  64.3995967
 100.7806374  98.6756591  60.5174058 100.6331336  97.7473298  60.6981628
 101.6059867  98.6976682  60.0331133 104.3840495  99.4985150  61.6038930
 105.3087043  99.2928011  61.4663381 104.2155799  99.2501551  62.5128272
 100.7767888  86.5294429  55.5106175 100.9931502  87.4119066  55.2095003
 100.2961955  86.1380642  54.7811817 104.1735812 100.0170817  56.9601022
 104.3472689  99.4517240  56.2074874 104.6664703 100.8171712  56.7780512
  89.9912771  92.0285486  65.0264581  89.4466239  92.8045294  65.1584855
  90.8692121  92.3756291  64.8683702 110.0275203  92.7807240  58.5791321
 110.4706349  92.0314565  58.1810445 109.1501713  92.7717376  58.1965053
 105.1610984  99.3337582  54.0597920 105.8561889  99.9544274  54.2785235
 105.5034134  98.4832933  54.3350298  90.7778793  91.1555382  67.9194737
  90.0360529  91.3038018  68.5059368  90.4571538  91.4163648  67.0561487
 107.0602407  96.7837287  55.5885251 107.5853731  97.1224560  54.8634571
 106.9724760  95.8484302  55.4048385  98.7222456 100.6971361  67.7175127
  99.0309582 100.4520507  68.5897827  99.5197938 100.9017999  67.2293998
  98.7443068 102.8509270  59.9480504  98.3048058 102.3585649  60.6413361
  99.4951185 102.3082238  59.7072579  91.2235407  99.0420811  59.9505132
  92.0493427  98.7424583  59.5703776  90.8729459  98.2728434  60.3994921
  96.1916940  98.3947279  62.0202806  95.5696949  97.7317984  61.7205034
  96.8621807  98.4208411  61.3376453  89.4244012  96.9607138  60.9094066
  88.5875920  96.5329312  60.7278067  89.3967657  97.1539581  61.8464857
 106.7496313  97.4170191  70.8936449 105.9591857  97.3994330  70.3540948
 106.5129668  97.9558484  71.6485485 106.8694188  94.2662657  68.2069177
 106.9192193  94.1012665  69.1484700 106.7608112  93.3989916  67.8167058
  95.7530447  96.9451203  55.4961266  95.9018567  97.6286667  54.8427939
  96.5596890  96.9256293  56.0110722 104.1597951  90.2493585  69.5228484
 105.0607813  90.1100050  69.2312482 104.2345925  90.4148040  70.4626661
 108.3712385  96.6859599  68.4511199 108.0797193  97.0489579  69.2874660
 107.7584516  95.9726607  68.2724531 109.5708067  94.2512478  60.9713769
 110.4054959  94.6902282  61.1351329 109.7067196  93.7751132  60.1522015
 106.6199573  91.8092213  66.9191257 107.0953695  92.0019860  66.1110108
 105.6965139  91.8651399  66.6734640  99.2525853  99.4399333  52.9673014
  98.6799820 100.0589520  52.5143485  99.8258646  99.9898695  53.5012936
 105.3201242  88.6857973  65.1519562 106.2718665  88.7856071  65.1731786
 105.1504693  87.8936242  65.6617647 102.4723112  99.7236483  54.0981596
 103.4053785  99.6582045  54.3014471 102.3846325 100.5592750  53.6396129
 105.1011129  99.0402354  51.0585543 105.0224761  98.7062217  51.9521301
 105.9220796  99.5324122  51.0577016 107.7989320  91.9064093  64.2661862
 107.7665640  90.9680094  64.4521546 108.4089944  91.9848130  63.5327687
  99.6372651  90.7760146  50.3089066 100.5831756  90.6466354  50.3777484
  99.2586896  90.0374808  50.7858494 107.9483809  88.6975136  64.3120145
 107.4322857  87.9133593  64.1250074 108.8323757  88.3693853  64.4766665
 105.6094536  82.4416152  60.2715958 105.4119357  82.1331240  61.1559290
 106.2194241  83.1677791  60.4013888 113.6165870  92.9680100  63.4067899
 114.3469259  92.7065388  63.9675602 113.0072816  92.2308822  63.4469967
 111.6981167  91.1087962  64.0042350 110.9714331  90.9743927  63.3958842
 111.2828454  91.4164791  64.8099068  99.5211344  94.8277892  71.7689723
 100.4414353  95.0056491  71.9629770  99.4860927  93.8833937  71.6169422
  97.8215568  88.7010122  50.2443951  96.9147024  88.4043235  50.3206665
  98.0991549  88.4039940  49.3778238  92.5173416  92.7378927  64.4112504
  92.7359426  93.6696035  64.4300538  92.9299190  92.3786901  65.1967308
 104.7446989  84.4325584  57.5291154 104.1645658  85.0910388  57.1469206
 104.4782922  83.6102929  57.1178571 103.1950556  83.8330642  59.7312474
 103.6950334  83.9447176  58.9226793 103.8386164  83.5291695  60.3713282
  97.2532551  91.7409271  72.6180315  96.7699633  92.5409631  72.8244204
  97.3393491  91.7517216  71.6647759  93.1805889  95.6313806  64.6548749
  94.1349143  95.5997748  64.5878680  92.9818413  95.1704430  65.4698975
  93.7705271  94.2014922  67.2219546  94.5898160  94.6959001  67.2454384
  94.0442079  93.2846890  67.1937114 103.5271867  86.5925674  56.5847502
 102.6397722  86.8775325  56.3667697 103.9425856  86.4319438  55.7374779
 106.8786403  86.6172195  60.3001841 107.6546794  87.1068648  60.5726458
 106.1534538  87.0430250  60.7573711 109.3158962  87.3299815  61.3575782
 109.9103453  87.0895551  60.6469090 109.3885546  86.6106945  61.9849318
  91.5356118 101.1733426  61.6718946  91.4010586 100.4133826  61.1056945
  91.1188180 101.8974325  61.2047735 102.6715081  96.3570349  50.6795522
 103.3750931  96.5620352  51.2953177 101.9477730  96.9247111  50.9444605
 107.3117697  87.8969942  57.6247911 107.0554631  87.4966578  58.4556119
 106.6870565  88.6113736  57.4998051 111.6230035  90.6366015  60.1319203
 111.0629593  90.7059205  60.9050765 111.0173538  90.4607000  59.4118699
  94.6925244 102.0702743  61.8837389  94.5757628 103.0148175  61.7816079
  93.8717690 101.7676304  62.2723188 104.5801778  96.7952878  52.7293982
 105.4147382  96.3634077  52.5471457 104.4186121  96.6234892  53.6570876
 104.2347670  93.2984992  54.0950321 104.1796474  93.1329263  53.1538765
 103.6093726  94.0061025  54.2512511  89.0240185  88.5353056  67.9211743
  89.6699049  88.0252010  68.4098969  88.8157336  89.2721738  68.4955169
 101.5493578  95.6033903  73.4203884 102.4184737  95.7774556  73.0590519
 101.0700329  96.4228320  73.2979613  95.7179758 102.7231004  65.0993318
  96.6207004 102.7554615  65.4159813  95.4917128 101.7931455  65.1139653
  97.4733360 101.4761991  61.7603396  96.5228991 101.4763853  61.6467768
  97.7765846 100.7294726  61.2439431 113.2086053 107.3122529  62.8249159
 113.8464463 107.1929277  62.1212499 113.0906896 108.2603373  62.8837111
 110.0175760 107.2649958  62.7610683 109.6794271 107.1491022  61.8731218
 110.8865528 106.8641123  62.7411689 105.8762575 109.1185434  58.7507574
 105.3127440 109.0275371  57.9823862 105.7614970 108.2985338  59.2310067
 110.4995543 108.4184809  68.7196889 110.4884183 108.0237608  67.8477392
 110.6616182 107.6850882  69.3130660 103.4227007 110.6136626  61.5891795
 104.2148299 110.2727450  61.1738094 103.6623657 110.7231601  62.5093948
 105.3817761 109.8745539  54.4609173 106.1548637 109.3274526  54.3222049
 105.7343160 110.7389788  54.6723635 107.2202804 111.2021921  67.6676073
 106.9292670 112.1067552  67.5522739 107.8559788 111.2438449  68.3820142
 108.1459011 108.5798770  64.2577432 108.7422583 108.3554792  63.5434395
 108.2033982 107.8383515  64.8602880 107.7184039 106.0338205  52.0927623
 107.9709560 105.5119726  51.3311086 106.7808598 105.8704350  52.1954307
 112.7627322 105.0373983  59.9002367 113.5490411 104.6193406  59.5492784
 113.0266026 105.9420075  60.0684015 112.9337399 110.4746834  54.5991023
 112.2983232 110.5481460  55.3111928 112.6034806 111.0640432  53.9210103
 118.1635749 104.9749216  60.8035345 118.8960921 104.4048433  61.0373175
 117.4075105 104.5870817  61.2441851 107.4380328 107.9366311  54.2951998
 107.3216586 107.2611214  54.9633083 107.5482588 107.4498685  53.4784151
 109.7811869 107.3976458  57.9998688 109.4170076 106.8707079  58.7111609
 110.6378985 107.0074927  57.8265173 115.6861169  98.6870791  65.2629954
 115.3544494  99.5566202  65.0391169 115.0906783  98.3707075  65.9423984
 109.4217356 102.4266358  52.9960036 109.5891758 103.2946594  53.3630507
 109.2314525 102.5893639  52.0721325 112.1792689 110.8883337  64.6625866
 111.8793412 111.7908375  64.5541674 111.8343748 110.6215520  65.5147019
 105.6305170 107.3397133  60.6962571 104.7055667 107.2073348  60.9040263
 105.8789583 108.1191353  61.1932513 115.5789833 103.4065877  62.3423304
 114.6706710 103.3381285  62.0482065 115.5277428 103.8837822  63.1705129
 109.4006576 104.8824015  53.9806703 109.2806202 105.3281066  54.8192183
 108.7059165 105.2309333  53.4220241 102.9913981 106.9830407  61.5306360
 103.1206362 107.2364886  62.4445772 102.3111433 107.5758115  61.2111015
 109.6530698 104.8255522  70.2858201 108.8764032 105.3849442  70.2761066
 110.2921261 105.3112305  70.8073071 117.4451479 101.6082315  64.1201178
 116.8025859 101.9014848  63.4740972 116.9406407 101.4935235  64.9254374
 115.0991643 105.3545488  54.8087037 116.0109499 105.5872875  54.6334735
 114.5901290 105.9382533  54.2462116 107.9077071 107.6340976  69.8476168
 108.6491755 108.1726020  69.5710992 107.2014056 108.2607264  70.0047720
 113.3832410 109.7770116  68.4448330 113.7915766 109.3352527  67.7002962
 112.6609672 109.2022744  68.6982522 109.7363480 104.7142723  65.8181886
 110.5824676 105.1382136  65.9616535 109.6762118 104.0576347  66.5120450
 113.7061225 110.3371307  62.2000618 113.0770087 110.5017021  61.4976686
 113.3186887 110.7512916  62.9711582 112.8862926 102.3747091  67.4763060
 112.6423858 103.1289152  66.9397336 113.1622856 102.7532439  68.3110307
 114.8401388 108.9185704  66.1540326 115.0518284 109.5617464  65.4774707
 114.7931137 108.0848020  65.6862256 112.4427617 101.5303524  63.0576898
 111.5812096 101.8284778  63.3493635 112.4690052 101.7473923  62.1257930
 109.2589187 110.0745715  59.4650704 109.7227532 110.3533418  58.6755326
 108.9945985 109.1729159  59.2823794 106.1513268 109.6217196  62.4030467
 106.7214625 110.0504465  61.7647951 106.7421380 109.3399781  63.1014652
 108.1958073 106.1968867  56.2740269 108.8982116 106.6489911  56.7414195
 107.8638701 105.5552686  56.9020162 106.6438434 104.7880624  70.6491478
 106.0137095 105.4696905  70.8826875 106.5374522 104.6763705  69.7044616
 101.9383407 104.4552420  61.5757402 101.1482461 104.7109948  61.0997513
 102.4294654 105.2700758  61.6809443 103.8898152 104.8196999  58.5340879
 103.0929315 104.9315693  59.0524375 103.6623744 105.1583651  57.6681769
 109.7203820 111.3441702  66.4823394 109.7848252 111.8062110  67.3181565
 109.0114744 110.7139067  66.6105703 100.2221110 104.7082910  64.0072393
 100.4729148 105.5929920  64.2729969 100.7580658 104.5287512  63.2347485
 109.4351837 113.0109810  56.3502374 109.2997512 113.8561346  56.7787222
 109.9761650 113.2129088  55.5868308 105.9219177  99.0901390  73.0116729
 105.5286123  98.5367588  73.6864373 106.7385317  99.4011968  73.4023247
 102.8881235 110.5285248  56.9230299 103.4005755 111.3228498  57.0735864
 103.5403948 109.8311538  56.8563900 104.6976120 113.6451004  59.0053052
 104.8742748 114.5668969  58.8174036 105.4932953 113.3309423  59.4347432
 108.8387138 100.5059269  70.6036986 109.5796851 101.1066422  70.5241448
 109.0705061  99.7636907  70.0455028 103.9828476 105.6915636  68.8815215
 103.8681991 104.7900893  69.1822314 103.1272994 105.9379333  68.5300032
 105.8207435 115.1629178  65.0063394 106.3714860 115.0346241  64.2340388
 104.9818911 115.4624067  64.6558287 109.6174606 111.4280306  69.3507626
 110.1502943 110.6668594  69.1206934 109.0888687 111.1353958  70.0931780
 112.7844301  96.5340372  64.8801267 112.4408570  97.4242013  64.8040378
 113.1523264  96.3442029  64.0170852 100.8530152 108.8573902  57.6989870
 101.6905374 109.2670911  57.4823577 101.0308419 107.9173344  57.6690063
 112.7494584 106.5248983  53.3873702 112.2341207 107.2953587  53.6262090
 112.4771892 105.8514119  54.0106764 110.3341695 101.3698684  58.4458941
 109.4783291 100.9805534  58.2664580 110.7468647 101.4490644  57.5858726
 111.8640841  98.9045027  62.8450501 111.3605637  98.8675162  62.0318306
 112.1571448  99.8137770  62.9047157 108.1083727  98.9883757  61.8516682
 108.9736724  98.7926565  61.4922572 108.1761236  98.7594108  62.7786039
 112.5380887 104.3976075  55.2133484 112.2331023 104.7122224  56.0643627
 113.4911329 104.4757495  55.2560817 110.9827319 110.5566298  56.8626438
 110.4548680 109.8219058  56.5499675 110.4814822 111.3340975  56.6166406
 105.7146046 101.2185965  59.2233049 106.2889798 100.9961146  58.4906242
 106.3017029 101.2874659  59.9761650 114.7725624 107.1059691  60.0297426
 115.2857505 107.7389683  60.5319135 115.4226848 106.5060887  59.6640786
 106.0415634 103.2490426  53.2428934 105.2052946 103.5865112  53.5638209
 105.9020403 103.1139405  52.3056071 108.0168714  98.0927213  57.9508119
 107.3633126  97.7776231  57.3264733 107.9749188  97.4702954  58.6767941
 109.1279919 108.3746509  49.8661411 108.2206981 108.1435762  50.0652560
 109.6250951 107.5784128  50.0535392 111.2506454 104.5809147  62.2755766
 110.3329016 104.8024094  62.1177454 111.6666598 104.6555457  61.4167474
 112.0341502 105.9800563  57.4058446 112.7813321 106.4921960  57.0965569
 112.3033092 105.6584615  58.2662840 110.3068152 108.4759103  54.3885401
 109.3979372 108.1918136  54.4857870 110.3363236 108.8958182  53.5288708
 114.4820339 103.0157679  59.3877236 113.7443096 102.5035065  59.7187478
 114.7347113 102.5758061  58.5760513 114.5831967  95.7933931  59.9819005
 114.8890844  94.9331294  59.6944920 115.3084572  96.3851551  59.7817999
 100.8756323 106.1964618  58.3700603 100.6780723 105.6033978  57.6451670
 100.3202987 105.8916828  59.0876542 108.8553046 106.0887724  60.4895196
 108.9101656 105.1361560  60.4137673 108.0444248 106.2447163  60.9736495
 110.0044240 110.0167847  51.7273479 109.5663670 109.3003706  51.2679117
 110.7454681 110.2443962  51.1658571 106.7945406 104.7064784  58.2485575
 105.9813272 105.0058954  58.6550767 107.2904401 104.3120473  58.9660057
 112.3919618 105.1706608  67.0800469 112.7469006 105.3978081  67.9394935
 113.0391749 105.5024985  66.4577724 106.2859481 102.2783139  63.8646810
 106.9258860 102.1371898  63.1669773 105.4537012 101.9917653  63.4885412
 107.0619785 111.5785570  59.9781802 107.8560384 111.0835890  59.7764377
 106.3511477 111.0503433  59.6149508 103.3702549 105.7228651  56.0541555
 102.4400137 105.6613107  56.2711517 103.4660020 105.2004604  55.2578196
 103.2888098 102.2483464  58.6419797 103.5494915 103.1628798  58.5328957
 104.1105270 101.7807907  58.7916410 104.7613023 103.6621221  65.8118621
 105.4336076 103.4538584  65.1631270 103.9342809 103.4643307  65.3723854
 110.6638595 100.2883162  67.8284282 110.0166510 100.9873112  67.7348759
 111.4339610 100.7219306  68.1960530 110.8402729 108.1263927  65.8881102
 111.7694789 108.2775087  65.7150069 110.4193759 108.2147948  65.0329748
 109.6391061 112.1514592  63.6579639 109.5002147 111.7833376  64.5305578
 108.8505657 112.6662231  63.4863597 111.1896276 111.5296194  61.0468477
 110.8546109 111.4896964  61.9426127 110.6900222 110.8640910  60.5738887
 105.1640520 106.9363824  66.5721058 105.0260318 106.2044063  67.1732597
 106.0745444 106.8472725  66.2905246 114.1255468 108.8752229  51.3205537
 113.5084638 108.1499057  51.2238590 113.6571956 109.6361589  50.9772611
 107.7922821 106.6483784  66.0604738 108.5022439 106.0076976  66.0191356
 107.7492129 106.8996679  66.9830919 106.5051755 103.6349002  67.8800378
 105.9689112 103.1839740  68.5321974 105.9168463 103.7694910  67.1370842
 105.9154014 103.0937653  50.4426841 105.0383480 102.9726454  50.0789088
 106.3911767 102.3023731  50.1905730  97.4356154 107.8814813  60.5368348
  98.1227194 107.5676543  59.9489364  97.2804283 108.7856177  60.2635600
 102.2390876 102.7705009  64.9653372 102.1549065 102.1630679  64.2303782
 101.4173582 103.2614028  64.9662868 112.4114590 101.2558573  60.3323567
 112.9083289 100.5028535  60.0124637 111.6401571 101.2922889  59.7666776
 113.4944371 110.0130260  57.9061990 112.5600649 110.1331723  57.7366695
 113.6721039 109.1102727  57.6422000 108.9949559 103.3975956  60.0595252
 108.6247346 102.8446996  60.7476157 109.4908651 102.7934089  59.5070252
 116.8816922 105.8547579  58.4412025 117.3477374 106.6875571  58.3672327
 117.3324422 105.3892561  59.1457283 106.8238757 113.8573451  67.1550270
 107.5248217 114.4909934  67.3079664 106.3533872 114.1988182  66.3945909
 114.8533585  98.2228166  62.4802926 113.9396664  98.4532393  62.6485133
 115.2826686  98.3066610  63.3316958 114.6240043 106.4118058  64.9802820
 113.9711493 106.6593966  64.3255273 115.0020423 105.5982196  64.6465297
 110.6727616 107.1537869  71.4668857 109.9968253 107.0531999  72.1371232
 111.4955250 106.9977083  71.9304854 102.4206475 113.3909806  64.0881372
 103.0059912 112.6453494  64.2209277 102.2231314 113.7013763  64.9718036
 105.2745130 116.4261053  59.1043815 104.6055506 116.9107181  58.6207855
 105.1358000 116.6730274  60.0187193  97.0124130 105.9615406  62.8085815
  97.0508230 105.4278997  63.6022934  96.5064423 105.4350612  62.1896793
 104.3914892 100.8079947  66.3048358 104.4556219 101.6694778  65.8925755
 104.3282013 100.1953948  65.5720716 103.8667165 102.8803079  69.9521392
 104.4939204 102.4980156  70.5658916 103.0095084 102.6617281  70.3177085
 100.6432708 104.6879508  55.8839747 100.9386149 103.7790187  55.8306801
  99.7420743 104.6667248  55.5620749 104.1726955 102.7635505  61.8667295
 103.4513540 103.3771473  61.7274769 104.9620210 103.2993270  61.7883941
 106.9753268 100.0989931  68.1407947 107.4987670 100.3452228  68.9034257
 106.7565601 100.9309966  67.7211085 102.3720549 102.3693606  56.0079072
 102.0433255 101.4890985  55.8254178 102.7259920 102.3141275  56.8955461
 105.4862372 102.6566576  56.3754550 105.8258445 103.1852497  55.6533158
 105.9334493 102.9946982  57.1513116 108.1805813 101.0403626  65.8257618
 107.8402634 100.2411440  66.2278298 107.4744819 101.3405337  65.2534451
 108.8322285  98.1252939  64.2784941 109.6548354  97.6513417  64.1563831
 109.0760349  98.9043423  64.7783627 107.4730519 101.1541197  54.5747842
 108.1938882 101.5322450  54.0711559 106.8495824 101.8730074  54.6782820
 111.6161642 101.8586346  55.5106175 111.8325257 102.7410984  55.2095003
 111.1355710 101.4672560  54.7811817 106.3560864 104.8172060  62.0876919
 106.2105444 105.1312363  62.9801201 105.8786067 105.4356960  61.5347818
 108.2157247 101.8074607  62.1357809 108.2018815 100.9115701  61.7990107
 108.9329675 101.8145271  62.7696095 110.0683377 102.2411948  64.1810936
 109.8101155 103.1629018  64.1795267 109.5368418 101.8442382  64.8711400
 100.8306526 107.3577404  65.0264581 100.2859994 108.1337212  65.1584855
 101.7085876 107.7048208  64.8683702 107.6194143 100.6888988  57.4045379
 107.7410054  99.7605634  57.6036267 107.3296185 100.7027674  56.4923694
 110.4885333  98.3743898  60.5412099 110.5107030  98.4383231  59.5864078
 110.9053392  97.5348407  60.7352605 101.6172548 106.4847300  67.9194737
 100.8754284 106.6329936  68.5059368 101.2965292 106.7455566  67.0561487
 102.0629161 114.3712729  59.9505132 102.8887181 114.0716501  59.5703776
 101.7123213 113.6020351  60.3994921 107.0310695 113.7239197  62.0202806
 106.4090704 113.0609902  61.7205034 107.7015562 113.7500329  61.3376453
 100.2637766 112.2899055  60.9094066  99.4269675 111.8621230  60.7278067
 100.2361412 112.4831499  61.8464857 107.1035222 102.2020985  71.6135312
 107.1523378 103.0783108  71.2313081 107.6457736 101.6598378  71.0406955
 106.5924202 112.2743120  55.4961266 106.7412322 112.9578585  54.8427939
 107.3990645 112.2548211  56.0110722 114.9991705 105.5785503  69.5228484
 115.9001568 105.4391968  69.2312482 115.0739680 105.7439958  70.4626661
 109.3334511 102.9552358  68.3681670 108.4637820 103.2485924  68.0964259
 109.5693991 103.5392803  69.0888934 117.4593328 107.1384131  66.9191257
 117.9347449 107.3311777  66.1110108 116.5358893 107.1943317  66.6734640
 104.3476834 108.3008298  56.5022335 104.1022876 107.3970628  56.7002545
 104.5172749 108.3025449  55.5601813 112.0373544  99.1731974  65.8847091
 112.5555488  99.9093001  65.5593579 111.6828677  99.4795968  66.7193850
 103.6172482 104.0336656  54.0008497 102.9241727 104.1081011  53.3448533
 103.3724234 103.2696999  54.5230013 112.2886139  95.5932257  61.4047987
 112.5687892  94.9255446  62.0308414 113.0736745  95.7861353  60.8922651
 116.1594997 104.0149891  65.1519562 117.1112420 104.1147989  65.1731786
 115.9898447 103.2228160  65.6617647 114.1809376 101.1005474  65.3378963
 113.5859308 101.3810487  64.6425452 113.8959073 101.5899375  66.1095704
 110.4766406 106.1052064  50.3089066 111.4225510 105.9758272  50.3777484
 110.0980650 105.3666726  50.7858494 118.7877563 104.0267054  64.3120145
 118.2716612 103.2425511  64.1250074 119.6717512 103.6985771  64.4766665
 116.4488290  97.7708070  60.2715958 116.2513111  97.4623158  61.1559290
 117.0587996  98.4969709  60.4013888 110.3605098 110.1569810  71.7689723
 111.2808108 110.3348409  71.9629770 110.3254681 109.2125855  71.6169422
 108.6609323 104.0302040  50.2443951 107.7540778 103.7335153  50.3206665
 108.9385304 103.7331858  49.3778238  99.5787263 105.3508403  60.6942998
  99.2590047 104.4973712  60.4017372  99.0320691 105.5656982  61.4500965
 103.3567171 108.0670844  64.4112504 103.5753180 108.9987952  64.4300538
 103.7692944 107.7078819  65.1967308 110.2771388  98.5738930  56.3988193
 109.4672117  98.2286015  56.7743439 110.9655805  98.2646473  56.9875804
 112.2061937  97.6516977  58.0212489 112.7592975  98.0712430  58.6802512
 112.4432023  96.7252725  58.0635445 108.2295036 103.6404050  73.8015253
 108.1291763 104.5898407  73.7327344 108.0116578 103.3122289  72.9291323
 107.4308107 100.8888975  50.3855931 108.2927271 101.2143874  50.6451748
 107.6158451 100.1020471  49.8728996  99.4475523 108.9711315  62.6636119
  98.7538994 108.5565268  62.1506074 100.1948514 109.0131851  62.0669538
 115.5840744  99.7617502  57.5291154 115.0039413 100.4202306  57.1469206
 115.3176676  98.9394846  57.1178571 114.0344310  99.1622559  59.7312474
 114.5344089  99.2739094  58.9226793 114.6779918  98.8583612  60.3713282
 108.0926306 107.0701189  72.6180315 107.6093388 107.8701549  72.8244204
 108.1787245 107.0809134  71.6647759 101.3612266 108.9029569  60.5402134
 101.3382954 109.0017256  59.5884017 101.6712902 109.7494720  60.8619300
 104.0199643 110.9605724  64.6548749 104.9742897 110.9289666  64.5878680
 103.8212167 110.4996347  65.4698975 104.6099026 109.5306840  67.2219546
 105.4291915 110.0250918  67.2454384 104.8835833 108.6138808  67.1937114
 114.3665622 101.9217592  56.5847502 113.4791477 102.2067243  56.3667697
 114.7819611 101.7611355  55.7374779 117.7180158 101.9464113  60.3001841
 118.4940548 102.4360566  60.5726458 116.9928292 102.3722167  60.7573711
 120.1552717 102.6591732  61.3575782 120.7497207 102.4187468  60.6469090
 120.2279300 101.9398863  61.9849318 102.3749872 116.5025343  61.6718946
 102.2404340 115.7425744  61.1056945 101.9581935 117.2266243  61.2047735
 114.3406646 107.4372128  56.7997792 114.2841847 107.8940679  55.9605424
 114.8934988 106.6762813  56.6220635 118.1511451 103.2261860  57.6247911
 117.8948386 102.8258496  58.4556119 117.5264319 103.9405654  57.4998051
 115.0741425 108.6276909  54.0950321 115.0190229 108.4621181  53.1538765
 114.4487480 109.3352942  54.2512511  99.8633940 103.8644974  67.9211743
 100.5092803 103.3543928  68.4098969  99.6551091 104.6013655  68.4955169
 108.3837550  98.1285018  53.6735640 108.3716220  99.0726858  53.8303910
 109.2760972  97.9455164  53.3795101 112.1989670  94.7227795  57.9281576
 111.4322066  94.1686282  58.0738259 112.6100375  94.7949664  58.7895728
 104.2031431 101.0112591  72.0186758 105.0662892 100.6549396  72.2290082
 103.6296841 100.6726486  72.7062162  44.9813234  -7.7039426  49.4855990
  44.6431745  -7.8198361  48.5976525  45.8503002  -8.1048261  49.4656996
  40.8400050  -5.8503950  45.4752881  40.2764915  -5.9414013  44.7069169
  40.7252445  -6.6704045  45.9555373  45.4633017  -6.5504574  55.4442195
  45.4521658  -6.9451776  54.5722699  45.6253656  -7.2838502  56.0375967
  38.3864482  -4.3552758  48.3137101  39.1785773  -4.6961933  47.8983401
  38.6261132  -4.2457783  49.2339255  46.4199608  -2.1832982  40.7867346
  45.7687588  -1.5978901  40.4001360  47.2143971  -1.6526787  40.8462383
  40.3455235  -5.0943845  41.1854480  41.1186111  -5.6414858  41.0467356
  40.6980634  -4.2299595  41.3968941  42.1840278  -3.7667462  54.3921379
  41.8930144  -2.8621832  54.2768046  42.8197262  -3.7250935  55.1065449
  43.1096485  -6.3890614  50.9822739  43.7060057  -6.6134591  50.2679702
  43.1671456  -7.1305868  51.5848187  42.6821513  -8.9351179  38.8172930
  42.9347034  -9.4569657  38.0556393  41.7446072  -9.0985033  38.9199614
  47.8974873  -4.4942550  41.3236330  47.2620706  -4.4207923  42.0357235
  47.5672280  -3.9048951  40.6455409  42.4017802  -7.0323073  41.0197305
  42.2854060  -7.7078169  41.6878389  42.5120062  -7.5190699  40.2029458
  44.7449343  -7.5712926  44.7243994  44.3807550  -8.0982305  45.4356916
  45.6016459  -7.9614456  44.5510480  47.1430163  -4.0806047  51.3871173
  46.8430886  -3.1781008  51.2786980  46.7981223  -4.3473864  52.2392326
  40.5942645  -7.6292250  47.4207878  39.6693141  -7.7616036  47.6285569
  40.8427058  -6.8498031  47.9177820  37.9551456  -7.9858977  48.2551667
  38.0843837  -7.7324498  49.1691078  37.2748907  -7.3931269  47.9356322
  42.1250943   2.6838273  44.3542141  42.0474973   3.6346099  44.4330621
  41.5212586   2.3384146  45.0117067  42.8714545  -7.3348408  56.5721475
  43.6129229  -6.7963364  56.2956298  42.1651530  -6.7082119  56.7293026
  48.3469885  -5.1919267  55.1693636  48.7553241  -5.6336857  54.4248269
  47.6247146  -5.7666640  55.4227829  48.6698699  -4.6318077  48.9245925
  48.0407562  -4.4672363  48.2221993  48.2824361  -4.2176467  49.6956889
  52.5487931  -3.6963639  46.2790289  51.8638969  -3.3164737  45.7287322
  52.6331780  -3.0868312  47.0122237  49.8038863  -6.0503680  52.8785632
  50.0155758  -5.4071920  52.2020013  49.7568611  -6.8841363  52.4107562
  44.2226661  -4.8943669  46.1896010  44.6865007  -4.6155966  45.4000633
  43.9583459  -5.7960224  46.0069101  41.1150742  -5.3472187  49.1275773
  41.6852099  -4.9184919  48.4893258  41.7058854  -5.6289602  49.8259959
  43.1595547  -8.7720516  42.9985575  43.8619591  -8.3199473  43.4659502
  42.8276176  -9.4136697  43.6265468  41.6075909 -10.1808760  57.3736785
  40.9774569  -9.4992479  57.6072182  41.5011997 -10.2925678  56.4289923
  50.9184691  -3.1731724  51.0507990  51.7402134  -3.5751537  50.7690671
  50.9147094  -3.2763490  52.0024105  44.6841294  -3.6247681  53.2068700
  44.7485727  -3.1627274  54.0426872  43.9752218  -4.2550316  53.3351010
  44.3989312  -1.9579574  43.0747681  44.2634987  -1.1128038  43.5032528
  44.9399124  -1.7560296  42.3113614  37.8518709  -4.4404136  43.6475606
  38.3643230  -3.6460885  43.7981170  38.5041422  -5.1377845  43.5809207
  39.6613594  -1.3238379  45.7298359  39.8380222  -0.4020415  45.5419343
  40.4570427  -1.6379960  46.1592739  46.0257788  -1.3356007  57.2048023
  45.5821642  -2.1219629  56.8868927  46.6875002  -1.1476857  56.5391913
  40.7844909   0.1939794  51.7308701  41.3352334   0.0656858  50.9585695
  39.9456385   0.4934684  51.3803594  48.1239026  -1.0553207  55.2329424
  48.1057502  -0.2344326  54.7409693  49.0458946  -1.1799132  55.4579565
  44.5812080  -3.5409078  56.0752932  45.1140417  -4.3020789  55.8452240
  44.0526162  -3.8335426  56.8177087  52.6866332  -5.6908046  42.0472183
  51.9095775  -6.0296886  41.6027345  53.3657813  -5.6855423  41.3727148
  45.9464793  -4.4123085  43.5871744  45.4186155  -5.1470326  43.2744982
  45.4452296  -3.6348409  43.3411713  50.9257639  -6.2174065  48.7038791
  50.2681314  -5.5274803  48.7918919  51.7298038  -5.8277633  49.0472777
  44.0917393  -6.5942875  36.5906717  43.1844455  -6.8253621  36.7897866
  44.5888425  -7.3905256  36.7780699  46.9985472   2.1154632  39.5103403
  46.3247171   2.4186329  40.1188361  47.3851294   2.9183713  39.1608861
  45.2705627  -6.4930280  41.1130707  44.3616846  -6.7771247  41.2103177
  45.3000711  -6.0731202  40.2534014  50.5024894  -2.8823691  44.8821875
  50.0487221  -3.7232781  44.9387065  49.8718861  -2.2462292  45.2196655
  48.9457833  -1.0447194  45.8171693  49.2380808  -0.4842137  45.0984059
  49.4556454  -0.7518633  46.5724852  44.9681715  -4.9521536  38.4518786
  44.5301144  -5.6685677  37.9924423  45.7092155  -4.7245422  37.8903877
  43.9091459  -0.2666843  46.9065146  43.8667637  -0.0405996  45.9773678
  44.8254157  -0.5003468  47.0550947  53.1124209  -4.6087812  49.5206376
  53.5460716  -4.7012523  50.3689430  53.8255790  -4.6330312  48.8826392
  42.0257259  -3.3903814  46.7027109  42.8197858  -3.8853494  46.5009684
  41.3148952  -3.9185951  46.3394815  46.8452104  -1.0085718  51.0539477
  46.8989126  -0.4394782  51.8217193  45.9766885  -0.8383833  50.6893514
  53.9739758  -4.5664112  52.0539261  54.1675649  -3.6618301  52.2998536
  53.8740377  -5.0256693  52.8877846  49.0354867  -4.4157369  57.6280142
  48.8840374  -4.6446817  56.7110226  49.0259547  -3.4586768  57.6411487
  45.8040204  -6.8425456  52.6126408  46.7332264  -6.6914297  52.4395376
  45.3831234  -6.7541435  51.7575055  44.6028535  -2.8174792  50.3824946
  44.4639621  -3.1856007  51.2550884  43.8143132  -2.3027152  50.2108904
  45.1976687   2.2834305  41.7250483  45.3728443   1.8122348  42.5396105
  44.5109475   2.9100071  41.9531743  46.1533751  -3.4393189  47.7713784
  45.8183583  -3.4792419  48.6671434  45.6537696  -4.1048473  47.2984194
  40.1277994  -8.0325559  53.2966365  39.9897792  -8.7645320  53.8977904
  41.0382918  -8.1216659  53.0150553  49.0892942  -6.0937155  38.0450844
  48.4722113  -6.8190327  37.9483896  48.6209431  -5.3327794  37.7017918
  42.7560295  -8.3205600  52.7850045  43.4659914  -8.9612408  52.7436663
  42.7129603  -8.0692705  53.7076225  50.7447074  -1.3838246  55.7056624
  50.6859620  -2.0679026  55.0387207  51.1466592  -0.6419256  55.2537250
  39.7637773   5.4323667  48.4990343  40.0034371   6.0642192  49.1769361
  38.9206969   5.0811707  48.7855702  50.7464481  -3.4198662  53.9370604
  49.8591260  -3.7572741  54.0597002  51.3163032  -4.1515631  54.1739369
  44.2765634   1.2402790  50.9031847  44.2035806   2.0457761  51.4151151
  43.8343028   1.4394756  50.0779868  44.0655414   0.4774560  44.4134668
  43.2822936   1.0196240  44.5072893  44.7648159   0.9948540  44.8128909
  46.7364318   1.1389624  53.0590005  47.4492290   1.7737089  52.9865907
  46.2454347   1.2353490  52.2430007  48.4581845  -4.9559123  44.6307297
  47.5238124  -4.8357661  44.4612001  48.6358513  -5.8586657  44.3667307
  41.7876232  -1.1115933  53.8795576  42.4885691  -0.4779450  54.0324970
  41.3171347  -0.7701201  53.1191216  49.9130627  -2.7697983  42.1643483
  50.1890471  -2.8841388  43.0737357  49.0435126  -3.1680498  42.1255656
  46.5484691   1.4788368  45.8076297  46.7307086   0.6610024  46.2704049
  47.3717677   1.6956060  45.3701187  46.8826857   0.4056553  43.0691345
  47.4114623  -0.1050992  42.4561507  47.1455076   0.0899083  43.9336878
  45.6365091  -7.8151514  58.1914164  44.9605728  -7.9157385  58.8616539
  46.4592724  -7.9712300  58.6550161  37.3843950  -1.5779578  50.8126679
  37.9697386  -2.3235890  50.9454583  37.1868788  -1.2675621  51.6963343
  40.2382605   1.4571670  45.8289121  39.5692980   1.9417797  45.3453161
  40.0995475   1.7040890  46.7432500  44.3787873   3.4915413  52.4271780
  44.9306181   3.6547035  53.1920865  44.7194067   4.0819851  51.7551805
  49.2298748  -1.6823329  58.2820434  49.7738652  -1.0693371  57.7875389
  48.6485593  -1.1243751  58.7987447  47.5156261   1.4397389  49.4135462
  47.3907400   0.6387129  48.9046407  48.1735352   1.9343582  48.9249432
  49.5791169  -0.7593591  51.0415012  48.6321505  -0.8788240  50.9693339
  49.9273942  -1.6471093  51.1241273  46.5837602  -0.9640875  47.2419364
  46.4362565  -1.8924167  47.4226934  47.4091096  -0.9420784  46.7576439
  50.1871724  -0.1412316  48.3284237  51.1118272  -0.3469455  48.1908688
  50.0187028  -0.3895915  49.2373578  41.3198338 -10.1517324  48.8122226
  41.1742919  -9.8377021  49.7046508  40.8423542  -9.5332424  48.2593125
  49.9767040   0.3773351  43.6846328  50.1503918  -0.1880226  42.9320181
  50.4695932   1.1774246  43.5025818  50.9642213  -0.3059884  40.7843227
  51.6593118   0.3146808  41.0030541  51.3065363  -1.1564533  41.0595605
  52.8633636  -2.8560179  42.3130557  53.3884960  -2.5172906  41.5879877
  52.7755989  -3.7913163  42.1293692  44.5253685   1.0573895  54.4420434
  44.8340811   0.8123042  55.3143134  45.3229167   1.2620533  53.9539304
  44.5474297   3.2111805  46.6725811  44.1079287   2.7188183  47.3658667
  45.2982414   2.6684772  46.4317886  37.0266636  -0.5976655  46.6750439
  37.8524656  -0.8972883  46.2949082  36.6760688  -1.3669032  47.1240227
  41.9948169  -1.2450186  48.7448112  41.3728178  -1.9079481  48.4450340
  42.6653036  -1.2189054  48.0621760  35.2275241  -2.6790328  47.6339372
  34.3907149  -3.1068154  47.4523374  35.1998886  -2.4857885  48.5710163
  52.5527542  -2.2227275  57.6181755  51.7623086  -2.2403136  57.0786255
  52.3160897  -1.6838981  58.3730792  52.6725417  -5.3734809  54.9314484
  52.7223422  -5.5384801  55.8730007  52.5639340  -6.2407550  54.5412365
  41.5561676  -2.6946263  42.2206573  41.7049796  -2.0110799  41.5673246
  42.3628119  -2.7141173  42.7356029  54.1743614  -2.9537867  55.1756505
  53.8828422  -2.5907887  56.0119966  53.5615745  -3.6670859  54.9969838
  39.3114309  -6.6681085  43.2267642  39.0660351  -7.5718755  43.4247852
  39.4810223  -6.6663935  42.2847120  45.0557081  -0.1998133  39.6918320
  44.4831048   0.4192055  39.2388792  45.6289875   0.3501229  40.2258242
  48.2754341   0.0839018  40.8226903  49.2085014   0.0184579  41.0259778
  48.1877554   0.9195284  40.3641435  50.9042358  -0.5995112  37.7830850
  50.8255989  -0.9335248  38.6766608  51.7252025  -0.1073344  37.7822322
  45.3242572  -4.8119574  58.4935030  46.2445582  -4.6340975  58.6875076
  45.2892155  -5.7563528  58.3414729  38.3204645  -6.9018539  51.1357811
  38.5390655  -5.9701431  51.1545845  38.7330419  -7.2610565  51.9212615
  43.0563780  -7.8988194  59.3425621  42.5730862  -7.0987834  59.5489510
  43.1424719  -7.8880250  58.3893065  36.3249740  -6.0659815  47.2647441
  36.3020428  -5.9672127  46.3129324  36.6350376  -5.2194664  47.5864607
  38.9837118  -4.0083660  51.3794055  39.9380371  -4.0399717  51.3123987
  38.7849641  -4.4693036  52.1944281  39.5736500  -5.4382544  53.9464853
  40.3929389  -4.9438465  53.9699690  39.8473308  -6.3550576  53.9182420
  37.3387347   1.5335960  48.3964253  37.2041815   0.7736361  47.8302251
  36.9219409   2.2576860  47.9293042  48.4746310  -3.2827117  37.4040828
  49.1782160  -3.0777114  38.0198484  47.7508958  -2.7150355  37.6689912
  40.4956472   2.4305277  48.6082696  40.3788857   3.3750709  48.5061386
  39.6748919   2.1278838  48.9968495  50.3833007  -2.8444587  39.4539288
  51.2178611  -3.2763389  39.2716763  50.2217350  -3.0162574  40.3816183
  50.0378899  -6.3412474  40.8195628  49.9827703  -6.5068203  39.8784072
  49.4124954  -5.6336441  40.9757817  47.3524806  -4.0363562  60.1449191
  48.2215966  -3.8622910  59.7835825  46.8731558  -3.2169145  60.0224920
  41.5210987   3.0833539  51.8238624  42.4238233   3.1157149  52.1405119
  41.2948357   2.1533990  51.8384960  43.2764589   1.8364525  48.4848703
  42.3260220   1.8366387  48.3713075  43.5797075   1.0897260  47.9684737
  59.0117282   7.6725064  49.5494465  59.6495692   7.5531811  48.8457805
  58.8938125   8.6205908  49.6082417  55.8206988   7.6252492  49.4855990
  55.4825500   7.5093556  48.5976525  56.6896757   7.2243657  49.4656996
  51.6793804   9.4787968  45.4752881  51.1158669   9.3877905  44.7069169
  51.5646199   8.6587873  45.9555373  56.3026771   8.7787343  55.4442195
  56.2915412   8.3840142  54.5722699  56.4647411   8.0453416  56.0375967
  49.2258236  10.9739160  48.3137101  50.0179528  10.6329984  47.8983401
  49.4654886  11.0834135  49.2339255  57.2593363  13.1458936  40.7867346
  56.6081343  13.7313016  40.4001360  58.0537726  13.6765131  40.8462383
  51.1848990  10.2348073  41.1854480  51.9579866   9.6877060  41.0467356
  51.5374389  11.0992322  41.3968941  53.0234033  11.5624455  54.3921379
  52.7323898  12.4670086  54.2768046  53.6591017  11.6040983  55.1065449
  53.9490239   8.9401304  50.9822739  54.5453812   8.7157326  50.2679702
  54.0065211   8.1986049  51.5848187  53.5215268   6.3940739  38.8172930
  53.7740788   5.8722260  38.0556393  52.5839827   6.2306885  38.9199614
  58.5658551   5.3976517  46.6247673  59.3521640   4.9795941  46.2738090
  58.8297255   6.3022610  46.7929322  58.7368628  10.8349368  41.3236330
  58.1014461  10.9083994  42.0357235  58.4066034  11.4242967  40.6455409
  63.9666978   5.3351751  47.5280652  64.6992150   4.7650967  47.7618481
  63.2106333   4.9473351  47.9687157  53.2411557   8.2968845  41.0197305
  53.1247815   7.6213748  41.6878389  53.3513816   7.8101219  40.2029458
  55.5843097   7.7578992  44.7243994  55.2201305   7.2309613  45.4356916
  56.4410213   7.3677461  44.5510480  61.4892398  -0.9526675  51.9875260
  61.1575723  -0.0831264  51.7636475  60.8938011  -1.2690391  52.6669291
  55.2248584   2.7868892  39.7205343  55.3922987   3.6549128  40.0875814
  55.0345753   2.9496174  38.7966632  57.9823918  11.2485871  51.3871173
  57.6824641  12.1510910  51.2786980  57.6374977  10.9818054  52.2392326
  51.4336399   7.6999668  47.4207878  50.5086896   7.5675882  47.6285569
  51.6820812   8.4793887  47.9177820  61.3821061   3.7668411  49.0668610
  60.4737939   3.6983819  48.7727371  61.3308657   4.2440356  49.8950436
  55.2037805   5.2426549  40.7052010  55.0837430   5.6883600  41.5437490
  54.5090394   5.5911867  40.1465548  48.7945210   7.3432941  48.2551667
  48.9237591   7.5967420  49.1691078  48.1142661   7.9360649  47.9356322
  52.9644697  18.0130191  44.3542141  52.8868727  18.9638016  44.4330621
  52.3606341  17.6676064  45.0117067  55.4561927   5.1858057  57.0103508
  54.6795261   5.7451977  57.0006372  56.0952490   5.6714840  57.5318378
  63.2482708   1.9684849  50.8446484  62.6057088   2.2617383  50.1986279
  62.7437636   1.8537770  51.6499681  60.9022871   5.7148023  41.5332344
  61.8140728   5.9475409  41.3580041  60.3932519   6.2985067  40.9707422
  53.7108299   7.9943510  56.5721475  54.4522984   8.5328554  56.2956298
  53.0045285   8.6209799  56.7293026  59.1863639  10.1372650  55.1693636
  59.5946995   9.6955061  54.4248269  58.4640901   9.5625278  55.4227829
  55.5394709   5.0745257  52.5427193  56.3855904   5.4984671  52.6861842
  55.4793347   4.4178881  53.2365756  59.5092454  10.6973841  48.9245925
  58.8801316  10.8619555  48.2221993  59.1218116  11.1115451  49.6956889
  63.3881686  11.6328279  46.2790289  62.7032724  12.0127180  45.7287322
  63.4725535  12.2423606  47.0122237  58.6894154   2.7349626  54.2008367
  58.4455086   3.4891686  53.6642642  58.9654085   3.1134973  55.0355614
  60.6432617   9.2788238  52.8785632  60.8549512   9.9219998  52.2020013
  60.5962366   8.4450554  52.4107562  58.2458846   1.8906059  49.7822204
  57.3843325   2.1887312  50.0738942  58.2721281   2.1076457  48.8503237
  55.0620416  10.4348249  46.1896010  55.5258761  10.7135952  45.4000633
  54.7977214   9.5331694  46.0069101  51.9544497   9.9819731  49.1275773
  52.5245854  10.4106999  48.4893258  52.5452609   9.7002315  49.8259959
  53.9989302   6.5571401  42.9985575  54.7013345   7.0092445  43.4659502
  53.6669930   5.9155220  43.6265468  52.4469663   5.1483158  57.3736785
  51.8168324   5.8299439  57.6072182  52.3405751   5.0366240  56.4289923
  47.7414636   4.8154954  48.3002709  46.9513690   5.0712483  47.8242819
  48.2325883   5.6303292  48.4054749  61.7578445  12.1560193  51.0507990
  62.5795889  11.7540381  50.7690671  61.7540848  12.0528427  52.0024105
  49.6929381   5.1799533  45.2586186  48.8960544   5.2918228  45.7769681
  49.4654973   5.5186186  44.3927076  55.5235049  11.7044237  53.2068700
  55.5879481  12.1664644  54.0426872  54.8145973  11.0741602  53.3351010
  46.0252339   5.0685445  50.7317700  46.2760377   5.9532454  50.9975276
  46.5611887   4.8890046  49.9592791  69.8484438   8.4998942  47.3992961
  69.0948147   7.9306340  47.2436966  69.9831979   8.4661606  48.3463596
  55.2383066  13.3712344  43.0747681  55.1028741  14.2163880  43.5032528
  55.7792879  13.5731622  42.3113614  51.7250406  -0.5496076  59.7362036
  51.3317352  -1.1029878  60.4109680  52.5416546  -0.2385498  60.1268553
  48.6912464  10.8887782  43.6475606  49.2036984  11.6831032  43.7981170
  49.3435177  10.1914073  43.5809207  50.5007348  14.0053538  45.7298359
  50.6773977  14.9271503  45.5419343  51.2964182  13.6911958  46.1592739
  54.6418367   0.8661803  57.3282292  55.3828080   1.4668956  57.2486755
  54.8736290   0.1239441  56.7700335  49.7859705   6.0518170  55.6060522
  49.6713220   5.1503428  55.9067621  48.9304223   6.2981867  55.2545339
  51.6238664  15.5231712  51.7308701  52.1746089  15.3948776  50.9585695
  50.7850140  15.8226601  51.3803594  55.4205835  11.7882840  56.0752932
  55.9534172  11.0271128  55.8452240  54.8919916  11.4956492  56.8177087
  58.5875530  -3.1057094  51.6046574  58.2439799  -2.2155452  51.5285685
  58.9554492  -3.2955436  50.7416159  46.6561380   9.2176436  44.4235176
  47.4936602   9.6273445  44.2068884  46.8339648   8.2775879  44.3935370
  58.5525813   6.8851517  40.1119009  58.0372436   7.6556122  40.3507397
  58.2803121   6.2116653  40.7352071  56.1372924   1.7301218  45.1704247
  55.2814520   1.3408068  44.9909886  56.5499875   1.8093179  44.3104033
  57.6672070  -0.7352439  49.5695807  57.1636866  -0.7722304  48.7563613
  57.9602677   0.1740304  49.6292464  53.9114956  -0.6513709  48.5761989
  54.7767953  -0.8470900  48.2167878  53.9792465  -0.8803357  49.5031346
  63.5260087   9.6383872  42.0472183  62.7489529   9.2995031  41.6027345
  64.2051568   9.6436495  41.3727148  58.3412116   4.7578609  41.9378790
  58.0362251   5.0724758  42.7888933  59.2942558   4.8360029  41.9806123
  56.7858548  10.9168832  43.5871744  56.2579909  10.1821592  43.2744982
  56.2846050  11.6943509  43.3411713  61.7651394   9.1117853  48.7038791
  61.1075068   9.8017114  48.7918919  62.5691793   9.5014285  49.0472777
  51.5177275   1.5788499  45.9478356  52.0921027   1.3563680  45.2151549
  52.1048258   1.6477193  46.7006957  60.5756852   7.4662226  46.7542732
  61.0888734   8.0992217  47.2564442  61.2258076   6.8663421  46.3886092
  51.8446862   3.6092960  39.9674241  51.0084175   3.9467646  40.2883516
  51.7051632   3.4741940  39.0301378  53.8199943  -1.5470252  44.6753425
  53.1664355  -1.8621235  44.0510040  53.7780417  -2.1694512  45.4013248
  54.9311148   8.7349043  36.5906717  54.0238210   8.5038296  36.7897866
  55.4282180   7.9386662  36.7780699  57.8379227  17.4446550  39.5103403
  57.1640925  17.7478247  40.1188361  58.2245049  18.2475630  39.1608861
  57.0537683   4.9411681  49.0001073  56.1360245   5.1626628  48.8422761
  57.4697827   5.0157992  48.1412780  57.8372731   6.3403097  44.1303753
  58.5844550   6.8524494  43.8210875  58.1064321   6.0187150  44.9908147
  56.1099381   8.8361638  41.1130707  55.2010600   8.5520670  41.2103177
  56.1394465   9.2560716  40.2534014  61.3418649  12.4468227  44.8821875
  60.8880976  11.6059137  44.9387065  60.7112615  13.0829625  45.2196655
  60.2851568   3.3760213  46.1122542  59.5474325   2.8637599  46.4432785
  60.5378342   2.9360595  45.3005819  59.7851588  14.2844724  45.8171693
  60.0774562  14.8449781  45.0984059  60.2950208  14.5773285  46.5724852
  46.6787552   6.5567152  45.0945910  46.4811951   5.9636512  44.3696976
  46.1234216   6.2519362  45.8121848  54.6584275   6.4490258  47.2140503
  54.7132885   5.4964095  47.1382979  53.8475477   6.6049697  47.6981801
  55.8075469  10.3770381  38.4518786  55.3694899   9.6606240  37.9924423
  56.5485910  10.6046496  37.8903877  52.5976635   5.0667318  44.9730882
  51.7844501   5.3661489  45.3796074  53.0935629   4.6723007  45.6905364
  54.7485213  15.0625075  46.9065146  54.7061392  15.2885921  45.9773678
  55.6647912  14.8288449  47.0550947  58.1950847   5.5309142  53.8045775
  58.5500235   5.7580616  54.6640241  58.8422978   5.8627519  53.1823031
  63.9248584   8.6527578  44.5095105  63.7866482   8.8429174  43.5816294
  63.5684803   9.4146961  44.9663156  52.0890710   2.6385673  50.5892117
  52.7290089   2.4974433  49.8915080  51.2568240   2.3520187  50.2130719
  63.9517963  10.7204105  49.5206376  64.3854470  10.6279394  50.3689430
  64.6649544  10.6961606  48.8826392  52.8651014  11.9388104  46.7027109
  53.6591612  11.4438424  46.5009684  52.1542706  11.4105967  46.3394815
  49.1733777   6.0831186  42.7786862  48.2431365   6.0215641  42.9956824
  49.2691249   5.5607138  41.9823503  49.0919326   2.6085998  45.3665103
  49.3526144   3.5231332  45.2574264  49.9136499   2.1410441  45.5161716
  50.5644252   4.0223756  52.5363928  51.2367305   3.8141118  51.8876577
  49.7374038   3.8245842  52.0969160  64.8133513  10.7627806  52.0539261
  65.0069403  11.6673616  52.2998536  64.7134131  10.3035225  52.8877846
  56.4669824   0.6485697  54.5529589  55.8197739   1.3475646  54.4594065
  57.2370839   1.0821840  54.9205837  56.6433958   8.4866461  52.6126408
  57.5726018   8.6377621  52.4395376  56.2224988   8.5750482  51.7575055
  55.4422290  12.5117126  50.3824946  55.3033376  12.1435910  51.2550884
  54.6536886  13.0264765  50.2108904  56.0370442  17.6126222  41.7250483
  56.2122198  17.1414266  42.5396105  55.3503230  18.2391989  41.9531743
  56.9927505  11.8898729  47.7713784  56.6577338  11.8499499  48.6671434
  56.4931451  11.2243445  47.2984194  50.9671749   7.2966359  53.2966365
  50.8291547   6.5646597  53.8977904  51.8776672   7.2075259  53.0150553
  59.9286697   9.2354763  38.0450844  59.3115867   8.5101591  37.9483896
  59.4603185   9.9964123  37.7017918  53.5954050   7.0086318  52.7850045
  54.3053668   6.3679510  52.7436663  53.5523358   7.2599213  53.7076225
  52.3082984   3.9951536  54.6045684  51.7720341   3.5442274  55.2567280
  51.7199692   4.1297445  53.8616149  51.7185243   3.4540187  37.1672148
  50.8414709   3.3328988  36.8034394  52.1942996   2.6626266  36.9151036
  61.5858236  11.9093255  53.9370604  60.6985014  11.5719177  54.0597002
  62.1556787  11.1776286  54.1739369  43.2387383   8.2417347  47.2613655
  43.9258423   7.9279077  46.6734670  43.0835511   9.1458712  46.9880906
  48.0422105   3.1307544  51.6898679  47.9580294   2.5233213  50.9549089
  47.2204811   3.6216562  51.6908175  54.9049169  15.8066478  44.4134668
  54.1216690  16.3488158  44.5072893  55.6041914  16.3240457  44.8128909
  58.2145819   1.6161107  47.0568874  58.7114518   0.8631069  46.7369944
  57.4432800   1.6525424  46.4912083  66.0675576   7.3201473  48.6987165
  66.0565452   8.2026188  48.3281098  65.1992956   6.9673023  48.5041702
  59.2975599  10.3732794  44.6307297  58.3631878  10.4934257  44.4612001
  59.4752268   9.4705261  44.3667307  54.7980787   3.7578490  46.7840558
  54.4278575   3.2049530  47.4721464  55.2939880   3.1536624  46.2315558
  62.6848151   6.2150114  45.1657331  63.1508603   7.0478105  45.0917634
  63.1355651   5.7495095  45.8702590  52.6269986  14.2175985  53.8795576
  53.3279446  14.8512468  54.0324970  52.1565101  14.5590717  53.1191216
  60.7524382  12.5593935  42.1643483  61.0284226  12.4450529  43.0737357
  59.8828881  12.1611420  42.1255656  60.6564813  -1.4169299  49.2048233
  59.7427893  -1.1865073  49.3730440  61.0857915  -1.3330855  50.0562265
  60.4271272   6.7720593  51.7048127  59.7742722   7.0196500  51.0500579
  60.8051652   5.9584731  51.3710604  57.3878446  16.8080286  45.8076297
  57.5700840  15.9901942  46.2704049  58.2111432  17.0247978  45.3701187
  57.7220611  15.7348471  43.0691345  58.2508378  15.2240925  42.4561507
  57.9848831  15.4191001  43.9336878  48.2237704  13.7512340  50.8126679
  48.8091141  13.0056028  50.9454583  48.0262543  14.0616297  51.6963343
  51.0776359  16.7863587  45.8289121  50.4086735  17.2709715  45.3453161
  50.9389229  17.0332808  46.7432500  42.8155359   6.3217940  49.5331122
  42.8539458   5.7881531  50.3268240  42.3095652   5.7953146  48.9142099
  50.1946121   1.1682481  53.0293664  50.2587448   2.0297312  52.6171062
  50.1313241   0.5556482  52.2966023  49.6698394   3.2405613  56.6766699
  50.2970432   2.8582691  57.2904223  48.8126313   3.0219815  57.0422391
  46.4463936   5.0482042  42.6085053  46.7417377   4.1392721  42.5552107
  45.5451972   5.0269782  42.2866056  49.9758183   3.1238039  48.5912602
  49.2544769   3.7374007  48.4520075  50.7651439   3.6595804  48.5129248
  52.7784497   0.4592466  54.8653254  53.3018899   0.7054762  55.6279563
  52.5596830   1.2912500  54.4456391  48.1751778   2.7296140  42.7324379
  47.8464484   1.8493519  42.5499485  48.5291149   2.6743809  43.6200768
  57.4231357  14.3651043  47.2419364  57.2756319  13.4367750  47.4226934
  58.2484850  14.3871134  46.7576439  51.2893601   3.0169110  43.0999856
  51.6289674   3.5455031  42.3778465  51.7365722   3.3549516  43.8758423
  61.0265479  15.1879602  48.3284237  61.9512026  14.9822463  48.1908688
  60.8580782  14.9396003  49.2373578  53.9837042   1.4006161  52.5502924
  53.6433862   0.6013974  52.9523604  53.2776048   1.7007871  51.9779758
  54.6353514  -1.5144527  51.0030247  55.4579583  -1.9884049  50.8809138
  54.8791577  -0.7354043  51.5028934  53.2761748   1.5143732  41.2993149
  53.9970111   1.8924984  40.7956866  52.6527052   2.2332608  41.4028127
  57.4192871   2.2188880  42.2351481  57.6356486   3.1013518  41.9340310
  56.9386938   1.8275094  41.5057123  52.1592093   5.1774594  48.8122226
  52.0136673   5.4914897  49.7046508  51.6817296   5.7959494  48.2593125
  54.0188475   2.1677142  48.8603116  54.0050044   1.2718235  48.5235414
  54.7360904   2.1747805  49.4941402  55.8714606   2.6014482  50.9056243
  55.6132384   3.5231553  50.9040573  55.3399647   2.2044916  51.5956707
  60.8160795  15.7065269  43.6846328  60.9897672  15.1411692  42.9320181
  61.3089686  16.5066164  43.5025818  46.6337755   7.7179938  51.7509887
  46.0891223   8.4939746  51.8830162  47.5117105   8.0650743  51.5929009
  53.4225371   1.0491522  44.1290686  53.5441283   0.1208168  44.3281573
  53.1327414   1.0630208  43.2169001  56.2916562  -1.2653568  47.2657406
  56.3138259  -1.2014234  46.3109385  56.7084621  -2.1049059  47.4597912
  66.6700186   8.4701692  45.3036628  67.1131332   7.7209017  44.9055751
  65.7926696   8.4611828  44.9210360  61.8035967  15.0232033  40.7843227
  62.4986872  15.6438726  41.0030541  62.1459118  14.1727385  41.0595605
  47.4203777   6.8449834  54.6440044  46.6785513   6.9932470  55.2304674
  47.0996521   7.1058100  53.7806793  63.7027391  12.4731739  42.3130557
  64.2278715  12.8119012  41.5879877  63.6149743  11.5378754  42.1293692
  55.3868051  18.5403722  46.6725811  54.9473042  18.0480101  47.3658667
  56.1376168  17.9976690  46.4317886  47.8660390  14.7315263  46.6750439
  48.6918410  14.4319035  46.2949082  47.5154442  13.9622886  47.1240227
  52.8341923  14.0841731  48.7448112  52.2121933  13.4212436  48.4450340
  53.5046790  14.1102863  48.0621760  46.0668995  12.6501590  47.6339372
  45.2300904  12.2223764  47.4523374  46.0392641  12.8434033  48.5710163
  52.9066451   2.5623519  58.3380618  52.9554606   3.4385642  57.9558388
  53.4488965   2.0200912  57.7652262  63.5119172   9.9557109  54.9314484
  63.5617177   9.7907116  55.8730007  63.4033095   9.0884368  54.5412365
  52.3955430  12.6345655  42.2206573  52.5443551  13.3181119  41.5673246
  53.2021874  12.6150745  42.7356029  60.8022934   5.9388037  56.2473791
  61.7032797   5.7994502  55.9557788  60.8770909   6.1042492  57.1871968
  55.1365739   3.3154892  55.0926977  54.2669049   3.6088458  54.8209565
  55.3725220   3.8995337  55.8134241  65.0137368  12.3754050  55.1756505
  64.7222177  12.7384031  56.0119966  64.4009500  11.6621059  54.9969838
  66.2133051   9.9406930  47.6959076  67.0479942  10.3796734  47.8596636
  66.3492180   9.4645583  46.8767321  63.2624557   7.4986665  53.6436563
  63.7378678   7.6914311  52.8355415  62.3390122   7.5545851  53.3979947
  50.1508063   8.6610832  43.2267642  49.9054105   7.7573162  43.4247852
  50.3203978   8.6627983  42.2847120  57.8404773  -0.4665491  52.6092397
  58.3586717   0.2695536  52.2838886  57.4859906  -0.1601498  53.4439156
  49.4203711   4.3939190  40.7253803  48.7272956   4.4683545  40.0693839
  49.1755463   3.6299534  41.2475320  55.8950836  15.1293785  39.6918320
  55.3224803  15.7483972  39.2388792  56.4683630  15.6793147  40.2258242
  61.9626226   4.3752425  51.8764869  62.9143649   4.4750523  51.8977093
  61.7929676   3.5830694  52.3862953  59.9840605   1.4608008  52.0624270
  59.3890537   1.7413021  51.3670759  59.6990302   1.9501909  52.8341011
  59.1148096  15.4130935  40.8226903  60.0478769  15.3476497  41.0259778
  59.0271308  16.2487202  40.3641435  61.7436112  14.7296806  37.7830850
  61.6649744  14.3956669  38.6766608  62.5645779  15.2218573  37.7822322
  64.4414303   7.5958545  50.9907169  64.4090624   6.6574546  51.1766853
  65.0514927   7.6742582  50.2572994  56.2797634   6.4654598  37.0334373
  57.2256739   6.3360806  37.1022791  55.9011879   5.7269260  37.5103801
  64.5908792   4.3869588  51.0365452  64.0747841   3.6028045  50.8495381
  65.4748740   4.0588305  51.2011971  62.2519519  -1.8689396  46.9961265
  62.0544340  -2.1774308  47.8804597  62.8619224  -1.1427757  47.1259194
  70.2590853   8.6574552  50.1313205  70.9894242   8.3959840  50.6920909
  69.6497799   7.9203274  50.1715273  68.3406150   6.7982414  50.7287657
  67.6139314   6.6638379  50.1204148  67.9253437   7.1059243  51.5344375
  54.4640551   4.3904574  36.9689258  53.5572007   4.0937687  37.0451972
  54.7416533   4.0934392  36.1023544  45.3818492   5.7110938  47.4188304
  45.0621276   4.8576246  47.1262678  44.8351920   5.9259516  48.1746272
  49.1598399   8.4273379  51.1357811  49.3784409   9.3590486  51.1545845
  49.5724173   8.0681353  51.9212615  56.0802617  -1.0658536  43.1233499
  55.2703346  -1.4111451  43.4988745  56.7687034  -1.3750992  43.7121111
  58.0093166  -1.9880489  44.7457796  58.5624204  -1.5685036  45.4047819
  58.2463252  -2.9144741  44.7880752  54.0326265   4.0006584  60.5260560
  53.9322992   4.9500941  60.4572651  53.8147807   3.6724823  59.6536630
  53.2339336   1.2491509  37.1101237  54.0958500   1.5746408  37.3697055
  53.4189680   0.4623005  36.5974303  45.2506752   9.3313849  49.3881426
  44.5570223   8.9167802  48.8751380  45.9979743   9.3734386  48.7914845
  61.3871973   0.1220036  44.2536460  60.8070642   0.7804840  43.8714513
  61.1207905  -0.7002619  43.8423878  59.8375539  -0.4774906  46.4557780
  60.3375317  -0.3658372  45.6472099  60.4811147  -0.7813854  47.0958589
  47.1643494   9.2632103  47.2647441  47.1414183   9.3619790  46.3129324
  47.4744131  10.1097254  47.5864607  49.8230872  11.3208258  51.3794055
  50.7774126  11.2892200  51.3123987  49.6243396  10.8598882  52.1944281
  50.4130254   9.8909374  53.9464853  51.2323143  10.3853453  53.9699690
  50.6867062   8.9741342  53.9182420  60.1696851   2.2820126  43.3092808
  59.2822706   2.5669777  43.0913003  60.5850840   2.1213890  42.4620085
  63.5211387   2.3066647  47.0247148  64.2971777   2.7963100  47.2971764
  62.7959521   2.7324701  47.4819017  65.9583945   3.0194267  48.0821088
  66.5528436   2.7790002  47.3714397  66.0310529   2.3001397  48.7094625
  48.1781101  16.8627877  48.3964253  48.0435569  16.1028278  47.8302251
  47.7613163  17.5868777  47.9293042  59.3140064  12.0464801  37.4040828
  60.0175914  12.2514803  38.0198484  58.5902713  12.6141563  37.6689912
  60.1437874   7.7974662  43.5243099  60.0873076   8.2543214  42.6850731
  60.6966217   7.0365347  43.3465941  63.9542680   3.5864394  44.3493218
  63.6979615   3.1861030  45.1801426  63.3295548   4.3008188  44.2243357
  68.2655018   6.3260467  46.8564509  67.7054576   6.3953657  47.6296072
  67.6598521   6.1501452  46.1364006  51.3350227  17.7597194  48.6082696
  51.2182611  18.7042627  48.5061386  50.5142673  17.4570756  48.9968495
  61.2226761  12.4847330  39.4539288  62.0572365  12.0528529  39.2716763
  61.0611104  12.3129344  40.3816183  60.8772654   8.9879443  40.8195628
  60.8221457   8.8223715  39.8784072  60.2518709   9.6955476  40.9757817
  45.6665169   4.2247508  54.6457050  46.3124032   3.7146462  55.1344275
  45.4582320   4.9616190  55.2200475  54.1868779  -1.5112447  40.3980946
  54.1747449  -0.5670608  40.5549217  55.0792201  -1.6942302  40.1040407
  54.1158343  17.1656443  48.4848703  53.1653974  17.1658305  48.3713075
  54.4190829  16.4189177  47.9684737  50.0062660   1.3715125  58.7432064
  50.8694121   1.0151930  58.9535389  49.4328070   1.0329020  59.4307468
  69.8511037  23.0016981  49.5494465  70.4889447  22.8823729  48.8457805
  69.7331879  23.9497825  49.6082417  66.6600743  22.9544409  49.4855990
  66.3219254  22.8385474  48.5976525  67.5290511  22.5535574  49.4656996
  62.5187559  24.8079886  45.4752881  61.9552424  24.7169823  44.7069169
  62.4039954  23.9879790  45.9555373  67.1420526  24.1079261  55.4442195
  67.1309167  23.7132059  54.5722699  67.3041165  23.3745334  56.0375967
  60.0651990  26.3031077  48.3137101  60.8573282  25.9621902  47.8983401
  60.3048641  26.4126052  49.2339255  68.0987117  28.4750854  40.7867346
  67.4475097  29.0604934  40.4001360  68.8931480  29.0057048  40.8462383
  62.0242744  25.5639991  41.1854480  62.7973620  25.0168978  41.0467356
  62.3768143  26.4284240  41.3968941  63.8627787  26.8916373  54.3921379
  63.5717653  27.7962004  54.2768046  64.4984771  26.9332901  55.1065449
  64.7883994  24.2693221  50.9822739  65.3847566  24.0449244  50.2679702
  64.8458965  23.5277967  51.5848187  64.3609022  21.7232657  38.8172930
  64.6134543  21.2014178  38.0556393  63.4233581  21.5598802  38.9199614
  69.4052305  20.7268435  46.6247673  70.1915394  20.3087858  46.2738090
  69.6691009  21.6314527  46.7929322  69.5762382  26.1641285  41.3236330
  68.9408215  26.2375912  42.0357235  69.2459789  26.7534884  40.6455409
  74.8060732  20.6643668  47.5280652  75.5385904  20.0942885  47.7618481
  74.0500088  20.2765269  47.9687157  64.0805311  23.6260763  41.0197305
  63.9641569  22.9505666  41.6878389  64.1907571  23.1393137  40.2029458
  66.4236852  23.0870910  44.7243994  66.0595059  22.5601531  45.4356916
  67.2803968  22.6969379  44.5510480  72.3286153  14.3765242  51.9875260
  71.9969477  15.2460653  51.7636475  71.7331766  14.0601526  52.6669291
  66.0642339  18.1160810  39.7205343  66.2316741  18.9841046  40.0875814
  65.8739508  18.2788091  38.7966632  68.8217672  26.5777788  51.3871173
  68.5218395  27.4802827  51.2786980  68.4768732  26.3109972  52.2392326
  62.2730154  23.0291585  47.4207878  61.3480650  22.8967799  47.6285569
  62.5214567  23.8085805  47.9177820  72.2214816  19.0960329  49.0668610
  71.3131693  19.0275737  48.7727371  72.1702412  19.5732274  49.8950436
  66.0431560  20.5718467  40.7052010  65.9231185  21.0175518  41.5437490
  65.3484148  20.9203785  40.1465548  59.6338965  22.6724859  48.2551667
  59.7631346  22.9259338  49.1691078  58.9536416  23.2652567  47.9356322
  66.2955682  20.5149974  57.0103508  65.5189016  21.0743894  57.0006372
  66.9346245  21.0006757  57.5318378  74.0876462  17.2976767  50.8446484
  73.4450843  17.5909300  50.1986279  73.5831391  17.1829687  51.6499681
  71.7416626  21.0439940  41.5332344  72.6534482  21.2767327  41.3580041
  71.2326273  21.6276984  40.9707422  64.5502054  23.3235428  56.5721475
  65.2916738  23.8620472  56.2956298  63.8439039  23.9501716  56.7293026
  70.0257394  25.4664568  55.1693636  70.4340750  25.0246979  54.4248269
  69.3034655  24.8917196  55.4227829  66.3788464  20.4037175  52.5427193
  67.2249659  20.8276588  52.6861842  66.3187101  19.7470799  53.2365756
  70.3486208  26.0265759  48.9245925  69.7195071  26.1911473  48.2221993
  69.9611870  26.4407368  49.6956889  74.2275440  26.9620197  46.2790289
  73.5426478  27.3419098  45.7287322  74.3119289  27.5715523  47.0122237
  69.5287909  18.0641543  54.2008367  69.2848841  18.8183604  53.6642642
  69.8047839  18.4426891  55.0355614  71.4826372  24.6080156  52.8785632
  71.6943267  25.2511915  52.2020013  71.4356120  23.7742472  52.4107562
  69.0852601  17.2197976  49.7822204  68.2237080  17.5179230  50.0738942
  69.1115035  17.4368375  48.8503237  65.9014170  25.7640167  46.1896010
  66.3652516  26.0427870  45.4000633  65.6370968  24.8623611  46.0069101
  62.7938251  25.3111648  49.1275773  63.3639608  25.7398917  48.4893258
  63.3846363  25.0294233  49.8259959  64.8383056  21.8863319  42.9985575
  65.5407100  22.3384363  43.4659502  64.5063685  21.2447138  43.6265468
  58.5808390  20.1446872  48.3002709  57.7907444  20.4004400  47.8242819
  59.0719638  20.9595210  48.4054749  72.5972200  27.4852111  51.0507990
  73.4189643  27.0832298  50.7690671  72.5934603  27.3820345  52.0024105
  60.5323136  20.5091451  45.2586186  59.7354299  20.6210145  45.7769681
  60.3048728  20.8478103  44.3927076  66.3628803  27.0336154  53.2068700
  66.4273236  27.4956562  54.0426872  65.6539727  26.4033519  53.3351010
  80.6878193  23.8290859  47.3992961  79.9341901  23.2598258  47.2436966
  80.8225734  23.7953524  48.3463596  66.0776821  28.7004262  43.0747681
  65.9422496  29.5455797  43.5032528  66.6186633  28.9023539  42.3113614
  59.5306218  26.2179700  43.6475606  60.0430739  27.0122950  43.7981170
  60.1828931  25.5205990  43.5809207  65.4812121  16.1953721  57.3282292
  66.2221835  16.7960874  57.2486755  65.7130044  15.4531358  56.7700335
  67.7045297  29.3227828  57.2048023  67.2609151  28.5364207  56.8868927
  68.3662511  29.5106979  56.5391913  62.4632418  30.8523630  51.7308701
  63.0139843  30.7240693  50.9585695  61.6243894  31.1518519  51.3803594
  69.8026535  29.6030628  55.2329424  69.7845011  30.4239509  54.7409693
  70.7246455  29.4784703  55.4579565  66.2599589  27.1174758  56.0752932
  66.7927926  26.3563046  55.8452240  65.7313670  26.8248409  56.8177087
  69.4269284  12.2234824  51.6046574  69.0833554  13.1136465  51.5285685
  69.7948247  12.0336481  50.7416159  57.4955135  24.5468354  44.4235176
  58.3330357  24.9565362  44.2068884  57.6733403  23.6067796  44.3935370
  69.3919567  22.2143435  40.1119009  68.8766191  22.9848039  40.3507397
  69.1196876  21.5408571  40.7352071  66.9766678  17.0593136  45.1704247
  66.1208274  16.6699986  44.9909886  67.3893630  17.1385096  44.3104033
  68.5065825  14.5939479  49.5695807  68.0030620  14.5569614  48.7563613
  68.7996432  15.5032222  49.6292464  64.7508711  14.6778209  48.5761989
  65.6161707  14.4821017  48.2167878  64.8186220  14.4488560  49.5031346
  74.3653841  24.9675789  42.0472183  73.5883284  24.6286949  41.6027345
  75.0445322  24.9728413  41.3727148  69.1805870  20.0870527  41.9378790
  68.8756006  20.4016676  42.7888933  70.1336312  20.1651947  41.9806123
  67.6252302  26.2460750  43.5871744  67.0973664  25.5113510  43.2744982
  67.1239805  27.0235427  43.3411713  72.6045148  24.4409771  48.7038791
  71.9468823  25.1309032  48.7918919  73.4085547  24.8306203  49.0472777
  62.3571030  16.9080416  45.9478356  62.9314782  16.6855598  45.2151549
  62.9442012  16.9769111  46.7006957  71.4150607  22.7954143  46.7542732
  71.9282489  23.4284135  47.2564442  72.0651831  22.1955339  46.3886092
  62.6840617  18.9384877  39.9674241  61.8477929  19.2759564  40.2883516
  62.5445386  18.8033857  39.0301378  64.6593697  13.7821665  44.6753425
  64.0058110  13.4670683  44.0510040  64.6174172  13.1597406  45.4013248
  65.7704902  24.0640960  36.5906717  64.8631964  23.8330214  36.7897866
  66.2675934  23.2678580  36.7780699  68.6772981  32.7738468  39.5103403
  68.0034680  33.0770164  40.1188361  69.0638803  33.5767548  39.1608861
  67.8931438  20.2703599  49.0001073  66.9753999  20.4918546  48.8422761
  68.3091581  20.3449909  48.1412780  68.6766486  21.6695015  44.1303753
  69.4238304  22.1816412  43.8210875  68.9458075  21.3479067  44.9908147
  66.9493136  24.1653555  41.1130707  66.0404355  23.8812588  41.2103177
  66.9788220  24.5852634  40.2534014  72.1812403  27.7760145  44.8821875
  71.7274730  26.9351055  44.9387065  71.5506370  28.4121543  45.2196655
  71.1245323  18.7052131  46.1122542  70.3868079  18.1929517  46.4432785
  71.3772096  18.2652512  45.3005819  70.6245342  29.6136641  45.8171693
  70.9168317  30.1741699  45.0984059  71.1343963  29.9065202  46.5724852
  71.2256950  11.4828383  46.7064312  71.5315827  10.6225746  46.4190227
  71.9509555  12.0746003  46.5063306  57.5181306  21.8859069  45.0945910
  57.3205706  21.2928430  44.3696976  56.9627970  21.5811280  45.8121848
  65.4978030  21.7782176  47.2140503  65.5526640  20.8256012  47.1382979
  64.6869232  21.9341615  47.6981801  66.6469224  25.7062299  38.4518786
  66.2088653  24.9898158  37.9924423  67.3879664  25.9338414  37.8903877
  63.4370390  20.3959236  44.9730882  62.6238255  20.6953406  45.3796074
  63.9329384  20.0014924  45.6905364  65.5878968  30.3916993  46.9065146
  65.5455146  30.6177839  45.9773678  66.5041666  30.1580367  47.0550947
  69.0344601  20.8601060  53.8045775  69.3893989  21.0872533  54.6640241
  69.6816733  21.1919437  53.1823031  74.7642338  23.9819496  44.5095105
  74.6260237  24.1721092  43.5816294  74.4078557  24.7438879  44.9663156
  62.9284464  17.9677591  50.5892117  63.5683844  17.8266350  49.8915080
  62.0961995  17.6812105  50.2130719  74.7911718  26.0496023  49.5206376
  75.2248225  25.9571312  50.3689430  75.5043299  26.0253523  48.8826392
  63.7044768  27.2680022  46.7027109  64.4985367  26.7730342  46.5009684
  62.9936461  26.7397885  46.3394815  68.5239613  29.6498117  51.0539477
  68.5776635  30.2189053  51.8217193  67.6554394  29.8200002  50.6893514
  60.0127532  21.4123103  42.7786862  59.0825120  21.3507559  42.9956824
  60.1085004  20.8899056  41.9823503  59.9313081  17.9377916  45.3665103
  60.1919898  18.8523249  45.2574264  60.7530253  17.4702359  45.5161716
  75.6527267  26.0919724  52.0539261  75.8463158  26.9965534  52.2998536
  75.5527886  25.6327143  52.8877846  67.3063578  15.9777614  54.5529589
  66.6591493  16.6767564  54.4594065  68.0764594  16.4113758  54.9205837
  70.7142376  26.2426466  57.6280142  70.5627883  26.0137018  56.7110226
  70.7047056  27.1997068  57.6411487  67.4827713  23.8158379  52.6126408
  68.4119773  23.9669539  52.4395376  67.0618743  23.9042400  51.7575055
  66.2816044  27.8409044  50.3824946  66.1427130  27.4727828  51.2550884
  65.4930641  28.3556683  50.2108904  66.8764196  32.9418140  41.7250483
  67.0515952  32.4706183  42.5396105  66.1896984  33.5683906  41.9531743
  67.8321259  27.2190646  47.7713784  67.4971092  27.1791416  48.6671434
  67.3325205  26.5535362  47.2984194  70.7680451  24.5646681  38.0450844
  70.1509622  23.8393509  37.9483896  70.2996940  25.3256041  37.7017918
  64.4347804  22.3378236  52.7850045  65.1447423  21.6971428  52.7436663
  64.3917112  22.5891130  53.7076225  72.4234583  29.2745589  55.7056624
  72.3647129  28.5904809  55.0387207  72.8254101  30.0164579  55.2537250
  62.5578997  18.7832105  37.1672148  61.6808463  18.6620906  36.8034394
  63.0336750  17.9918183  36.9151036  72.4251990  27.2385173  53.9370604
  71.5378769  26.9011095  54.0597002  72.9950541  26.5068204  54.1739369
  54.0781137  23.5709265  47.2613655  54.7652177  23.2570995  46.6734670
  53.9229266  24.4750629  46.9880906  65.9553143  31.8986625  50.9031847
  65.8823315  32.7041597  51.4151151  65.5130537  32.0978591  50.0779868
  69.0539573  16.9453025  47.0568874  69.5508273  16.1922987  46.7369944
  68.2826555  16.9817341  46.4912083  76.9069331  22.6493390  48.6987165
  76.8959207  23.5318106  48.3281098  76.0386710  22.2964941  48.5041702
  68.4151827  31.7973459  53.0590005  69.1279799  32.4320924  52.9865907
  67.9241856  31.8937325  52.2430007  70.1369354  25.7024712  44.6307297
  69.2025633  25.8226174  44.4612001  70.3146022  24.7997179  44.3667307
  65.6374542  19.0870408  46.7840558  65.2672329  18.5341448  47.4721464
  66.1333634  18.4828541  46.2315558  73.5241905  21.5442031  45.1657331
  73.9902357  22.3770023  45.0917634  73.9749406  21.0787013  45.8702590
  63.4663741  29.5467903  53.8795576  64.1673200  30.1804386  54.0324970
  62.9958856  29.8882634  53.1191216  71.5918136  27.8885853  42.1643483
  71.8677980  27.7742447  43.0737357  70.7222635  27.4903337  42.1255656
  71.4958568  13.9122618  49.2048233  70.5821648  14.1426845  49.3730440
  71.9251669  13.9961062  50.0562265  71.2665026  22.1012510  51.7048127
  70.6136477  22.3488418  51.0500579  71.6445406  21.2876648  51.3710604
  68.2272200  32.1372203  45.8076297  68.4094595  31.3193859  46.2704049
  69.0505186  32.3539896  45.3701187  68.5614366  31.0640388  43.0691345
  69.0902132  30.5532843  42.4561507  68.8242585  30.7482919  43.9336878
  67.3152599  22.8432321  58.1914164  66.6393237  22.7426451  58.8616539
  68.1380233  22.6871535  58.6550161  59.0631459  29.0804258  50.8126679
  59.6484895  28.3347946  50.9454583  58.8656297  29.3908214  51.6963343
  66.0575382  34.1499249  52.4271780  66.6093690  34.3130870  53.1920865
  66.3981576  34.7403687  51.7551805  70.9086257  28.9760506  58.2820434
  71.4526161  29.5890464  57.7875389  70.3273102  29.5340085  58.7987447
  57.2857691  20.3773960  42.6085053  57.5811132  19.4684639  42.5552107
  56.3845727  20.3561700  42.2866056  69.1943770  32.0981224  49.4135462
  69.0694909  31.2970964  48.9046407  69.8522861  32.5927418  48.9249432
  60.8151938  18.4529957  48.5912602  60.0938524  19.0665924  48.4520075
  61.6045194  18.9887722  48.5129248  71.2578678  29.8990244  51.0415012
  70.3109014  29.7795595  50.9693339  71.6061451  29.0112742  51.1241273
  59.0145532  18.0588058  42.7324379  58.6858239  17.1785437  42.5499485
  59.3684903  18.0035726  43.6200768  68.2625111  29.6942961  47.2419364
  68.1150074  28.7659668  47.4226934  69.0878605  29.7163051  46.7576439
  62.1287356  18.3461028  43.0999856  62.4683428  18.8746949  42.3778465
  62.5759476  18.6841434  43.8758423  71.8659233  30.5171519  48.3284237
  72.7905781  30.3114381  48.1908688  71.6974537  30.2687920  49.2373578
  64.8230796  16.7298078  52.5502924  64.4827617  15.9305891  52.9523604
  64.1169803  17.0299789  51.9779758  65.4747268  13.8147391  51.0030247
  66.2973338  13.3407869  50.8809138  65.7185332  14.5937875  51.5028934
  64.1155503  16.8435649  41.2993149  64.8363865  17.2216902  40.7956866
  63.4920807  17.5624526  41.4028127  68.2586626  17.5480798  42.2351481
  68.4750240  18.4305436  41.9340310  67.7780693  17.1567012  41.5057123
  62.9985847  20.5066511  48.8122226  62.8530428  20.8206814  49.7046508
  62.5211051  21.1251412  48.2593125  64.8582230  17.4969059  48.8603116
  64.8443799  16.6010153  48.5235414  65.5754658  17.5039723  49.4941402
  66.7108361  17.9306400  50.9056243  66.4526138  18.8523470  50.9040573
  66.1793401  17.5336834  51.5956707  71.6554549  31.0357187  43.6846328
  71.8291427  30.4703609  42.9320181  72.1483441  31.8358082  43.5025818
  64.2619126  16.3783440  44.1290686  64.3835037  15.4500086  44.3281573
  63.9721168  16.3922126  43.2169001  67.1310316  14.0638350  47.2657406
  67.1532013  14.1277683  46.3109385  67.5478375  13.2242859  47.4597912
  77.5093941  23.7993610  45.3036628  77.9525087  23.0500935  44.9055751
  76.6320451  23.7903746  44.9210360  72.6429722  30.3523951  40.7843227
  73.3380627  30.9730644  41.0030541  72.9852872  29.5019302  41.0595605
  74.5421145  27.8023657  42.3130557  75.0672469  28.1410929  41.5879877
  74.4543498  26.8670672  42.1293692  66.2041194  31.7157730  54.4420434
  66.5128320  31.4706877  55.3143134  67.0016676  31.9204369  53.9539304
  58.7054145  30.0607181  46.6750439  59.5312165  29.7610953  46.2949082
  58.3548197  29.2914803  47.1240227  63.6735678  29.4133649  48.7448112
  63.0515687  28.7504354  48.4450340  64.3440545  29.4394781  48.0621760
  56.9062750  27.9793507  47.6339372  56.0694658  27.5515682  47.4523374
  56.8786395  28.1725951  48.5710163  74.2315051  28.4356560  57.6181755
  73.4410595  28.4180699  57.0786255  73.9948406  28.9744854  58.3730792
  74.3512926  25.2849027  54.9314484  74.4010931  25.1199034  55.8730007
  74.2426849  24.4176286  54.5412365  71.6416689  21.2679955  56.2473791
  72.5426551  21.1286420  55.9557788  71.7164663  21.4334410  57.1871968
  75.8531123  27.7045968  55.1756505  75.5615931  28.0675949  56.0119966
  75.2403254  26.9912976  54.9969838  77.0526805  25.2698848  47.6959076
  77.8873697  25.7088652  47.8596636  77.1885934  24.7937501  46.8767321
  74.1018311  22.8278583  53.6436563  74.5772433  23.0206229  52.8355415
  73.1783877  22.8837769  53.3979947  60.9901818  23.9902750  43.2267642
  60.7447860  23.0865080  43.4247852  61.1597732  23.9919900  42.2847120
  68.6798528  14.8626426  52.6092397  69.1980472  15.5987453  52.2838886
  68.3253660  15.1690420  53.4439156  60.2597465  19.7231108  40.7253803
  59.5666710  19.7975463  40.0693839  60.0149217  18.9591451  41.2475320
  68.9311122  11.2826709  48.1293294  69.2112876  10.6149898  48.7553720
  69.7161729  11.4755805  47.6167958  66.7344590  30.4585703  39.6918320
  66.1618557  31.0775890  39.2388792  67.3077384  31.0085064  40.2258242
  72.8019980  19.7044343  51.8764869  73.7537403  19.8042441  51.8977093
  72.6323431  18.9122611  52.3862953  70.8234360  16.7899926  52.0624270
  70.2284292  17.0704939  51.3670759  70.5384056  17.2793827  52.8341011
  69.9541850  30.7422853  40.8226903  70.8872523  30.6768415  41.0259778
  69.8665063  31.5779120  40.3641435  72.5829867  30.0588723  37.7830850
  72.5043498  29.7248587  38.6766608  73.4039534  30.5510491  37.7822322
  75.2808058  22.9250463  50.9907169  75.2484378  21.9866463  51.1766853
  75.8908682  23.0034499  50.2572994  67.1191389  21.7946516  37.0334373
  68.0650494  21.6652724  37.1022791  66.7405634  21.0561177  37.5103801
  75.4302546  19.7161506  51.0365452  74.9141595  18.9319963  50.8495381
  76.3142495  19.3880223  51.2011971  73.0913273  13.4602522  46.9961265
  72.8938095  13.1517610  47.8804597  73.7012979  14.1864160  47.1259194
  81.0984608  23.9866469  50.1313205  81.8287996  23.7251758  50.6920909
  80.4891553  23.2495191  50.1715273  79.1799905  22.1274332  50.7287657
  78.4533069  21.9930297  50.1204148  78.7647192  22.4351161  51.5344375
  67.0030081  25.8464262  58.4935030  67.9233091  26.0242861  58.6875076
  66.9679664  24.9020307  58.3414729  65.3034306  19.7196492  36.9689258
  64.3965761  19.4229605  37.0451972  65.5810287  19.4226310  36.1023544
  56.2212246  21.0402855  47.4188304  55.9015031  20.1868164  47.1262678
  55.6745675  21.2551433  48.1746272  66.9196372  14.2633382  43.1233499
  66.1097100  13.9180467  43.4988745  67.6080789  13.9540925  43.7121111
  68.8486920  13.3411428  44.7457796  69.4017959  13.7606882  45.4047819
  69.0857006  12.4147177  44.7880752  64.8720019  19.3298502  60.5260560
  64.7716746  20.2792859  60.4572651  64.6541561  19.0016741  59.6536630
  64.0733091  16.5783427  37.1101237  64.9352255  16.9038325  37.3697055
  64.2583435  15.7914923  36.5974303  72.2265727  15.4511954  44.2536460
  71.6464396  16.1096758  43.8714513  71.9601660  14.6289298  43.8423878
  70.6769293  14.8517011  46.4557780  71.1769072  14.9633546  45.6472099
  71.3204901  14.5478064  47.0958589  64.7351289  22.7595641  59.3425621
  64.2518371  23.5596001  59.5489510  64.8212228  22.7703586  58.3893065
  58.0037249  24.5924021  47.2647441  57.9807937  24.6911708  46.3129324
  58.3137885  25.4389171  47.5864607  71.0090605  17.6112044  43.3092808
  70.1216460  17.8961695  43.0913003  71.4244594  17.4505807  42.4620085
  74.3605141  17.6358565  47.0247148  75.1365531  18.1255017  47.2971764
  73.6353275  18.0616619  47.4819017  76.7977700  18.3486184  48.0821088
  77.3922191  18.1081920  47.3714397  76.8704284  17.6293315  48.7094625
  59.0174856  32.1919795  48.3964253  58.8829323  31.4320196  47.8302251
  58.6006918  32.9160695  47.9293042  70.1533819  27.3756719  37.4040828
  70.8569669  27.5806721  38.0198484  69.4296467  27.9433481  37.6689912
  70.9831629  23.1266580  43.5243099  70.9266830  23.5835131  42.6850731
  71.5359971  22.3657265  43.3465941  74.7936435  18.9156312  44.3493218
  74.5373369  18.5152947  45.1801426  74.1689303  19.6300106  44.2243357
  79.1048773  21.6552385  46.8564509  78.5448331  21.7245574  47.6296072
  78.4992276  21.4793370  46.1364006  62.1743981  33.0889112  48.6082696
  62.0576366  34.0334545  48.5061386  61.3536428  32.7862674  48.9968495
  72.0620516  27.8139248  39.4539288  72.8966120  27.3820446  39.2716763
  71.9004859  27.6421262  40.3816183  71.7166408  24.3171361  40.8195628
  71.6615212  24.1515633  39.8784072  71.0912463  25.0247394  40.9757817
  69.0312315  26.6220273  60.1449191  69.9003475  26.7960925  59.7835825
  68.5519067  27.4414690  60.0224920  65.0262534  13.8179470  40.3980946
  65.0141203  14.7621310  40.5549217  65.9185955  13.6349616  40.1040407
  63.1998496  33.7417374  51.8238624  64.1025742  33.7740984  52.1405119
  62.9735866  32.8117825  51.8384960  64.9552098  32.4948361  48.4848703
  64.0047729  32.4950222  48.3713075  65.2584584  31.7481095  47.9684737
  68.8414653  10.4122247  44.6526883  68.0747049   9.8580734  44.7983565
  69.2525358  10.4844116  45.5141035  80.6904791  38.3308899  49.5494465
  81.3283201  38.2115646  48.8457805  80.5725634  39.2789743  49.6082417
  77.4994497  38.2836327  49.4855990  77.1613009  38.1677392  48.5976525
  78.3684266  37.8827492  49.4656996  77.9814280  39.4371179  55.4442195
  77.9702921  39.0423977  54.5722699  78.1434920  38.7037251  56.0375967
  78.9380872  43.8042771  40.7867346  78.2868852  44.3896852  40.4001360
  79.7325235  44.3348966  40.8462383  74.7021541  42.2208291  54.3921379
  74.4111407  43.1253921  54.2768046  75.3378526  42.2624818  55.1065449
  75.2002777  37.0524574  38.8172930  75.4528297  36.5306096  38.0556393
  74.2627336  36.8890720  38.9199614  80.2446060  36.0560353  46.6247673
  81.0309149  35.6379776  46.2738090  80.5084764  36.9606445  46.7929322
  80.4156137  41.4933203  41.3236330  79.7801970  41.5667830  42.0357235
  80.0853543  42.0826802  40.6455409  85.6454487  35.9935586  47.5280652
  86.3779659  35.4234803  47.7618481  84.8893842  35.6057186  47.9687157
  74.9199065  38.9552680  41.0197305  74.8035324  38.2797584  41.6878389
  75.0301325  38.4685054  40.2029458  77.2630606  38.4162828  44.7243994
  76.8988814  37.8893448  45.4356916  78.1197722  38.0261297  44.5510480
  83.1679907  29.7057160  51.9875260  82.8363232  30.5752571  51.7636475
  82.5725520  29.3893444  52.6669291  76.9036093  33.4452727  39.7205343
  77.0710496  34.3132964  40.0875814  76.7133262  33.6080009  38.7966632
  79.6611427  41.9069706  51.3871173  79.3612150  42.8094745  51.2786980
  79.3162486  41.6401889  52.2392326  83.0608570  34.4252246  49.0668610
  82.1525448  34.3567655  48.7727371  83.0096166  34.9024191  49.8950436
  76.8825314  35.9010385  40.7052010  76.7624939  36.3467435  41.5437490
  76.1877903  36.2495702  40.1465548  77.1349436  35.8441892  57.0103508
  76.3582770  36.4035812  57.0006372  77.7739999  36.3298675  57.5318378
  84.9270217  32.6268685  50.8446484  84.2844597  32.9201218  50.1986279
  84.4225145  32.5121605  51.6499681  82.5810380  36.3731858  41.5332344
  83.4928237  36.6059245  41.3580041  82.0720027  36.9568902  40.9707422
  75.3895808  38.6527345  56.5721475  76.1310493  39.1912389  56.2956298
  74.6832794  39.2793634  56.7293026  80.8651148  40.7956486  55.1693636
  81.2734504  40.3538896  54.4248269  80.1428410  40.2209113  55.4227829
  77.2182218  35.7329092  52.5427193  78.0643413  36.1568506  52.6861842
  77.1580856  35.0762717  53.2365756  81.1879963  41.3557676  48.9245925
  80.5588825  41.5203390  48.2221993  80.8005625  41.7699286  49.6956889
  85.0669195  42.2912114  46.2790289  84.3820233  42.6711016  45.7287322
  85.1513044  42.9007441  47.0122237  80.3681663  33.3933461  54.2008367
  80.1242595  34.1475521  53.6642642  80.6441594  33.7718808  55.0355614
  82.3220126  39.9372073  52.8785632  82.5337021  40.5803833  52.2020013
  82.2749874  39.1034390  52.4107562  79.9246355  32.5489894  49.7822204
  79.0630834  32.8471147  50.0738942  79.9508790  32.7660293  48.8503237
  76.7407925  41.0932084  46.1896010  77.2046270  41.3719787  45.4000633
  76.4764723  40.1915529  46.0069101  75.6776811  37.2155237  42.9985575
  76.3800854  37.6676280  43.4659502  75.3457439  36.5739056  43.6265468
  74.1257172  35.8066993  57.3736785  73.4955833  36.4883274  57.6072182
  74.0193260  35.6950075  56.4289923  69.4202145  35.4738789  48.3002709
  68.6301199  35.7296318  47.8242819  69.9113392  36.2887127  48.4054749
  83.4365954  42.8144029  51.0507990  84.2583398  42.4124216  50.7690671
  83.4328357  42.7112263  52.0024105  71.3716890  35.8383369  45.2586186
  70.5748053  35.9502063  45.7769681  71.1442482  36.1770021  44.3927076
  77.2022558  42.3628072  53.2068700  77.2666990  42.8248479  54.0426872
  76.4933482  41.7325437  53.3351010  91.5271947  39.1582777  47.3992961
  90.7735656  38.5890175  47.2436966  91.6619488  39.1245442  48.3463596
  73.4037915  30.1087759  59.7362036  73.0104860  29.5553958  60.4109680
  74.2204055  30.4198338  60.1268553  76.3205876  31.5245638  57.3282292
  77.0615589  32.1252792  57.2486755  76.5523799  30.7823276  56.7700335
  71.4647214  36.7102006  55.6060522  71.3500729  35.8087263  55.9067621
  70.6091732  36.9565702  55.2545339  78.5439052  44.6519746  57.2048023
  78.1002906  43.8656125  56.8868927  79.2056265  44.8398896  56.5391913
  80.6420290  44.9322546  55.2329424  80.6238765  45.7531427  54.7409693
  81.5640210  44.8076621  55.4579565  77.0993344  42.4466675  56.0752932
  77.6321681  41.6854964  55.8452240  76.5707425  42.1540327  56.8177087
  80.2663039  27.5526741  51.6046574  79.9227308  28.4428383  51.5285685
  80.6342001  27.3628399  50.7416159  80.2313322  37.5435352  40.1119009
  79.7159945  38.3139957  40.3507397  79.9590630  36.8700489  40.7352071
  77.8160433  32.3885053  45.1704247  76.9602029  31.9991904  44.9909886
  78.2287384  32.4677014  44.3104033  79.3459579  29.9231396  49.5695807
  78.8424375  29.8861532  48.7563613  79.6390186  30.8324139  49.6292464
  75.5902465  30.0070126  48.5761989  76.4555462  29.8112935  48.2167878
  75.6579974  29.7780478  49.5031346  85.2047596  40.2967707  42.0472183
  84.4277038  39.9578867  41.6027345  85.8839077  40.3020330  41.3727148
  80.0199625  35.4162445  41.9378790  79.7149760  35.7308594  42.7888933
  80.9730067  35.4943864  41.9806123  78.4646057  41.5752668  43.5871744
  77.9367418  40.8405427  43.2744982  77.9633559  42.3527344  43.3411713
  83.4438903  39.7701688  48.7038791  82.7862577  40.4600950  48.7918919
  84.2479302  40.1598120  49.0472777  73.1964784  32.2372334  45.9478356
  73.7708536  32.0147516  45.2151549  73.7835767  32.3061029  46.7006957
  82.2544361  38.1246061  46.7542732  82.7676243  38.7576053  47.2564442
  82.9045585  37.5247257  46.3886092  73.5234371  34.2676795  39.9674241
  72.6871684  34.6051482  40.2883516  73.3839141  34.1325775  39.0301378
  75.4987452  29.1113583  44.6753425  74.8451864  28.7962600  44.0510040
  75.4567926  28.4889323  45.4013248  76.6098657  39.3932878  36.5906717
  75.7025719  39.1622132  36.7897866  77.1069689  38.5970497  36.7780699
  79.5166736  48.1030385  39.5103403  78.8428434  48.4062082  40.1188361
  79.9032558  48.9059466  39.1608861  78.7325192  35.5995517  49.0001073
  77.8147754  35.8210464  48.8422761  79.1485336  35.6741827  48.1412780
  79.5160240  36.9986932  44.1303753  80.2632059  37.5108329  43.8210875
  79.7851830  36.6770985  44.9908147  77.7886890  39.4945473  41.1130707
  76.8798109  39.2104506  41.2103177  77.8181974  39.9144552  40.2534014
  83.0206158  43.1052062  44.8821875  82.5668485  42.2642972  44.9387065
  82.3900124  43.7413461  45.2196655  81.9639077  34.0344048  46.1122542
  81.2261834  33.5221435  46.4432785  82.2165851  33.5944430  45.3005819
  81.4639097  44.9428559  45.8171693  81.7562071  45.5033616  45.0984059
  81.9737717  45.2357120  46.5724852  82.0650705  26.8120300  46.7064312
  82.3709581  25.9517664  46.4190227  82.7903309  27.4037921  46.5063306
  76.3371784  37.1074094  47.2140503  76.3920394  36.1547930  47.1382979
  75.5262986  37.2633533  47.6981801  77.4862978  41.0354217  38.4518786
  77.0482408  40.3190076  37.9924423  78.2273419  41.2630331  37.8903877
  74.2764144  35.7251153  44.9730882  73.4632010  36.0245324  45.3796074
  74.7723138  35.3306842  45.6905364  79.8738356  36.1892978  53.8045775
  80.2287744  36.4164451  54.6640241  80.5210487  36.5211355  53.1823031
  85.6036093  39.3111414  44.5095105  85.4653991  39.5013010  43.5816294
  85.2472312  40.0730796  44.9663156  73.7678219  33.2969509  50.5892117
  74.4077598  33.1558268  49.8915080  72.9355749  33.0104022  50.2130719
  85.6305472  41.3787941  49.5206376  86.0641979  41.2863230  50.3689430
  86.3437053  41.3545441  48.8826392  79.3633367  44.9790035  51.0539477
  79.4170390  45.5480971  51.8217193  78.4948149  45.1491920  50.6893514
  70.8521286  36.7415021  42.7786862  69.9218874  36.6799476  42.9956824
  70.9478758  36.2190974  41.9823503  70.7706835  33.2669834  45.3665103
  71.0313653  34.1815167  45.2574264  71.5924008  32.7994276  45.5161716
  72.2431761  34.6807591  52.5363928  72.9154814  34.4724953  51.8876577
  71.4161547  34.4829677  52.0969160  86.4921022  41.4211641  52.0539261
  86.6856912  42.3257452  52.2998536  86.3921640  40.9619060  52.8877846
  78.1457333  31.3069532  54.5529589  77.4985248  32.0059482  54.4594065
  78.9158348  31.7405676  54.9205837  81.5536131  41.5718384  57.6280142
  81.4021637  41.3428936  56.7110226  81.5440810  42.5288985  57.6411487
  78.3221467  39.1450297  52.6126408  79.2513527  39.2961456  52.4395376
  77.9012497  39.2334318  51.7575055  77.1209799  43.1700961  50.3824946
  76.9820885  42.8019746  51.2550884  76.3324395  43.6848601  50.2108904
  78.6715014  42.5482564  47.7713784  78.3364847  42.5083334  48.6671434
  78.1718960  41.8827280  47.2984194  72.6459258  37.9550194  53.2966365
  72.5079056  37.2230433  53.8977904  73.5564181  37.8659094  53.0150553
  81.6074206  39.8938598  38.0450844  80.9903376  39.1685426  37.9483896
  81.1390694  40.6547959  37.7017918  75.2741559  37.6670153  52.7850045
  75.9841177  37.0263345  52.7436663  75.2310867  37.9183048  53.7076225
  83.2628337  44.6037507  55.7056624  83.2040883  43.9196727  55.0387207
  83.6647856  45.3456497  55.2537250  73.9870493  34.6535371  54.6045684
  73.4507850  34.2026110  55.2567280  73.3987201  34.7881280  53.8616149
  73.3972752  34.1124023  37.1672148  72.5202218  33.9912823  36.8034394
  73.8730505  33.3210101  36.9151036  83.2645745  42.5677091  53.9370604
  82.3772523  42.2303012  54.0597002  83.8344296  41.8360122  54.1739369
  69.7209614  33.7891379  51.6898679  69.6367803  33.1817048  50.9549089
  68.8992320  34.2800397  51.6908175  79.8933328  32.2744942  47.0568874
  80.3902027  31.5214905  46.7369944  79.1220309  32.3109259  46.4912083
  87.7463085  37.9785308  48.6987165  87.7352961  38.8610023  48.3281098
  86.8780465  37.6256859  48.5041702  79.2545581  47.1265377  53.0590005
  79.9673554  47.7612842  52.9865907  78.7635610  47.2229243  52.2430007
  80.9763108  41.0316630  44.6307297  80.0419387  41.1518092  44.4612001
  81.1539777  40.1289096  44.3667307  76.4768296  34.4162325  46.7840558
  76.1066084  33.8633366  47.4721464  76.9727389  33.8120459  46.2315558
  84.3635660  36.8733949  45.1657331  84.8296112  37.7061940  45.0917634
  84.8143160  36.4078930  45.8702590  74.3057495  44.8759820  53.8795576
  75.0066954  45.5096303  54.0324970  73.8352610  45.2174552  53.1191216
  82.4311891  43.2177770  42.1643483  82.7071735  43.1034365  43.0737357
  81.5616390  42.8195255  42.1255656  82.3352322  29.2414536  49.2048233
  81.4215402  29.4718763  49.3730440  82.7645424  29.3252980  50.0562265
  82.1058781  37.4304428  51.7048127  81.4530231  37.6780335  51.0500579
  82.4839161  36.6168566  51.3710604  78.1546354  38.1724239  58.1914164
  77.4786991  38.0718368  58.8616539  78.9773988  38.0163453  58.6550161
  71.8733630  31.8266316  53.0293664  71.9374957  32.6881147  52.6171062
  71.8100750  31.2140318  52.2966023  71.3485903  33.8989449  56.6766699
  71.9757941  33.5166526  57.2904223  70.4913821  33.6803651  57.0422391
  81.7480011  44.3052424  58.2820434  82.2919915  44.9182382  57.7875389
  81.1666856  44.8632002  58.7987447  68.1251445  35.7065878  42.6085053
  68.4204886  34.7976556  42.5552107  67.2239481  35.6853617  42.2866056
  80.0337524  47.4273142  49.4135462  79.9088664  46.6262882  48.9046407
  80.6916615  47.9219335  48.9249432  71.6545692  33.7821874  48.5912602
  70.9332278  34.3957842  48.4520075  72.4438948  34.3179639  48.5129248
  82.0972433  45.2282162  51.0415012  81.1502768  45.1087513  50.9693339
  82.4455206  44.3404660  51.1241273  74.4572006  31.1176301  54.8653254
  74.9806408  31.3638597  55.6279563  74.2384339  31.9496336  54.4456391
  69.8539287  33.3879975  42.7324379  69.5251993  32.5077354  42.5499485
  70.2078658  33.3327644  43.6200768  79.1018866  45.0234878  47.2419364
  78.9543828  44.0951586  47.4226934  79.9272359  45.0454969  46.7576439
  72.9681110  33.6752945  43.0999856  73.3077183  34.2038867  42.3778465
  73.4153231  34.0133351  43.8758423  82.7052988  45.8463437  48.3284237
  83.6299535  45.6406298  48.1908688  82.5368291  45.5979838  49.2373578
  75.6624551  32.0589996  52.5502924  75.3221371  31.2597809  52.9523604
  74.9563557  32.3591707  51.9779758  76.3141023  29.1439308  51.0030247
  77.1367092  28.6699787  50.8809138  76.5579086  29.9229792  51.5028934
  74.9549257  32.1727567  41.2993149  75.6757620  32.5508820  40.7956866
  74.3314561  32.8916444  41.4028127  79.0980380  32.8772716  42.2351481
  79.3143995  33.7597354  41.9340310  78.6174447  32.4858929  41.5057123
  73.8379602  35.8358429  48.8122226  73.6924182  36.1498732  49.7046508
  73.3604805  36.4543329  48.2593125  75.6975984  32.8260977  48.8603116
  75.6837553  31.9302070  48.5235414  76.4148413  32.8331641  49.4941402
  77.5502115  33.2598317  50.9056243  77.2919893  34.1815388  50.9040573
  77.0187155  32.8628752  51.5956707  82.4948304  46.3649104  43.6846328
  82.6685181  45.7995527  42.9320181  82.9877195  47.1649999  43.5025818
  75.1012880  31.7075357  44.1290686  75.2228792  30.7792004  44.3281573
  74.8114923  31.7214043  43.2169001  77.9704071  29.3930268  47.2657406
  77.9925768  29.4569601  46.3109385  78.3872130  28.5534776  47.4597912
  88.3487695  39.1285527  45.3036628  88.7918841  38.3792853  44.9055751
  87.4714205  39.1195664  44.9210360  83.4823476  45.6815869  40.7843227
  84.1774381  46.3022561  41.0030541  83.8246627  44.8311220  41.0595605
  85.3814899  43.1315574  42.3130557  85.9066224  43.4702847  41.5879877
  85.2937252  42.1962590  42.1293692  74.5853960  33.2207355  58.3380618
  74.6342115  34.0969478  57.9558388  75.1276474  32.6784748  57.7652262
  85.0708806  43.7648478  57.6181755  84.2804349  43.7472617  57.0786255
  84.8342160  44.3036772  58.3730792  85.1906681  40.6140944  54.9314484
  85.2404686  40.4490952  55.8730007  85.0820604  39.7468203  54.5412365
  82.4810443  36.5971872  56.2473791  83.3820306  36.4578337  55.9557788
  82.5558418  36.7626327  57.1871968  76.8153248  33.9738727  55.0926977
  75.9456558  34.2672293  54.8209565  77.0512729  34.5579172  55.8134241
  86.6924877  43.0337886  55.1756505  86.4009686  43.3967866  56.0119966
  86.0797009  42.3204894  54.9969838  87.8920560  40.5990766  47.6959076
  88.7267451  41.0380570  47.8596636  88.0279689  40.1229419  46.8767321
  84.9412066  38.1570500  53.6436563  85.4166187  38.3498147  52.8355415
  84.0177631  38.2129686  53.3979947  79.5192282  30.1918344  52.6092397
  80.0374226  30.9279371  52.2838886  79.1647415  30.4982337  53.4439156
  71.0991220  35.0523025  40.7253803  70.4060465  35.1267380  40.0693839
  70.8542972  34.2883369  41.2475320  79.7704876  26.6118627  48.1293294
  80.0506630  25.9441816  48.7553720  80.5555483  26.8047722  47.6167958
  83.6413735  35.0336261  51.8764869  84.5931158  35.1334358  51.8977093
  83.4717185  34.2414529  52.3862953  81.6628114  32.1191844  52.0624270
  81.0678046  32.3996856  51.3670759  81.3777811  32.6085745  52.8341011
  80.7935605  46.0714771  40.8226903  81.7266278  46.0060332  41.0259778
  80.7058817  46.9071037  40.3641435  83.4223621  45.3880641  37.7830850
  83.3437253  45.0540505  38.6766608  84.2433288  45.8802409  37.7822322
  86.1201812  38.2542380  50.9907169  86.0878133  37.3158381  51.1766853
  86.7302436  38.3326417  50.2572994  77.9585143  37.1238433  37.0334373
  78.9044248  36.9944641  37.1022791  77.5799388  36.3853095  37.5103801
  86.2696301  35.0453424  51.0365452  85.7535350  34.2611880  50.8495381
  87.1536249  34.7172140  51.2011971  83.9307028  28.7894439  46.9961265
  83.7331849  28.4809527  47.8804597  84.5406733  29.5156078  47.1259194
  91.9378362  39.3158387  50.1313205  92.6681751  39.0543675  50.6920909
  91.3285308  38.5787109  50.1715273  90.0193659  37.4566250  50.7287657
  89.2926823  37.3222215  50.1204148  89.6040946  37.7643078  51.5344375
  77.8423836  41.1756179  58.4935030  78.7626845  41.3534778  58.6875076
  77.8073419  40.2312225  58.3414729  76.1428060  35.0488410  36.9689258
  75.2359516  34.7521522  37.0451972  76.4204041  34.7518228  36.1023544
  77.7590126  29.5925299  43.1233499  76.9490855  29.2472384  43.4988745
  78.4474543  29.2832843  43.7121111  79.6880674  28.6703346  44.7457796
  80.2411713  29.0898800  45.4047819  79.9250761  27.7439094  44.7880752
  75.7113774  34.6590420  60.5260560  75.6110501  35.6084777  60.4572651
  75.4935316  34.3308659  59.6536630  74.9126845  31.9075345  37.1101237
  75.7746009  32.2330243  37.3697055  75.0977189  31.1206841  36.5974303
  83.0659482  30.7803871  44.2536460  82.4858151  31.4388675  43.8714513
  82.7995414  29.9581216  43.8423878  81.5163048  30.1808929  46.4557780
  82.0162826  30.2925464  45.6472099  82.1598656  29.8769982  47.0958589
  75.5745044  38.0887559  59.3425621  75.0912125  38.8887919  59.5489510
  75.6605983  38.0995503  58.3893065  72.0917763  40.5493209  53.9464853
  72.9110652  41.0437288  53.9699690  72.3654571  39.6325177  53.9182420
  81.8484360  32.9403962  43.3092808  80.9610215  33.2253612  43.0913003
  82.2638349  32.7797725  42.4620085  85.1998896  32.9650483  47.0247148
  85.9759286  33.4546935  47.2971764  84.4747030  33.3908537  47.4819017
  87.6371454  33.6778102  48.0821088  88.2315945  33.4373838  47.3714397
  87.7098038  32.9585232  48.7094625  80.9927573  42.7048636  37.4040828
  81.6963423  42.9098639  38.0198484  80.2690222  43.2725398  37.6689912
  81.8225383  38.4558498  43.5243099  81.7660585  38.9127049  42.6850731
  82.3753726  37.6949182  43.3465941  85.6330189  34.2448229  44.3493218
  85.3767123  33.8444865  45.1801426  85.0083057  34.9592023  44.2243357
  89.9442527  36.9844303  46.8564509  89.3842085  37.0537492  47.6296072
  89.3386030  36.8085287  46.1364006  82.9014270  43.1431166  39.4539288
  83.7359874  42.7112364  39.2716763  82.7398613  42.9713179  40.3816183
  82.5560163  39.6463279  40.8195628  82.5008966  39.4807550  39.8784072
  81.9306218  40.3539312  40.9757817  67.3452678  34.8831343  54.6457050
  67.9911541  34.3730297  55.1344275  67.1369829  35.6200025  55.2200475
  79.8706070  41.9512191  60.1449191  80.7397229  42.1252843  59.7835825
  79.3912821  42.7706608  60.0224920  75.8656288  29.1471388  40.3980946
  75.8534958  30.0913228  40.5549217  76.7579710  28.9641533  40.1040407
  79.6808408  25.7414164  44.6526883  78.9140803  25.1872651  44.7983565
  80.0919113  25.8136033  45.5141035  71.6850169  32.0298960  58.7432064
  72.5481630  31.6735765  58.9535389  71.1115579  31.6912855  59.4307468
  91.5298546  53.6600817  49.5494465  92.1676956  53.5407564  48.8457805
  91.4119388  54.6081661  49.6082417  88.3388252  53.6128245  49.4855990
  88.0006763  53.4969309  48.5976525  89.2078020  53.2119410  49.4656996
  84.1975068  55.4663721  45.4752881  83.6339933  55.3753658  44.7069169
  84.0827463  54.6463626  45.9555373  88.8208035  54.7663096  55.4442195
  88.8096676  54.3715895  54.5722699  88.9828674  54.0329169  56.0375967
  81.7439499  56.9614913  48.3137101  82.5360791  56.6205737  47.8983401
  81.9836150  57.0709888  49.2339255  89.7774626  59.1334689  40.7867346
  89.1262606  59.7188769  40.4001360  90.5718989  59.6640884  40.8462383
  83.7030253  56.2223826  41.1854480  84.4761129  55.6752813  41.0467356
  84.0555652  57.0868075  41.3968941  85.5415296  57.5500208  54.3921379
  85.2505162  58.4545839  54.2768046  86.1772280  57.5916736  55.1065449
  86.4671503  54.9277057  50.9822739  87.0635075  54.7033079  50.2679702
  86.5246474  54.1861802  51.5848187  86.0396531  52.3816492  38.8172930
  86.2922052  51.8598013  38.0556393  85.1021090  52.2182638  38.9199614
  91.0839814  51.3852270  46.6247673  91.8702903  50.9671694  46.2738090
  91.3478518  52.2898363  46.7929322  91.2549891  56.8225121  41.3236330
  90.6195724  56.8959747  42.0357235  90.9247298  57.4118720  40.6455409
  96.4848241  51.3227504  47.5280652  97.2173413  50.7526721  47.7618481
  95.7287597  50.9349104  47.9687157  85.7592820  54.2844598  41.0197305
  85.6429078  53.6089501  41.6878389  85.8695080  53.7976972  40.2029458
  88.1024361  53.7454745  44.7243994  87.7382568  53.2185366  45.4356916
  88.9591477  53.3553214  44.5510480  94.0073662  45.0349078  51.9875260
  93.6756986  45.9044489  51.7636475  93.4119275  44.7185362  52.6669291
  87.7429848  48.7744645  39.7205343  87.9104250  49.6424881  40.0875814
  87.5527017  48.9371927  38.7966632  90.5005181  57.2361624  51.3871173
  90.2005904  58.1386663  51.2786980  90.1556241  56.9693807  52.2392326
  83.9517663  53.6875421  47.4207878  83.0268159  53.5551635  47.6285569
  84.2002076  54.4669640  47.9177820  93.9002325  49.7544164  49.0668610
  92.9919202  49.6859572  48.7727371  93.8489921  50.2316109  49.8950436
  87.7219069  51.2302302  40.7052010  87.6018694  51.6759353  41.5437490
  87.0271657  51.5787620  40.1465548  81.3126474  53.3308694  48.2551667
  81.4418855  53.5843173  49.1691078  80.6323925  53.9236402  47.9356322
  85.4825961  64.0005944  44.3542141  85.4049991  64.9513769  44.4330621
  84.8787604  63.6551817  45.0117067  87.9743191  51.1733810  57.0103508
  87.1976525  51.7327730  57.0006372  88.6133754  51.6590593  57.5318378
  95.7663971  47.9560602  50.8446484  95.1238351  48.2493136  50.1986279
  95.2618900  47.8413523  51.6499681  93.4204135  51.7023776  41.5332344
  94.3321991  51.9351162  41.3580041  92.9113782  52.2860820  40.9707422
  86.2289563  53.9819263  56.5721475  86.9704247  54.5204307  56.2956298
  85.5226548  54.6085552  56.7293026  91.7044903  56.1248403  55.1693636
  92.1128259  55.6830814  54.4248269  90.9822164  55.5501031  55.4227829
  88.0575973  51.0621010  52.5427193  88.9037168  51.4860424  52.6861842
  87.9974610  50.4054634  53.2365756  92.0273717  56.6849594  48.9245925
  91.3982580  56.8495308  48.2221993  91.6399379  57.0991204  49.6956889
  95.9062949  57.6204032  46.2790289  95.2213987  58.0002933  45.7287322
  95.9906798  58.2299359  47.0122237  91.2075418  48.7225379  54.2008367
  90.9636350  49.4767439  53.6642642  91.4835348  49.1010726  55.0355614
  93.1613881  55.2663991  52.8785632  93.3730776  55.9095751  52.2020013
  93.1143629  54.4326307  52.4107562  90.7640110  47.8781812  49.7822204
  89.9024589  48.1763065  50.0738942  90.7902544  48.0952210  48.8503237
  87.5801679  56.4224002  46.1896010  88.0440025  56.7011705  45.4000633
  87.3158477  55.5207447  46.0069101  84.4725760  55.9695484  49.1275773
  85.0427117  56.3982752  48.4893258  85.0633872  55.6878068  49.8259959
  86.5170565  52.5447154  42.9985575  87.2194608  52.9968198  43.4659502
  86.1851194  51.9030973  43.6265468  84.9650927  51.1358911  57.3736785
  84.3349587  51.8175192  57.6072182  84.8587015  51.0241993  56.4289923
  80.2595899  50.8030707  48.3002709  79.4694953  51.0588236  47.8242819
  80.7507146  51.6179045  48.4054749  94.2759709  58.1435946  51.0507990
  95.0977152  57.7416134  50.7690671  94.2722112  58.0404180  52.0024105
  82.2110644  51.1675286  45.2586186  81.4141808  51.2793981  45.7769681
  81.9836237  51.5061939  44.3927076  88.0416312  57.6919990  53.2068700
  88.1060745  58.1540397  54.0426872  87.3327236  57.0617355  53.3351010
  78.5433602  51.0561198  50.7317700  78.7941641  51.9408208  50.9975276
  79.0793150  50.8765799  49.9592791 102.3665702  54.4874695  47.3992961
 101.6129410  53.9182093  47.2436966 102.5013243  54.4537359  48.3463596
  87.7564330  59.3588097  43.0747681  87.6210005  60.2039633  43.5032528
  88.2974142  59.5607375  42.3113614  84.2431669  45.4379677  59.7362036
  83.8498615  44.8845876  60.4109680  85.0597810  45.7490255  60.1268553
  81.2093727  56.8763535  43.6475606  81.7218248  57.6706785  43.7981170
  81.8616440  56.1789826  43.5809207  83.0188612  59.9929291  45.7298359
  83.1955240  60.9147256  45.5419343  83.8145445  59.6787711  46.1592739
  87.1599630  46.8537556  57.3282292  87.9009344  47.4544709  57.2486755
  87.3917553  46.1115194  56.7700335  87.9387098  57.7758593  56.0752932
  88.4715435  57.0146881  55.8452240  87.4101179  57.4832245  56.8177087
  91.1056793  42.8818659  51.6046574  90.7621063  43.7720301  51.5285685
  91.4735756  42.6920317  50.7416159  79.1742644  55.2052189  44.4235176
  80.0117866  55.6149198  44.2068884  79.3520912  54.2651632  44.3935370
  91.0707076  52.8727270  40.1119009  90.5553699  53.6431875  40.3507397
  90.7984385  52.1992406  40.7352071  88.6554187  47.7176971  45.1704247
  87.7995783  47.3283821  44.9909886  89.0681139  47.7968932  44.3104033
  90.1853334  45.2523314  49.5695807  89.6818129  45.2153449  48.7563613
  90.4783941  46.1616057  49.6292464  86.4296220  45.3362044  48.5761989
  87.2949216  45.1404853  48.2167878  86.4973729  45.1072396  49.5031346
  96.0441350  55.6259625  42.0472183  95.2670793  55.2870784  41.6027345
  96.7232831  55.6312248  41.3727148  90.8593379  50.7454362  41.9378790
  90.5543515  51.0600511  42.7888933  91.8123821  50.8235782  41.9806123
  89.3039811  56.9044586  43.5871744  88.7761173  56.1697345  43.2744982
  88.8027314  57.6819262  43.3411713  94.2832657  55.0993606  48.7038791
  93.6256332  55.7892867  48.7918919  95.0873056  55.4890038  49.0472777
  84.0358539  47.5664252  45.9478356  84.6102291  47.3439433  45.2151549
  84.6229521  47.6352946  46.7006957  93.0938116  53.4537979  46.7542732
  93.6069998  54.0867971  47.2564442  93.7439340  52.8539174  46.3886092
  84.3628126  49.5968713  39.9674241  83.5265438  49.9343399  40.2883516
  84.2232895  49.4617693  39.0301378  86.3381206  44.4405501  44.6753425
  85.6845619  44.1254518  44.0510040  86.2961681  43.8181241  45.4013248
  87.4492411  54.7224796  36.5906717  86.5419473  54.4914049  36.7897866
  87.9463443  53.9262415  36.7780699  90.3560490  63.4322303  39.5103403
  89.6822189  63.7354000  40.1188361  90.7426312  64.2351383  39.1608861
  89.5718947  50.9287434  49.0001073  88.6541508  51.1502381  48.8422761
  89.9879090  51.0033745  48.1412780  90.3553995  52.3278850  44.1303753
  91.1025813  52.8400247  43.8210875  90.6245584  52.0062903  44.9908147
  88.6280645  54.8237391  41.1130707  87.7191864  54.5396423  41.2103177
  88.6575729  55.2436469  40.2534014  93.8599912  58.4343980  44.8821875
  93.4062239  57.5934890  44.9387065  93.2293879  59.0705379  45.2196655
  92.8032832  49.3635966  46.1122542  92.0655588  48.8513352  46.4432785
  93.0559605  48.9236348  45.3005819  92.3032851  60.2720477  45.8171693
  92.5955826  60.8325534  45.0984059  92.8131472  60.5649038  46.5724852
  92.9044459  42.1412218  46.7064312  93.2103336  41.2809582  46.4190227
  93.6297064  42.7329838  46.5063306  79.1968815  52.5442905  45.0945910
  78.9993215  51.9512265  44.3696976  78.6415479  52.2395115  45.8121848
  87.1765539  52.4366011  47.2140503  87.2314149  51.4839848  47.1382979
  86.3656741  52.5925450  47.6981801  88.3256732  56.3646134  38.4518786
  87.8876162  55.6481993  37.9924423  89.0667173  56.5922249  37.8903877
  85.1157899  51.0543071  44.9730882  84.3025764  51.3537242  45.3796074
  85.6116893  50.6598760  45.6905364  87.2666477  61.0500828  46.9065146
  87.2242655  61.2761674  45.9773678  88.1829175  60.8164203  47.0550947
  90.7132110  51.5184895  53.8045775  91.0681498  51.7456369  54.6640241
  91.3604242  51.8503272  53.1823031  96.4429847  54.6403331  44.5095105
  96.3047746  54.8304927  43.5816294  96.0866066  55.4022714  44.9663156
  84.6071973  48.6261427  50.5892117  85.2471353  48.4850186  49.8915080
  83.7749504  48.3395940  50.2130719  96.4699227  56.7079858  49.5206376
  96.9035734  56.6155147  50.3689430  97.1830808  56.6837359  48.8826392
  85.3832277  57.9263857  46.7027109  86.1772876  57.4314177  46.5009684
  84.6723970  57.3981720  46.3394815  81.6915041  52.0706939  42.7786862
  80.7612629  52.0091394  42.9956824  81.7872513  51.5482891  41.9823503
  81.6100590  48.5961751  45.3665103  81.8707407  49.5107085  45.2574264
  82.4317762  48.1286194  45.5161716  83.0825515  50.0099509  52.5363928
  83.7548569  49.8016871  51.8876577  82.2555302  49.8121595  52.0969160
  97.3314776  56.7503559  52.0539261  97.5250667  57.6549370  52.2998536
  97.2315395  56.2910978  52.8877846  88.9851087  46.6361450  54.5529589
  88.3379002  47.3351399  54.4594065  89.7552103  47.0697594  54.9205837
  92.3929885  56.9010302  57.6280142  92.2415392  56.6720853  56.7110226
  92.3834565  57.8580903  57.6411487  89.1615222  54.4742214  52.6126408
  90.0907282  54.6253374  52.4395376  88.7406252  54.5626235  51.7575055
  88.5551705  63.6001975  41.7250483  88.7303461  63.1290019  42.5396105
  87.8684493  64.2267742  41.9531743  89.5108768  57.8774482  47.7713784
  89.1758601  57.8375252  48.6671434  89.0112714  57.2119198  47.2984194
  92.4467960  55.2230516  38.0450844  91.8297131  54.4977344  37.9483896
  91.9784449  55.9839876  37.7017918  86.1135313  52.9962071  52.7850045
  86.8234932  52.3555263  52.7436663  86.0704621  53.2474966  53.7076225
  84.8264247  49.9827289  54.6045684  84.2901604  49.5318027  55.2567280
  84.2380956  50.1173198  53.8616149  84.2366506  49.4415940  37.1672148
  83.3595972  49.3204741  36.8034394  84.7124259  48.6502019  36.9151036
  94.1039499  57.8969008  53.9370604  93.2166278  57.5594930  54.0597002
  94.6738050  57.1652039  54.1739369  80.5603368  49.1183297  51.6898679
  80.4761557  48.5108966  50.9549089  79.7386075  49.6092315  51.6908175
  87.4230432  61.7942231  44.4134668  86.6397954  62.3363911  44.5072893
  88.1223177  62.3116210  44.8128909  90.7327082  47.6036860  47.0568874
  91.2295782  46.8506822  46.7369944  89.9614064  47.6401177  46.4912083
  98.5856840  53.3077226  48.6987165  98.5746716  54.1901941  48.3281098
  97.7174219  52.9548776  48.5041702  91.8156863  56.3608547  44.6307297
  90.8813142  56.4810010  44.4612001  91.9933531  55.4581014  44.3667307
  87.3162051  49.7454243  46.7840558  86.9459838  49.1925283  47.4721464
  87.8121143  49.1412377  46.2315558  95.2029414  52.2025867  45.1657331
  95.6689866  53.0353858  45.0917634  95.6536915  51.7370848  45.8702590
  93.2705645  58.5469688  42.1643483  93.5465489  58.4326282  43.0737357
  92.4010144  58.1487173  42.1255656  93.1746077  44.5706454  49.2048233
  92.2609157  44.8010680  49.3730440  93.6039178  44.6544898  50.0562265
  92.9452535  52.7596346  51.7048127  92.2923986  53.0072253  51.0500579
  93.3232915  51.9460484  51.3710604  89.9059709  62.7956039  45.8076297
  90.0882104  61.9777695  46.2704049  90.7292695  63.0123731  45.3701187
  90.2401875  61.7224224  43.0691345  90.7689641  61.2116678  42.4561507
  90.5030094  61.4066754  43.9336878  88.9940108  53.5016157  58.1914164
  88.3180745  53.4010286  58.8616539  89.8167742  53.3455370  58.6550161
  80.7418968  59.7388093  50.8126679  81.3272404  58.9931781  50.9454583
  80.5443806  60.0492050  51.6963343  83.5957623  62.7739341  45.8289121
  82.9267998  63.2585468  45.3453161  83.4570492  63.0208561  46.7432500
  82.7127385  47.1558234  53.0293664  82.7768711  48.0173065  52.6171062
  82.6494505  46.5432236  52.2966023  82.1879657  49.2281366  56.6766699
  82.8151696  48.8458444  57.2904223  81.3307576  49.0095568  57.0422391
  82.4939447  49.1113792  48.5912602  81.7726033  49.7249760  48.4520075
  83.2832703  49.6471557  48.5129248  85.2965760  46.4468219  54.8653254
  85.8200162  46.6930515  55.6279563  85.0778094  47.2788253  54.4456391
  80.6933041  48.7171893  42.7324379  80.3645748  47.8369272  42.5499485
  81.0472412  48.6619562  43.6200768  83.8074865  49.0044863  43.0999856
  84.1470937  49.5330784  42.3778465  84.2546985  49.3425269  43.8758423
  93.5446742  61.1755355  48.3284237  94.4693290  60.9698216  48.1908688
  93.3762046  60.9271756  49.2373578  86.5018305  47.3881914  52.5502924
  86.1615126  46.5889727  52.9523604  85.7957312  47.6883625  51.9779758
  87.1534777  44.4731226  51.0030247  87.9760847  43.9991704  50.8809138
  87.3972841  45.2521710  51.5028934  85.7943012  47.5019485  41.2993149
  86.5151374  47.8800737  40.7956866  85.1708316  48.2208361  41.4028127
  89.9374135  48.2064634  42.2351481  90.1537749  49.0889271  41.9340310
  89.4568202  47.8150847  41.5057123  84.6773356  51.1650347  48.8122226
  84.5317937  51.4790650  49.7046508  84.1998560  51.7835247  48.2593125
  86.5369739  48.1552895  48.8603116  86.5231308  47.2593988  48.5235414
  87.2542167  48.1623558  49.4941402  88.3895870  48.5890235  50.9056243
  88.1313647  49.5107306  50.9040573  87.8580910  48.1920669  51.5956707
  93.3342058  61.6941022  43.6846328  93.5078936  61.1287445  42.9320181
  93.8270950  62.4941917  43.5025818  85.9406635  47.0367275  44.1290686
  86.0622546  46.1083921  44.3281573  85.6508677  47.0505961  43.2169001
  88.8097825  44.7222185  47.2657406  88.8319522  44.7861519  46.3109385
  89.2265884  43.8826694  47.4597912  99.1881450  54.4577445  45.3036628
  99.6312596  53.7084770  44.9055751  98.3107960  54.4487581  44.9210360
  94.3217231  61.0107786  40.7843227  95.0168135  61.6314479  41.0030541
  94.6640381  60.1603138  41.0595605  96.2208654  58.4607492  42.3130557
  96.7459978  58.7994765  41.5879877  96.1331007  57.5254507  42.1293692
  87.9049315  64.5279475  46.6725811  87.4654305  64.0355854  47.3658667
  88.6557432  63.9852443  46.4317886  80.3841654  60.7191016  46.6750439
  81.2099674  60.4194788  46.2949082  80.0335706  59.9498639  47.1240227
  85.3523187  60.0717484  48.7448112  84.7303196  59.4088189  48.4450340
  86.0228054  60.0978616  48.0621760  78.5850259  58.6377343  47.6339372
  77.7482167  58.2099517  47.4523374  78.5573904  58.8309786  48.5710163
  85.4247714  48.5499272  58.3380618  85.4735870  49.4261395  57.9558388
  85.9670229  48.0076665  57.7652262  95.9102560  59.0940396  57.6181755
  95.1198104  59.0764534  57.0786255  95.6735915  59.6328689  58.3730792
  96.0300435  55.9432862  54.9314484  96.0798440  55.7782869  55.8730007
  95.9214358  55.0760121  54.5412365  84.9136694  58.6221408  42.2206573
  85.0624814  59.3056872  41.5673246  85.7203137  58.6026498  42.7356029
  93.3204197  51.9263790  56.2473791  94.2214060  51.7870255  55.9557788
  93.3952172  52.0918245  57.1871968  87.6547003  49.3030645  55.0926977
  86.7850312  49.5964211  54.8209565  87.8906483  49.8871090  55.8134241
  97.5318632  58.3629804  55.1756505  97.2403440  58.7259784  56.0119966
  96.9190763  57.6496812  54.9969838  98.7314314  55.9282683  47.6959076
  99.5661206  56.3672487  47.8596636  98.8673443  55.4521337  46.8767321
  95.7805820  53.4862418  53.6436563  96.2559942  53.6790064  52.8355415
  94.8571386  53.5421604  53.3979947  82.6689327  54.6486585  43.2267642
  82.4235369  53.7448915  43.4247852  82.8385241  54.6503736  42.2847120
  90.3586037  45.5210262  52.6092397  90.8767981  46.2571289  52.2838886
  90.0041169  45.8274255  53.4439156  81.9384974  50.3814943  40.7253803
  81.2454219  50.4559298  40.0693839  81.6936726  49.6175287  41.2475320
  90.6098631  41.9410544  48.1293294  90.8900385  41.2733733  48.7553720
  91.3949238  42.1339640  47.6167958  88.4132099  61.1169538  39.6918320
  87.8406066  61.7359725  39.2388792  88.9864893  61.6668900  40.2258242
  94.4807489  50.3628178  51.8764869  95.4324912  50.4626276  51.8977093
  94.3110940  49.5706447  52.3862953  92.5021869  47.4483761  52.0624270
  91.9071801  47.7288774  51.3670759  92.2171565  47.9377662  52.8341011
  91.6329359  61.4006688  40.8226903  92.5660032  61.3352250  41.0259778
  91.5452572  62.2362955  40.3641435  94.2617376  60.7172559  37.7830850
  94.1831007  60.3832422  38.6766608  95.0827043  61.2094327  37.7822322
  96.9595567  53.5834298  50.9907169  96.9271887  52.6450299  51.1766853
  97.5696191  53.6618335  50.2572994  88.7978898  52.4530351  37.0334373
  89.7438003  52.3236559  37.1022791  88.4193143  51.7145013  37.5103801
  97.1090055  50.3745341  51.0365452  96.5929104  49.5903798  50.8495381
  97.9930004  50.0464058  51.2011971  94.7700782  44.1186357  46.9961265
  94.5725603  43.8101445  47.8804597  95.3800488  44.8447996  47.1259194
 102.7772117  54.6450305  50.1313205 103.5075505  54.3835593  50.6920909
 102.1679062  53.9079027  50.1715273 100.8587414  52.7858167  50.7287657
 100.1320578  52.6514132  50.1204148 100.4434701  53.0934996  51.5344375
  88.6817590  56.5048097  58.4935030  89.6020600  56.6826696  58.6875076
  88.6467173  55.5604142  58.3414729  86.9821815  50.3780327  36.9689258
  86.0753270  50.0813440  37.0451972  87.2597796  50.0810145  36.1023544
  81.6779663  54.4149132  51.1357811  81.8965673  55.3466240  51.1545845
  82.0905437  54.0557106  51.9212615  88.5983881  44.9217217  43.1233499
  87.7884609  44.5764302  43.4988745  89.2868298  44.6124761  43.7121111
  90.5274429  43.9995264  44.7457796  91.0805468  44.4190717  45.4047819
  90.7644515  43.0731012  44.7880752  86.5507528  49.9882337  60.5260560
  86.4504255  50.9376694  60.4572651  86.3329070  49.6600576  59.6536630
  85.7520600  47.2367263  37.1101237  86.6139764  47.5622161  37.3697055
  85.9370944  46.4498758  36.5974303  77.7688015  55.3189602  49.3881426
  77.0751487  54.9043555  48.8751380  78.5161006  55.3610139  48.7914845
  93.9053236  46.1095789  44.2536460  93.3251905  46.7680593  43.8714513
  93.6389169  45.2873134  43.8423878  92.3556802  45.5100847  46.4557780
  92.8556581  45.6217381  45.6472099  92.9992410  45.2061900  47.0958589
  86.4138798  53.4179476  59.3425621  85.9305880  54.2179836  59.5489510
  86.4999737  53.4287421  58.3893065  79.6824758  55.2507856  47.2647441
  79.6595446  55.3495543  46.3129324  79.9925394  56.0973007  47.5864607
  82.3412136  57.3084011  51.3794055  83.2955389  57.2767953  51.3123987
  82.1424659  56.8474635  52.1944281  92.6878114  48.2695879  43.3092808
  91.8003969  48.5545530  43.0913003  93.1032103  48.1089643  42.4620085
  96.0392650  48.2942400  47.0247148  96.8153040  48.7838853  47.2971764
  95.3140784  48.7200455  47.4819017  98.4765209  49.0070020  48.0821088
  99.0709700  48.7665756  47.3714397  98.5491793  48.2877150  48.7094625
  80.6962365  62.8503630  48.3964253  80.5616832  62.0904031  47.8302251
  80.2794427  63.5744530  47.9293042  91.8321328  58.0340554  37.4040828
  92.5357178  58.2390557  38.0198484  91.1083976  58.6017316  37.6689912
  92.6619138  53.7850415  43.5243099  92.6054339  54.2418967  42.6850731
  93.2147480  53.0241100  43.3465941  96.4723944  49.5740147  44.3493218
  96.2160878  49.1736783  45.1801426  95.8476812  50.2883941  44.2243357
 100.7836282  52.3136220  46.8564509 100.2235840  52.3829410  47.6296072
 100.1779785  52.1377205  46.1364006  83.8531490  63.7472948  48.6082696
  83.7363875  64.6918380  48.5061386  83.0323937  63.4446509  48.9968495
  93.7408025  58.4723083  39.4539288  94.5753629  58.0404282  39.2716763
  93.5792368  58.3005097  40.3816183  93.3953917  54.9755197  40.8195628
  93.3402721  54.8099468  39.8784072  92.7699972  55.6831229  40.9757817
  90.7099824  57.2804108  60.1449191  91.5790984  57.4544761  59.7835825
  90.2306576  58.0998525  60.0224920  86.7050043  44.4763306  40.3980946
  86.6928712  45.4205145  40.5549217  87.5973464  44.2933451  40.1040407
  86.6339607  63.1532196  48.4848703  85.6835238  63.1534058  48.3713075
  86.9372093  62.4064931  47.9684737  90.5202162  41.0706082  44.6526883
  89.7534558  40.5164569  44.7983565  90.9312867  41.1427951  45.5141035
  82.5243923  47.3590878  58.7432064  83.3875385  47.0027683  58.9535389
  81.9509334  47.0204773  59.4307468 102.3692300  68.9892734  49.5494465
 103.0070710  68.8699482  48.8457805 102.2513143  69.9373578  49.6082417
 100.6168381  74.4626607  40.7867346  99.9656361  75.0480687  40.4001360
 101.4112744  74.9932801  40.8462383  94.5424008  71.5515744  41.1854480
  95.3154884  71.0044731  41.0467356  94.8949407  72.4159993  41.3968941
  96.8790286  67.7108410  38.8172930  97.1315806  67.1889931  38.0556393
  95.9414845  67.5474555  38.9199614 101.9233569  66.7144188  46.6247673
 102.7096658  66.2963611  46.2738090 102.1872273  67.6190280  46.7929322
 102.0943646  72.1517038  41.3236330 101.4589479  72.2251665  42.0357235
 101.7641052  72.7410637  40.6455409 107.3241996  66.6519421  47.5280652
 108.0567168  66.0818638  47.7618481 106.5681351  66.2641022  47.9687157
  96.5986574  69.6136516  41.0197305  96.4822833  68.9381419  41.6878389
  96.7088834  69.1268890  40.2029458  98.9418115  69.0746663  44.7243994
  98.5776323  68.5477284  45.4356916  99.7985231  68.6845132  44.5510480
 104.8467416  60.3640995  51.9875260 104.5150741  61.2336406  51.7636475
 104.2513029  60.0477279  52.6669291  98.5823602  64.1036563  39.7205343
  98.7498005  64.9716799  40.0875814  98.3920771  64.2663844  38.7966632
 104.7396079  65.0836082  49.0668610 103.8312957  65.0151490  48.7727371
 104.6883675  65.5608027  49.8950436  98.5612823  66.5594220  40.7052010
  98.4412448  67.0051271  41.5437490  97.8665412  66.9079538  40.1465548
  96.3219715  79.3297862  44.3542141  96.2443745  80.2805687  44.4330621
  95.7181359  78.9843734  45.0117067 106.6057726  63.2852520  50.8446484
 105.9632106  63.5785053  50.1986279 106.1012654  63.1705440  51.6499681
 104.2597889  67.0315693  41.5332344 105.1715746  67.2643080  41.3580041
 103.7507536  67.6152737  40.9707422 102.5438657  71.4540321  55.1693636
 102.9522013  71.0122732  54.4248269 101.8215919  70.8792949  55.4227829
 102.8667472  72.0141512  48.9245925 102.2376334  72.1787226  48.2221993
 102.4793134  72.4283121  49.6956889 106.7456704  72.9495950  46.2790289
 106.0607742  73.3294851  45.7287322 106.8300553  73.5591276  47.0122237
 102.0469172  64.0517296  54.2008367 101.8030104  64.8059357  53.6642642
 102.3229103  64.4302644  55.0355614 104.0007635  70.5955909  52.8785632
 104.2124530  71.2387668  52.2020013 103.9537383  69.7618225  52.4107562
 101.6033864  63.2073729  49.7822204 100.7418343  63.5054983  50.0738942
 101.6296299  63.4244128  48.8503237  98.4195434  71.7515920  46.1896010
  98.8833779  72.0303623  45.4000633  98.1552232  70.8499364  46.0069101
  97.3564320  67.8739072  42.9985575  98.0588363  68.3260116  43.4659502
  97.0244948  67.2322891  43.6265468 105.1153463  73.4727864  51.0507990
 105.9370907  73.0708051  50.7690671 105.1115866  73.3696098  52.0024105
 113.2059456  69.8166612  47.3992961 112.4523165  69.2474011  47.2436966
 113.3406997  69.7829277  48.3463596  98.5958084  74.6880015  43.0747681
  98.4603759  75.5331551  43.5032528  99.1367897  74.8899292  42.3113614
  93.8582366  75.3221209  45.7298359  94.0348995  76.2439174  45.5419343
  94.6539200  75.0079628  46.1592739  97.9993385  62.1829474  57.3282292
  98.7403098  62.7836627  57.2486755  98.2311308  61.4407112  56.7700335
 101.9450548  58.2110577  51.6046574 101.6014817  59.1012218  51.5285685
 102.3129510  58.0212234  50.7416159 101.9100831  68.2019188  40.1119009
 101.3947454  68.9723792  40.3507397 101.6378139  67.5284324  40.7352071
  99.4947942  63.0468889  45.1704247  98.6389538  62.6575739  44.9909886
  99.9074893  63.1260849  44.3104033 101.0247088  60.5815232  49.5695807
 100.5211884  60.5445367  48.7563613 101.3177695  61.4907975  49.6292464
  97.2689974  60.6653962  48.5761989  98.1342971  60.4696770  48.2167878
  97.3367483  60.4364313  49.5031346 106.8835105  70.9551542  42.0472183
 106.1064547  70.6162702  41.6027345 107.5626586  70.9604166  41.3727148
 101.6987134  66.0746280  41.9378790 101.3937269  66.3892429  42.7888933
 102.6517576  66.1527700  41.9806123 100.1433566  72.2336503  43.5871744
  99.6154927  71.4989263  43.2744982  99.6421068  73.0111180  43.3411713
 105.1226412  70.4285524  48.7038791 104.4650086  71.1184785  48.7918919
 105.9266811  70.8181956  49.0472777  94.8752293  62.8956169  45.9478356
  95.4496045  62.6731351  45.2151549  95.4623276  62.9644864  46.7006957
 103.9331870  68.7829896  46.7542732 104.4463752  69.4159888  47.2564442
 104.5833094  68.1831092  46.3886092  95.2021880  64.9260630  39.9674241
  94.3659193  65.2635317  40.2883516  95.0626650  64.7909610  39.0301378
  97.1774961  59.7697418  44.6753425  96.5239373  59.4546436  44.0510040
  97.1355435  59.1473159  45.4013248  98.2886166  70.0516713  36.5906717
  97.3813227  69.8205967  36.7897866  98.7857198  69.2554333  36.7780699
 101.1954245  78.7614221  39.5103403 100.5215943  79.0645917  40.1188361
 101.5820067  79.5643301  39.1608861 100.4112701  66.2579352  49.0001073
  99.4935263  66.4794299  48.8422761 100.8272845  66.3325662  48.1412780
 101.1947749  67.6570768  44.1303753 101.9419568  68.1692165  43.8210875
 101.4639339  67.3354820  44.9908147  99.4674399  70.1529308  41.1130707
  98.5585618  69.8688341  41.2103177  99.4969483  70.5728387  40.2534014
 104.6993667  73.7635898  44.8821875 104.2455994  72.9226808  44.9387065
 104.0687633  74.3997296  45.2196655 103.6426586  64.6927884  46.1122542
 102.9049343  64.1805270  46.4432785 103.8953360  64.2528265  45.3005819
 103.1426606  75.6012395  45.8171693 103.4349580  76.1617452  45.0984059
 103.6525226  75.8940956  46.5724852 103.7438213  57.4704136  46.7064312
 104.0497090  56.6101499  46.4190227 104.4690818  58.0621756  46.5063306
  99.1650487  71.6938052  38.4518786  98.7269917  70.9773911  37.9924423
  99.9060928  71.9214167  37.8903877  95.9551653  66.3834989  44.9730882
  95.1419519  66.6829159  45.3796074  96.4510647  65.9890677  45.6905364
  98.1060231  76.3792746  46.9065146  98.0636410  76.6053592  45.9773678
  99.0222930  76.1456120  47.0550947 101.5525865  66.8476813  53.8045775
 101.9075253  67.0748286  54.6640241 102.1997996  67.1795190  53.1823031
 107.2823602  69.9695249  44.5095105 107.1441500  70.1596845  43.5816294
 106.9259821  70.7314632  44.9663156 107.3092981  72.0371776  49.5206376
 107.7429488  71.9447065  50.3689430 108.0224562  72.0129276  48.8826392
  96.2226032  73.2555775  46.7027109  97.0166630  72.7606095  46.5009684
  95.5117724  72.7273638  46.3394815 108.1708531  72.0795477  52.0539261
 108.3644421  72.9841287  52.2998536 108.0709149  71.6202896  52.8877846
  99.8244842  61.9653367  54.5529589  99.1772757  62.6643317  54.4594065
 100.5945857  62.3989511  54.9205837  99.3945460  78.9293893  41.7250483
  99.5697215  78.4581936  42.5396105  98.7078248  79.5559659  41.9531743
 100.3502523  73.2066399  47.7713784 100.0152356  73.1667169  48.6671434
  99.8506469  72.5411115  47.2984194 103.2861715  70.5522434  38.0450844
 102.6690885  69.8269262  37.9483896 102.8178203  71.3131794  37.7017918
  95.0760261  64.7707858  37.1672148  94.1989727  64.6496659  36.8034394
  95.5518014  63.9793936  36.9151036 104.9433254  73.2260926  53.9370604
 104.0560032  72.8886848  54.0597002 105.5131805  72.4943957  54.1739369
  98.2624187  77.1234148  44.4134668  97.4791708  77.6655828  44.5072893
  98.9616932  77.6408128  44.8128909 101.5720837  62.9328778  47.0568874
 102.0689536  62.1798740  46.7369944 100.8007818  62.9693094  46.4912083
 109.4250594  68.6369143  48.6987165 109.4140470  69.5193859  48.3281098
 108.5567973  68.2840694  48.5041702 102.6550617  71.6900465  44.6307297
 101.7206896  71.8101927  44.4612001 102.8327286  70.7872932  44.3667307
  98.1555805  65.0746161  46.7840558  97.7853593  64.5217201  47.4721464
  98.6514898  64.4704294  46.2315558 106.0423169  67.5317784  45.1657331
 106.5083621  68.3645776  45.0917634 106.4930669  67.0662766  45.8702590
 104.1099400  73.8761606  42.1643483 104.3859244  73.7618200  43.0737357
 103.2403899  73.4779090  42.1255656 104.0139831  59.8998371  49.2048233
 103.1002911  60.1302598  49.3730440 104.4432933  59.9836815  50.0562265
 103.7846290  68.0888263  51.7048127 103.1317740  68.3364171  51.0500579
 104.1626670  67.2752401  51.3710604 100.7453464  78.1247956  45.8076297
 100.9275858  77.3069612  46.2704049 101.5686450  78.3415649  45.3701187
 101.0795629  77.0516142  43.0691345 101.6083396  76.5408596  42.4561507
 101.3423849  76.7358672  43.9336878  94.4351377  78.1031258  45.8289121
  93.7661753  78.5877386  45.3453161  94.2964247  78.3500479  46.7432500
 103.7759942  75.8865997  51.0415012 102.8290277  75.7671349  50.9693339
 104.1242715  74.9988495  51.1241273  91.5326796  64.0463811  42.7324379
  91.2039502  63.1661190  42.5499485  91.8866167  63.9911480  43.6200768
 100.7806375  75.6818714  47.2419364 100.6331337  74.7535421  47.4226934
 101.6059868  75.7038804  46.7576439  94.6468619  64.3336781  43.0999856
  94.9864692  64.8622702  42.3778465  95.0940740  64.6717187  43.8758423
 104.3840497  76.5047272  48.3284237 105.3087044  76.2990134  48.1908688
 104.2155800  76.2563673  49.2373578  97.3412060  62.7173831  52.5502924
  97.0008880  61.9181644  52.9523604  96.6351066  63.0175542  51.9779758
  97.9928532  59.8023144  51.0030247  98.8154601  59.3283622  50.8809138
  98.2366595  60.5813628  51.5028934  96.6336766  62.8311402  41.2993149
  97.3545129  63.2092655  40.7956866  96.0102070  63.5500279  41.4028127
 100.7767889  63.5356551  42.2351481 100.9931504  64.4181189  41.9340310
 100.2961956  63.1442765  41.5057123  97.3763493  63.4844812  48.8603116
  97.3625062  62.5885906  48.5235414  98.0935921  63.4915476  49.4941402
  99.2289624  63.9182153  50.9056243  98.9707402  64.8399223  50.9040573
  98.6974664  63.5212587  51.5956707 104.1735813  77.0232940  43.6846328
 104.3472690  76.4579362  42.9320181 104.6664704  77.8233835  43.5025818
  96.7800389  62.3659193  44.1290686  96.9016301  61.4375839  44.3281573
  96.4902432  62.3797879  43.2169001  99.6491580  60.0514103  47.2657406
  99.6713277  60.1153436  46.3109385 100.0659639  59.2118612  47.4597912
 110.0275204  69.7869363  45.3036628 110.4706350  69.0376688  44.9055751
 109.1501714  69.7779499  44.9210360 105.1610985  76.3399704  40.7843227
 105.8561890  76.9606397  41.0030541 105.5034135  75.4895055  41.0595605
 107.0602408  73.7899410  42.3130557 107.5853733  74.1286682  41.5879877
 106.9724761  72.8546425  42.1293692  98.7443069  79.8571393  46.6725811
  98.3048060  79.3647772  47.3658667  99.4951186  79.3144361  46.4317886
 106.7496315  74.4232313  57.6181755 105.9591858  74.4056452  57.0786255
 106.5129669  74.9620607  58.3730792 106.8694190  71.2724780  54.9314484
 106.9192195  71.1074787  55.8730007 106.7608113  70.4052039  54.5412365
  95.7530448  73.9513325  42.2206573  95.9018569  74.6348790  41.5673246
  96.5596892  73.9318415  42.7356029 104.1597952  67.2555708  56.2473791
 105.0607815  67.1162173  55.9557788 104.2345926  67.4210163  57.1871968
  98.4940757  64.6322562  55.0926977  97.6244067  64.9256129  54.8209565
  98.7300238  65.2163007  55.8134241 108.3712386  73.6921721  55.1756505
 108.0797195  74.0551702  56.0119966 107.7584518  72.9788729  54.9969838
 109.5708069  71.2574601  47.6959076 110.4054960  71.6964405  47.8596636
 109.7067198  70.7813254  46.8767321 106.6199575  68.8154336  53.6436563
 107.0953696  69.0081982  52.8355415 105.6965140  68.8713522  53.3979947
 101.1979791  60.8502179  52.6092397 101.7161735  61.5863206  52.2838886
 100.8434924  61.1566173  53.4439156  92.7778729  65.7106861  40.7253803
  92.0847974  65.7851216  40.0693839  92.5330481  64.9467204  41.2475320
 101.4492385  57.2702462  48.1293294 101.7294139  56.6025651  48.7553720
 102.2342992  57.4631558  47.6167958  99.2525854  76.4461456  39.6918320
  98.6799821  77.0651643  39.2388792  99.8258647  76.9960818  40.2258242
 105.3201244  65.6920096  51.8764869 106.2718667  65.7918194  51.8977093
 105.1504694  64.8998364  52.3862953 103.3415623  62.7775679  52.0624270
 102.7465555  63.0580692  51.3670759 103.0565320  63.2669580  52.8341011
 102.4723114  76.7298606  40.8226903 103.4053787  76.6644168  41.0259778
 102.3846326  77.5654873  40.3641435 105.1011130  76.0464476  37.7830850
 105.0224762  75.7124340  38.6766608 105.9220797  76.5386244  37.7822322
 107.7989321  68.9126216  50.9907169 107.7665642  67.9742216  51.1766853
 108.4089945  68.9910252  50.2572994  99.6372652  67.7822269  37.0334373
 100.5831757  67.6528477  37.1022791  99.2586897  67.0436930  37.5103801
 107.9483810  65.7037259  51.0365452 107.4322859  64.9195716  50.8495381
 108.8323758  65.3755976  51.2011971 105.6094537  59.4478275  46.9961265
 105.4119358  59.1393363  47.8804597 106.2194242  60.1739914  47.1259194
 113.6165871  69.9742222  50.1313205 114.3469260  69.7127511  50.6920909
 113.0072817  69.2370944  50.1715273 111.6981168  68.1150085  50.7287657
 110.9714332  67.9806050  50.1204148 111.2828455  68.4226914  51.5344375
  97.8215569  65.7072245  36.9689258  96.9147025  65.4105358  37.0451972
  98.0991550  65.4102063  36.1023544  99.4377635  60.2509135  43.1233499
  98.6278364  59.9056220  43.4988745 100.1262052  59.9416678  43.7121111
 101.3668183  59.3287181  44.7457796 101.9199222  59.7482635  45.4047819
 101.6038270  58.4022930  44.7880752  96.5914354  62.5659180  37.1101237
  97.4533518  62.8914078  37.3697055  96.7764698  61.7790676  36.5974303
 104.7446991  61.4387707  44.2536460 104.1645660  62.0972511  43.8714513
 104.4782923  60.6165051  43.8423878 103.1950557  60.8392764  46.4557780
 103.6950335  60.9509299  45.6472099 103.8386165  60.5353817  47.0958589
 103.5271869  63.5987797  43.3092808 102.6397724  63.8837448  43.0913003
 103.9425858  63.4381560  42.4620085 106.8786405  63.6234318  47.0247148
 107.6546795  64.1130770  47.2971764 106.1534539  64.0492372  47.4819017
 109.3158963  64.3361937  48.0821088 109.9103454  64.0957673  47.3714397
 109.3885547  63.6169068  48.7094625 102.6715082  73.3632472  37.4040828
 103.3750932  73.5682474  38.0198484 101.9477731  73.9309234  37.6689912
 103.5012892  69.1142333  43.5243099 103.4448094  69.5710884  42.6850731
 104.0541235  68.3533018  43.3465941 107.3117698  64.9032065  44.3493218
 107.0554632  64.5028700  45.1801426 106.6870566  65.6175859  44.2243357
 111.6230036  67.6428138  46.8564509 111.0629594  67.7121327  47.6296072
 111.0173539  67.4669123  46.1364006  94.6925245  79.0764865  48.6082696
  94.5757629  80.0210298  48.5061386  93.8717691  78.7738427  48.9968495
 104.5801779  73.8015001  39.4539288 105.4147383  73.3696199  39.2716763
 104.4186122  73.6297015  40.3816183 104.2347672  70.3047114  40.8195628
 104.1796475  70.1391386  39.8784072 103.6093727  71.0123147  40.9757817
  97.5443797  59.8055223  40.3980946  97.5322467  60.7497063  40.5549217
  98.4367219  59.6225369  40.1040407 101.3595917  56.3998000  44.6526883
 100.5928312  55.8456487  44.7983565 101.7706622  56.4719869  45.5141035
 113.2086055  84.3184652  49.5494465 113.8464464  84.1991399  48.8457805
 113.0906897  85.2665496  49.6082417 110.0175761  84.2712080  49.4855990
 109.6794272  84.1553145  48.5976525 110.8865529  83.8703245  49.4656996
 105.8762577  86.1247557  45.4752881 105.3127442  86.0337493  44.7069169
 105.7614972  85.3047461  45.9555373 110.4995544  85.4246932  55.4442195
 110.4884185  85.0299730  54.5722699 110.6616183  84.6913004  56.0375967
 103.4227008  87.6198748  48.3137101 104.2148300  87.2789573  47.8983401
 103.6623659  87.7293723  49.2339255 111.4562135  89.7918524  40.7867346
 110.8050115  90.3772605  40.4001360 112.2506498  90.3224719  40.8462383
 105.3817762  86.8807661  41.1854480 106.1548638  86.3336648  41.0467356
 105.7343161  87.7451911  41.3968941 107.2202805  88.2084044  54.3921379
 106.9292671  89.1129674  54.2768046 107.8559789  88.2500571  55.1065449
 108.1459012  85.5860892  50.9822739 108.7422584  85.3616915  50.2679702
 108.2033983  84.8445638  51.5848187 107.7184040  83.0400327  38.8172930
 107.9709561  82.5181849  38.0556393 106.7808599  82.8766473  38.9199614
 112.7627323  82.0436106  46.6247673 113.5490412  81.6255529  46.2738090
 113.0266027  82.9482198  46.7929322 112.9337400  87.4808956  41.3236330
 112.2983233  87.5543583  42.0357235 112.6034807  88.0702555  40.6455409
 118.1635750  81.9811339  47.5280652 118.8960922  81.4110556  47.7618481
 117.4075106  81.5932940  47.9687157 107.4380329  84.9428433  41.0197305
 107.3216587  84.2673337  41.6878389 107.5482589  84.4560807  40.2029458
 109.7811870  84.4038581  44.7243994 109.4170077  83.8769202  45.4356916
 110.6378986  84.0137050  44.5510480 115.6861170  75.6932913  51.9875260
 115.3544495  76.5628324  51.7636475 115.0906784  75.3769197  52.6669291
 109.4217357  79.4328480  39.7205343 109.5891759  80.3008717  40.0875814
 109.2314526  79.5955762  38.7966632 112.1792690  87.8945459  51.3871173
 111.8793413  88.7970498  51.2786980 111.8343750  87.6277642  52.2392326
 105.6305172  84.3459256  47.4207878 104.7055668  84.2135470  47.6285569
 105.8789585  85.1253475  47.9177820 115.5789834  80.4127999  49.0668610
 114.6706711  80.3443408  48.7727371 115.5277430  80.8899944  49.8950436
 109.4006578  81.8886138  40.7052010 109.2806203  82.3343189  41.5437490
 108.7059166  82.2371455  40.1465548 102.9913983  83.9892530  48.2551667
 103.1206364  84.2427008  49.1691078 102.3111434  84.5820238  47.9356322
 107.1613470  94.6589780  44.3542141 107.0837500  95.6097605  44.4330621
 106.5575113  94.3135652  45.0117067 109.6530700  81.8317645  57.0103508
 108.8764034  82.3911565  57.0006372 110.2921263  82.3174428  57.5318378
 117.4451480  78.6144438  50.8446484 116.8025860  78.9076971  50.1986279
 116.9406409  78.4997358  51.6499681 115.0991644  82.3607611  41.5332344
 116.0109500  82.5934998  41.3580041 114.5901291  82.9444655  40.9707422
 107.9077072  84.6403098  56.5721475 108.6491756  85.1788142  56.2956298
 107.2014057  85.2669387  56.7293026 113.3832412  86.7832239  55.1693636
 113.7915768  86.3414649  54.4248269 112.6609673  86.2084866  55.4227829
 109.7363482  81.7204846  52.5427193 110.5824677  82.1444259  52.6861842
 109.6762119  81.0638470  53.2365756 113.7061226  87.3433429  48.9245925
 113.0770089  87.5079144  48.2221993 113.3186888  87.7575039  49.6956889
 117.5850458  88.2787867  46.2790289 116.9001496  88.6586769  45.7287322
 117.6694307  88.8883194  47.0122237 112.8862927  79.3809214  54.2008367
 112.6423859  80.1351274  53.6642642 113.1622857  79.7594561  55.0355614
 114.8401390  85.9247826  52.8785632 115.0518285  86.5679586  52.2020013
 114.7931138  85.0910143  52.4107562 112.4427619  78.5365647  49.7822204
 111.5812098  78.8346900  50.0738942 112.4690053  78.7536046  48.8503237
 109.2589188  87.0807837  46.1896010 109.7227534  87.3595540  45.4000633
 108.9945986  86.1791282  46.0069101 106.1513269  86.6279319  49.1275773
 106.7214626  87.0566587  48.4893258 106.7421381  86.3461904  49.8259959
 108.1958074  83.2030990  42.9985575 108.8982117  83.6552034  43.4659502
 107.8638703  82.5614809  43.6265468 106.6438436  81.7942746  57.3736785
 106.0137096  82.4759027  57.6072182 106.5374524  81.6825828  56.4289923
 101.9383408  81.4614542  48.3002709 101.1482462  81.7172071  47.8242819
 102.4294655  82.2762880  48.4054749 115.9547218  88.8019782  51.0507990
 116.7764661  88.3999969  50.7690671 115.9509621  88.6988016  52.0024105
 103.8898153  81.8259122  45.2586186 103.0929317  81.9377816  45.7769681
 103.6623746  82.1645774  44.3927076 109.7203821  88.3503825  53.2068700
 109.7848254  88.8124232  54.0426872 109.0114745  87.7201190  53.3351010
 109.4351839  90.0171932  43.0747681 109.2997514  90.8623468  43.5032528
 109.9761651  90.2191210  42.3113614 102.8881236  87.5347370  43.6475606
 103.4005757  88.3290621  43.7981170 103.5403949  86.8373661  43.5809207
 104.6976121  90.6513127  45.7298359 104.8742749  91.5731091  45.5419343
 105.4932954  90.3371546  46.1592739 108.8387139  77.5121391  57.3282292
 109.5796853  78.1128545  57.2486755 109.0705062  76.7699029  56.7700335
 103.9828477  82.6977759  55.6060522 103.8681993  81.7963016  55.9067621
 103.1272995  82.9441455  55.2545339 111.0620315  90.6395499  57.2048023
 110.6184169  89.8531878  56.8868927 111.7237529  90.8274649  56.5391913
 105.8207436  92.1691301  51.7308701 106.3714861  92.0408364  50.9585695
 104.9818912  92.4686190  51.3803594 113.1601553  90.9198299  55.2329424
 113.1420029  91.7407180  54.7409693 114.0821473  90.7952374  55.4579565
 109.6174607  88.4342428  56.0752932 110.1502944  87.6730717  55.8452240
 109.0888688  88.1416080  56.8177087 112.7844302  73.5402494  51.6046574
 112.4408572  74.4304136  51.5285685 113.1523265  73.3504152  50.7416159
 100.8530153  85.8636025  44.4235176 101.6905375  86.2733033  44.2068884
 101.0308421  84.9235467  44.3935370 112.7494585  83.5311105  40.1119009
 112.2341208  84.3015710  40.3507397 112.4771893  82.8576242  40.7352071
 110.3341696  78.3760806  45.1704247 109.4783292  77.9867657  44.9909886
 110.7468648  78.4552767  44.3104033 111.8640843  75.9107149  49.5695807
 111.3605638  75.8737285  48.7563613 112.1571450  76.8199892  49.6292464
 108.1083729  75.9945879  48.5761989 108.9736725  75.7988688  48.2167878
 108.1761237  75.7656231  49.5031346 117.7228859  86.2843460  42.0472183
 116.9458302  85.9454620  41.6027345 118.4020340  86.2896083  41.3727148
 112.5380888  81.4038198  41.9378790 112.2331024  81.7184347  42.7888933
 113.4911330  81.4819617  41.9806123 110.9827320  87.5628421  43.5871744
 110.4548682  86.8281180  43.2744982 110.4814823  88.3403097  43.3411713
 115.9620166  85.7577441  48.7038791 115.3043841  86.4476703  48.7918919
 116.7660565  86.1473873  49.0472777 105.7146048  78.2248087  45.9478356
 106.2889800  78.0023269  45.2151549 106.3017030  78.2936782  46.7006957
 114.7725625  84.1121814  46.7542732 115.2857507  84.7451806  47.2564442
 115.4226849  83.5123010  46.3886092 106.0415635  80.2552548  39.9674241
 105.2052947  80.5927235  40.2883516 105.9020404  80.1201528  39.0301378
 108.0168715  75.0989336  44.6753425 107.3633128  74.7838353  44.0510040
 107.9749190  74.4765077  45.4013248 109.1279920  85.3808631  36.5906717
 108.2206982  85.1497885  36.7897866 109.6250952  84.5846250  36.7780699
 112.0347999  94.0906138  39.5103403 111.3609698  94.3937835  40.1188361
 112.4213821  94.8935219  39.1608861 111.2506456  81.5871270  49.0001073
 110.3329017  81.8086217  48.8422761 111.6666599  81.6617580  48.1412780
 112.0341503  82.9862685  44.1303753 112.7813322  83.4984082  43.8210875
 112.3033093  82.6646738  44.9908147 110.3068154  85.4821226  41.1130707
 109.3979373  85.1980259  41.2103177 110.3363237  85.9020305  40.2534014
 115.5387421  89.0927815  44.8821875 115.0849748  88.2518725  44.9387065
 114.9081388  89.7289214  45.2196655 114.4820341  80.0219802  46.1122542
 113.7443097  79.5097188  46.4432785 114.7347114  79.5820183  45.3005819
 113.9820360  90.9304312  45.8171693 114.2743335  91.4909369  45.0984059
 114.4918981  91.2232873  46.5724852 114.5831968  72.7996054  46.7064312
 114.8890845  71.9393417  46.4190227 115.3084573  73.3913674  46.5063306
 100.8756324  83.2026740  45.0945910 100.6780724  82.6096101  44.3696976
 100.3202988  82.8978950  45.8121848 108.8553048  83.0949847  47.2140503
 108.9101657  82.1423683  47.1382979 108.0444250  83.2509286  47.6981801
 110.0044241  87.0229970  38.4518786 109.5663671  86.3065829  37.9924423
 110.7454682  87.2506084  37.8903877 106.7945408  81.7126906  44.9730882
 105.9813273  82.0121077  45.3796074 107.2904402  81.3182595  45.6905364
 108.9453986  91.7084663  46.9065146 108.9030164  91.9345510  45.9773678
 109.8616684  91.4748038  47.0550947 112.3919619  82.1768731  53.8045775
 112.7469007  82.4040204  54.6640241 113.0391751  82.5087108  53.1823031
 118.1217356  85.2987167  44.5095105 117.9835255  85.4888763  43.5816294
 117.7653575  86.0606550  44.9663156 106.2859482  79.2845262  50.5892117
 106.9258862  79.1434021  49.8915080 105.4537013  78.9979775  50.2130719
 118.1486736  87.3663694  49.5206376 118.5823243  87.2738983  50.3689430
 118.8618317  87.3421194  48.8826392 107.0619786  88.5847692  46.7027109
 107.8560385  88.0898012  46.5009684 106.3511479  88.0565555  46.3394815
 111.8814631  90.9665788  51.0539477 111.9351653  91.5356724  51.8217193
 111.0129412  91.1367673  50.6893514 103.3702550  82.7290774  42.7786862
 102.4400138  82.6675230  42.9956824 103.4660022  82.2066727  41.9823503
 103.2888099  79.2545587  45.3665103 103.5494916  80.1690920  45.2574264
 104.1105271  78.7870029  45.5161716 104.7613024  80.6683344  52.5363928
 105.4336078  80.4600706  51.8876577 103.9342811  80.4705430  52.0969160
 119.0102285  87.4087394  52.0539261 119.2038176  88.3133205  52.2998536
 118.9102904  86.9494813  52.8877846 110.6638596  77.2945285  54.5529589
 110.0166511  77.9935235  54.4594065 111.4339612  77.7281429  54.9205837
 114.0717394  87.5594137  57.6280142 113.9202901  87.3304689  56.7110226
 114.0622074  88.5164739  57.6411487 110.8402731  85.1326050  52.6126408
 111.7694791  85.2837209  52.4395376 110.4193761  85.2210071  51.7575055
 109.6391062  89.1576714  50.3824946 109.5002148  88.7895499  51.2550884
 108.8505659  89.6724354  50.2108904 110.2339214  94.2585811  41.7250483
 110.4090970  93.7873854  42.5396105 109.5472002  94.8851577  41.9531743
 111.1896277  88.5358317  47.7713784 110.8546110  88.4959087  48.6671434
 110.6900223  87.8703033  47.2984194 105.1640521  83.9425947  53.2966365
 105.0260319  83.2106186  53.8977904 106.0745445  83.8534847  53.0150553
 114.1255469  85.8814351  38.0450844 113.5084640  85.1561179  37.9483896
 113.6571958  86.6423712  37.7017918 107.7922822  83.6545906  52.7850045
 108.5022441  83.0139099  52.7436663 107.7492130  83.9058801  53.7076225
 115.7809601  90.5913260  55.7056624 115.7222147  89.9072480  55.0387207
 116.1829119  91.3332250  55.2537250 106.5051756  80.6411124  54.6045684
 105.9689113  80.1901863  55.2567280 105.9168464  80.7757033  53.8616149
 104.8000300  97.4075174  48.4990343 105.0396898  98.0393698  49.1769361
 103.9569496  97.0563214  48.7855702 105.9154015  80.0999776  37.1672148
 105.0383481  79.9788576  36.8034394 106.3911768  79.3085854  36.9151036
 115.7827008  88.5552844  53.9370604 114.8953787  88.2178765  54.0597002
 116.3525559  87.8235875  54.1739369  97.4356155  84.8876935  47.2613655
  98.1227195  84.5738665  46.6734670  97.2804284  85.7918300  46.9880906
 109.3128161  93.2154296  50.9031847 109.2398333  94.0209267  51.4151151
 108.8705555  93.4146262  50.0779868 109.1017941  92.4526066  44.4134668
 108.3185463  92.9947746  44.5072893 109.8010686  92.9700046  44.8128909
 112.4114591  78.2620695  47.0568874 112.9083291  77.5090658  46.7369944
 111.6401573  78.2985012  46.4912083 120.2644349  83.9661061  48.6987165
 120.2534225  84.8485776  48.3281098 119.3961728  83.6132612  48.5041702
 111.7726845  93.1141130  53.0590005 112.4854817  93.7488595  52.9865907
 111.2816874  93.2104996  52.2430007 113.4944372  87.0192383  44.6307297
 112.5600651  87.1393845  44.4612001 113.6721040  86.1164849  44.3667307
 108.9949560  80.4038078  46.7840558 108.6247347  79.8509119  47.4721464
 109.4908652  79.7996212  46.2315558 116.8816923  82.8609702  45.1657331
 117.3477375  83.6937694  45.0917634 117.3324424  82.3954684  45.8702590
 106.8238758  90.8635573  53.8795576 107.5248218  91.4972056  54.0324970
 106.3533873  91.2050305  53.1191216 114.9493154  89.2053523  42.1643483
 115.2252998  89.0910118  43.0737357 114.0797653  88.8071008  42.1255656
 114.8533586  75.2290289  49.2048233 113.9396666  75.4594516  49.3730440
 115.2826687  75.3128733  50.0562265 114.6240044  83.4180181  51.7048127
 113.9711495  83.6656088  51.0500579 115.0020424  82.6044319  51.3710604
 111.5847218  93.4539874  45.8076297 111.7669613  92.6361530  46.2704049
 112.4080204  93.6707566  45.3701187 111.9189384  92.3808059  43.0691345
 112.4477150  91.8700514  42.4561507 112.1817603  92.0650589  43.9336878
 110.6727617  84.1599992  58.1914164 109.9968254  84.0594121  58.8616539
 111.4955251  84.0039206  58.6550161 102.4206477  90.3971928  50.8126679
 103.0059913  89.6515616  50.9454583 102.2231315  90.7075885  51.6963343
 105.2745132  93.4323176  45.8289121 104.6055507  93.9169304  45.3453161
 105.1358001  93.6792396  46.7432500 109.4150400  95.4666919  52.4271780
 109.9668708  95.6298541  53.1920865 109.7556594  96.0571357  51.7551805
 104.3914894  77.8142069  53.0293664 104.4556220  78.6756900  52.6171062
 104.3282014  77.2016071  52.2966023 114.2661275  90.2928177  58.2820434
 114.8101179  90.9058135  57.7875389 113.6848120  90.8507755  58.7987447
 100.6432709  81.6941631  42.6085053 100.9386150  80.7852309  42.5552107
  99.7420745  81.6729370  42.2866056 112.5518788  93.4148895  49.4135462
 112.4269927  92.6138635  48.9046407 113.2097879  93.9095088  48.9249432
 104.1726956  79.7697627  48.5912602 103.4513542  80.3833595  48.4520075
 104.9620212  80.3055392  48.5129248 114.6153696  91.2157915  51.0415012
 113.6684032  91.0963266  50.9693339 114.9636469  90.3280413  51.1241273
 106.9753269  77.1052054  54.8653254 107.4987671  77.3514350  55.6279563
 106.7565603  77.9372089  54.4456391 102.3720550  79.3755729  42.7324379
 102.0433257  78.4953107  42.5499485 102.7259921  79.3203397  43.6200768
 111.6200129  91.0110631  47.2419364 111.4725092  90.0827339  47.4226934
 112.4453623  91.0330722  46.7576439 105.4862374  79.6628698  43.0999856
 105.8258446  80.1914620  42.3778465 105.9334494  80.0009104  43.8758423
 115.2234251  91.8339190  48.3284237 116.1480799  91.6282051  48.1908688
 115.0549555  91.5855591  49.2373578 108.1805814  78.0465749  52.5502924
 107.8402635  77.2473562  52.9523604 107.4744821  78.3467460  51.9779758
 108.8322286  75.1315061  51.0030247 109.6548356  74.6575540  50.8809138
 109.0760350  75.9105545  51.5028934 107.4730521  78.1603320  41.2993149
 108.1938883  78.5384573  40.7956866 106.8495825  78.8792197  41.4028127
 111.6161644  78.8648469  42.2351481 111.8325258  79.7473107  41.9340310
 111.1355711  78.4734682  41.5057123 106.3560865  81.8234182  48.8122226
 106.2105446  82.1374485  49.7046508 105.8786069  82.4419082  48.2593125
 108.2157248  78.8136730  48.8603116 108.2018817  77.9177823  48.5235414
 108.9329676  78.8207394  49.4941402 110.0683379  79.2474070  50.9056243
 109.8101156  80.1691141  50.9040573 109.5368419  78.8504505  51.5956707
 115.0129567  92.3524857  43.6846328 115.1866445  91.7871280  42.9320181
 115.5058459  93.1525752  43.5025818 100.8306527  84.3639526  51.7509887
 100.2859995  85.1399334  51.8830162 101.7085877  84.7110331  51.5929009
 107.6194144  77.6951110  44.1290686 107.7410055  76.7667757  44.3281573
 107.3296186  77.7089796  43.2169001 110.4885334  75.3806021  47.2657406
 110.5107031  75.4445354  46.3109385 110.9053393  74.5410529  47.4597912
 120.8668959  85.1161280  45.3036628 121.3100105  84.3668606  44.9055751
 119.9895469  85.1071417  44.9210360 116.0004740  91.6691622  40.7843227
 116.6955644  92.2898314  41.0030541 116.3427890  90.8186973  41.0595605
 117.8996163  89.1191327  42.3130557 118.4247487  89.4578600  41.5879877
 117.8118516  88.1838343  42.1293692 109.5616212  93.0325401  54.4420434
 109.8703338  92.7874548  55.3143134 110.3591694  93.2372039  53.9539304
 109.5836824  95.1863311  46.6725811 109.1441814  94.6939689  47.3658667
 110.3344941  94.6436278  46.4317886 102.0629163  91.3774851  46.6750439
 102.8887183  91.0778623  46.2949082 101.7123215  90.6082474  47.1240227
 107.0310696  90.7301320  48.7448112 106.4090705  90.0672025  48.4450340
 107.7015563  90.7562452  48.0621760 100.2637768  89.2961178  47.6339372
  99.4269676  88.8683352  47.4523374 100.2361413  89.4893621  48.5710163
 107.1035223  79.2083108  58.3380618 107.1523379  80.0845231  57.9558388
 107.6457738  78.6660501  57.7652262 117.5890069  89.7524231  57.6181755
 116.7985613  89.7348370  57.0786255 117.3523424  90.2912525  58.3730792
 117.7087944  86.6016697  54.9314484 117.7585949  86.4366705  55.8730007
 117.6001867  85.7343956  54.5412365 106.5924203  89.2805243  42.2206573
 106.7412323  89.9640707  41.5673246 107.3990646  89.2610333  42.7356029
 114.9991706  82.5847625  56.2473791 115.9001569  82.4454090  55.9557788
 115.0739681  82.7502080  57.1871968 109.3334512  79.9614480  55.0926977
 108.4637821  80.2548046  54.8209565 109.5693992  80.5454925  55.8134241
 119.2106141  89.0213639  55.1756505 118.9190949  89.3843619  56.0119966
 118.5978272  88.3080647  54.9969838 120.4101823  86.5866519  47.6959076
 121.2448715  87.0256323  47.8596636 120.5460952  86.1105172  46.8767321
 117.4593329  84.1446253  53.6436563 117.9347451  84.3373900  52.8355415
 116.5358895  84.2005439  53.3979947 104.3476836  85.3070421  43.2267642
 104.1022878  84.4032751  43.4247852 104.5172750  85.3087571  42.2847120
 112.0373546  76.1794097  52.6092397 112.5555489  76.9155124  52.2838886
 111.6828678  76.4858090  53.4439156 103.6172483  81.0398778  40.7253803
 102.9241728  81.1143133  40.0693839 103.3724235  80.2759122  41.2475320
 112.2886140  72.5994380  48.1293294 112.5687894  71.9317569  48.7553720
 113.0736747  72.7923475  47.6167958 110.0919608  91.7753373  39.6918320
 109.5193575  92.3943561  39.2388792 110.6652402  92.3252735  40.2258242
 116.1594998  81.0212014  51.8764869 117.1112421  81.1210111  51.8977093
 115.9898449  80.2290282  52.3862953 114.1809378  78.1067597  52.0624270
 113.5859310  78.3872610  51.3670759 113.8959074  78.5961498  52.8341011
 113.3116868  92.0590524  40.8226903 114.2447541  91.9936085  41.0259778
 113.2240081  92.8946790  40.3641435 115.9404885  91.3756394  37.7830850
 115.8618516  91.0416258  38.6766608 116.7614552  91.8678162  37.7822322
 118.6383076  84.2418133  50.9907169 118.6059396  83.3034134  51.1766853
 119.2483700  84.3202170  50.2572994 110.4766407  83.1114186  37.0334373
 111.4225512  82.9820394  37.1022791 110.0980652  82.3728848  37.5103801
 118.7877564  81.0329177  51.0365452 118.2716613  80.2487633  50.8495381
 119.6717513  80.7047893  51.2011971 116.4488291  74.7770192  46.9961265
 116.2513112  74.4685280  47.8804597 117.0587997  75.5031831  47.1259194
 110.3605099  87.1631932  58.4935030 111.2808109  87.3410531  58.6875076
 110.3254682  86.2187978  58.3414729 108.6609324  81.0364163  36.9689258
 107.7540779  80.7397275  37.0451972 108.9385305  80.7393981  36.1023544
  99.5787264  82.3570526  47.4188304  99.2590049  81.5035834  47.1262678
  99.0320693  82.5719104  48.1746272 103.3567172  85.0732967  51.1357811
 103.5753182  86.0050075  51.1545845 103.7692946  84.7140941  51.9212615
 110.2771390  75.5801052  43.1233499 109.4672118  75.2348137  43.4988745
 110.9655807  75.2708596  43.7121111 112.2061938  74.6579099  44.7457796
 112.7592977  75.0774553  45.4047819 112.4432024  73.7314847  44.7880752
 108.2295037  80.6466173  60.5260560 108.1291764  81.5960530  60.4572651
 108.0116579  80.3184412  59.6536630 107.4308109  77.8951098  37.1101237
 108.2927273  78.2205996  37.3697055 107.6158453  77.1082594  36.5974303
  99.4475524  85.9773438  49.3881426  98.7538996  85.5627390  48.8751380
 100.1948515  86.0193974  48.7914845 115.5840745  76.7679624  44.2536460
 115.0039414  77.4264428  43.8714513 115.3176678  75.9456969  43.8423878
 114.0344311  76.1684682  46.4557780 114.5344090  76.2801217  45.6472099
 114.6779919  75.8645735  47.0958589 108.0926307  84.0763312  59.3425621
 107.6093389  84.8763672  59.5489510 108.1787246  84.0871257  58.3893065
 101.3612267  85.9091691  47.2647441 101.3382955  86.0079379  46.3129324
 101.6712903  86.7556842  47.5864607 104.0199645  87.9667846  51.3794055
 104.9742898  87.9351789  51.3123987 103.8212168  87.5058470  52.1944281
 104.6099027  86.5368962  53.9464853 105.4291916  87.0313041  53.9699690
 104.8835835  85.6200931  53.9182420 114.3665623  78.9279715  43.3092808
 113.4791478  79.2129365  43.0913003 114.7819612  78.7673478  42.4620085
 117.7180159  78.9526236  47.0247148 118.4940549  79.4422688  47.2971764
 116.9928293  79.3784290  47.4819017 120.1552718  79.6653855  48.0821088
 120.7497209  79.4249591  47.3714397 120.2279302  78.9460985  48.7094625
 102.3749874  93.5087466  48.3964253 102.2404341  92.7487867  47.8302251
 101.9581936  94.2328366  47.9293042 113.5108837  88.6924389  37.4040828
 114.2144687  88.8974392  38.0198484 112.7871485  89.2601151  37.6689912
 114.3406647  84.4434251  43.5243099 114.2841848  84.9002802  42.6850731
 114.8934989  83.6824935  43.3465941 118.1511453  80.2323982  44.3493218
 117.8948387  79.8320618  45.1801426 117.5264321  80.9467776  44.2243357
 105.5318999  94.4056783  48.6082696 105.4151384  95.3502215  48.5061386
 104.7111446  94.1030344  48.9968495 115.4195534  89.1306919  39.4539288
 116.2541138  88.6988117  39.2716763 115.2579877  88.9588932  40.3816183
 115.0741426  85.6339032  40.8195628 115.0190230  85.4683303  39.8784072
 114.4487481  86.3415065  40.9757817 112.3887333  87.9387944  60.1449191
 113.2578493  88.1128596  59.7835825 111.9094085  88.7582361  60.0224920
 108.3837552  75.1347141  40.3980946 108.3716221  76.0788981  40.5549217
 109.2760973  74.9517286  40.1040407 106.5573514  95.0585045  51.8238624
 107.4600760  95.0908655  52.1405119 106.3310884  94.1285496  51.8384960
 108.3127116  93.8116031  48.4848703 107.3622747  93.8117893  48.3713075
 108.6159602  93.0648766  47.9684737 112.1989671  71.7289918  44.6526883
 111.4322067  71.1748404  44.7983565 112.6100376  71.8011786  45.5141035
 120.8569515  99.6003998  49.4855990 120.5188027  99.4845062  48.5976525
 121.7259284  99.1995163  49.4656996 116.7156331 101.4539474  45.4752881
 116.1521196 101.3629411  44.7069169 116.6008726 100.6339379  45.9555373
 121.3389298 100.7538850  55.4442195 121.3277939 100.3591648  54.5722699
 121.5009938 100.0204922  56.0375967 114.2620763 102.9490666  48.3137101
 115.0542055 102.6081490  47.8983401 114.5017413 103.0585641  49.2339255
 116.2211517 102.2099579  41.1854480 116.9942393 101.6628566  41.0467356
 116.5736916 103.0743828  41.3968941 118.0596559 103.5375961  54.3921379
 117.7686425 104.4421592  54.2768046 118.6953544 103.5792489  55.1065449
 118.9852766 100.9152810  50.9822739 119.5816339 100.6908832  50.2679702
 119.0427738 100.1737555  51.5848187 118.5577795  98.3692245  38.8172930
 118.8103315  97.8473766  38.0556393 117.6202354  98.2058391  38.9199614
 118.2774083 100.2720351  41.0197305 118.1610342  99.5965255  41.6878389
 118.3876343  99.7852725  40.2029458 120.6205624  99.7330498  44.7243994
 120.2563832  99.2061119  45.4356916 121.4772740  99.3428967  44.5510480
 120.2611111  94.7620398  39.7205343 120.4285514  95.6300634  40.0875814
 120.0708280  94.9247680  38.7966632 116.4698926  99.6751174  47.4207878
 115.5449422  99.5427388  47.6285569 116.7183339 100.4545393  47.9177820
 120.2400332  97.2178055  40.7052010 120.1199957  97.6635106  41.5437490
 119.5452921  97.5663373  40.1465548 113.8307737  99.3184447  48.2551667
 113.9600118  99.5718926  49.1691078 113.1505188  99.9112155  47.9356322
 120.4924454  97.1609563  57.0103508 119.7157788  97.7203483  57.0006372
 121.1315017  97.6466346  57.5318378 118.7470826  99.9695016  56.5721475
 119.4885511 100.5080060  56.2956298 118.0407812 100.5961305  56.7293026
 120.5757236  97.0496763  52.5427193 121.4218431  97.4736177  52.6861842
 120.5155874  96.3930388  53.2365756 120.0982943 102.4099755  46.1896010
 120.5621288 102.6887458  45.4000633 119.8339741 101.5083200  46.0069101
 116.9907024 101.9571237  49.1275773 117.5608381 102.3858505  48.4893258
 117.5815135 101.6753821  49.8259959 119.0351829  98.5322908  42.9985575
 119.7375872  98.9843951  43.4659502 118.7032457  97.8906726  43.6265468
 117.4832190  97.1234664  57.3736785 116.8530851  97.8050945  57.6072182
 117.3768278  97.0117746  56.4289923 112.7777163  96.7906460  48.3002709
 111.9876217  97.0463989  47.8242819 113.2688410  97.6054798  48.4054749
 114.7291908  97.1551039  45.2586186 113.9323071  97.2669734  45.7769681
 114.5017500  97.4937692  44.3927076 120.5597576 103.6795743  53.2068700
 120.6242008 104.1416150  54.0426872 119.8508499 103.0493108  53.3351010
 111.0614866  97.0436951  50.7317700 111.3122904  97.9283961  50.9975276
 111.5974414  96.8641552  49.9592791 120.2745593 105.3463850  43.0747681
 120.1391268 106.1915386  43.5032528 120.8155406 105.5483128  42.3113614
 116.7612933  91.4255430  59.7362036 116.3679878  90.8721629  60.4109680
 117.5779073  91.7366008  60.1268553 113.7274991 102.8639288  43.6475606
 114.2399511 103.6582538  43.7981170 114.3797703 102.1665579  43.5809207
 115.5369875 105.9805044  45.7298359 115.7136504 106.9023009  45.5419343
 116.3326709 105.6663464  46.1592739 119.6780894  92.8413309  57.3282292
 120.4190607  93.4420462  57.2486755 119.9098817  92.0990947  56.7700335
 114.8222232  98.0269676  55.6060522 114.7075747  97.1254934  55.9067621
 113.9666750  98.2733373  55.2545339 116.6601191 107.4983218  51.7308701
 117.2108616 107.3700282  50.9585695 115.8212667 107.7978107  51.3803594
 120.4568362 103.7634346  56.0752932 120.9896699 103.0022634  55.8452240
 119.9282443 103.4707998  56.8177087 111.6923907 101.1927942  44.4235176
 112.5299129 101.6024951  44.2068884 111.8702175 100.2527385  44.3935370
 121.1735451  93.7052724  45.1704247 120.3177047  93.3159574  44.9909886
 121.5862402  93.7844685  44.3104033 118.9477483  91.3237797  48.5761989
 119.8130480  91.1280606  48.2167878 119.0154992  91.0948149  49.5031346
 121.8221075 102.8920339  43.5871744 121.2942436 102.1573098  43.2744982
 121.3208577 103.6695015  43.3411713 116.5539802  93.5540005  45.9478356
 117.1283554  93.3315186  45.2151549 117.1410785  93.6228699  46.7006957
 116.8809389  95.5844466  39.9674241 116.0446702  95.9219152  40.2883516
 116.7414159  95.4493446  39.0301378 118.8562470  90.4281254  44.6753425
 118.2026882  90.1130271  44.0510040 118.8142944  89.8056994  45.4013248
 119.9673675 100.7100549  36.5906717 119.0600736 100.4789802  36.7897866
 120.4644707  99.9138168  36.7780699 121.1461908 100.8113144  41.1130707
 120.2373127 100.5272176  41.2103177 121.1756992 101.2312222  40.2534014
 111.7150079  98.5318658  45.0945910 111.5174478  97.9388018  44.3696976
 111.1596743  98.2270868  45.8121848 119.6946802  98.4241764  47.2140503
 119.7495412  97.4715601  47.1382979 118.8838004  98.5801203  47.6981801
 120.8437996 102.3521887  38.4518786 120.4057426 101.6357746  37.9924423
 121.5848437 102.5798002  37.8903877 117.6339162  97.0418824  44.9730882
 116.8207028  97.3412995  45.3796074 118.1298156  96.6474513  45.6905364
 117.1253237  94.6137180  50.5892117 117.7652616  94.4725939  49.8915080
 116.2930767  94.3271693  50.2130719 117.9013541 103.9139610  46.7027109
 118.6954139 103.4189930  46.5009684 117.1905233 103.3857473  46.3394815
 114.2096304  98.0582692  42.7786862 113.2793892  97.9967147  42.9956824
 114.3053776  97.5358644  41.9823503 114.1281853  94.5837505  45.3665103
 114.3888671  95.4982838  45.2574264 114.9499026  94.1161947  45.5161716
 115.6006779  95.9975262  52.5363928 116.2729832  95.7892624  51.8876577
 114.7736565  95.7997348  52.0969160 121.5032351  92.6237203  54.5529589
 120.8560266  93.3227152  54.4594065 122.2733366  93.0573347  54.9205837
 120.4784817 104.4868632  50.3824946 120.3395902 104.1187416  51.2550884
 119.6899413 105.0016271  50.2108904 122.0290032 103.8650235  47.7713784
 121.6939865 103.8251005  48.6671434 121.5293978 103.1994951  47.2984194
 116.0034276  99.2717865  53.2966365 115.8654074  98.5398104  53.8977904
 116.9139199  99.1826765  53.0150553 118.6316577  98.9837824  52.7850045
 119.3416195  98.3431016  52.7436663 118.5885885  99.2350719  53.7076225
 117.3445511  95.9703042  54.6045684 116.8082868  95.5193780  55.2567280
 116.7562219  96.1048951  53.8616149 116.7547769  95.4291693  37.1672148
 115.8777236  95.3080494  36.8034394 117.2305523  94.6377772  36.9151036
 108.2749910 100.2168853  47.2613655 108.9620949  99.9030583  46.6734670
 108.1198038 101.1210218  46.9880906 113.0784632  95.1059050  51.6898679
 112.9942821  94.4984719  50.9549089 112.2567338  95.5968068  51.6908175
 119.8343314  95.7329996  46.7840558 119.4641102  95.1801036  47.4721464
 120.3302407  95.1288130  46.2315558 117.6632513 106.1927491  53.8795576
 118.3641972 106.8263974  54.0324970 117.1927628 106.5342223  53.1191216
 121.5121372  99.4891910  58.1914164 120.8362009  99.3886039  58.8616539
 122.3349006  99.3331123  58.6550161 113.2600231 105.7263846  50.8126679
 113.8453668 104.9807534  50.9454583 113.0625069 106.0367803  51.6963343
 116.1138886 108.7615094  45.8289121 115.4449262 109.2461221  45.3453161
 115.9751756 109.0084314  46.7432500 107.8517886  98.2969446  49.5331122
 107.8901985  97.7633037  50.3268240 107.3458179  97.7704652  48.9142099
 115.2308648  93.1433987  53.0293664 115.2949975  94.0048818  52.6171062
 115.1675768  92.5307989  52.2966023 114.7060921  95.2157119  56.6766699
 115.3332959  94.8334197  57.2904223 113.8488839  94.9971321  57.0422391
 111.4826463  97.0233549  42.6085053 111.7779904  96.1144227  42.5552107
 110.5814499  97.0021288  42.2866056 115.0120710  95.0989545  48.5912602
 114.2907296  95.7125513  48.4520075 115.8013966  95.6347310  48.5129248
 117.8147024  92.4343972  54.8653254 118.3381426  92.6806268  55.6279563
 117.5959357  93.2664006  54.4456391 113.2114305  94.7047646  42.7324379
 112.8827011  93.8245025  42.5499485 113.5653676  94.6495315  43.6200768
 116.3256128  94.9920616  43.0999856 116.6652201  95.5206537  42.3778465
 116.7728249  95.3301022  43.8758423 119.0199569  93.3757667  52.5502924
 118.6796389  92.5765480  52.9523604 118.3138575  93.6759378  51.9779758
 119.6716041  90.4606979  51.0030247 120.4942110  89.9867457  50.8809138
 119.9154104  91.2397463  51.5028934 118.3124275  93.4895238  41.2993149
 119.0332638  93.8676490  40.7956866 117.6889579  94.2084114  41.4028127
 117.1954619  97.1526100  48.8122226 117.0499200  97.4666403  49.7046508
 116.7179823  97.7711000  48.2593125 119.0551002  94.1428648  48.8603116
 119.0412571  93.2469741  48.5235414 119.7723430  94.1499312  49.4941402
 120.9077133  94.5765988  50.9056243 120.6494911  95.4983059  50.9040573
 120.3762173  94.1796423  51.5956707 111.6700282  99.6931444  51.7509887
 111.1253750 100.4691252  51.8830162 112.5479632 100.0402249  51.5929009
 118.4587898  93.0243028  44.1290686 118.5803809  92.0959674  44.3281573
 118.1689941  93.0381714  43.2169001 121.3279089  90.7097938  47.2657406
 121.3500786  90.7737272  46.3109385 121.7447148  89.8702447  47.4597912
 112.4566304  98.8201340  54.6440044 111.7148040  98.9683976  55.2304674
 112.1359048  99.0809606  53.7806793 112.9022917 106.7066769  46.6750439
 113.7280937 106.4070541  46.2949082 112.5516969 105.9374392  47.1240227
 117.8704450 106.0593237  48.7448112 117.2484460 105.3963942  48.4450340
 118.5409317 106.0854369  48.0621760 111.1031522 104.6253096  47.6339372
 110.2663431 104.1975270  47.4523374 111.0755168 104.8185539  48.5710163
 117.9428978  94.5375025  58.3380618 117.9917133  95.4137148  57.9558388
 118.4851492  93.9952418  57.7652262 117.4317957 104.6097161  42.2206573
 117.5806078 105.2932625  41.5673246 118.2384401 104.5902251  42.7356029
 120.1728266  95.2906398  55.0926977 119.3031576  95.5839964  54.8209565
 120.4087747  95.8746843  55.8134241 115.1870590 100.6362338  43.2267642
 114.9416632  99.7324668  43.4247852 115.3566505 100.6379489  42.2847120
 114.4566238  96.3690696  40.7253803 113.7635483  96.4435051  40.0693839
 114.2117990  95.6051040  41.2475320 121.3160161  98.4406104  37.0334373
 122.2619266  98.3112312  37.1022791 120.9374406  97.7020766  37.5103801
 121.1998854 102.4923850  58.4935030 122.1201863 102.6702449  58.6875076
 121.1648437 101.5479895  58.3414729 119.5003078  96.3656080  36.9689258
 118.5934534  96.0689193  37.0451972 119.7779059  96.0685898  36.1023544
 110.4181019  97.6862444  47.4188304 110.0983803  96.8327752  47.1262678
 109.8714447  97.9011022  48.1746272 114.1960926 100.4024885  51.1357811
 114.4146936 101.3341993  51.1545845 114.6086700 100.0432859  51.9212615
 121.1165144  90.9092970  43.1233499 120.3065872  90.5640055  43.4988745
 121.8049561  90.6000514  43.7121111 119.0688792  95.9758090  60.5260560
 118.9685519  96.9252447  60.4572651 118.8510334  95.6476329  59.6536630
 118.2701863  93.2243016  37.1101237 119.1321027  93.5497914  37.3697055
 118.4552207  92.4374511  36.5974303 110.2869279 101.3065355  49.3881426
 109.5932750 100.8919308  48.8751380 111.0342270 101.3485892  48.7914845
 118.9320062  99.4055229  59.3425621 118.4487143 100.2055589  59.5489510
 119.0181001  99.4163174  58.3893065 112.2006021 101.2383609  47.2647441
 112.1776709 101.3371296  46.3129324 112.5106658 102.0848760  47.5864607
 114.8593399 103.2959764  51.3794055 115.8136653 103.2643706  51.3123987
 114.6605923 102.8350388  52.1944281 115.4492781 101.8660880  53.9464853
 116.2685670 102.3604959  53.9699690 115.7229589 100.9492848  53.9182420
 113.2143628 108.8379384  48.3964253 113.0798096 108.0779784  47.8302251
 112.7975690 109.5620283  47.9293042 110.7027696  96.1999014  54.6457050
 111.3486559  95.6897968  55.1344275 110.4944847  96.9367696  55.2200475
 119.2231306  90.4639059  40.3980946 119.2109976  91.4080898  40.5549217
 120.1154728  90.2809204  40.1040407 115.0425187  93.3466631  58.7432064
 115.9056648  92.9903436  58.9535389 114.4690597  93.0080526  59.4307468
  52.9644699  -4.9807686  31.0787447  52.8868728  -4.0299861  31.1575928
  52.3606342  -5.3261814  31.7362374  50.6031528  -2.2322292  35.2235649
  50.8428127  -1.6003768  35.9014668  49.7600725  -2.5834252  35.5101009
  51.0776361  -6.2074290  32.5534428  50.4086736  -5.7228162  32.0698468
  50.9389230  -5.9605069  33.4677807  55.2181629  -4.1730546  39.1517086
  55.7699937  -4.0098925  39.9166172  55.5587823  -3.5826109  38.4797111
  55.3868053  -4.4534155  33.3971117  54.9473043  -4.9457776  34.0903974
  56.1376169  -4.9961188  33.1563192  48.1781102  -6.1310000  35.1209560
  48.0435570  -6.8909599  34.5547558  47.7613165  -5.4069100  34.6538349
  51.3350228  -5.2340683  35.3328002  51.2182612  -4.2895250  35.2306693
  50.5142674  -5.5367121  35.7213802  52.3604742  -4.5812421  38.5483931
  53.2631989  -4.5488811  38.8650426  52.1342112  -5.5111970  38.5630267
  66.6600744  -0.0393468  36.2101297  66.3219256  -0.1552403  35.3221831
  67.5290512  -0.4402303  36.1902303  62.5187560   1.8142008  32.1998187
  61.9552425   1.7231945  31.4314475  62.4039955   0.9941913  32.6800680
  67.1420527   1.1141384  42.1687502  67.1309168   0.7194182  41.2968006
  67.3041167   0.3807456  42.7621274  60.0651992   3.3093200  35.0382408
  60.8573284   2.9684025  34.6228707  60.3048642   3.4188175  35.9584561
  68.0987119   5.4812976  27.5112652  67.4475098   6.0667057  27.1246666
  68.8931481   6.0119171  27.5707690  62.0242746   2.5702113  27.9099787
  62.7973622   2.0231100  27.7712663  62.3768145   3.4346363  28.1214248
  63.8627788   3.8978496  41.1166686  63.5717654   4.8024126  41.0013352
  64.4984773   3.9395023  41.8310756  64.7883995   1.2755344  37.7068046
  65.3847567   1.0511366  36.9925009  64.8458967   0.5340090  38.3093494
  64.3609024  -1.2705221  25.5418237  64.6134544  -1.7923699  24.7801700
  63.4233583  -1.4339075  25.6444920  69.5762384   3.1703408  28.0481637
  68.9408217   3.2438035  28.7602541  69.2459790   3.7597007  27.3700716
  64.0805312   0.6322885  27.7442612  63.9641570  -0.0432211  28.4123696
  64.1907572   0.1455259  26.9274765  66.4236853   0.0933032  31.4489301
  66.0595060  -0.4336347  32.1602222  67.2803969  -0.2968499  31.2755786
  68.8217673   3.5839911  38.1116480  68.5218396   4.4864950  38.0032287
  68.4768733   3.3172094  38.9637633  62.2730155   0.0353708  34.1453184
  61.3480651  -0.0970078  34.3530876  62.5214568   0.8147927  34.6423127
  59.6338966  -0.3213019  34.9796973  59.7631347  -0.0678540  35.8936385
  58.9536417   0.2714689  34.6601628  63.8038453  10.3484231  31.0787447
  63.7262483  11.2992056  31.1575928  63.2000097  10.0030104  31.7362374
  64.5502055   0.3297550  43.2966781  65.2916740   0.8682594  43.0201605
  63.8439041   0.9563839  43.4538333  70.0257395   2.4726691  41.8938943
  70.4340751   2.0309101  41.1493575  69.3034656   1.8979318  42.1473136
  70.3486209   3.0327881  35.6491232  69.7195072   3.1973595  34.9467300
  69.9611872   3.4469491  36.4202196  74.2275441   3.9682319  33.0035595
  73.5426480   4.3481220  32.4532629  74.3119291   4.5777646  33.7367543
  71.4826373   1.6142278  39.6030939  71.6943268   2.2574038  38.9265320
  71.4356121   0.7804595  39.1352869  65.9014171   2.7702289  32.9141317
  66.3652517   3.0489992  32.1245939  65.6370969   1.8685734  32.7314407
  62.7938252   2.3173771  35.8521080  63.3639610   2.7461039  35.2138565
  63.3846364   2.0356356  36.5505266  64.8383057  -1.1074558  29.7230882
  65.5407101  -0.6553515  30.1904808  64.5063686  -1.7490739  30.3510775
  63.2863419  -2.5162802  44.0982091  62.6562080  -1.8346521  44.3317488
  63.1799507  -2.6279720  43.1535230  58.5808391  -2.8491006  35.0248016
  57.7907445  -2.5933477  34.5488126  59.0719639  -2.0342668  35.1300056
  72.5972201   4.4914234  37.7753296  73.4189645   4.0894421  37.4935978
  72.5934604   4.3882468  38.7269412  60.5323137  -2.4846426  31.9831492
  59.7354300  -2.3727732  32.5014988  60.3048729  -2.1459774  31.1172383
  66.3628804   4.0398277  39.9314007  66.4273237   4.5018684  40.7672179
  65.6539728   3.4095642  40.0596317  56.8646094  -2.5960515  37.4563006
  57.1154133  -1.7113505  37.7220582  57.4005643  -2.7755914  36.6838098
  66.0776822   5.7066384  29.7992987  65.9422497   6.5517920  30.2277835
  66.6186635   5.9085662  29.0358921  59.5306219   3.2241822  30.3720912
  60.0430740   4.0185073  30.5226477  60.1828932   2.5268113  30.3054514
  61.3401104   6.3407579  32.4543665  61.5167732   7.2625543  32.2664649
  62.1357938   6.0265998  32.8838045  60.6253461  -1.6127789  42.3305829
  60.5106976  -2.5142532  42.6312928  59.7697978  -1.3664093  41.9790645
  67.7045298   6.3289951  43.9293329  67.2609153   5.5426329  43.6114234
  68.3662512   6.5169101  43.2637220  62.4632420   7.8585752  38.4554008
  63.0139845   7.7302816  37.6831002  61.6243896   8.1580641  38.1048901
  69.8026536   6.6092751  41.9574731  69.7845012   7.4301632  41.4655000
  70.7246457   6.4846826  42.1824872  66.2599591   4.1236880  42.7998239
  66.7927927   3.3625168  42.5697547  65.7313672   3.8310532  43.5422393
  57.4955136   1.5530477  31.1480483  58.3330358   1.9627485  30.9314190
  57.6733404   0.6129919  31.1180677  74.3653842   1.9737912  28.7717489
  73.5883285   1.6349071  28.3272651  75.0445323   1.9790535  28.0972454
  67.6252303   3.2522873  30.3117051  67.0973665   2.5175632  29.9990288
  67.1239806   4.0297549  30.0657019  72.6045149   1.4471893  35.4284097
  71.9468824   2.1371155  35.5164226  73.4085549   1.8368325  35.7718084
  65.7704904   1.0703083  23.3152024  64.8631965   0.8392336  23.5143173
  66.2675936   0.2740702  23.5026005  68.6772982   9.7800590  26.2348710
  68.0034681  10.0832287  26.8433668  69.0638804  10.5829671  25.8854167
  66.9493137   1.1715678  27.8376014  66.0404356   0.8874711  27.9348484
  66.9788221   1.5914756  26.9779321  72.1812404   4.7822267  31.6067182
  71.7274731   3.9413177  31.6632372  71.5506371   5.4183666  31.9441962
  70.6245344   6.6198764  32.5417000  70.9168318   7.1803821  31.8229365
  71.1343964   6.9127325  33.2970159  57.5181307  -1.1078808  31.8191216
  57.3205707  -1.7009447  31.0942283  56.9627971  -1.4126598  32.5367155
  66.6469225   2.7124422  25.1764093  66.2088655   1.9960280  24.7169730
  67.3879666   2.9400536  24.6149184  65.5878969   7.3979115  33.6310453
  65.5455148   7.6239961  32.7018985  66.5041668   7.1642490  33.7796254
  74.7911719   3.0558146  36.2451683  75.2248226   2.9633435  37.0934737
  75.5043300   3.0315646  35.6071699  63.7044770   4.2742144  33.4272416
  64.4985368   3.7792464  33.2254991  62.9936462   3.7460007  33.0640121
  68.5239614   6.6560240  37.7784783  68.5776636   7.2251176  38.5462499
  67.6554395   6.8262125  37.4138820  60.0127533  -1.5814774  29.5032168
  59.0825121  -1.6430319  29.7202130  60.1085005  -2.1038821  28.7068810
  75.6527269   3.0981846  38.7784568  75.8463159   4.0027657  39.0243843
  75.5527887   2.6389265  39.6123153  70.7142377   3.2488589  44.3525449
  70.5627884   3.0199141  43.4355532  70.7047057   4.2059190  44.3656794
  67.4827714   0.8220502  39.3371715  68.4119774   0.9731661  39.1640682
  67.0618744   0.9104523  38.4820362  66.2816046   4.8471166  37.1070253
  66.1427131   4.4789951  37.9796191  65.4930642   5.3618806  36.9354211
  66.8764198   9.9480263  28.4495789  67.0515953   9.4768306  29.2641412
  66.1896986  10.5746029  28.6777050  67.8321261   4.2252769  34.4959091
  67.4971093   4.1853539  35.3916740  67.3325206   3.5597485  34.0229501
  61.8065505  -0.3679601  40.0211672  61.6685303  -1.0999362  40.6223211
  62.7170428  -0.4570701  39.7395859  70.7680452   1.5708803  24.7696150
  70.1509623   0.8455631  24.6729203  70.2996941   2.3318163  24.4263224
  64.4347805  -0.6559642  39.5095351  65.1447424  -1.2966450  39.4681970
  64.3917114  -0.4046747  40.4321532  72.4234584   6.2807712  42.4301931
  72.3647130   5.5966932  41.7632514  72.8254102   7.0226702  41.9782557
  61.4425283  13.0969625  35.2235649  61.6821881  13.7288150  35.9014668
  60.5994479  12.7457665  35.5101009  72.4251991   4.2447295  40.6615910
  71.5378770   3.9073217  40.7842309  72.9950542   3.5130327  40.8984676
  54.0781138   0.5771387  33.9858962  54.7652178   0.2633117  33.3979977
  53.9229267   1.4812752  33.7126213  65.9553145   8.9048748  37.6277153
  65.8823316   9.7103719  38.1396458  65.5130538   9.1040714  36.8025175
  65.7442924   8.1420518  31.1379975  64.9610446   8.6842198  31.2318199
  66.4435670   8.6594498  31.5374216  68.4151828   8.8035582  39.7835312
  69.1279800   9.4383047  39.7111214  67.9241857   8.8999448  38.9675314
  70.1369355   2.7086835  31.3552604  69.2025634   2.8288297  31.1857308
  70.3146024   1.8059301  31.0912614  63.4663742   6.5530025  40.6040883
  64.1673201   7.1866508  40.7570277  62.9958857   6.8944757  39.8436522
  71.5918138   4.8947975  28.8888790  71.8677981   4.7804570  29.7982664
  70.7222636   4.4965460  28.8500963  68.2272202   9.1434326  32.5321604
  68.4094596   8.3255982  32.9949356  69.0505188   9.3602018  32.0946494
  68.5614367   8.0702511  29.7936652  69.0902134   7.5594966  29.1806814
  68.8242587   7.7545041  30.6582185  67.3152601  -0.1505556  44.9159470
  66.6393238  -0.2511427  45.5861846  68.1380235  -0.3066342  45.3795468
  59.0631460   6.0866380  37.5371986  59.6484897   5.3410068  37.6699890
  58.8656298   6.3970337  38.4208649  61.9170115   9.1217628  32.5534428
  61.2480490   9.6063755  32.0698468  61.7782985   9.3686848  33.4677807
  53.6549115  -1.3428019  36.2576429  53.6933214  -1.8764429  37.0513547
  53.1489407  -1.8692814  35.6387406  66.0575384  11.1561371  39.1517086
  66.6093692  11.3192993  39.9166172  66.3981577  11.7465809  38.4797111
  70.9086258   5.9822629  45.0065741  71.4526162   6.5952587  44.5120696
  70.3273103   6.5402207  45.5232754  57.2857692  -2.6163917  29.3330360
  57.5811133  -3.5253239  29.2797414  56.3845728  -2.6376178  29.0111362
  69.1943771   9.1043347  36.1380769  69.0694910   8.3033087  35.6291714
  69.8522862   9.5989540  35.6494738  71.2578679   6.9052367  37.7660319
  70.3109015   6.7857718  37.6938645  71.6061452   6.0174865  37.8486580
  68.2625113   6.7005083  33.9664671  68.1150075   5.7721791  34.1472241
  69.0878606   6.7225174  33.4821746  71.8659234   7.5233642  35.0529544
  72.7905782   7.3176503  34.9153995  71.6974538   7.2750043  35.9618885
  62.9985848  -2.4871366  35.5367533  62.8530429  -2.1731063  36.4291814
  62.5211052  -1.8686466  34.9838431  71.6554551   8.0419309  30.4091635
  71.8291428   7.4765732  29.6565487  72.1483442   8.8420204  30.2271125
  57.4731510   0.0533978  38.4755194  56.9284979   0.8293786  38.6075468
  58.3510860   0.4004783  38.3174315  72.6429723   7.3586074  27.5088533
  73.3380628   7.9792766  27.7275848  72.9852873   6.5081425  27.7840911
  58.2597532  -0.8196125  41.3685351  57.5179268  -0.6713490  41.9549981
  57.9390277  -0.5587860  40.5052100  74.5421146   4.8085779  29.0375864
  75.0672470   5.1473052  28.3125184  74.4543499   3.8732795  28.8538999
  66.2041195   8.7219853  41.1665741  66.5128321   8.4769000  42.0388440
  67.0016677   8.9266491  40.6784611  66.2261807  10.8757763  33.3971117
  65.7866797  10.3834141  34.0903974  66.9769924  10.3330730  33.1563192
  58.7054146   7.0669303  33.3995745  59.5312166   6.7673075  33.0194389
  58.3548198   6.2976926  33.8485534  63.6735679   6.4195772  35.4693419
  63.0515688   5.7566477  35.1695647  64.3440546   6.4456903  34.7867067
  56.9062751   4.9855630  34.3584679  56.0694659   4.5577804  34.1768680
  56.8786396   5.1788073  35.2955470  74.2315052   5.4418683  44.3427062
  73.4410596   5.4242822  43.8031561  73.9948407   5.9806977  45.0976099
  74.3512927   2.2911149  41.6559791  74.4010932   2.1261157  42.5975313
  74.2426851   1.4238408  41.2657671  63.2349186   4.9699695  28.9451879
  63.3837306   5.6535159  28.2918552  64.0415630   4.9504785  29.4601335
  75.8531124   4.7108091  41.9001812  75.5615933   5.0738071  42.7365273
  75.2403255   3.9975099  41.7215144  60.9901819   0.9964873  29.9512948
  60.7447861   0.0927203  30.1493159  61.1597734   0.9982023  29.0092426
  66.7344592   7.4647825  26.4163627  66.1618559   8.0838013  25.9634099
  67.3077385   8.0147187  26.9503549  69.9541851   7.7484976  27.5472209
  70.8872525   7.6830537  27.7505085  69.8665064   8.5841242  27.0886742
  72.5829868   7.0650846  24.5076157  72.5043500   6.7310709  25.4011915
  73.4039535   7.5572614  24.5067629  67.0030083   2.8526384  45.2180336
  67.9233092   3.0304983  45.4120383  66.9679666   1.9082430  45.0660036
  56.2212248  -1.9535022  34.1433611  55.9015032  -2.8069714  33.8507985
  55.6745676  -1.7386444  34.8991578  59.9992155   0.7627419  37.8603118
  60.2178165   1.6944527  37.8791151  60.4117929   0.4035393  38.6457921
  56.0900508   1.6667889  36.1126733  55.3963979   1.2521842  35.5996687
  56.8373499   1.7088426  35.5160151  64.7351291  -0.2342236  46.0670928
  64.2518372   0.5658124  46.2734817  64.8212230  -0.2234292  45.1138372
  58.0037250   1.5986143  33.9892747  57.9807938   1.6973830  33.0374631
  58.3137887   2.4451294  34.3109914  60.6624628   3.6562298  38.1039362
  61.6167882   3.6246241  38.0369293  60.4637152   3.1952922  38.9189588
  61.2524010   2.2263414  40.6710160  62.0716899   2.7207493  40.6944997
  61.5260818   1.3095382  40.6427727  59.0174857   9.1981918  35.1209560
  58.8829325   8.4382319  34.5547558  58.6006919   9.9222818  34.6538349
  70.1533820   4.3818841  24.1286135  70.8569670   4.5868844  24.7443791
  69.4296469   4.9495603  24.3935219  62.1743983  10.0951235  35.3328002
  62.0576367  11.0396667  35.2306693  61.3536429   9.7924796  35.7213802
  72.0620517   4.8201370  26.1784595  72.8966121   4.3882569  25.9962070
  71.9004860   4.6483384  27.1061490  71.7166409   1.3233484  27.5440934
  71.6615213   1.1577755  26.6029379  71.0912465   2.0309517  27.7003124
  56.5058924  -3.4398452  41.3702357  57.1517788  -3.9499498  41.8589582
  56.2976076  -2.7029770  41.9445782  69.0312317   3.6282396  46.8694497
  69.9003476   3.8023048  46.5081132  68.5519068   4.4476812  46.7470227
  63.1998497  10.7479497  38.5483931  64.1025744  10.7803107  38.8650426
  62.9735867   9.8179948  38.5630267  64.9552099   9.5010483  35.2094009
  64.0047730   9.5012345  35.0958382  65.2584585   8.7543218  34.6930044
  80.6904792  15.3371022  36.2739772  81.3283202  15.2177769  35.5703112
  80.5725635  16.2851866  36.3327724  77.4994499  15.2898450  36.2101297
  77.1613010  15.1739514  35.3221831  78.3684267  14.8889615  36.1902303
  73.3581314  17.1433926  32.1998187  72.7946179  17.0523863  31.4314475
  73.2433709  16.3233831  32.6800680  77.9814282  16.4433301  42.1687502
  77.9702922  16.0486100  41.2968006  78.1434921  15.7099374  42.7621274
  70.9045746  18.6385118  35.0382408  71.6967038  18.2975942  34.6228707
  71.1442396  18.7480093  35.9584561  78.9380873  20.8104894  27.5112652
  78.2868853  21.3958974  27.1246666  79.7325236  21.3411089  27.5707690
  72.8636500  17.8994031  27.9099787  73.6367376  17.3523018  27.7712663
  73.2161899  18.7638280  28.1214248  74.7021543  19.2270413  41.1166686
  74.4111409  20.1316044  41.0013352  75.3378527  19.2686941  41.8310756
  75.6277750  16.6047262  37.7068046  76.2241322  16.3803284  36.9925009
  75.6852721  15.8632007  38.3093494  75.2002778  14.0586697  25.5418237
  75.4528299  13.5368218  24.7801700  74.2627337  13.8952843  25.6444920
  80.2446061  13.0622475  33.3492980  81.0309150  12.6441899  32.9983397
  80.5084765  13.9668568  33.5174628  80.4156138  18.4995326  28.0481637
  79.7801971  18.5729952  28.7602541  80.0853545  19.0888925  27.3700716
  85.6454488  12.9997709  34.2525958  86.3779660  12.4296925  34.4863788
  84.8893844  12.6119309  34.6932464  74.9199067  15.9614803  27.7442612
  74.8035325  15.2859706  28.4123696  75.0301327  15.4747177  26.9274765
  77.2630608  15.4224950  31.4489301  76.8988815  14.8955571  32.1602222
  78.1197724  15.0323419  31.2755786  83.1679908   6.7119283  38.7120567
  82.8363233   7.5814694  38.4881782  82.5725522   6.3955567  39.3914597
  76.9036095  10.4514850  26.4450649  77.0710497  11.3195086  26.8121120
  76.7133264  10.6142132  25.5211939  79.6611428  18.9131829  38.1116480
  79.3612151  19.8156868  38.0032287  79.3162487  18.6464012  38.9637633
  73.1123909  15.3645626  34.1453184  72.1874406  15.2321840  34.3530876
  73.3608323  16.1439845  34.6423127  83.0608572  11.4314369  35.7913917
  82.1525449  11.3629777  35.4972678  83.0096167  11.9086314  36.6195743
  76.8825316  12.9072507  27.4297316  76.7624941  13.3529558  28.2682796
  76.1877904  13.2557825  26.8710854  70.4732720  15.0078899  34.9796973
  70.6025102  15.2613378  35.8936385  69.7930172  15.6006607  34.6601628
  74.6432208  25.6776149  31.0787447  74.5656237  26.6283974  31.1575928
  74.0393851  25.3322022  31.7362374  77.1349437  12.8504014  43.7348814
  76.3582771  13.4097935  43.7251679  77.7740000  13.3360797  44.2563684
  84.9270218   9.6330807  37.5691791  84.2844598   9.9263340  36.9231586
  84.4225147   9.5183728  38.3744988  82.5810382  13.3793980  28.2577650
  83.4928238  13.6121367  28.0825348  82.0720029  13.9631025  27.6952729
  75.3895810  15.6589468  43.2966781  76.1310494  16.1974512  43.0201605
  74.6832795  16.2855757  43.4538333  80.8651149  17.8018608  41.8938943
  81.2734505  17.3601019  41.1493575  80.1428411  17.2271236  42.1473136
  77.2182219  12.7391215  39.2672500  78.0643415  13.1630629  39.4107149
  77.1580857  12.0824839  39.9611063  81.1879964  18.3619799  35.6491232
  80.5588826  18.5265513  34.9467300  80.8005626  18.7761409  36.4202196
  85.0669196  19.2974237  33.0035595  84.3820234  19.6773138  32.4532629
  85.1513045  19.9069563  33.7367543  80.3681665  10.3995583  40.9253673
  80.1242597  11.1537644  40.3887949  80.6441595  10.7780931  41.7600920
  82.3220127  16.9434196  39.6030939  82.5337023  17.5865956  38.9265320
  82.2749876  16.1096512  39.1352869  79.9246356   9.5552016  36.5067511
  79.0630835   9.8533270  36.7984249  79.9508791   9.7722415  35.5748544
  76.7407926  18.0994207  32.9141317  77.2046271  18.3781910  32.1245939
  76.4764724  17.1977652  32.7314407  73.6332007  17.6465689  35.8521080
  74.2033364  18.0752957  35.2138565  74.2240119  17.3648273  36.5505266
  75.6776812  14.2217359  29.7230882  76.3800855  14.6738403  30.1904808
  75.3457440  13.5801178  30.3510775  74.1257173  12.8129116  44.0982091
  73.4955834  13.4945397  44.3317488  74.0193261  12.7012198  43.1535230
  69.4202146  12.4800912  35.0248016  68.6301200  12.7358441  34.5488126
  69.9113393  13.2949250  35.1300056  83.4365955  19.8206151  37.7753296
  84.2583399  19.4186339  37.4935978  83.4328358  19.7174385  38.7269412
  71.3716891  12.8445491  31.9831492  70.5748055  12.9564186  32.5014988
  71.1442483  13.1832144  31.1172383  77.2022559  19.3690195  39.9314007
  77.2666991  19.8310602  40.7672179  76.4933483  18.7387559  40.0596317
  67.7039849  12.7331403  37.4563006  67.9547887  13.6178412  37.7220582
  68.2399397  12.5536004  36.6838098  91.5271948  16.1644900  34.1238268
  90.7735657  15.5952298  33.9682272  91.6619490  16.1307564  35.0708902
  76.9170577  21.0358302  29.7992987  76.7816251  21.8809838  30.2277835
  77.4580389  21.2377580  29.0358921  73.4037916   7.1149882  46.4607342
  73.0104862   6.5616080  47.1354987  74.2204056   7.4260460  46.8513860
  70.3699974  18.5533740  30.3720912  70.8824494  19.3476990  30.5226477
  71.0222687  17.8560031  30.3054514  72.1794859  21.6699496  32.4543665
  72.3561487  22.5917461  32.2664649  72.9751692  21.3557916  32.8838045
  76.3205877   8.5307761  44.0527599  77.0615591   9.1314914  43.9732061
  76.5523800   7.7885399  43.4945642  71.4647215  13.7164128  42.3305829
  71.3500730  12.8149385  42.6312928  70.6091733  13.9627825  41.9790645
  78.5439053  21.6581869  43.9293329  78.1002907  20.8718247  43.6114234
  79.2056266  21.8461019  43.2637220  73.3026174  23.1877670  38.4554008
  73.8533599  23.0594733  37.6831002  72.4637650  23.4872559  38.1048901
  80.6420291  21.9384668  41.9574731  80.6238766  22.7593550  41.4655000
  81.5640211  21.8138744  42.1824872  77.0993345  19.4528798  42.7998239
  77.6321682  18.6917086  42.5697547  76.5707426  19.1602450  43.5422393
  80.2663040   4.5588864  38.3291881  79.9227309   5.4490506  38.2530991
  80.6342003   4.3690522  37.4661466  68.3348891  16.8822394  31.1480483
  69.1724113  17.2919403  30.9314190  68.5127158  15.9421837  31.1180677
  80.2313323  14.5497475  26.8364316  79.7159946  15.3202080  27.0752703
  79.9590631  13.8762611  27.4597377  77.8160434   9.3947176  31.8949554
  76.9602030   9.0054026  31.7155193  78.2287386   9.4739137  31.0349340
  79.3459580   6.9293519  36.2941114  78.8424376   6.8923654  35.4808919
  79.6390187   7.8386262  36.3537771  75.5902466   7.0132249  35.3007296
  76.4555463   6.8175057  34.9413185  75.6579975   6.7842601  36.2276652
  85.2047597  17.3029830  28.7717489  84.4277040  16.9640989  28.3272651
  85.8839078  17.3082453  28.0972454  80.0199626  12.4224567  28.6624097
  79.7149762  12.7370716  29.5134240  80.9730068  12.5005987  28.7051430
  78.4646058  18.5814790  30.3117051  77.9367419  17.8467550  29.9990288
  77.9633561  19.3589467  30.0657019  83.4438904  16.7763811  35.4284097
  82.7862578  17.4663072  35.5164226  84.2479303  17.1660243  35.7718084
  73.1964785   9.2434457  32.6723662  73.7708537   9.0209638  31.9396855
  73.7835768   9.3123151  33.4252264  82.2544363  15.1308184  33.4788039
  82.7676244  15.7638175  33.9809749  82.9045587  14.5309379  33.1131399
  73.5234373  11.2738918  26.6919548  72.6871685  11.6113604  27.0128822
  73.3839142  11.1387898  25.7546685  75.4987453   6.1175706  31.3998732
  74.8451866   5.8024723  30.7755347  75.4567927   5.4951446  32.1258555
  76.6098658  16.3995001  23.3152024  75.7025720  16.1684254  23.5143173
  77.1069690  15.6032620  23.5026005  79.5166737  25.1092508  26.2348710
  78.8428436  25.4124205  26.8433668  79.9032559  25.9121588  25.8854167
  78.7325194  12.6057639  35.7246379  77.8147755  12.8272586  35.5668068
  79.1485337  12.6803950  34.8658087  79.5160241  14.0049055  30.8549060
  80.2632060  14.5170452  30.5456182  79.7851831  13.6833108  31.7153453
  77.7886891  16.5007596  27.8376014  76.8798111  16.2166628  27.9348484
  77.8181975  16.9206674  26.9779321  83.0206159  20.1114185  31.6067182
  82.5668486  19.2705095  31.6632372  82.3900126  20.7475583  31.9441962
  81.9639078  11.0406171  32.8367849  81.2261835  10.5283557  33.1678092
  82.2165852  10.6006553  32.0251126  81.4639098  21.9490682  32.5417000
  81.7562072  22.5095739  31.8229365  81.9737719  22.2419243  33.2970159
  68.3575062  14.2213110  31.8191216  68.1599462  13.6282470  31.0942283
  67.8021726  13.9165320  32.5367155  76.3371786  14.1136216  33.9385809
  76.3920395  13.1610053  33.8628286  75.5262988  14.2695655  34.4227108
  77.4862979  18.0416339  25.1764093  77.0482409  17.3252198  24.7169730
  78.2273420  18.2692454  24.6149184  74.2764145  12.7313276  31.6976188
  73.4632011  13.0307446  32.1041380  74.7723140  12.3368965  32.4150670
  76.4272723  22.7271033  33.6310453  76.3848902  22.9531879  32.7018985
  77.3435422  22.4934407  33.7796254  79.8738357  13.1955100  40.5291082
  80.2287745  13.4226574  41.3885548  80.5210488  13.5273477  39.9068337
  85.6036094  16.3173536  31.2340411  85.4653993  16.5075132  30.3061600
  85.2472313  17.0792919  31.6908462  73.7678220  10.3031631  37.3137423
  74.4077600  10.1620391  36.6160387  72.9355751  10.0166145  36.9376025
  85.6305474  18.3850063  36.2451683  86.0641980  18.2925352  37.0934737
  86.3437054  18.3607564  35.6071699  74.5438524  19.6034062  33.4272416
  75.3379123  19.1084382  33.2254991  73.8330216  19.0751925  33.0640121
  79.3633369  21.9852157  37.7784783  79.4170391  22.5543094  38.5462499
  78.4948150  22.1554042  37.4138820  70.8521288  13.7477144  29.5032168
  69.9218876  13.6861599  29.7202130  70.9478760  13.2253096  28.7068810
  70.7706837  10.2731956  32.0910410  71.0313654  11.1877290  31.9819570
  71.5924009   9.8056399  32.2407023  72.2431762  11.6869714  39.2609235
  72.9154815  11.4787076  38.6121883  71.4161548  11.4891800  38.8214467
  86.4921023  18.4273764  38.7784568  86.6856913  19.3319574  39.0243843
  86.3921641  17.9681183  39.6123153  78.1457334   8.3131655  41.2774895
  77.4985249   9.0121604  41.1839372  78.9158349   8.7467798  41.6451144
  81.5536132  18.5780507  44.3525449  81.4021638  18.3491058  43.4355532
  81.5440811  19.5351108  44.3656794  78.3221468  16.1512419  39.3371715
  79.2513528  16.3023579  39.1640682  77.9012498  16.2396440  38.4820362
  77.1209800  20.1763084  37.1070253  76.9820886  19.8081868  37.9796191
  76.3324396  20.6910723  36.9354211  77.7157952  25.2772180  28.4495789
  77.8909708  24.8060223  29.2641412  77.0290740  25.9037947  28.6777050
  78.6715015  19.5544687  34.4959091  78.3364848  19.5145456  35.3916740
  78.1718961  18.8889402  34.0229501  72.6459259  14.9612317  40.0211672
  72.5079057  14.2292555  40.6223211  73.5564183  14.8721217  39.7395859
  81.6074207  16.9000721  24.7696150  80.9903378  16.1747549  24.6729203
  81.1390695  17.6610081  24.4263224  75.2741560  14.6732276  39.5095351
  75.9841178  14.0325468  39.4681970  75.2310868  14.9245171  40.4321532
  83.2628339  21.6099629  42.4301931  83.2040885  20.9258849  41.7632514
  83.6647857  22.3518619  41.9782557  73.9870494  11.6597494  41.3290991
  73.4507851  11.2088232  41.9812587  73.3987202  11.7943403  40.5861455
  72.2819037  28.4261543  35.2235649  72.5215636  29.0580067  35.9014668
  71.4388234  28.0749583  35.5101009  73.3972753  11.1186145  23.8917454
  72.5202219  10.9974946  23.5279701  73.8730506  10.3272223  23.6396343
  83.2645746  19.5739213  40.6615910  82.3772525  19.2365135  40.7842309
  83.8344297  18.8422244  40.8984676  64.9174893  15.9063305  33.9858962
  65.6045933  15.5925035  33.3979977  64.7623022  16.8104670  33.7126213
  69.7209615  10.7953501  38.4143985  69.6367804  10.1879171  37.6794395
  68.8992321  11.2862520  38.4153482  76.7946899  24.2340666  37.6277153
  76.7217071  25.0395637  38.1396458  76.3524292  24.4332631  36.8025175
  76.5836679  23.4712436  31.1379975  75.8004201  24.0134116  31.2318199
  77.2829424  23.9886415  31.5374216  79.8933329   9.2807065  33.7814180
  80.3902028   8.5277027  33.4615251  79.1220310   9.3171382  33.2157390
  87.7463086  14.9847431  35.4232472  87.7352963  15.8672146  35.0526405
  86.8780466  14.6318981  35.2287009  79.2545583  24.1327500  39.7835312
  79.9673555  24.7674964  39.7111214  78.7635611  24.2291366  38.9675314
  80.9763110  18.0378752  31.3552604  80.0419388  18.1580215  31.1857308
  81.1539778  17.1351219  31.0912614  76.4768298  11.4224448  33.5085865
  76.1066085  10.8695488  34.1966771  76.9727390  10.8182581  32.9560865
  84.3635661  13.8796071  31.8902638  84.8296113  14.7124063  31.8162941
  84.8143161  13.4141053  32.5947896  74.3057496  21.8821943  40.6040883
  75.0066956  22.5158426  40.7570277  73.8352611  22.2236675  39.8436522
  82.4311892  20.2239893  28.8888790  82.7071736  20.1096487  29.7982664
  81.5616391  19.8257378  28.8500963  82.3352324   6.2476658  35.9293539
  81.4215404   6.4780885  36.0975746  82.7645425   6.3315103  36.7807572
  82.1058782  14.4366550  38.4293433  81.4530232  14.6842458  37.7745886
  82.4839162  13.6230689  38.0955911  79.0665956  24.4726244  32.5321604
  79.2488351  23.6547900  32.9949356  79.8898942  24.6893936  32.0946494
  79.4008122  23.3994429  29.7936652  79.9295888  22.8886883  29.1806814
  79.6636341  23.0836959  30.6582185  78.1546355  15.1786362  44.9159470
  77.4786992  15.0780491  45.5861846  78.9773989  15.0225575  45.3795468
  69.9025214  21.4158298  37.5371986  70.4878651  20.6701986  37.6699890
  69.7050053  21.7262255  38.4208649  72.7563870  24.4509545  32.5534428
  72.0874245  24.9355673  32.0698468  72.6176739  24.6978766  33.4677807
  64.4942869  13.9863898  36.2576429  64.5326969  13.4527489  37.0513547
  63.9883162  13.4599104  35.6387406  76.8969138  26.4853289  39.1517086
  77.4487446  26.6484910  39.9166172  77.2375332  27.0757727  38.4797111
  71.8733631   8.8328439  39.7538971  71.9374958   9.6943270  39.3416369
  71.8100752   8.2202440  39.0211330  71.3485904  10.9051571  43.4012005
  71.9757943  10.5228649  44.0149530  70.4913823  10.6865773  43.7667698
  81.7480012  21.3114546  45.0065741  82.2919916  21.9244505  44.5120696
  81.1666857  21.8694125  45.5232754  68.1251447  12.7128000  29.3330360
  68.4204888  11.8038679  29.2797414  67.2239482  12.6915740  29.0111362
  80.0337525  24.4335264  36.1380769  79.9088665  23.6325004  35.6291714
  80.6916617  24.9281458  35.6494738  71.6545694  10.7883997  35.3157909
  70.9332279  11.4019965  35.1765382  72.4438949  11.3241762  35.2374555
  82.0972434  22.2344285  37.7660319  81.1502769  22.1149636  37.6938645
  82.4455207  21.3466783  37.8486580  74.4572007   8.1238423  41.5898560
  74.9806409   8.3700720  42.3524870  74.2384340   8.9558458  41.1701698
  69.8539288  10.3942098  29.4569685  69.5251994   9.5139477  29.2744791
  70.2078659  10.3389767  30.3446075  79.1018867  22.0297001  33.9664671
  78.9543830  21.1013708  34.1472241  79.9272361  22.0517091  33.4821746
  72.9681111  10.6815068  29.8245163  73.3077184  11.2100989  29.1023771
  73.4153232  11.0195474  30.6003729  82.7052989  22.8525560  35.0529544
  83.6299536  22.6468421  34.9153995  82.5368292  22.6041961  35.9618885
  75.6624552   9.0652119  39.2748231  75.3221373   8.2659932  39.6768911
  74.9563558   9.3653829  38.7025064  76.3141024   6.1501431  37.7275554
  77.1367093   5.6761909  37.6054444  76.5579088   6.9291915  38.2274240
  74.9549259   9.1789689  28.0238456  75.6757621   9.5570942  27.5202173
  74.3314563   9.8978566  28.1273434  79.0980381   9.8834838  28.9596788
  79.3143996  10.7659476  28.6585616  78.6174449   9.4921052  28.2302430
  73.8379603  12.8420552  35.5367533  73.6924183  13.1560855  36.4291814
  73.3604806  13.4605452  34.9838431  75.6975986   9.8323100  35.5848422
  75.6837554   8.9364193  35.2480720  76.4148414   9.8393763  36.2186708
  77.5502116  10.2660440  37.6301550  77.2919894  11.1877510  37.6285880
  77.0187157   9.8690874  38.3202014  82.4948305  23.3711227  30.4091635
  82.6685183  22.8057649  29.6565487  82.9877196  24.1712122  30.2271125
  68.3125265  15.3825896  38.4755194  67.7678733  16.1585704  38.6075468
  69.1904615  15.7296701  38.3174315  75.1012882   8.7137480  30.8535992
  75.2228793   7.7854126  31.0526880  74.8114924   8.7276166  29.9414308
  77.9704072   6.3992390  33.9902712  77.9925769   6.4631723  33.0354692
  78.3872131   5.5596899  34.1843218  88.3487696  16.1347650  32.0281935
  88.7918842  15.3854975  31.6301058  87.4714207  16.1257786  31.6455667
  83.4823478  22.6877991  27.5088533  84.1774382  23.3084684  27.7275848
  83.8246628  21.8373343  27.7840911  69.0991287  14.5095792  41.3685351
  68.3573023  14.6578428  41.9549981  68.7784031  14.7704058  40.5052100
  85.3814901  20.1377697  29.0375864  85.9066225  20.4764970  28.3125184
  85.2937253  19.2024712  28.8538999  77.0434949  24.0511771  41.1665741
  77.3522076  23.8060917  42.0388440  77.8410431  24.2558409  40.6784611
  77.0655561  26.2049680  33.3971117  76.6260552  25.7126059  34.0903974
  77.8163678  25.6622648  33.1563192  69.5447900  22.3961221  33.3995745
  70.3705920  22.0964993  33.0194389  69.1941952  21.6268843  33.8485534
  74.5129434  21.7487689  35.4693419  73.8909443  21.0858394  35.1695647
  75.1834301  21.7748821  34.7867067  67.7456506  20.3147548  34.3584679
  66.9088414  19.8869722  34.1768680  67.7180151  20.5079991  35.2955470
  74.5853961  10.2269477  45.0625925  74.6342117  11.1031600  44.6803695
  75.1276475   9.6846870  44.4897568  85.0708807  20.7710601  44.3427062
  84.2804351  20.7534739  43.8031561  84.8342161  21.3098894  45.0976099
  85.1906682  17.6203067  41.6559791  85.2404687  17.4553074  42.5975313
  85.0820605  16.7530326  41.2657671  74.0742941  20.2991613  28.9451879
  74.2231061  20.9827077  28.2918552  74.8809384  20.2796703  29.4601335
  82.4810444  13.6033995  42.9719097  83.3820307  13.4640460  42.6803095
  82.5558419  13.7688450  43.9117275  76.8153250  10.9800850  41.8172284
  75.9456559  11.2734416  41.5454872  77.0512730  11.5641295  42.5379547
  86.6924879  20.0400008  41.9001812  86.4009687  20.4029989  42.7365273
  86.0797010  19.3267017  41.7215144  87.8920561  17.6052888  34.4204382
  88.7267452  18.0442692  34.5841943  88.0279690  17.1291541  33.6012628
  84.9412067  15.1632623  40.3681870  85.4166189  15.3560269  39.5600721
  84.0177632  15.2191809  40.1225254  71.8295574  16.3256790  29.9512948
  71.5841615  15.4219120  30.1493159  71.9991488  16.3273941  29.0092426
  79.5192283   7.1980467  39.3337704  80.0374227   7.9341494  39.0084193
  79.1647416   7.5044460  40.1684463  71.0991221  12.0585148  27.4499110
  70.4060466  12.1329503  26.7939146  70.8542973  11.2945491  27.9720627
  77.5738346  22.7939743  26.4163627  77.0012313  23.4129930  25.9634099
  78.1471140  23.3439105  26.9503549  83.6413736  12.0398383  38.6010176
  84.5931159  12.1396481  38.6222400  83.4717186  11.2476652  39.1108260
  81.6628115   9.1253966  38.7869577  81.0678048   9.4058979  38.0916065
  81.3777812   9.6147867  39.5586318  80.7935606  23.0776893  27.5472209
  81.7266279  23.0122455  27.7505085  80.7058819  23.9133160  27.0886742
  83.4223623  22.3942764  24.5076157  83.3437254  22.0602627  25.4011915
  84.2433289  22.8864531  24.5067629  86.1201814  15.2604503  37.7152475
  86.0878134  14.3220504  37.9012159  86.7302437  15.3388540  36.9818300
  77.9585145  14.1300556  23.7579679  78.9044249  14.0006764  23.8268097
  77.5799390  13.3915218  24.2349108  86.2696302  12.0515546  37.7610759
  85.7535351  11.2674003  37.5740687  87.1536251  11.7234263  37.9257278
  83.9307029   5.7956562  33.7206571  83.7331850   5.4871650  34.6049903
  84.5406735   6.5218201  33.8504501  91.9378364  16.3220510  36.8558512
  92.6681752  16.0605798  37.4166215  91.3285309  15.5849232  36.8960580
  90.0193661  14.4628372  37.4532963  89.2926824  14.3284337  36.8449455
  89.6040948  14.7705201  38.2589681  77.8423837  18.1818302  45.2180336
  78.7626847  18.3596901  45.4120383  77.8073420  17.2374347  45.0660036
  76.1428062  12.0550532  23.6934565  75.2359517  11.7583645  23.7697278
  76.4204043  11.7580350  22.8268851  67.0606002  13.3756896  34.1433611
  66.7408786  12.5222204  33.8507985  66.5139430  13.5905474  34.8991578
  70.8385910  16.0919337  37.8603118  71.0571919  17.0236444  37.8791151
  71.2511683  15.7327311  38.6457921  77.7590127   6.5987422  29.8478806
  76.9490856   6.2534507  30.2234052  78.4474544   6.2894966  30.4366417
  79.6880676   5.6765469  31.4703103  80.2411714   6.0960922  32.1293126
  79.9250762   4.7501217  31.5126059  75.7113775  11.6652542  47.2505866
  75.6110502  12.6146899  47.1817958  75.4935317  11.3370781  46.3781937
  74.9126846   8.9137467  23.8346544  75.7746010   9.2392366  24.0942361
  75.0977191   8.1268963  23.3219610  66.9294262  16.9959807  36.1126733
  66.2357734  16.5813760  35.5996687  67.6767253  17.0380344  35.5160151
  83.0659483   7.7865994  30.9781767  82.4858152   8.4450798  30.5959819
  82.7995416   6.9643338  30.5669184  81.5163049   7.1871052  33.1803087
  82.0162828   7.2987586  32.3717406  82.1598657   6.8832104  33.8203896
  75.5745045  15.0949681  46.0670928  75.0912127  15.8950041  46.2734817
  75.6605984  15.1057626  45.1138372  68.8431005  16.9278061  33.9892747
  68.8201693  17.0265748  33.0374631  69.1531641  17.7743212  34.3109914
  71.5018383  18.9854216  38.1039362  72.4561636  18.9538158  38.0369293
  71.3030906  18.5244840  38.9189588  72.0917765  17.5555332  40.6710160
  72.9110654  18.0499411  40.6944997  72.3654572  16.6387300  40.6427727
  81.8484361   9.9466084  30.0338115  80.9610216  10.2315735  29.8158310
  82.2638350   9.7859848  29.1865392  85.1998897   9.9712605  33.7492454
  85.9759287  10.4609058  34.0217071  84.4747031  10.3970659  34.2064324
  87.6371456  10.6840224  34.8066395  88.2315946  10.4435960  34.0959703
  87.7098039   9.9647355  35.4339931  69.8568611  24.5273835  35.1209560
  69.7223079  23.7674236  34.5547558  69.4400674  25.2514735  34.6538349
  80.9927574  19.7110759  24.1286135  81.6963424  19.9160761  24.7443791
  80.2690223  20.2787521  24.3935219  81.8225385  15.4620620  30.2488405
  81.7660586  15.9189172  29.4096038  82.3753727  14.7011305  30.0711248
  85.6330191  11.2510352  31.0738525  85.3767125  10.8506988  31.9046732
  85.0083059  11.9654146  30.9488664  89.9442528  13.9906425  33.5809816
  89.3842086  14.0599615  34.3541378  89.3386032  13.8147410  32.8609312
  73.0137737  25.4243152  35.3328002  72.8970121  26.3688585  35.2306693
  72.1930183  25.1216714  35.7213802  82.9014272  20.1493288  26.1784595
  83.7359876  19.7174487  25.9962070  82.7398615  19.9775302  27.1061490
  82.5560164  16.6525401  27.5440934  82.5008968  16.4869673  26.6029379
  81.9306219  17.3601434  27.7003124  67.3452679  11.8893466  41.3702357
  67.9911542  11.3792420  41.8589582  67.1369830  12.6262147  41.9445782
  79.8706071  18.9574313  46.8694497  80.7397231  19.1314966  46.5081132
  79.3912823  19.7768730  46.7470227  75.8656289   6.1533510  27.1226253
  75.8534959   7.0975350  27.2794524  76.7579711   5.9703656  26.8285714
  74.0392251  26.0771414  38.5483931  74.9419498  26.1095025  38.8650426
  73.8129621  25.1471865  38.5630267  75.7945853  24.8302401  35.2094009
  74.8441484  24.8304262  35.0958382  76.0978339  24.0835135  34.6930044
  71.6850170   9.0361083  45.4677371  72.5481631   8.6797888  45.6780695
  71.1115581   8.6974978  46.1552775  91.5298547  30.6662939  36.2739772
  92.1676957  30.5469687  35.5703112  91.4119390  31.6143783  36.3327724
  88.3388253  30.6190367  36.2101297  88.0006765  30.5031432  35.3221831
  89.2078021  30.2181532  36.1902303  84.1975069  32.4725844  32.1998187
  83.6339934  32.3815781  31.4314475  84.0827464  31.6525748  32.6800680
  88.8208036  31.7725219  42.1687502  88.8096677  31.3778017  41.2968006
  88.9828676  31.0391292  42.7621274  81.7439501  33.9677035  35.0382408
  82.5360793  33.6267860  34.6228707  81.9836151  34.0772010  35.9584561
  89.7774628  36.1396811  27.5112652  89.1262607  36.7250892  27.1246666
  90.5718990  36.6703006  27.5707690  83.7030255  33.2285949  27.9099787
  84.4761131  32.6814936  27.7712663  84.0555654  34.0930198  28.1214248
  85.5415297  34.5562331  41.1166686  85.2505163  35.4607962  41.0013352
  86.1772282  34.5978858  41.8310756  86.4671504  31.9339179  37.7068046
  87.0635076  31.7095202  36.9925009  86.5246476  31.1923925  38.3093494
  86.0396532  29.3878615  25.5418237  86.2922053  28.8660136  24.7801700
  85.1021092  29.2244760  25.6444920  91.0839815  28.3914393  33.3492980
  91.8702905  27.9733816  32.9983397  91.3478520  29.2960485  33.5174628
  91.2549893  33.8287243  28.0481637  90.6195726  33.9021870  28.7602541
  90.9247299  34.4180842  27.3700716  96.4848242  28.3289626  34.2525958
  97.2173414  27.7588843  34.4863788  95.7287598  27.9411227  34.6932464
  85.7592821  31.2906721  27.7442612  85.6429079  30.6151624  28.4123696
  85.8695081  30.8039095  26.9274765  88.1024362  30.7516868  31.4489301
  87.7382569  30.2247489  32.1602222  88.9591478  30.3615337  31.2755786
  94.0073663  22.0411200  38.7120567  93.6756988  22.9106611  38.4881782
  93.4119276  21.7247484  39.3914597  87.7429849  25.7806767  26.4450649
  87.9104251  26.6487004  26.8121120  87.5527018  25.9434049  25.5211939
  90.5005182  34.2423746  38.1116480  90.2005905  35.1448785  38.0032287
  90.1556242  33.9755930  38.9637633  83.9517664  30.6937543  34.1453184
  83.0268160  30.5613757  34.3530876  84.2002077  31.4731762  34.6423127
  93.9002326  26.7606287  35.7913917  92.9919203  26.6921695  35.4972678
  93.8489922  27.2378232  36.6195743  87.7219070  28.2364425  27.4297316
  87.6018695  28.6821476  28.2682796  87.0271658  28.5849743  26.8710854
  81.3126475  30.3370817  34.9796973  81.4418856  30.5905296  35.8936385
  80.6323926  30.9298525  34.6601628  85.4825962  41.0068067  31.0787447
  85.4049992  41.9575892  31.1575928  84.8787606  40.6613939  31.7362374
  87.9743192  28.1795932  43.7348814  87.1976526  28.7389852  43.7251679
  88.6133755  28.6652715  44.2563684  95.7663973  24.9622725  37.5691791
  95.1238353  25.2555258  36.9231586  95.2618901  24.8475645  38.3744988
  93.4204136  28.7085898  28.2577650  94.3321992  28.9413285  28.0825348
  92.9113783  29.2922942  27.6952729  86.2289564  30.9881386  43.2966781
  86.9704249  31.5266429  43.0201605  85.5226550  31.6147674  43.4538333
  91.7044904  33.1310526  41.8938943  92.1128260  32.6892937  41.1493575
  90.9822165  32.5563154  42.1473136  88.0575974  28.0683133  39.2672500
  88.9037169  28.4922546  39.4107149  87.9974612  27.4116757  39.9611063
  92.0273718  33.6911717  35.6491232  91.3982581  33.8557431  34.9467300
  91.6399381  34.1053326  36.4202196  95.9062950  34.6266154  33.0035595
  95.2213989  35.0065056  32.4532629  95.9906800  35.2361481  33.7367543
  91.2075419  25.7287501  40.9253673  90.9636351  26.4829562  40.3887949
  91.4835350  26.1072849  41.7600920  93.1613882  32.2726113  39.6030939
  93.3730777  32.9157873  38.9265320  93.1143630  31.4388430  39.1352869
  90.7640111  24.8843934  36.5067511  89.9024590  25.1825188  36.7984249
  90.7902546  25.1014333  35.5748544  87.5801680  33.4286125  32.9141317
  88.0440026  33.7073828  32.1245939  87.3158478  32.5269569  32.7314407
  84.4725761  32.9757606  35.8521080  85.0427118  33.4044875  35.2138565
  85.0633873  32.6940191  36.5505266  86.5170566  29.5509277  29.7230882
  87.2194610  30.0030321  30.1904808  86.1851195  28.9093096  30.3510775
  84.9650928  28.1421034  44.0982091  84.3349589  28.8237315  44.3317488
  84.8587016  28.0304115  43.1535230  80.2595900  27.8092830  35.0248016
  79.4694954  28.0650358  34.5488126  80.7507148  28.6241168  35.1300056
  94.2759710  35.1498069  37.7753296  95.0977154  34.7478256  37.4935978
  94.2722113  35.0466303  38.7269412  82.2110646  28.1737409  31.9831492
  81.4141809  28.2856103  32.5014988  81.9836238  28.5124061  31.1172383
  88.0416313  34.6982112  39.9314007  88.1060746  35.1602519  40.7672179
  87.3327237  34.0679477  40.0596317  78.5433603  28.0623320  37.4563006
  78.7941642  28.9470330  37.7220582  79.0793152  27.8827922  36.6838098
 102.3665703  31.4936817  34.1238268 101.6129411  30.9244215  33.9682272
 102.5013244  31.4599482  35.0708902  87.7564331  36.3650220  29.7992987
  87.6210006  37.2101755  30.2277835  88.2974144  36.5669497  29.0358921
  84.2431671  22.4441800  46.4607342  83.8498616  21.8907998  47.1354987
  85.0597811  22.7552378  46.8513860  81.2093728  33.8825658  30.3720912
  81.7218249  34.6768908  30.5226477  81.8616441  33.1851948  30.3054514
  83.0188613  36.9991414  32.4543665  83.1955241  37.9209379  32.2664649
  83.8145447  36.6849833  32.8838045  87.1599632  23.8599679  44.0527599
  87.9009345  24.4606832  43.9732061  87.3917554  23.1177316  43.4945642
  82.3040970  29.0456046  42.3305829  82.1894485  28.1441303  42.6312928
  81.4485487  29.2919743  41.9790645  89.3832807  36.9873786  43.9293329
  88.9396662  36.2010165  43.6114234  90.0450021  37.1752937  43.2637220
  84.1419929  38.5169588  38.4554008  84.6927354  38.3886651  37.6831002
  83.3031404  38.8164477  38.1048901  91.4814045  37.2676586  41.9574731
  91.4632521  38.0885467  41.4655000  92.4033966  37.1430661  42.1824872
  87.9387100  34.7820716  42.7998239  88.4715436  34.0209004  42.5697547
  87.4101181  34.4894367  43.5422393  91.1056795  19.8880782  38.3291881
  90.7621064  20.7782423  38.2530991  91.4735757  19.6982439  37.4661466
  79.1742645  32.2114312  31.1480483  80.0117867  32.6211320  30.9314190
  79.3520913  31.2713754  31.1180677  91.0707077  29.8789393  26.8364316
  90.5553701  30.6493997  27.0752703  90.7984386  29.2054529  27.4597377
  88.6554188  24.7239093  31.8949554  87.7995785  24.3345944  31.7155193
  89.0681140  24.8031054  31.0349340  90.1853335  22.2585437  36.2941114
  89.6818131  22.2215572  35.4808919  90.4783942  23.1678179  36.3537771
  86.4296221  22.3424166  35.3007296  87.2949218  22.1466975  34.9413185
  86.4973730  22.1134518  36.2276652  96.0441351  32.6321747  28.7717489
  95.2670794  32.2932907  28.3272651  96.7232832  32.6374371  28.0972454
  90.8593380  27.7516485  28.6624097  90.5543516  28.0662634  29.5134240
  91.8123823  27.8297905  28.7051430  89.3039812  33.9106708  30.3117051
  88.7761174  33.1759468  29.9990288  88.8027315  34.6881384  30.0657019
  94.2832658  32.1055729  35.4284097  93.6256333  32.7954990  35.5164226
  95.0873058  32.4952161  35.7718084  84.0358540  24.5726374  32.6723662
  84.6102292  24.3501556  31.9396855  84.6229522  24.6415069  33.4252264
  93.0938117  30.4600101  33.4788039  93.6069999  31.0930093  33.9809749
  93.7439341  29.8601297  33.1131399  84.3628127  26.6030835  26.6919548
  83.5265439  26.9405522  27.0128822  84.2232897  26.4679815  25.7546685
  86.3381208  21.4467623  31.3998732  85.6845620  21.1316640  30.7755347
  86.2961682  20.8243364  32.1258555  87.4492413  31.7286918  23.3152024
  86.5419474  31.4976172  23.5143173  87.9463444  30.9324538  23.5026005
  90.3560491  40.4384426  26.2348710  89.6822190  40.7416122  26.8433668
  90.7426313  41.2413506  25.8854167  89.5718948  27.9349557  35.7246379
  88.6541509  28.1564504  35.5668068  89.9879092  28.0095867  34.8658087
  90.3553996  29.3340973  30.8549060  91.1025815  29.8462370  30.5456182
  90.6245585  29.0125025  31.7153453  88.6280646  31.8299513  27.8376014
  87.7191865  31.5458546  27.9348484  88.6575730  32.2498592  26.9779321
  93.8599913  35.4406103  31.6067182  93.4062240  34.5997013  31.6632372
  93.2293880  36.0767501  31.9441962  92.8032833  26.3698089  32.8367849
  92.0655590  25.8575475  33.1678092  93.0559606  25.9298470  32.0251126
  92.3032853  37.2782599  32.5417000  92.5955827  37.8387657  31.8229365
  92.8131473  37.5711160  33.2970159  92.9044460  19.1474341  33.4309618
  93.2103337  18.2871704  33.1435533  93.6297065  19.7391961  33.2308612
  79.1968816  29.5505027  31.8191216  78.9993216  28.9574388  31.0942283
  78.6415480  29.2457238  32.5367155  87.1765540  29.4428134  33.9385809
  87.2314150  28.4901970  33.8628286  86.3656742  29.5987573  34.4227108
  88.3256734  33.3708257  25.1764093  87.8876164  32.6544116  24.7169730
  89.0667175  33.5984372  24.6149184  85.1157900  28.0605194  31.6976188
  84.3025765  28.3599364  32.1041380  85.6116894  27.6660882  32.4150670
  87.2666478  38.0562951  33.6310453  87.2242657  38.2823797  32.7018985
  88.1829177  37.8226325  33.7796254  90.7132112  28.5247018  40.5291082
  91.0681499  28.7518491  41.3885548  91.3604243  28.8565395  39.9068337
  96.4429849  31.6465454  31.2340411  96.3047747  31.8367050  30.3061600
  96.0866067  32.4084837  31.6908462  84.6071975  25.6323549  37.3137423
  85.2471354  25.4912308  36.6160387  83.7749505  25.3458062  36.9376025
  96.4699228  33.7141981  36.2451683  96.9035735  33.6217270  37.0934737
  97.1830809  33.6899481  35.6071699  85.3832279  34.9325980  33.4272416
  86.1772877  34.4376300  33.2254991  84.6723971  34.4043843  33.0640121
  90.2027123  37.3144075  37.7784783  90.2564145  37.8835011  38.5462499
  89.3341904  37.4845960  37.4138820  81.6915042  29.0769061  29.5032168
  80.7612630  29.0153517  29.7202130  81.7872514  28.5545014  28.7068810
  81.6100591  25.6023874  32.0910410  81.8707408  26.5169207  31.9819570
  82.4317763  25.1348317  32.2407023  83.0825516  27.0161631  39.2609235
  83.7548570  26.8078993  38.6121883  82.2555303  26.8183717  38.8214467
  97.3314778  33.7565682  38.7784568  97.5250668  34.6611492  39.0243843
  97.2315396  33.2973101  39.6123153  88.9851088  23.6423572  41.2774895
  88.3379003  24.3413522  41.1839372  89.7552104  24.0759716  41.6451144
  92.3929886  33.9072424  44.3525449  92.2415393  33.6782976  43.4355532
  92.3834566  34.8643026  44.3656794  89.1615223  31.4804337  39.3371715
  90.0907283  31.6315497  39.1640682  88.7406253  31.5688358  38.4820362
  87.9603555  35.5055002  37.1070253  87.8214640  35.1373786  37.9796191
  87.1718151  36.0202641  36.9354211  88.5551707  40.6064098  28.4495789
  88.7303462  40.1352141  29.2641412  87.8684495  41.2329864  28.6777050
  89.5108770  34.8836604  34.4959091  89.1758602  34.8437374  35.3916740
  89.0112715  34.2181320  34.0229501  83.4853014  30.2904234  40.0211672
  83.3472812  29.5584473  40.6223211  84.3957937  30.2013134  39.7395859
  92.4467961  32.2292639  24.7696150  91.8297132  31.5039467  24.6729203
  91.9784450  32.9901999  24.4263224  86.1135314  30.0024194  39.5095351
  86.8234933  29.3617386  39.4681970  86.0704623  30.2537088  40.4321532
  94.1022093  36.9391547  42.4301931  94.0434639  36.2550767  41.7632514
  94.5041611  37.6810537  41.9782557  84.8264248  26.9889411  41.3290991
  84.2901605  26.5380150  41.9812587  84.2380957  27.1235320  40.5861455
  83.1212792  43.7553461  35.2235649  83.3609390  44.3871985  35.9014668
  82.2781988  43.4041501  35.5101009  84.2366507  26.4478063  23.8917454
  83.3595974  26.3266864  23.5279701  84.7124260  25.6564141  23.6396343
  94.1039500  34.9031131  40.6615910  93.2166279  34.5657053  40.7842309
  94.6738051  34.1714162  40.8984676  75.7568647  31.2355223  33.9858962
  76.4439687  30.9216953  33.3979977  75.6016776  32.1396587  33.7126213
  80.5603370  26.1245419  38.4143985  80.4761558  25.5171089  37.6794395
  79.7386076  26.6154437  38.4153482  87.6340654  39.5632583  37.6277153
  87.5610825  40.3687555  38.1396458  87.1918047  39.7624549  36.8025175
  87.4230433  38.8004353  31.1379975  86.6397955  39.3426033  31.2318199
  88.1223178  39.3178333  31.5374216  90.7327083  24.6098983  33.7814180
  91.2295783  23.8568945  33.4615251  89.9614065  24.6463299  33.2157390
  98.5856841  30.3139348  35.4232472  98.5746717  31.1964064  35.0526405
  97.7174220  29.9610899  35.2287009  90.0939337  39.4619417  39.7835312
  90.8067309  40.0966882  39.7111214  89.6029366  39.5583283  38.9675314
  91.8156864  33.3670670  31.3552604  90.8813143  33.4872132  31.1857308
  91.9933533  32.4643137  31.0912614  87.3162052  26.7516366  33.5085865
  86.9459840  26.1987406  34.1966771  87.8121145  26.1474499  32.9560865
  95.2029415  29.2087989  31.8902638  95.6689868  30.0415981  31.8162941
  95.6536916  28.7432971  32.5947896  85.1451251  37.2113861  40.6040883
  85.8460710  37.8450344  40.7570277  84.6746366  37.5528592  39.8436522
  93.2705647  35.5531810  28.8888790  93.5465490  35.4388405  29.7982664
  92.4010145  35.1549295  28.8500963  93.1746078  21.5768576  35.9293539
  92.2609158  21.8072803  36.0975746  93.6039180  21.6607020  36.7807572
  92.9452537  29.7658468  38.4293433  92.2923987  30.0134376  37.7745886
  93.3232917  28.9522606  38.0955911  89.9059711  39.8018161  32.5321604
  90.0882105  38.9839817  32.9949356  90.7292697  40.0185854  32.0946494
  90.2401876  38.7286346  29.7936652  90.7689643  38.2178801  29.1806814
  90.5030096  38.4128877  30.6582185  88.9940110  30.5078279  44.9159470
  88.3180747  30.4072409  45.5861846  89.8167744  30.3517493  45.3795468
  80.7418969  36.7450216  37.5371986  81.3272406  35.9993904  37.6699890
  80.5443807  37.0554172  38.4208649  83.5957624  39.7801463  32.5534428
  82.9267999  40.2647591  32.0698468  83.4570494  40.0270684  33.4677807
  75.3336624  29.3155816  36.2576429  75.3720723  28.7819407  37.0513547
  74.8276916  28.7891021  35.6387406  87.7362893  41.8145207  39.1517086
  88.2881201  41.9776828  39.9166172  88.0769086  42.4049644  38.4797111
  82.7127386  24.1620356  39.7538971  82.7768712  25.0235187  39.3416369
  82.6494506  23.5494358  39.0211330  82.1879658  26.2343489  43.4012005
  82.8151697  25.8520566  44.0149530  81.3307577  26.0157691  43.7667698
  92.5873767  36.6406464  45.0065741  93.1313671  37.2536422  44.5120696
  92.0060612  37.1986043  45.5232754  78.9645201  28.0419918  29.3330360
  79.2598642  27.1330597  29.2797414  78.0633237  28.0207658  29.0111362
  90.8731280  39.7627182  36.1380769  90.7482419  38.9616922  35.6291714
  91.5310371  40.2573376  35.6494738  82.4939448  26.1175915  35.3157909
  81.7726034  26.7311882  35.1765382  83.2832704  26.6533679  35.2374555
  92.9366188  37.5636202  37.7660319  91.9896524  37.4441553  37.6938645
  93.2848961  36.6758700  37.8486580  85.2965762  23.4530341  41.5898560
  85.8200163  23.6992638  42.3524870  85.0778095  24.2850376  41.1701698
  80.6933043  25.7234016  29.4569685  80.3645749  24.8431395  29.2744791
  81.0472413  25.6681684  30.3446075  89.9412622  37.3588918  33.9664671
  89.7937584  36.4305626  34.1472241  90.7666115  37.3809009  33.4821746
  83.8074866  26.0106986  29.8245163  84.1470938  26.5392907  29.1023771
  84.2546986  26.3487392  30.6003729  93.5446743  38.1817477  35.0529544
  94.4693291  37.9760339  34.9153995  93.3762047  37.9333878  35.9618885
  86.5018307  24.3944036  39.2748231  86.1615127  23.5951849  39.6768911
  85.7957313  24.6945747  38.7025064  87.1534779  21.4793349  37.7275554
  87.9760848  21.0053827  37.6054444  87.3972842  22.2583832  38.2274240
  85.7943013  24.5081607  28.0238456  86.5151376  24.8862860  27.5202173
  85.1708317  25.2270484  28.1273434  89.9374136  25.2126756  28.9596788
  90.1537750  26.0951394  28.6585616  89.4568203  24.8212970  28.2302430
  84.6773357  28.1712469  35.5367533  84.5317938  28.4852772  36.4291814
  84.1998561  28.7897370  34.9838431  86.5369740  25.1615017  35.5848422
  86.5231309  24.2656111  35.2480720  87.2542168  25.1685681  36.2186708
  88.3895871  25.5952358  37.6301550  88.1313649  26.5169428  37.6285880
  87.8580911  25.1982792  38.3202014  93.3342060  38.7003145  30.4091635
  93.5078937  38.1349567  29.6565487  93.8270951  39.5004040  30.2271125
  79.1519019  30.7117814  38.4755194  78.6072488  31.4877622  38.6075468
  80.0298369  31.0588618  38.3174315  85.9406636  24.0429398  30.8535992
  86.0622547  23.1146044  31.0526880  85.6508678  24.0568084  29.9414308
  88.8097826  21.7284308  33.9902712  88.8319523  21.7923641  33.0354692
  89.2265885  20.8888817  34.1843218  99.1881451  31.4639568  32.0281935
  99.6312597  30.7146893  31.6301058  98.3107961  31.4549704  31.6455667
  94.3217232  38.0169909  27.5088533  95.0168137  38.6376602  27.7275848
  94.6640382  37.1665260  27.7840911  79.9385041  29.8387710  41.3685351
  79.1966777  29.9870345  41.9549981  79.6177786  30.0995976  40.5052100
  96.2208655  35.4669615  29.0375864  96.7459979  35.8056887  28.3125184
  96.1331008  34.5316630  28.8538999  87.8828704  39.3803688  41.1665741
  88.1915830  39.1352835  42.0388440  88.6804186  39.5850327  40.6784611
  87.9049316  41.5341598  33.3971117  87.4654306  41.0417977  34.0903974
  88.6557433  40.9914566  33.1563192  80.3841655  37.7253139  33.3995745
  81.2099675  37.4256911  33.0194389  80.0335707  36.9560761  33.8485534
  85.3523188  37.0779607  35.4693419  84.7303197  36.4150312  35.1695647
  86.0228055  37.1040739  34.7867067  78.5850260  35.6439465  34.3584679
  77.7482168  35.2161640  34.1768680  78.5573905  35.8371909  35.2955470
  85.4247716  25.5561395  45.0625925  85.4735871  26.4323518  44.6803695
  85.9670230  25.0138788  44.4897568  95.9102561  36.1002518  44.3427062
  95.1198105  36.0826657  43.8031561  95.6735916  36.6390812  45.0976099
  96.0300436  32.9494985  41.6559791  96.0798441  32.7844992  42.5975313
  95.9214360  32.0822244  41.2657671  84.9136695  35.6283530  28.9451879
  85.0624815  36.3118995  28.2918552  85.7203139  35.6088620  29.4601335
  93.3204199  28.9325913  42.9719097  94.2214061  28.7932377  42.6803095
  93.3952173  29.0980367  43.9117275  87.6547004  26.3092767  41.8172284
  86.7850313  26.6026333  41.5454872  87.8906484  26.8933212  42.5379547
  97.5318633  35.3691926  41.9001812  97.2403441  35.7321907  42.7365273
  96.9190764  34.6558934  41.7215144  98.7314315  32.9344806  34.4204382
  99.5661207  33.3734610  34.5841943  98.8673444  32.4583459  33.6012628
  95.7805821  30.4924541  40.3681870  96.2559943  30.6852187  39.5600721
  94.8571387  30.5483727  40.1225254  82.6689328  31.6548708  29.9512948
  82.4235370  30.7511038  30.1493159  82.8385243  31.6565858  29.0092426
  90.3586038  22.5272384  39.3337704  90.8767982  23.2633411  39.0084193
  90.0041171  22.8336378  40.1684463  81.9384976  27.3877066  27.4499110
  81.2454220  27.4621420  26.7939146  81.6936727  26.6237409  27.9720627
  90.6098632  18.9472667  34.8538601  90.8900386  18.2795856  35.4799027
  91.3949239  19.1401762  34.3413264  88.4132101  38.1231661  26.4163627
  87.8406068  38.7421848  25.9634099  88.9864894  38.6731022  26.9503549
  94.4807490  27.3690301  38.6010176  95.4324913  27.4688398  38.6222400
  94.3110941  26.5768569  39.1108260  92.5021870  24.4545884  38.7869577
  91.9071802  24.7350897  38.0916065  92.2171567  24.9439785  39.5586318
  91.6329360  38.4068811  27.5472209  92.5660034  38.3414373  27.7505085
  91.5452573  39.2425078  27.0886742  94.2617377  37.7234681  24.5076157
  94.1831009  37.3894545  25.4011915  95.0827044  38.2156449  24.5067629
  96.9595568  30.5896421  37.7152475  96.9271888  29.6512421  37.9012159
  97.5696192  30.6680457  36.9818300  88.7978899  29.4592473  23.7579679
  89.7438004  29.3298682  23.8268097  88.4193144  28.7207135  24.2349108
  97.1090057  27.3807464  37.7610759  96.5929105  26.5965921  37.5740687
  97.9930005  27.0526181  37.9257278  94.7700784  21.1248480  33.7206571
  94.5725605  20.8163568  34.6049903  95.3800489  21.8510118  33.8504501
 102.7772118  31.6512427  36.8558512 103.5075507  31.3897715  37.4166215
 102.1679064  30.9141149  36.8960580 100.8587415  29.7920290  37.4532963
 100.1320579  29.6576255  36.8449455 100.4434702  30.0997119  38.2589681
  88.6817592  33.5110220  45.2180336  89.6020601  33.6888819  45.4120383
  88.6467175  32.5666265  45.0660036  86.9821816  27.3842450  23.6934565
  86.0753272  27.0875563  23.7697278  87.2597797  27.0872268  22.8268851
  77.8999757  28.7048813  34.1433611  77.5802541  27.8514121  33.8507985
  77.3533185  28.9197391  34.8991578  81.6779664  31.4211254  37.8603118
  81.8965674  32.3528362  37.8791151  82.0905438  31.0619229  38.6457921
  88.5983882  21.9279340  29.8478806  87.7884610  21.5826425  30.2234052
  89.2868299  21.6186883  30.4366417  90.5274430  21.0057386  31.4703103
  91.0805469  21.4252840  32.1293126  90.7644517  20.0793135  31.5126059
  86.5507529  26.9944460  47.2505866  86.4504256  27.9438817  47.1817958
  86.3329072  26.6662699  46.3781937  85.7520601  24.2429385  23.8346544
  86.6139765  24.5684283  24.0942361  85.9370945  23.4560881  23.3219610
  77.7688017  32.3251725  36.1126733  77.0751488  31.9105678  35.5996687
  78.5161008  32.3672261  35.5160151  93.9053237  23.1157912  30.9781767
  93.3251906  23.7742716  30.5959819  93.6389170  22.2935256  30.5669184
  92.3556804  22.5162969  33.1803087  92.8556582  22.6279504  32.3717406
  92.9992412  22.2124022  33.8203896  86.4138800  30.4241599  46.0670928
  85.9305881  31.2241959  46.2734817  86.4999739  30.4349544  45.1138372
  79.6824759  32.2569979  33.9892747  79.6595447  32.3557666  33.0374631
  79.9925396  33.1035129  34.3109914  82.3412137  34.3146134  38.1039362
  83.2955391  34.2830076  38.0369293  82.1424661  33.8536757  38.9189588
  82.9311519  32.8847250  40.6710160  83.7504408  33.3791328  40.6944997
  83.2048327  31.9679218  40.6427727  92.6878115  25.2758002  30.0338115
  91.8003970  25.5607653  29.8158310  93.1032104  25.1151765  29.1865392
  96.0392651  25.3004523  33.7492454  96.8153042  25.7900975  34.0217071
  95.3140786  25.7262577  34.2064324  98.4765210  26.0132142  34.8066395
  99.0709701  25.7727878  34.0959703  98.5491794  25.2939273  35.4339931
  80.6962366  39.8565753  35.1209560  80.5616834  39.0966154  34.5547558
  80.2794428  40.5806653  34.6538349  91.8321329  35.0402677  24.1286135
  92.5357179  35.2452679  24.7443791  91.1083978  35.6079439  24.3935219
  92.6619139  30.7912538  30.2488405  92.6054340  31.2481089  29.4096038
  93.2147482  30.0303222  30.0711248  96.4723945  26.5802270  31.0738525
  96.2160879  26.1798905  31.9046732  95.8476813  27.2946064  30.9488664
 100.7836283  29.3198343  33.5809816 100.2235841  29.3891532  34.3541378
 100.1779786  29.1439328  32.8609312  83.8531492  40.7535070  35.3328002
  83.7363876  41.6980503  35.2306693  83.0323938  40.4508632  35.7213802
  93.7408026  35.4785206  26.1784595  94.5753630  35.0466404  25.9962070
  93.5792369  35.3067220  27.1061490  93.3953918  31.9817319  27.5440934
  93.3402722  31.8161591  26.6029379  92.7699974  32.6893352  27.7003124
  78.1846433  27.2185384  41.3702357  78.8305297  26.7084337  41.8589582
  77.9763584  27.9554065  41.9445782  90.7099826  34.2866231  46.8694497
  91.5790985  34.4606883  46.5081132  90.2306577  35.1060648  46.7470227
  86.7050044  21.4825428  27.1226253  86.6928714  22.4267268  27.2794524
  87.5973466  21.2995574  26.8285714  84.8786006  41.4063332  38.5483931
  85.7813253  41.4386942  38.8650426  84.6523376  40.4763783  38.5630267
  86.6339608  40.1594319  35.2094009  85.6835239  40.1596180  35.0958382
  86.9372094  39.4127053  34.6930044  90.5202163  18.0768205  31.3772190
  89.7534559  17.5226691  31.5228872  90.9312868  18.1490074  32.2386341
  82.5243924  24.3653001  45.4677371  83.3875386  24.0089805  45.6780695
  81.9509335  24.0266895  46.1552775 102.3692301  45.9954857  36.2739772
 103.0070711  45.8761604  35.5703112 102.2513144  46.9435701  36.3327724
  99.1782008  45.9482285  36.2101297  98.8400519  45.8323350  35.3221831
 100.0471776  45.5473450  36.1902303  95.0368823  47.8017761  32.1998187
  94.4733688  47.7107698  31.4314475  94.9221218  46.9817666  32.6800680
  99.6601791  47.1017137  42.1687502  99.6490431  46.7069935  41.2968006
  99.8222430  46.3683209  42.7621274  92.5833255  49.2968953  35.0382408
  93.3754547  48.9559778  34.6228707  92.8229905  49.4063928  35.9584561
 100.6168382  51.4688729  27.5112652  99.9656362  52.0542810  27.1246666
 101.4112745  51.9994924  27.5707690  94.5424009  48.5577866  27.9099787
  95.3154885  48.0106853  27.7712663  94.8949408  49.4222116  28.1214248
  96.3809052  49.8854249  41.1166686  96.0898918  50.7899879  41.0013352
  97.0166036  49.9270776  41.8310756  97.3065259  47.2631097  37.7068046
  97.9028831  47.0387119  36.9925009  97.3640230  46.5215843  38.3093494
  96.8790287  44.7170532  25.5418237  97.1315808  44.1952054  24.7801700
  95.9414846  44.5536678  25.6444920 101.9233570  43.7206311  33.3492980
 102.7096659  43.3025734  32.9983397 102.1872274  44.6252403  33.5174628
 102.0943647  49.1579161  28.0481637 101.4589480  49.2313788  28.7602541
 101.7641054  49.7472760  27.3700716 107.3241997  43.6581544  34.2525958
 108.0567169  43.0880761  34.4863788 106.5681353  43.2703144  34.6932464
  96.5986576  46.6198638  27.7442612  96.4822834  45.9443542  28.4123696
  96.7088836  46.1331012  26.9274765  98.9418117  46.0808785  31.4489301
  98.5776324  45.5539406  32.1602222  99.7985233  45.6907255  31.2755786
 104.8467417  37.3703118  38.7120567 104.5150742  38.2398529  38.4881782
 104.2513031  37.0539402  39.3914597  98.5823604  41.1098685  26.4450649
  98.7498006  41.9778922  26.8121120  98.3920773  41.2725967  25.5211939
 101.3398937  49.5715664  38.1116480 101.0399660  50.4740703  38.0032287
 100.9949996  49.3047847  38.9637633  94.7911418  46.0229461  34.1453184
  93.8661915  45.8905675  34.3530876  95.0395831  46.8023680  34.6423127
 104.7396081  42.0898204  35.7913917 103.8312958  42.0213613  35.4972678
 104.6883676  42.5670149  36.6195743  98.5612824  43.5656343  27.4297316
  98.4412450  44.0113393  28.2682796  97.8665413  43.9141660  26.8710854
  92.1520229  45.6662734  34.9796973  92.2812610  45.9197213  35.8936385
  91.4717681  46.2590442  34.6601628  96.3219717  56.3359984  31.0787447
  96.2443746  57.2867810  31.1575928  95.7181360  55.9905857  31.7362374
  98.8136946  43.5087850  43.7348814  98.0370280  44.0681770  43.7251679
  99.4527509  43.9944633  44.2563684 106.6057727  40.2914643  37.5691791
 105.9632107  40.5847176  36.9231586 106.1012656  40.1767563  38.3744988
 104.2597891  44.0377816  28.2577650 105.1715747  44.2705203  28.0825348
 103.7507538  44.6214860  27.6952729  97.0683319  46.3173303  43.2966781
  97.8098003  46.8558347  43.0201605  96.3620304  46.9439592  43.4538333
 102.5438658  48.4602444  41.8938943 102.9522014  48.0184854  41.1493575
 101.8215920  47.8855071  42.1473136  98.8969728  43.3975050  39.2672500
  99.7430924  43.8214464  39.4107149  98.8368366  42.7408675  39.9611063
 102.8667473  49.0203634  35.6491232 102.2376335  49.1849348  34.9467300
 102.4793135  49.4345244  36.4202196 106.7456705  49.9558072  33.0035595
 106.0607743  50.3356974  32.4532629 106.8300554  50.5653399  33.7367543
 102.0469174  41.0579419  40.9253673 101.8030106  41.8121479  40.3887949
 102.3229104  41.4364766  41.7600920 104.0007636  47.6018031  39.6030939
 104.2124532  48.2449791  38.9265320 103.9537385  46.7680348  39.1352869
 101.6033865  40.2135852  36.5067511 100.7418344  40.5117105  36.7984249
 101.6296300  40.4306251  35.5748544  98.4195435  48.7578042  32.9141317
  98.8833780  49.0365745  32.1245939  98.1552233  47.8561487  32.7314407
  95.3119516  48.3049524  35.8521080  95.8820873  48.7336792  35.2138565
  95.9027628  48.0232109  36.5505266  97.3564321  44.8801195  29.7230882
  98.0588364  45.3322238  30.1904808  97.0244949  44.2385014  30.3510775
  95.8044682  43.4712951  44.0982091  95.1743343  44.1529232  44.3317488
  95.6980770  43.3596033  43.1535230  91.0989655  43.1384747  35.0248016
  90.3088709  43.3942276  34.5488126  91.5900902  43.9533085  35.1300056
 105.1153464  50.4789987  37.7753296 105.9370908  50.0770174  37.4935978
 105.1115867  50.3758221  38.7269412  93.0504400  43.5029327  31.9831492
  92.2535564  43.6148021  32.5014988  92.8229992  43.8415979  31.1172383
  98.8810068  50.0274030  39.9314007  98.9454500  50.4894437  40.7672179
  98.1720992  49.3971395  40.0596317  89.3827358  43.3915238  37.4563006
  89.6335396  44.2762248  37.7220582  89.9186906  43.2119839  36.6838098
 113.2059457  46.8228735  34.1238268 112.4523166  46.2536133  33.9682272
 113.3406999  46.7891400  35.0708902  98.5958086  51.6942137  29.7992987
  98.4603760  52.5393673  30.2277835  99.1367898  51.8961415  29.0358921
  95.0825425  37.7733717  46.4607342  94.6892371  37.2199916  47.1354987
  95.8991565  38.0844296  46.8513860  92.0487483  49.2117575  30.3720912
  92.5612003  50.0060826  30.5226477  92.7010196  48.5143866  30.3054514
  93.8582368  52.3283332  32.4543665  94.0348996  53.2501296  32.2664649
  94.6539201  52.0141751  32.8838045  97.9993386  39.1891596  44.0527599
  98.7403100  39.7898749  43.9732061  98.2311309  38.4469234  43.4945642
  93.1434724  44.3747964  42.3305829  93.0288239  43.4733221  42.6312928
  92.2879242  44.6211660  41.9790645 100.2226562  52.3165704  43.9293329
  99.7790416  51.5302082  43.6114234 100.8843775  52.5044854  43.2637220
  94.9813683  53.8461505  38.4554008  95.5321108  53.7178569  37.6831002
  94.1425159  54.1456394  38.1048901 102.3207800  52.5968504  41.9574731
 102.3026275  53.4177385  41.4655000 103.2427720  52.4722579  42.1824872
  98.7780854  50.1112633  42.7998239  99.3109191  49.3500921  42.5697547
  98.2494935  49.8186285  43.5422393 101.9450549  35.2172699  38.3291881
 101.6014818  36.1074341  38.2530991 102.3129512  35.0274357  37.4661466
  90.0136400  47.5406230  31.1480483  90.8511622  47.9503238  30.9314190
  90.1914667  46.6005672  31.1180677 101.9100832  45.2081310  26.8364316
 101.3947455  45.9785915  27.0752703 101.6378140  44.5346447  27.4597377
  99.4947943  40.0531011  31.8949554  98.6389539  39.6637862  31.7155193
  99.9074895  40.1322972  31.0349340 101.0247089  37.5877354  36.2941114
 100.5211885  37.5507490  35.4808919 101.3177696  38.4970097  36.3537771
  97.2689975  37.6716084  35.3007296  98.1342972  37.4758893  34.9413185
  97.3367484  37.4426436  36.2276652 106.8835106  47.9613665  28.7717489
 106.1064549  47.6224825  28.3272651 107.5626587  47.9666288  28.0972454
 101.6987135  43.0808402  28.6624097 101.3937271  43.3954552  29.5134240
 102.6517577  43.1589822  28.7051430 100.1433567  49.2398626  30.3117051
  99.6154928  48.5051385  29.9990288  99.6421070  50.0173302  30.0657019
 105.1226413  47.4347646  35.4284097 104.4650087  48.1246908  35.5164226
 105.9266812  47.8244078  35.7718084  94.8752294  39.9018292  32.6723662
  95.4496046  39.6793474  31.9396855  95.4623277  39.9706987  33.4252264
 103.9331872  45.7892019  33.4788039 104.4463753  46.4222011  33.9809749
 104.5833096  45.1893214  33.1131399  95.2021882  41.9322753  26.6919548
  94.3659194  42.2697440  27.0128822  95.0626651  41.7971733  25.7546685
  97.1774962  36.7759541  31.3998732  96.5239374  36.4608558  30.7755347
  97.1355436  36.1535281  32.1258555  98.2886167  47.0578836  23.3152024
  97.3813229  46.8268089  23.5143173  98.7857199  46.2616455  23.5026005
 101.1954246  55.7676343  26.2348710 100.5215945  56.0708040  26.8433668
 101.5820068  56.5705424  25.8854167 100.4112703  43.2641475  35.7246379
  99.4935264  43.4856422  35.5668068 100.8272846  43.3387785  34.8658087
 101.1947750  44.6632890  30.8549060 101.9419569  45.1754287  30.5456182
 101.4639340  44.3416943  31.7153453  99.4674400  47.1591431  27.8376014
  98.5585620  46.8750464  27.9348484  99.4969484  47.5790509  26.9779321
 104.6993668  50.7698020  31.6067182 104.2455995  49.9288930  31.6632372
 104.0687635  51.4059419  31.9441962 103.6426587  41.6990006  32.8367849
 102.9049344  41.1867393  33.1678092 103.8953361  41.2590388  32.0251126
 103.1426607  52.6074517  32.5417000 103.4349581  53.1679574  31.8229365
 103.6525228  52.9003078  33.2970159 103.7438215  34.4766258  33.4309618
 104.0497092  33.6163622  33.1435533 104.4690820  35.0683879  33.2308612
  90.0362571  44.8796945  31.8191216  89.8386971  44.2866306  31.0942283
  89.4809235  44.5749155  32.5367155  98.0159294  44.7720052  33.9385809
  98.0707904  43.8193888  33.8628286  97.2050497  44.9279491  34.4227108
  99.1650488  48.7000175  25.1764093  98.7269918  47.9836034  24.7169730
  99.9060929  48.9276289  24.6149184  95.9551654  43.3897111  31.6976188
  95.1419520  43.6891282  32.1041380  96.4510649  42.9952800  32.4150670
  98.1060232  53.3854868  33.6310453  98.0636411  53.6115714  32.7018985
  99.0222931  53.1518243  33.7796254 101.5525866  43.8538936  40.5291082
 101.9075254  44.0810409  41.3885548 102.1997997  44.1857313  39.9068337
 107.2823603  46.9757372  31.2340411 107.1441502  47.1658968  30.3061600
 106.9259822  47.7376754  31.6908462  95.4465729  40.9615467  37.3137423
  96.0865108  40.8204226  36.6160387  94.6143260  40.6749980  36.9376025
 107.3092983  49.0433899  36.2451683 107.7429489  48.9509188  37.0934737
 108.0224563  49.0191399  35.6071699  96.2226033  50.2617897  33.4272416
  97.0166632  49.7668217  33.2254991  95.5117725  49.7335760  33.0640121
 101.0420878  52.6435993  37.7784783 101.0957900  53.2126929  38.5462499
 100.1735659  52.8137878  37.4138820  92.5308797  44.4060979  29.5032168
  91.6006385  44.3445434  29.7202130  92.6266269  43.8836932  28.7068810
  92.4494346  40.9315792  32.0910410  92.7101163  41.8461125  31.9819570
  93.2711518  40.4640234  32.2407023  93.9219271  42.3453549  39.2609235
  94.5942324  42.1370911  38.6121883  93.0949057  42.1475635  38.8214467
 108.1708532  49.0857599  38.7784568 108.3644422  49.9903410  39.0243843
 108.0709150  48.6265018  39.6123153  99.8244843  38.9715490  41.2774895
  99.1772758  39.6705440  41.1839372 100.5945858  39.4051634  41.6451144
 103.2323641  49.2364342  44.3525449 103.0809147  49.0074894  43.4355532
 103.2228320  50.1934943  44.3656794 100.0008977  46.8096255  39.3371715
 100.9301037  46.9607414  39.1640682  99.5800007  46.8980276  38.4820362
  98.7997309  50.8346919  37.1070253  98.6608395  50.4665704  37.9796191
  98.0111905  51.3494559  36.9354211  99.3945461  55.9356016  28.4495789
  99.5697217  55.4644059  29.2641412  98.7078249  56.5621782  28.6777050
 100.3502524  50.2128522  34.4959091 100.0152357  50.1729292  35.3916740
  99.8506470  49.5473238  34.0229501  94.3246768  45.6196152  40.0211672
  94.1866566  44.8876391  40.6223211  95.2351692  45.5305052  39.7395859
 103.2861716  47.5584556  24.7696150 102.6690886  46.8331384  24.6729203
 102.8178204  48.3193917  24.4263224  96.9529069  45.3316111  39.5095351
  97.6628687  44.6909303  39.4681970  96.9098377  45.5829006  40.4321532
 104.9415848  52.2683465  42.4301931 104.8828394  51.5842685  41.7632514
 105.3435366  53.0102455  41.9782557  95.6658003  42.3181329  41.3290991
  95.1295360  41.8672068  41.9812587  95.0774711  42.4527238  40.5861455
  93.9606546  59.0845378  35.2235649  94.2003145  59.7163903  35.9014668
  93.1175743  58.7333418  35.5101009  95.0760262  41.7769981  23.8917454
  94.1989728  41.6558781  23.5279701  95.5518015  40.9856059  23.6396343
 104.9433255  50.2323049  40.6615910 104.0560034  49.8948970  40.7842309
 105.5131806  49.5006080  40.8984676  86.5962402  46.5647140  33.9858962
  87.2833442  46.2508870  33.3979977  86.4410531  47.4688505  33.7126213
  91.3997124  41.4537337  38.4143985  91.3155313  40.8463006  37.6794395
  90.5779830  41.9446355  38.4153482  98.4734408  54.8924501  37.6277153
  98.4004580  55.6979472  38.1396458  98.0311801  55.0916467  36.8025175
  98.2624188  54.1296271  31.1379975  97.4791710  54.6717951  31.2318199
  98.9616933  54.6470251  31.5374216 101.5720838  39.9390900  33.7814180
 102.0689537  39.1860863  33.4615251 100.8007819  39.9755217  33.2157390
 109.4250595  45.6431266  35.4232472 109.4140472  46.5255981  35.0526405
 108.5567975  45.2902817  35.2287009 100.9333092  54.7911335  39.7835312
 101.6461064  55.4258800  39.7111214 100.4423120  54.8875201  38.9675314
 102.6550619  48.6962588  31.3552604 101.7206897  48.8164050  31.1857308
 102.8327287  47.7935054  31.0912614  98.1555807  42.0808283  33.5085865
  97.7853594  41.5279324  34.1966771  98.6514899  41.4766417  32.9560865
 106.0423170  44.5379907  31.8902638 106.5083622  45.3707898  31.8162941
 106.4930670  44.0724888  32.5947896  95.9845005  52.5405778  40.6040883
  96.6854465  53.1742261  40.7570277  95.5140120  52.8820510  39.8436522
 104.1099401  50.8823728  28.8888790 104.3859245  50.7680323  29.7982664
 103.2403900  50.4841213  28.8500963 104.0139833  36.9060494  35.9293539
 103.1002913  37.1364721  36.0975746 104.4432934  36.9898938  36.7807572
 103.7846291  45.0950386  38.4293433 103.1317741  45.3426293  37.7745886
 104.1626671  44.2814524  38.0955911 100.7453465  55.1310079  32.5321604
 100.9275860  54.3131735  32.9949356 101.5686451  55.3477771  32.0946494
 101.0795631  54.0578264  29.7936652 101.6083397  53.5470719  29.1806814
 101.3423850  53.7420794  30.6582185  99.8333864  45.8370197  44.9159470
  99.1574501  45.7364326  45.5861846 100.6561498  45.6809411  45.3795468
  91.5812723  52.0742133  37.5371986  92.1666160  51.3285821  37.6699890
  91.3837562  52.3846090  38.4208649  94.4351379  55.1093381  32.5534428
  93.7661754  55.5939508  32.0698468  94.2964248  55.3562601  33.4677807
  86.1730378  44.6447734  36.2576429  86.2114478  44.1111324  37.0513547
  85.6670671  44.1182939  35.6387406  98.5756647  57.1437124  39.1517086
  99.1274955  57.3068746  39.9166172  98.9162841  57.7341562  38.4797111
  93.5521140  39.4912274  39.7538971  93.6162467  40.3527105  39.3416369
  93.4888261  38.8786276  39.0211330  93.0273413  41.5635407  43.4012005
  93.6545452  41.1812484  44.0149530  92.1701332  41.3449609  43.7667698
 103.4267521  51.9698382  45.0065741 103.9707425  52.5828340  44.5120696
 102.8454366  52.5277960  45.5232754  89.8038956  43.3711836  29.3330360
  90.0992397  42.4622514  29.2797414  88.9026991  43.3499575  29.0111362
 101.7125034  55.0919100  36.1380769 101.5876174  54.2908840  35.6291714
 102.3704125  55.5865293  35.6494738  93.3333203  41.4467832  35.3157909
  92.6119788  42.0603800  35.1765382  94.1226458  41.9825597  35.2374555
 103.7759943  52.8928120  37.7660319 102.8290278  52.7733471  37.6938645
 104.1242716  52.0050618  37.8486580  96.1359516  38.7822259  41.5898560
  96.6593918  39.0284555  42.3524870  95.9171849  39.6142294  41.1701698
  91.5326797  41.0525933  29.4569685  91.2039503  40.1723312  29.2744791
  91.8866168  40.9973602  30.3446075 100.7806376  52.6880836  33.9664671
 100.6331338  51.7597544  34.1472241 101.6059870  52.7100927  33.4821746
  94.6468620  41.3398903  29.8245163  94.9864693  41.8684824  29.1023771
  95.0940741  41.6779309  30.6003729 104.3840498  53.5109395  35.0529544
 105.3087045  53.3052256  34.9153995 104.2155801  53.2625796  35.9618885
  97.3412061  39.7235954  39.2748231  97.0008882  38.9243767  39.6768911
  96.6351067  40.0237665  38.7025064  97.9928533  36.8085266  37.7275554
  98.8154602  36.3345745  37.6054444  98.2366597  37.5875750  38.2274240
  96.6336767  39.8373525  28.0238456  97.3545130  40.2154778  27.5202173
  96.0102072  40.5562402  28.1273434 100.7767890  40.5418674  28.9596788
 100.9931505  41.4243312  28.6585616 100.2961958  40.1504887  28.2302430
  95.5167112  43.5004387  35.5367533  95.3711692  43.8144690  36.4291814
  95.0392315  44.1189287  34.9838431  97.3763495  40.4906935  35.5848422
  97.3625063  39.5948028  35.2480720  98.0935923  40.4977599  36.2186708
  99.2289625  40.9244275  37.6301550  98.9707403  41.8461346  37.6285880
  98.6974666  40.5274710  38.3202014 104.1735814  54.0295062  30.4091635
 104.3472692  53.4641485  29.6565487 104.6664705  54.8295957  30.2271125
  89.9912774  46.0409731  38.4755194  89.4466242  46.8169539  38.6075468
  90.8692124  46.3880536  38.3174315  96.7800391  39.3721315  30.8535992
  96.9016302  38.4437961  31.0526880  96.4902433  39.3860001  29.9414308
  99.6491581  37.0576226  33.9902712  99.6713278  37.1215559  33.0354692
 100.0659640  36.2180734  34.1843218 110.0275205  46.7931485  32.0281935
 110.4706351  46.0438810  31.6301058 109.1501716  46.7841622  31.6455667
 105.1610987  53.3461827  27.5088533 105.8561891  53.9668519  27.7275848
 105.5034137  52.4957178  27.7840911  90.7778796  45.1679628  41.3685351
  90.0360532  45.3162263  41.9549981  90.4571540  45.4287893  40.5052100
 107.0602410  50.7961532  29.0375864 107.5853734  51.1348805  28.3125184
 106.9724762  49.8608548  28.8538999  98.7222458  54.7095606  41.1665741
  99.0309585  54.4644753  42.0388440  99.5197940  54.9142244  40.6784611
  98.7443070  56.8633516  33.3971117  98.3048061  56.3709894  34.0903974
  99.4951187  56.3206483  33.1563192  91.2235409  53.0545056  33.3995745
  92.0493429  52.7548828  33.0194389  90.8729461  52.2852679  33.8485534
  96.1916943  52.4071525  35.4693419  95.5696952  51.7442230  35.1695647
  96.8621810  52.4332657  34.7867067  89.4244015  50.9731383  34.3584679
  88.5875923  50.5453557  34.1768680  89.3967660  51.1663826  35.2955470
  96.2641470  40.8853313  45.0625925  96.3129626  41.7615435  44.6803695
  96.8063984  40.3430706  44.4897568 106.7496316  51.4294436  44.3427062
 105.9591859  51.4118575  43.8031561 106.5129670  51.9682730  45.0976099
 106.8694191  48.2786902  41.6559791 106.9192196  48.1136910  42.5975313
 106.7608114  47.4114161  41.2657671  95.7530450  50.9575448  28.9451879
  95.9018570  51.6410912  28.2918552  96.5596893  50.9380538  29.4601335
 104.1597953  44.2617830  42.9719097 105.0607816  44.1224295  42.6803095
 104.2345928  44.4272285  43.9117275  98.4940759  41.6384685  41.8172284
  97.6244068  41.9318251  41.5454872  98.7300239  42.2225130  42.5379547
 108.3712388  50.6983844  41.9001812 108.0797196  51.0613824  42.7365273
 107.7584519  49.9850852  41.7215144 109.5708070  48.2636724  34.4204382
 110.4054961  48.7026528  34.5841943 109.7067199  47.7875377  33.6012628
 106.6199576  45.8216458  40.3681870 107.0953698  46.0144105  39.5600721
 105.6965141  45.8775644  40.1225254  93.5083083  46.9840626  29.9512948
  93.2629124  46.0802956  30.1493159  93.6778997  46.9857776  29.0092426
 101.1979792  37.8564302  39.3337704 101.7161736  38.5925329  39.0084193
 100.8434925  38.1628295  40.1684463  92.7778730  42.7168983  27.4499110
  92.0847975  42.7913338  26.7939146  92.5330482  41.9529327  27.9720627
 101.4492387  34.2764585  34.8538601 101.7294140  33.6087774  35.4799027
 102.2342993  34.4693680  34.3413264  99.2525855  53.4523578  26.4163627
  98.6799822  54.0713766  25.9634099  99.8258649  54.0022940  26.9503549
 105.3201245  42.6982219  38.6010176 106.2718668  42.7980316  38.6222400
 105.1504695  41.9060487  39.1108260 103.3415624  39.7837802  38.7869577
 102.7465556  40.0642814  38.0916065 103.0565321  40.2731703  39.5586318
 102.4723115  53.7360729  27.5472209 103.4053788  53.6706290  27.7505085
 102.3846328  54.5716995  27.0886742 105.1011132  53.0526599  24.5076157
 105.0224763  52.7186462  25.4011915 105.9220798  53.5448367  24.5067629
 107.7989323  45.9188338  37.7152475 107.7665643  44.9804339  37.9012159
 108.4089946  45.9972375  36.9818300  99.6372654  44.7884391  23.7579679
 100.5831758  44.6590599  23.8268097  99.2586899  44.0499053  24.2349108
 107.9483811  42.7099382  37.7610759 107.4322860  41.9257838  37.5740687
 108.8323760  42.3818098  37.9257278 105.6094538  36.4540397  33.7206571
 105.4119359  36.1455485  34.6049903 106.2194244  37.1802036  33.8504501
 113.6165873  46.9804345  36.8558512 114.3469261  46.7189633  37.4166215
 113.0072818  46.2433067  36.8960580 111.6981170  45.1212208  37.4532963
 110.9714333  44.9868173  36.8449455 111.2828457  45.4289036  38.2589681
  99.5211346  48.8402137  45.2180336 100.4414356  49.0180736  45.4120383
  99.4860929  47.8958183  45.0660036  97.8215571  42.7134368  23.6934565
  96.9147026  42.4167480  23.7697278  98.0991552  42.4164186  22.8268851
  88.7393511  44.0340731  34.1433611  88.4196295  43.1806039  33.8507985
  88.1926939  44.2489309  34.8991578  92.5173419  46.7503172  37.8603118
  92.7359428  47.6820280  37.8791151  92.9299192  46.3911146  38.6457921
  99.4377636  37.2571257  29.8478806  98.6278365  36.9118342  30.2234052
 100.1262053  36.9478801  30.4366417 101.3668185  36.3349304  31.4703103
 101.9199223  36.7544758  32.1293126 101.6038271  35.4085052  31.5126059
  97.3901284  42.3236378  47.2505866  97.2898011  43.2730735  47.1817958
  97.1722826  41.9954617  46.3781937  96.5914355  39.5721303  23.8346544
  97.4533519  39.8976201  24.0942361  96.7764699  38.7852799  23.3219610
  88.6081771  47.6543642  36.1126733  87.9145243  47.2397595  35.5996687
  89.3554762  47.6964179  35.5160151 104.7446992  38.4449829  30.9781767
 104.1645661  39.1034633  30.5959819 104.4782924  37.6227174  30.5669184
 103.1950558  37.8454887  33.1803087 103.6950337  37.9571421  32.3717406
 103.8386166  37.5415940  33.8203896  97.2532554  45.7533517  46.0670928
  96.7699636  46.5533877  46.2734817  97.3393493  45.7641461  45.1138372
  90.5218514  47.5861896  33.9892747  90.4989202  47.6849584  33.0374631
  90.8319150  48.4327047  34.3109914  93.1805892  49.6438051  38.1039362
  94.1349145  49.6121994  38.0369293  92.9818415  49.1828675  38.9189588
  93.7705274  48.2139167  40.6710160  94.5898163  48.7083246  40.6944997
  94.0442081  47.2971135  40.6427727 103.5271870  40.6049920  30.0338115
 102.6397725  40.8899570  29.8158310 103.9425859  40.4443683  29.1865392
 106.8786406  40.6296441  33.7492454 107.6546796  41.1192893  34.0217071
 106.1534540  41.0554495  34.2064324 109.3158965  41.3424060  34.8066395
 109.9103455  41.1019796  34.0959703 109.3885548  40.6231190  35.4339931
  91.5356120  55.1857671  35.1209560  91.4010588  54.4258072  34.5547558
  91.1188183  55.9098571  34.6538349 102.6715083  50.3694594  24.1286135
 103.3750933  50.5744597  24.7443791 101.9477732  50.9371356  24.3935219
 103.5012894  46.1204456  30.2488405 103.4448095  46.5773007  29.4096038
 104.0541236  45.3595140  30.0711248 107.3117699  41.9094187  31.0738525
 107.0554634  41.5090823  31.9046732 106.6870568  42.6237981  30.9488664
 111.6230037  44.6490261  33.5809816 111.0629595  44.7183450  34.3541378
 111.0173541  44.4731245  32.8609312  94.6925246  56.0826988  35.3328002
  94.5757630  57.0272420  35.2306693  93.8717692  55.7800549  35.7213802
 104.5801781  50.8077123  26.1784595 105.4147385  50.3758322  25.9962070
 104.4186124  50.6359137  27.1061490 104.2347673  47.3109237  27.5440934
 104.1796477  47.1453508  26.6029379 103.6093728  48.0185270  27.7003124
  89.0240188  42.5477301  41.3702357  89.6699051  42.0376255  41.8589582
  88.8157339  43.2845983  41.9445782 101.5493580  49.6158149  46.8694497
 102.4184740  49.7898801  46.5081132 101.0700332  50.4352565  46.7470227
  97.5443798  36.8117346  27.1226253  97.5322468  37.7559186  27.2794524
  98.4367220  36.6287491  26.8285714  95.7179760  56.7355250  38.5483931
  96.6207007  56.7678860  38.8650426  95.4917130  55.8055701  38.5630267
  97.4733362  55.4886236  35.2094009  96.5228993  55.4888098  35.0958382
  97.7765848  54.7418971  34.6930044 101.3595918  33.4060122  31.3772190
 100.5928314  32.8518609  31.5228872 101.7706623  33.4781991  32.2386341
  93.3637679  39.6944918  45.4677371  94.2269140  39.3381723  45.6780695
  92.7903090  39.3558813  46.1552775 113.2086056  61.3246775  36.2739772
 113.8464466  61.2053522  35.5703112 113.0906899  62.2727619  36.3327724
 110.0175762  61.2774203  36.2101297 109.6794274  61.1615267  35.3221831
 110.8865530  60.8765368  36.1902303 105.8762578  63.1309679  32.1998187
 105.3127443  63.0399616  31.4314475 105.7614973  62.3109584  32.6800680
 110.4995545  62.4309054  42.1687502 110.4884186  62.0361853  41.2968006
 110.6616185  61.6975127  42.7621274 103.4227010  64.6260871  35.0382408
 104.2148302  64.2851695  34.6228707 103.6623660  64.7355846  35.9584561
 111.4562137  66.7980647  27.5112652 110.8050116  67.3834727  27.1246666
 112.2506499  67.3286842  27.5707690 105.3817764  63.8869784  27.9099787
 106.1548640  63.3398771  27.7712663 105.7343163  64.7514033  28.1214248
 107.2202806  65.2146166  41.1166686 106.9292672  66.1191797  41.0013352
 107.8559791  65.2562694  41.8310756 108.1459013  62.5923015  37.7068046
 108.7422585  62.3679037  36.9925009 108.2033985  61.8507760  38.3093494
 107.7184041  60.0462450  25.5418237 107.9709562  59.5243971  24.7801700
 106.7808601  59.8828596  25.6444920 112.7627324  59.0498228  33.3492980
 113.5490414  58.6317652  32.9983397 113.0266029  59.9544321  33.5174628
 112.9337402  64.4871079  28.0481637 112.2983235  64.5605705  28.7602541
 112.6034808  65.0764678  27.3700716 118.1635751  58.9873462  34.2525958
 118.8960923  58.4172678  34.4863788 117.4075107  58.5995062  34.6932464
 107.4380330  61.9490556  27.7442612 107.3216588  61.2735459  28.4123696
 107.5482590  61.4622930  26.9274765 109.7811871  61.4100703  31.4489301
 109.4170078  60.8831324  32.1602222 110.6378987  61.0199172  31.2755786
 115.6861172  52.6995036  38.7120567 115.3544497  53.5690447  38.4881782
 115.0906785  52.3831320  39.3914597 109.4217358  56.4390603  26.4450649
 109.5891760  57.3070839  26.8121120 109.2314527  56.6017885  25.5211939
 112.1792691  64.9007582  38.1116480 111.8793414  65.8032621  38.0032287
 111.8343751  64.6339765  38.9637633 105.6305173  61.3521379  34.1453184
 104.7055669  61.2197593  34.3530876 105.8789586  62.1315598  34.6423127
 115.5789835  57.4190122  35.7913917 114.6706712  57.3505530  35.4972678
 115.5277431  57.8962067  36.6195743 109.4006579  58.8948260  27.4297316
 109.2806204  59.3405311  28.2682796 108.7059167  59.2433578  26.8710854
 102.9913984  60.9954652  34.9796973 103.1206365  61.2489131  35.8936385
 102.3111435  61.5882360  34.6601628 107.1613471  71.6651902  31.0787447
 107.0837501  72.6159727  31.1575928 106.5575115  71.3197775  31.7362374
 109.6530701  58.8379768  43.7348814 108.8764035  59.3973688  43.7251679
 110.2921264  59.3236551  44.2563684 117.4451481  55.6206560  37.5691791
 116.8025862  55.9139093  36.9231586 116.9406410  55.5059481  38.3744988
 115.0991645  59.3669734  28.2577650 116.0109501  59.5997120  28.0825348
 114.5901292  59.9506778  27.6952729 107.9077073  61.6465221  43.2966781
 108.6491758  62.1850265  43.0201605 107.2014059  62.2731510  43.4538333
 113.3832413  63.7894361  41.8938943 113.7915769  63.3476772  41.1493575
 112.6609674  63.2146989  42.1473136 109.7363483  58.7266968  39.2672500
 110.5824678  59.1506382  39.4107149 109.6762121  58.0700592  39.9611063
 113.7061227  64.3495552  35.6491232 113.0770090  64.5141266  34.9467300
 113.3186890  64.7637162  36.4202196 117.5850459  65.2849990  33.0035595
 116.9001498  65.6648891  32.4532629 117.6694309  65.8945316  33.7367543
 112.8862928  56.3871336  40.9253673 112.6423860  57.1413397  40.3887949
 113.1622859  56.7656684  41.7600920 114.8401391  62.9309949  39.6030939
 115.0518286  63.5741709  38.9265320 114.7931139  62.0972265  39.1352869
 112.4427620  55.5427769  36.5067511 111.5812099  55.8409023  36.7984249
 112.4690055  55.7598168  35.5748544 109.2589189  64.0869960  32.9141317
 109.7227535  64.3657663  32.1245939 108.9945987  63.1853405  32.7314407
 106.1513270  63.6341442  35.8521080 106.7214627  64.0628710  35.2138565
 106.7421382  63.3524026  36.5505266 108.1958075  60.2093112  29.7230882
 108.8982119  60.6614156  30.1904808 107.8638704  59.5676931  30.3510775
 106.6438437  58.8004869  44.0982091 106.0137097  59.4821150  44.3317488
 106.5374525  58.6887951  43.1535230 101.9383409  58.4676665  35.0248016
 101.1482463  58.7234194  34.5488126 102.4294657  59.2825003  35.1300056
 115.9547219  65.8081904  37.7753296 116.7764663  65.4062092  37.4935978
 115.9509622  65.7050138  38.7269412 103.8898155  58.8321244  31.9831492
 103.0929318  58.9439939  32.5014988 103.6623747  59.1707897  31.1172383
 109.7203822  65.3565948  39.9314007 109.7848255  65.8186355  40.7672179
 109.0114746  64.7263312  40.0596317 100.2221112  58.7207156  37.4563006
 100.4729151  59.6054165  37.7220582 100.7580661  58.5411757  36.6838098
 109.4351840  67.0234055  29.7992987 109.2997515  67.8685591  30.2277835
 109.9761653  67.2253333  29.0358921 105.9219180  53.1025635  46.4607342
 105.5286125  52.5491833  47.1354987 106.7385320  53.4136213  46.8513860
 102.8881237  64.5409493  30.3720912 103.4005758  65.3352743  30.5226477
 103.5403950  63.8435784  30.3054514 104.6976122  67.6575249  32.4543665
 104.8742750  68.5793214  32.2664649 105.4932956  67.3433669  32.8838045
 108.8387141  54.5183514  44.0527599 109.5796854  55.1190667  43.9732061
 109.0705063  53.7761152  43.4945642 103.9828479  59.7039881  42.3305829
 103.8681994  58.8025138  42.6312928 103.1272996  59.9503578  41.9790645
 111.0620316  67.6457622  43.9293329 110.6184171  66.8594000  43.6114234
 111.7237530  67.8336772  43.2637220 105.8207438  69.1753423  38.4554008
 106.3714863  69.0470487  37.6831002 104.9818913  69.4748312  38.1048901
 113.1601554  67.9260421  41.9574731 113.1420030  68.7469303  41.4655000
 114.0821475  67.8014497  42.1824872 109.6174609  65.4404551  42.7998239
 110.1502945  64.6792839  42.5697547 109.0888690  65.1478203  43.5422393
 112.7844304  50.5464617  38.3291881 112.4408573  51.4366259  38.2530991
 113.1523266  50.3566275  37.4661466 100.8530154  62.8698147  31.1480483
 101.6905376  63.2795156  30.9314190 101.0308422  61.9297590  31.1180677
 112.7494586  60.5373228  26.8364316 112.2341210  61.3077833  27.0752703
 112.4771895  59.8638364  27.4597377 110.3341697  55.3822929  31.8949554
 109.4783294  54.9929779  31.7155193 110.7468649  55.4614890  31.0349340
 111.8640844  52.9169272  36.2941114 111.3605640  52.8799407  35.4808919
 112.1571451  53.8262015  36.3537771 108.1083730  53.0008002  35.3007296
 108.9736727  52.8050810  34.9413185 108.1761239  52.7718354  36.2276652
 117.7228860  63.2905583  28.7717489 116.9458303  62.9516742  28.3272651
 118.4020341  63.2958206  28.0972454 112.5380889  58.4100320  28.6624097
 112.2331025  58.7246469  29.5134240 113.4911332  58.4881740  28.7051430
 110.9827321  64.5690543  30.3117051 110.4548683  63.8343303  29.9990288
 110.4814824  65.3465220  30.0657019 115.9620167  62.7639564  35.4284097
 115.3043842  63.4538825  35.5164226 116.7660567  63.1535996  35.7718084
 105.7146049  55.2310210  32.6723662 106.2889801  55.0085391  31.9396855
 106.3017031  55.2998904  33.4252264 114.7725626  61.1183937  33.4788039
 115.2857508  61.7513928  33.9809749 115.4226850  60.5185132  33.1131399
 106.0415636  57.2614671  26.6919548 105.2052948  57.5989357  27.0128822
 105.9020406  57.1263651  25.7546685 108.0168717  52.1051459  31.3998732
 107.3633129  51.7900476  30.7755347 107.9749191  51.4827199  32.1258555
 109.1279921  62.3870754  23.3152024 108.2206983  62.1560007  23.5143173
 109.6250953  61.5908373  23.5026005 112.0348000  71.0968261  26.2348710
 111.3609699  71.3999958  26.8433668 112.4213822  71.8997341  25.8854167
 111.2506457  58.5933392  35.7246379 110.3329018  58.8148339  35.5668068
 111.6666601  58.6679703  34.8658087 112.0341505  59.9924808  30.8549060
 112.7813324  60.5046205  30.5456182 112.3033094  59.6708861  31.7153453
 110.3068155  62.4883349  27.8376014 109.3979374  62.2042381  27.9348484
 110.3363239  62.9082427  26.9779321 115.5387422  66.0989938  31.6067182
 115.0849749  65.2580848  31.6632372 114.9081389  66.7351336  31.9441962
 114.4820342  57.0281924  32.8367849 113.7443099  56.5159310  33.1678092
 114.7347115  56.5882306  32.0251126 113.9820362  67.9366435  32.5417000
 114.2743336  68.4971492  31.8229365 114.4918982  68.2294996  33.2970159
 114.5831969  49.8058176  33.4309618 114.8890846  48.9455540  33.1435533
 115.3084574  50.3975796  33.2308612 100.8756325  60.2088863  31.8191216
 100.6780725  59.6158223  31.0942283 100.3202989  59.9041073  32.5367155
 108.8553049  60.1011969  33.9385809 108.9101659  59.1485806  33.8628286
 108.0444251  60.2571408  34.4227108 110.0044243  64.0292092  25.1764093
 109.5663673  63.3127951  24.7169730 110.7454684  64.2568207  24.6149184
 106.7945409  58.7189029  31.6976188 105.9813274  59.0183199  32.1041380
 107.2904403  58.3244718  32.4150670 108.9453987  68.7146786  33.6310453
 108.9030166  68.9407632  32.7018985 109.8616686  68.4810160  33.7796254
 112.3919621  59.1830853  40.5291082 112.7469008  59.4102327  41.3885548
 113.0391752  59.5149230  39.9068337 118.1217358  62.3049289  31.2340411
 117.9835256  62.4950885  30.3061600 117.7653576  63.0668672  31.6908462
 106.2859484  56.2907384  37.3137423 106.9258863  56.1496144  36.6160387
 105.4537014  56.0041898  36.9376025 118.1486737  64.3725816  36.2451683
 118.5823244  64.2801105  37.0934737 118.8618318  64.3483317  35.6071699
 107.0619788  65.5909815  33.4272416 107.8560386  65.0960135  33.2254991
 106.3511480  65.0627678  33.0640121 111.8814632  67.9727910  37.7784783
 111.9351654  68.5418847  38.5462499 111.0129413  68.1429795  37.4138820
 103.3702551  59.7352897  29.5032168 102.4400139  59.6737352  29.7202130
 103.4660023  59.2128849  28.7068810 103.2888100  56.2607709  32.0910410
 103.5494917  57.1753043  31.9819570 104.1105272  55.7932152  32.2407023
 104.7613025  57.6745467  39.2609235 105.4336079  57.4662829  38.6121883
 103.9342812  57.4767553  38.8214467 119.0102287  64.4149517  38.7784568
 119.2038177  65.3195327  39.0243843 118.9102905  63.9556936  39.6123153
 110.6638597  54.3007408  41.2774895 110.0166512  54.9997357  41.1839372
 111.4339613  54.7343551  41.6451144 114.0717395  64.5656260  44.3525449
 113.9202902  64.3366811  43.4355532 114.0622075  65.5226861  44.3656794
 110.8402732  62.1388172  39.3371715 111.7694792  62.2899332  39.1640682
 110.4193762  62.2272193  38.4820362 109.6391064  66.1638837  37.1070253
 109.5002149  65.7957621  37.9796191 108.8505660  66.6786476  36.9354211
 110.2339216  71.2647933  28.4495789 110.4090971  70.7935977  29.2641412
 109.5472004  71.8913700  28.6777050 111.1896279  65.5420440  34.4959091
 110.8546111  65.5021210  35.3916740 110.6900224  64.8765155  34.0229501
 105.1640523  60.9488070  40.0211672 105.0260321  60.2168308  40.6223211
 106.0745446  60.8596970  39.7395859 114.1255470  62.8876474  24.7696150
 113.5084641  62.1623302  24.6729203 113.6571959  63.6485834  24.4263224
 107.7922823  60.6608029  39.5095351 108.5022442  60.0201221  39.4681970
 107.7492131  60.9120924  40.4321532 115.7809602  67.5975382  42.4301931
 115.7222148  66.9134602  41.7632514 116.1829120  68.3394372  41.9782557
 106.5051757  57.6473247  41.3290991 105.9689114  57.1963985  41.9812587
 105.9168466  57.7819156  40.5861455 104.8000301  74.4137296  35.2235649
 105.0396899  75.0455820  35.9014668 103.9569497  74.0625336  35.5101009
 105.9154016  57.1061898  23.8917454 105.0383483  56.9850699  23.5279701
 106.3911769  56.3147977  23.6396343 115.7827009  65.5614966  40.6615910
 114.8953788  65.2240888  40.7842309 116.3525560  64.8297997  40.8984676
  97.4356156  61.8939058  33.9858962  98.1227196  61.5800788  33.3979977
  97.2804285  62.7980423  33.7126213 102.2390879  56.7829254  38.4143985
 102.1549067  56.1754924  37.6794395 101.4173585  57.2738273  38.4153482
 109.3128163  70.2216419  37.6277153 109.2398334  71.0271390  38.1396458
 108.8705556  70.4208384  36.8025175 109.1017942  69.4588189  31.1379975
 108.3185464  70.0009869  31.2318199 109.8010687  69.9762168  31.5374216
 112.4114592  55.2682818  33.7814180 112.9083292  54.5152780  33.4615251
 111.6401574  55.3047135  33.2157390 120.2644350  60.9723184  35.4232472
 120.2534226  61.8547899  35.0526405 119.3961729  60.6194734  35.2287009
 111.7726846  70.1203253  39.7835312 112.4854818  70.7550717  39.7111214
 111.2816875  70.2167119  38.9675314 113.4944373  64.0254505  31.3552604
 112.5600652  64.1455968  31.1857308 113.6721042  63.1226972  31.0912614
 108.9949561  57.4100201  33.5085865 108.6247349  56.8571241  34.1966771
 109.4908654  56.8058334  32.9560865 116.8816924  59.8671825  31.8902638
 117.3477377  60.6999816  31.8162941 117.3324425  59.4016806  32.5947896
 106.8238760  67.8697696  40.6040883 107.5248219  68.5034179  40.7570277
 106.3533875  68.2112428  39.8436522 114.9493156  66.2115646  28.8888790
 115.2252999  66.0972240  29.7982664 114.0797654  65.8133131  28.8500963
 114.8533587  52.2352412  35.9293539 113.9396667  52.4656638  36.0975746
 115.2826689  52.3190856  36.7807572 114.6240046  60.4242303  38.4293433
 113.9711496  60.6718211  37.7745886 115.0020426  59.6106442  38.0955911
 111.5847220  70.4601997  32.5321604 111.7669614  69.6423653  32.9949356
 112.4080206  70.6769689  32.0946494 111.9189385  69.3870182  29.7936652
 112.4477151  68.8762636  29.1806814 112.1817605  69.0712712  30.6582185
 110.6727619  61.1662115  44.9159470 109.9968256  61.0656244  45.5861846
 111.4955253  61.0101328  45.3795468 102.4206478  67.4034051  37.5371986
 103.0059915  66.6577739  37.6699890 102.2231316  67.7138008  38.4208649
 105.2745133  70.4385298  32.5534428 104.6055508  70.9231426  32.0698468
 105.1358003  70.6854519  33.4677807  97.0124133  59.9739651  36.2576429
  97.0508232  59.4403242  37.0513547  96.5064425  59.4474857  35.6387406
 109.4150402  72.4729042  39.1517086 109.9668710  72.6360663  39.9166172
 109.7556595  73.0633480  38.4797111 104.3914895  54.8204192  39.7538971
 104.4556221  55.6819023  39.3416369 104.3282015  54.2078193  39.0211330
 103.8667167  56.8927324  43.4012005 104.4939206  56.5104402  44.0149530
 103.0095086  56.6741526  43.7667698 114.2661276  67.2990300  45.0065741
 114.8101180  67.9120258  44.5120696 113.6848121  67.8569878  45.5232754
 100.6432710  58.7003753  29.3330360 100.9386151  57.7914432  29.2797414
  99.7420746  58.6791493  29.0111362 112.5518789  70.4211018  36.1380769
 112.4269928  69.6200757  35.6291714 113.2097880  70.9157211  35.6494738
 104.1726957  56.7759750  35.3157909 103.4513543  57.3895718  35.1765382
 104.9620213  57.3117515  35.2374555 114.6153697  68.2220038  37.7660319
 113.6684033  68.1025389  37.6938645 114.9636470  67.3342536  37.8486580
 106.9753271  54.1114177  41.5898560 107.4987672  54.3576473  42.3524870
 106.7565604  54.9434211  41.1701698 102.3720552  56.3817851  29.4569685
 102.0433258  55.5015230  29.2744791 102.7259922  56.3265520  30.3446075
 111.6200131  68.0172754  33.9664671 111.4725093  67.0889461  34.1472241
 112.4453624  68.0392845  33.4821746 105.4862375  56.6690821  29.8245163
 105.8258447  57.1976742  29.1023771 105.9334495  57.0071227  30.6003729
 115.2234252  68.8401313  35.0529544 116.1480800  68.6344174  34.9153995
 115.0549556  68.5917714  35.9618885 108.1805816  55.0527872  39.2748231
 107.8402636  54.2535685  39.6768911 107.4744822  55.3529582  38.7025064
 108.8322287  52.1377184  37.7275554 109.6548357  51.6637662  37.6054444
 109.0760351  52.9167668  38.2274240 107.4730522  55.1665442  28.0238456
 108.1938884  55.5446695  27.5202173 106.8495826  55.8854319  28.1273434
 111.6161645  55.8710591  28.9596788 111.8325259  56.7535229  28.6585616
 111.1355712  55.4796805  28.2302430 106.3560866  58.8296305  35.5367533
 106.2105447  59.1436608  36.4291814 105.8786070  59.4481205  34.9838431
 108.2157249  55.8198853  35.5848422 108.2018818  54.9239946  35.2480720
 108.9329677  55.8269516  36.2186708 110.0683380  56.2536193  37.6301550
 109.8101158  57.1753264  37.6285880 109.5368420  55.8566627  38.3202014
 115.0129569  69.3586980  30.4091635 115.1866446  68.7933402  29.6565487
 115.5058460  70.1587875  30.2271125 100.8306528  61.3701649  38.4755194
 100.2859996  62.1461457  38.6075468 101.7085878  61.7172454  38.3174315
 107.6194145  54.7013233  30.8535992 107.7410056  53.7729879  31.0526880
 107.3296187  54.7151919  29.9414308 110.4885335  52.3868143  33.9902712
 110.5107032  52.4507476  33.0354692 110.9053394  51.5472652  34.1843218
 120.8668960  62.1223403  32.0281935 121.3100106  61.3730728  31.6301058
 119.9895470  62.1133539  31.6455667 116.0004741  68.6753744  27.5088533
 116.6955646  69.2960437  27.7275848 116.3427891  67.8249096  27.7840911
 101.6172550  60.4971545  41.3685351 100.8754286  60.6454181  41.9549981
 101.2965295  60.7579811  40.5052100 117.8996164  66.1253450  29.0375864
 118.4247488  66.4640723  28.3125184 117.8118517  65.1900465  28.8538999
 109.5616213  70.0387524  41.1665741 109.8703339  69.7936670  42.0388440
 110.3591695  70.2434162  40.6784611 109.5836825  72.1925433  33.3971117
 109.1441815  71.7001812  34.0903974 110.3344942  71.6498401  33.1563192
 102.0629164  68.3836974  33.3995745 102.8887184  68.0840746  33.0194389
 101.7123216  67.6144597  33.8485534 107.0310697  67.7363442  35.4693419
 106.4090706  67.0734147  35.1695647 107.7015564  67.7624574  34.7867067
 100.2637769  66.3023301  34.3584679  99.4269677  65.8745475  34.1768680
 100.2361414  66.4955744  35.2955470 107.1035225  56.2145230  45.0625925
 107.1523380  57.0907353  44.6803695 107.6457739  55.6722623  44.4897568
 117.5890070  66.7586354  44.3427062 116.7985614  66.7410492  43.8031561
 117.3523425  67.2974647  45.0976099 117.7087945  63.6078820  41.6559791
 117.7585950  63.4428827  42.5975313 117.6001869  62.7406079  41.2657671
 106.5924204  66.2867366  28.9451879 106.7412324  66.9702830  28.2918552
 107.3990647  66.2672456  29.4601335 114.9991708  59.5909748  42.9719097
 115.9001570  59.4516213  42.6803095 115.0739682  59.7564203  43.9117275
 109.3334513  56.9676603  41.8172284 108.4637822  57.2610169  41.5454872
 109.5693993  57.5517048  42.5379547 119.2106142  66.0275761  41.9001812
 118.9190950  66.3905742  42.7365273 118.5978273  65.3142770  41.7215144
 120.4101824  63.5928641  34.4204382 121.2448716  64.0318445  34.5841943
 120.5460953  63.1167294  33.6012628 117.4593330  61.1508376  40.3681870
 117.9347452  61.3436022  39.5600721 116.5358896  61.2067562  40.1225254
 104.3476837  62.3132543  29.9512948 104.1022879  61.4094873  30.1493159
 104.5172752  62.3149694  29.0092426 112.0373547  53.1856220  39.3337704
 112.5555491  53.9217247  39.0084193 111.6828680  53.4920213  40.1684463
 103.6172485  58.0460901  27.4499110 102.9241729  58.1205256  26.7939146
 103.3724236  57.2821244  27.9720627 112.2886141  49.6056502  34.8538601
 112.5687895  48.9379691  35.4799027 113.0736748  49.7985598  34.3413264
 110.0919610  68.7815496  26.4163627 109.5193577  69.4005683  25.9634099
 110.6652403  69.3314858  26.9503549 116.1594999  58.0274136  38.6010176
 117.1112422  58.1272234  38.6222400 115.9898450  57.2352405  39.1108260
 114.1809379  55.1129719  38.7869577 113.5859311  55.3934732  38.0916065
 113.8959076  55.6023620  39.5586318 113.3116869  69.0652646  27.5472209
 114.2447542  68.9998208  27.7505085 113.2240082  69.9008913  27.0886742
 115.9404886  68.3818517  24.5076157 115.8618518  68.0478380  25.4011915
 116.7614553  68.8740284  24.5067629 118.6383077  61.2480256  37.7152475
 118.6059397  60.3096257  37.9012159 119.2483701  61.3264293  36.9818300
 110.4766408  60.1176309  23.7579679 111.4225513  59.9882517  23.8268097
 110.0980653  59.3790971  24.2349108 118.7877566  58.0391299  37.7610759
 118.2716614  57.2549756  37.5740687 119.6717514  57.7110016  37.9257278
 116.4488293  51.7832315  33.7206571 116.2513114  51.4747403  34.6049903
 117.0587998  52.5093954  33.8504501 110.3605101  64.1694055  45.2180336
 111.2808110  64.3472654  45.4120383 110.3254684  63.2250100  45.0660036
 108.6609325  58.0426285  23.6934565 107.7540781  57.7459398  23.7697278
 108.9385306  57.7456103  22.8268851  99.5787266  59.3632649  34.1433611
  99.2590050  58.5097957  33.8507985  99.0320694  59.5781227  34.8991578
 103.3567173  62.0795090  37.8603118 103.5753183  63.0112197  37.8791151
 103.7692947  61.7203064  38.6457921 110.2771391  52.5863175  29.8478806
 109.4672119  52.2410260  30.2234052 110.9655808  52.2770719  30.4366417
 112.2061939  51.6641222  31.4703103 112.7592978  52.0836675  32.1293126
 112.4432026  50.7376970  31.5126059 108.2295038  57.6528295  47.2505866
 108.1291765  58.6022652  47.1817958 108.0116580  57.3246534  46.3781937
 107.4308110  54.9013220  23.8346544 108.2927274  55.2268119  24.0942361
 107.6158454  54.1144716  23.3219610  99.4475526  62.9835560  36.1126733
  98.7538997  62.5689513  35.5996687 100.1948517  63.0256097  35.5160151
 115.5840746  53.7741747  30.9781767 115.0039415  54.4326551  30.5959819
 115.3176679  52.9519092  30.5669184 114.0344313  53.1746805  33.1803087
 114.5344091  53.2863339  32.3717406 114.6779921  52.8707857  33.8203896
 108.0926309  61.0825434  46.0670928 107.6093390  61.8825794  46.2734817
 108.1787248  61.0933379  45.1138372 101.3612268  62.9153814  33.9892747
 101.3382956  63.0141501  33.0374631 101.6712905  63.7618965  34.3109914
 104.0199646  64.9729969  38.1039362 104.9742900  64.9413911  38.0369293
 103.8212170  64.5120593  38.9189588 104.6099028  63.5431085  40.6710160
 105.4291917  64.0375164  40.6944997 104.8835836  62.6263053  40.6427727
 114.3665624  55.9341837  30.0338115 113.4791479  56.2191488  29.8158310
 114.7819613  55.7735601  29.1865392 117.7180160  55.9588358  33.7492454
 118.4940551  56.4484811  34.0217071 116.9928295  56.3846412  34.2064324
 120.1552719  56.6715977  34.8066395 120.7497210  56.4311713  34.0959703
 120.2279303  55.9523108  35.4339931 102.3749875  70.5149588  35.1209560
 102.2404343  69.7549989  34.5547558 101.9581937  71.2390488  34.6538349
 113.5108838  65.6986512  24.1286135 114.2144688  65.9036514  24.7443791
 112.7871487  66.2663274  24.3935219 114.3406648  61.4496373  30.2488405
 114.2841849  61.9064925  29.4096038 114.8934991  60.6887058  30.0711248
 118.1511454  57.2386105  31.0738525 117.8948388  56.8382741  31.9046732
 117.5264322  57.9529899  30.9488664 105.5319001  71.4118905  35.3328002
 105.4151385  72.3564338  35.2306693 104.7111447  71.1092467  35.7213802
 115.4195535  66.1369041  26.1784595 116.2541139  65.7050240  25.9962070
 115.2579878  65.9651055  27.1061490 115.0741427  62.6401154  27.5440934
 115.0190231  62.4745426  26.6029379 114.4487483  63.3477187  27.7003124
  99.8633942  57.8769219  41.3702357 100.5092806  57.3668173  41.8589582
  99.6551093  58.6137900  41.9445782 112.3887335  64.9450066  46.8694497
 113.2578494  65.1190719  46.5081132 111.9094086  65.7644483  46.7470227
 108.3837553  52.1409263  27.1226253 108.3716223  53.0851103  27.2794524
 109.2760975  51.9579409  26.8285714 106.5573515  72.0647167  38.5483931
 107.4600761  72.0970778  38.8650426 106.3310885  71.1347618  38.5630267
 108.3127117  70.8178154  35.2094009 107.3622748  70.8180015  35.0958382
 108.6159603  70.0710888  34.6930044 112.1989672  48.7352040  31.3772190
 111.4322068  48.1810527  31.5228872 112.6100377  48.8073909  32.2386341
 104.2031433  55.0236836  45.4677371 105.0662895  54.6673641  45.6780695
 103.6296844  54.6850731  46.1552775 120.8569517  76.6066120  36.2101297
 120.5188028  76.4907185  35.3221831 121.7259285  76.2057285  36.1902303
 116.7156332  78.4601597  32.1998187 116.1521197  78.3691534  31.4314475
 116.6008727  77.6401501  32.6800680 121.3389300  77.7600972  42.1687502
 121.3277940  77.3653770  41.2968006 121.5009939  77.0267045  42.7621274
 114.2620764  79.9552788  35.0382408 115.0542056  79.6143613  34.6228707
 114.5017414  80.0647763  35.9584561 116.2211518  79.2161702  27.9099787
 116.9942394  78.6690689  27.7712663 116.5736917  80.0805951  28.1214248
 118.0596561  80.5438084  41.1166686 117.7686427  81.4483715  41.0013352
 118.6953545  80.5854612  41.8310756 118.9852768  77.9214932  37.7068046
 119.5816340  77.6970955  36.9925009 119.0427739  77.1799678  38.3093494
 118.5577796  75.3754368  25.5418237 118.8103317  74.8535889  24.7801700
 117.6202355  75.2120513  25.6444920 118.2774085  77.2782474  27.7442612
 118.1610343  76.6027377  28.4123696 118.3876345  76.7914848  26.9274765
 120.6205626  76.7392621  31.4489301 120.2563833  76.2123242  32.1602222
 121.4772742  76.3491090  31.2755786 120.2611113  71.7682521  26.4450649
 120.4285515  72.6362757  26.8121120 120.0708282  71.9309802  25.5211939
 116.4698927  76.6813296  34.1453184 115.5449424  76.5489510  34.3530876
 116.7183340  77.4607516  34.6423127 120.2400333  74.2240178  27.4297316
 120.1199959  74.6697229  28.2682796 119.5452922  74.5725496  26.8710854
 113.8307738  76.3246570  34.9796973 113.9600119  76.5781049  35.8936385
 113.1505190  76.9174278  34.6601628 118.0007226  86.9943820  31.0787447
 117.9231255  87.9451645  31.1575928 117.3968869  86.6489692  31.7362374
 120.4924455  74.1671685  43.7348814 119.7157789  74.7265605  43.7251679
 121.1315018  74.6528468  44.2563684 118.7470828  76.9757139  43.2966781
 119.4885512  77.5142183  43.0201605 118.0407813  77.6023427  43.4538333
 120.5757237  74.0558886  39.2672500 121.4218433  74.4798299  39.4107149
 120.5155875  73.3992510  39.9611063 120.0982944  79.4161878  32.9141317
 120.5621289  79.6949581  32.1245939 119.8339742  78.5145322  32.7314407
 116.9907025  78.9633359  35.8521080 117.5608382  79.3920628  35.2138565
 117.5815137  78.6815944  36.5505266 119.0351830  75.5385030  29.7230882
 119.7375873  75.9906074  30.1904808 118.7032458  74.8968849  30.3510775
 117.4832191  74.1296787  44.0982091 116.8530852  74.8113068  44.3317488
 117.3768279  74.0179868  43.1535230 112.7777164  73.7968583  35.0248016
 111.9876218  74.0526111  34.5488126 113.2688411  74.6116921  35.1300056
 114.7291909  74.1613162  31.9831492 113.9323072  74.2731856  32.5014988
 114.5017501  74.4999814  31.1172383 120.5597577  80.6857865  39.9314007
 120.6242009  81.1478272  40.7672179 119.8508501  80.0555230  40.0596317
 111.0614867  74.0499073  37.4563006 111.3122905  74.9346083  37.7220582
 111.5974415  73.8703675  36.6838098 120.2745594  82.3525973  29.7992987
 120.1391269  83.1977508  30.2277835 120.8155407  82.5545250  29.0358921
 116.7612934  68.4317553  46.4607342 116.3679880  67.8783751  47.1354987
 117.5779074  68.7428131  46.8513860 113.7274992  79.8701411  30.3720912
 114.2399512  80.6644661  30.5226477 114.3797705  79.1727701  30.3054514
 115.5369877  82.9867167  32.4543665 115.7136505  83.9085132  32.2664649
 116.3326710  82.6725586  32.8838045 119.6780895  69.8475432  44.0527599
 120.4190608  70.4482585  43.9732061 119.9098818  69.1053069  43.4945642
 114.8222233  75.0331799  42.3305829 114.7075748  74.1317056  42.6312928
 113.9666751  75.2795496  41.9790645 116.6601192  84.5045341  38.4554008
 117.2108617  84.3762404  37.6831002 115.8212668  84.8040230  38.1048901
 120.4568363  80.7696469  42.7998239 120.9896700  80.0084757  42.5697547
 119.9282444  80.4770120  43.5422393 111.6923909  78.1990065  31.1480483
 112.5299131  78.6087073  30.9314190 111.8702176  77.2589507  31.1180677
 121.1735452  70.7114847  31.8949554 120.3177048  70.3221697  31.7155193
 121.5862404  70.7906807  31.0349340 118.9477484  68.3299919  35.3007296
 119.8130481  68.1342728  34.9413185 119.0154993  68.1010271  36.2276652
 121.8221076  79.8982461  30.3117051 121.2942437  79.1635221  29.9990288
 121.3208579  80.6757137  30.0657019 116.5539803  70.5602127  32.6723662
 117.1283555  70.3377309  31.9396855 117.1410786  70.6290822  33.4252264
 116.8809391  72.5906588  26.6919548 116.0446703  72.9281275  27.0128822
 116.7414160  72.4555568  25.7546685 118.8562471  67.4343376  31.3998732
 118.2026883  67.1192393  30.7755347 118.8142945  66.8119117  32.1258555
 119.9673676  77.7162671  23.3152024 119.0600738  77.4851925  23.5143173
 120.4644708  76.9200291  23.5026005 121.1461909  77.8175266  27.8376014
 120.2373129  77.5334299  27.9348484 121.1756993  78.2374345  26.9779321
 111.7150080  75.5380780  31.8191216 111.5174480  74.9450141  31.0942283
 111.1596744  75.2332991  32.5367155 119.6946803  75.4303887  33.9385809
 119.7495413  74.4777723  33.8628286 118.8838005  75.5863326  34.4227108
 120.8437997  79.3584010  25.1764093 120.4057427  78.6419869  24.7169730
 121.5848438  79.5860125  24.6149184 117.6339163  74.0480947  31.6976188
 116.8207029  74.3475117  32.1041380 118.1298158  73.6536635  32.4150670
 119.7847741  84.0438704  33.6310453 119.7423920  84.2699550  32.7018985
 120.7010440  83.8102078  33.7796254 117.1253238  71.6199302  37.3137423
 117.7652617  71.4788061  36.6160387 116.2930769  71.3333816  36.9376025
 117.9013542  80.9201733  33.4272416 118.6954141  80.4252053  33.2254991
 117.1905234  80.3919596  33.0640121 114.2096306  75.0644814  29.5032168
 113.2793894  75.0029270  29.7202130 114.3053778  74.5420767  28.7068810
 114.1281855  71.5899627  32.0910410 114.3888672  72.5044960  31.9819570
 114.9499027  71.1224070  32.2407023 115.6006780  73.0037384  39.2609235
 116.2729833  72.7954746  38.6121883 114.7736566  72.8059470  38.8214467
 121.5032352  69.6299325  41.2774895 120.8560267  70.3289275  41.1839372
 122.2733367  70.0635469  41.6451144 120.4784818  81.4930755  37.1070253
 120.3395904  81.1249539  37.9796191 119.6899414  82.0078394  36.9354211
 121.0732970  86.5939851  28.4495789 121.2484726  86.1227894  29.2641412
 120.3865758  87.2205617  28.6777050 122.0290033  80.8712357  34.4959091
 121.6939866  80.8313127  35.3916740 121.5293979  80.2057073  34.0229501
 116.0034277  76.2779987  40.0211672 115.8654075  75.5460226  40.6223211
 116.9139201  76.1888887  39.7395859 118.6316578  75.9899947  39.5095351
 119.3416196  75.3493139  39.4681970 118.5885886  76.2412841  40.4321532
 117.3445512  72.9765164  41.3290991 116.8082869  72.5255903  41.9812587
 116.7562220  73.1111073  40.5861455 115.6394055  89.7429214  35.2235649
 115.8790654  90.3747738  35.9014668 114.7963252  89.3917254  35.5101009
 116.7547771  72.4353816  23.8917454 115.8777237  72.3142617  23.5279701
 117.2305524  71.6439894  23.6396343 108.2749911  77.2230976  33.9858962
 108.9620951  76.9092706  33.3979977 108.1198040  78.1272340  33.7126213
 113.0784633  72.1121172  38.4143985 112.9942822  71.5046842  37.6794395
 112.2567339  72.6030190  38.4153482 120.1521917  85.5508336  37.6277153
 120.0792089  86.3563308  38.1396458 119.7099310  85.7500302  36.8025175
 119.9411697  84.7880106  31.1379975 119.1579219  85.3301786  31.2318199
 120.6404442  85.3054086  31.5374216 119.8343316  72.7392119  33.5085865
 119.4641103  72.1863159  34.1966771 120.3302408  72.1350252  32.9560865
 117.6632514  83.1989614  40.6040883 118.3641974  83.8326097  40.7570277
 117.1927629  83.5404345  39.8436522 121.5121373  76.4954032  44.9159470
 120.8362010  76.3948162  45.5861846 122.3349007  76.3393246  45.3795468
 113.2600232  82.7325969  37.5371986 113.8453669  81.9869657  37.6699890
 113.0625071  83.0429925  38.4208649 116.1138887  85.7677216  32.5534428
 115.4449263  86.2523344  32.0698468 115.9751757  86.0146437  33.4677807
 107.8517887  75.3031569  36.2576429 107.8901987  74.7695160  37.0513547
 107.3458180  74.7766774  35.6387406 120.2544156  87.8020960  39.1517086
 120.8062464  87.9652581  39.9166172 120.5950350  88.3925397  38.4797111
 115.2308649  70.1496109  39.7538971 115.2949976  71.0110940  39.3416369
 115.1675770  69.5370111  39.0211330 114.7060922  72.2219242  43.4012005
 115.3332961  71.8396319  44.0149530 113.8488841  72.0033444  43.7667698
 111.4826465  74.0295671  29.3330360 111.7779906  73.1206350  29.2797414
 110.5814500  74.0083411  29.0111362 115.0120712  72.1051668  35.3157909
 114.2907297  72.7187635  35.1765382 115.8013967  72.6409433  35.2374555
 117.8147025  69.4406094  41.5898560 118.3381427  69.6868391  42.3524870
 117.5959358  70.2726129  41.1701698 113.2114306  71.7109769  29.4569685
 112.8827012  70.8307148  29.2744791 113.5653677  71.6557437  30.3446075
 116.3256129  71.9982739  29.8245163 116.6652202  72.5268660  29.1023771
 116.7728250  72.3363145  30.6003729 119.0199570  70.3819789  39.2748231
 118.6796391  69.5827602  39.6768911 118.3138576  70.6821500  38.7025064
 119.6716042  67.4669102  37.7275554 120.4942111  66.9929580  37.6054444
 119.9154106  68.2459585  38.2274240 118.3124276  70.4957360  28.0238456
 119.0332639  70.8738613  27.5202173 117.6889581  71.2146237  28.1273434
 117.1954621  74.1588222  35.5367533 117.0499201  74.4728525  36.4291814
 116.7179824  74.7773123  34.9838431 119.0551004  71.1490770  35.5848422
 119.0412572  70.2531864  35.2480720 119.7723432  71.1561434  36.2186708
 120.9077134  71.5828111  37.6301550 120.6494912  72.5045181  37.6285880
 120.3762175  71.1858545  38.3202014 111.6700283  76.6993567  38.4755194
 111.1253751  77.4753375  38.6075468 112.5479633  77.0464371  38.3174315
 118.4587900  70.0305151  30.8535992 118.5803811  69.1021797  31.0526880
 118.1689942  70.0443837  29.9414308 121.3279090  67.7160061  33.9902712
 121.3500787  67.7799394  33.0354692 121.7447149  66.8764570  34.1843218
 112.4566305  75.8263463  41.3685351 111.7148041  75.9746098  41.9549981
 112.1359049  76.0871729  40.5052100 120.4009967  85.3679441  41.1665741
 120.7097094  85.1228588  42.0388440 121.1985449  85.5726080  40.6784611
 120.4230579  87.5217351  33.3971117 119.9835570  87.0293730  34.0903974
 121.1738696  86.9790319  33.1563192 112.9022918  83.7128892  33.3995745
 113.7280938  83.4132664  33.0194389 112.5516970  82.9436514  33.8485534
 117.8704452  83.0655360  35.4693419 117.2484461  82.4026065  35.1695647
 118.5409319  83.0916492  34.7867067 111.1031523  81.6315218  34.3584679
 110.2663432  81.2037393  34.1768680 111.0755169  81.8247662  35.2955470
 117.9428979  71.5437148  45.0625925 117.9917135  72.4199271  44.6803695
 118.4851493  71.0014541  44.4897568 117.4317959  81.6159283  28.9451879
 117.5806079  82.2994748  28.2918552 118.2384402  81.5964373  29.4601335
 120.1728268  72.2968520  41.8172284 119.3031577  72.5902086  41.5454872
 120.4087748  72.8808965  42.5379547 115.1870591  77.6424461  29.9512948
 114.9416633  76.7386791  30.1493159 115.3566506  77.6441611  29.0092426
 114.4566239  73.3752819  27.4499110 113.7635484  73.4497174  26.7939146
 114.2117991  72.6113162  27.9720627 120.9313364  84.1107414  26.4163627
 120.3587331  84.7297601  25.9634099 121.5046158  84.6606775  26.9503549
 121.3160163  75.4468227  23.7579679 122.2619267  75.3174435  23.8268097
 120.9374407  74.7082888  24.2349108 121.1998855  79.4985973  45.2180336
 122.1201865  79.6764572  45.4120383 121.1648438  78.5542018  45.0660036
 119.5003080  73.3718203  23.6934565 118.5934535  73.0751316  23.7697278
 119.7779061  73.0748021  22.8268851 110.4181020  74.6924566  34.1433611
 110.0983804  73.8389875  33.8507985 109.8714448  74.9073144  34.8991578
 114.1960928  77.4087007  37.8603118 114.4146937  78.3404115  37.8791151
 114.6086701  77.0494982  38.6457921 121.1165145  67.9155093  29.8478806
 120.3065874  67.5702178  30.2234052 121.8049562  67.6062636  30.4366417
 119.0688793  72.9820213  47.2505866 118.9685520  73.9314570  47.1817958
 118.8510335  72.6538452  46.3781937 118.2701864  70.2305138  23.8346544
 119.1321028  70.5560036  24.0942361 118.4552208  69.4436634  23.3219610
 110.2869280  78.3127478  36.1126733 109.5932752  77.8981431  35.5996687
 111.0342271  78.3548014  35.5160151 118.9320063  76.4117352  46.0670928
 118.4487145  77.2117712  46.2734817 119.0181002  76.4225297  45.1138372
 112.2006023  78.2445732  33.9892747 112.1776711  78.3433419  33.0374631
 112.5106659  79.0910882  34.3109914 114.8593400  80.3021887  38.1039362
 115.8136654  80.2705829  38.0369293 114.6605924  79.8412510  38.9189588
 115.4492783  78.8723003  40.6710160 116.2685672  79.3667081  40.6944997
 115.7229590  77.9554971  40.6427727 113.2143629  85.8441506  35.1209560
 113.0798097  85.0841907  34.5547558 112.7975692  86.5682406  34.6538349
 116.3712755  86.7410823  35.3328002 116.2545139  87.6856256  35.2306693
 115.5505201  86.4384385  35.7213802 110.7027697  73.2061137  41.3702357
 111.3486560  72.6960091  41.8589582 110.4944848  73.9429818  41.9445782
 119.2231307  67.4701181  27.1226253 119.2109977  68.4143021  27.2794524
 120.1154729  67.2871327  26.8285714 117.3967269  87.3939085  38.5483931
 118.2994516  87.4262695  38.8650426 117.1704639  86.4639536  38.5630267
 119.1520871  86.1470072  35.2094009 118.2016502  86.1471933  35.0958382
 119.4553357  85.4002806  34.6930044 115.0425188  70.3528754  45.4677371
 115.9056649  69.9965558  45.6780695 114.4690599  70.0142648  46.1552775
 121.9008621  89.3790991  37.4563006 122.1516660  90.2638001  37.7220582
 122.4368170  89.1995592  36.6838098 119.1143665  92.5522893  33.9858962
 119.8014705  92.2384623  33.3979977 118.9591794  93.4564258  33.7126213
 118.6911642  90.6323487  36.2576429 118.7295741  90.0987077  37.0513547
 118.1851934  90.1058692  35.6387406 121.9425278  96.9607136  34.3584679
 121.1057186  96.5329310  34.1768680 121.9148923  97.1539579  35.2955470
 121.2574775  90.0216484  34.1433611 120.9377559  89.1681792  33.8507985
 120.7108203  90.2365062  34.8991578 121.1263035  93.6419395  36.1126733
 120.4326506  93.2273348  35.5996687 121.8736026  93.6839932  35.5160151
 121.5421451  88.5353054  41.3702357 122.1880315  88.0252008  41.8589582
 121.3338602  89.2721736  41.9445782  74.6432209   2.6838272  17.8032754
  74.5656239   3.6346097  17.8821235  74.0393852   2.3384144  18.4607680
  72.2819039   5.4323666  21.9480956  72.5215637   6.0642190  22.6259975
  71.4388235   5.0811706  22.2346315  72.7563871   1.4571668  19.2779735
  72.0874246   1.9417796  18.7943775  72.6176740   1.7040888  20.1923113
  76.8969139   3.4915412  25.8762393  77.4487447   3.6547033  26.6411478
  77.2375333   4.0819849  25.2042418  77.0655563   3.2111803  20.1216424
  76.6260553   2.7188181  20.8149281  77.8163680   2.6684770  19.8808499
  69.8568613   1.5335958  21.8454866  69.7223080   0.7736359  21.2792864
  69.4400675   2.2576858  21.3783655  73.0137738   2.4305275  22.0573309
  72.8970123   3.3750708  21.9551999  72.1930185   2.1278837  22.4459108
  74.0392253   3.0833537  25.2729237  74.9419499   3.1157147  25.5895732
  73.8129623   2.1533988  25.2875573  88.3388254   7.6252490  22.9346603
  88.0006766   7.5093555  22.0467138  89.2078023   7.2243655  22.9147609
  84.1975070   9.4787966  18.9243494  83.6339935   9.3877903  18.1559782
  84.0827465   8.6587871  19.4045987  88.8208037   8.7787342  28.8932809
  88.8096678   8.3840140  28.0213312  88.9828677   8.0453414  29.4866580
  81.7439502  10.9739158  21.7627715  82.5360794  10.6329983  21.3474014
  81.9836152  11.0834133  22.6829868  89.7774629  13.1458934  14.2357959
  89.1262609  13.7313014  13.8491973  90.5718992  13.6765129  14.2952997
  83.7030256  10.2348071  14.6345093  84.4761132   9.6877058  14.4957969
  84.0555655  11.0992321  14.8459555  85.5415298  11.5624453  27.8411993
  85.2505164  12.4670084  27.7258659  86.1772283  11.6040981  28.5556062
  86.4671505   8.9401302  24.4313352  87.0635078   8.7157324  23.7170315
  86.5246477   8.1986047  25.0338800  85.7592822   8.2968843  14.4687918
  85.6429081   7.6213747  15.1369003  85.8695082   7.8101217  13.6520071
  88.1024363   7.7578990  18.1734607  87.7382571   7.2309611  18.8847529
  88.9591479   7.3677459  18.0001093  90.5005184  11.2485869  24.8361786
  90.2005907  12.1510908  24.7277594  90.1556243  10.9818052  25.6882939
  83.9517665   7.6999666  20.8698491  83.0268162   7.5675880  21.0776183
  84.2002078   8.4793885  21.3668433  81.3126476   7.3432939  21.7042280
  81.4418857   7.5967418  22.6181692  80.6323927   7.9360647  21.3846935
  85.4825963  18.0130189  17.8032754  85.4049993  18.9638014  17.8821235
  84.8787607  17.6676062  18.4607680  86.2289565   7.9943508  30.0212088
  86.9704250   8.5328552  29.7446912  85.5226551   8.6209797  30.1783640
  91.7044905  10.1372649  28.6184249  92.1128261   9.6955059  27.8738882
  90.9822167   9.5625276  28.8718442  92.0273720  10.6973839  22.3736538
  91.3982582  10.8619553  21.6712606  91.6399382  11.1115449  23.1447502
  95.9062952  11.6328277  19.7280902  95.2213990  12.0127178  19.1777935
  95.9906801  12.2423604  20.4612850  93.1613883   9.2788236  26.3276246
  93.3730778   9.9219996  25.6510627  93.1143631   8.4450553  25.8598176
  87.5801682  10.4348247  19.6386623  88.0440027  10.7135950  18.8491246
  87.3158480   9.5331692  19.4559714  84.4725763   9.9819729  22.5766387
  85.0427120  10.4106997  21.9383871  85.0633875   9.7002314  23.2750572
  86.5170568   6.5571400  16.4476189  87.2194611   7.0092443  16.9150115
  86.1851196   5.9155219  17.0756082  84.9650929   5.1483156  30.8227398
  84.3349590   5.8299437  31.0562795  84.8587017   5.0366238  29.8780536
  80.2595902   4.8154952  21.7493322  79.4694956   5.0712481  21.2733433
  80.7507149   5.6303290  21.8545363  94.2759711  12.1560192  24.4998603
  95.0977155  11.7540379  24.2181285  94.2722114  12.0528426  25.4514719
  82.2110647   5.1799532  18.7076799  81.4141810   5.2918226  19.2260295
  81.9836239   5.5186184  17.8417689  88.0416315  11.7044235  26.6559313
  88.1060747  12.1664642  27.4917485  87.3327239  11.0741600  26.7841623
  78.5433605   5.0685443  24.1808313  78.7941643   5.9532453  24.4465889
  79.0793153   4.8890044  23.4083405  87.7564332  13.3712342  16.5238294
  87.6210007  14.2163878  16.9523142  88.2974145  13.5731620  15.7604228
  81.2093730  10.8887780  17.0966219  81.7218250  11.6831031  17.2471784
  81.8616443  10.1914071  17.0299820  83.0188614  14.0053537  19.1788972
  83.1955243  14.9271501  18.9909956  83.8145448  13.6911956  19.6083352
  82.3040971   6.0518169  29.0551135  82.1894486   5.1503426  29.3558234
  81.4485489   6.2981865  28.7035952  89.3832809  13.9935909  30.6538636
  88.9396663  13.2072287  30.3359540  90.0450022  14.1815059  29.9882527
  84.1419930  15.5231710  25.1799314  84.6927355  15.3948774  24.4076308
  83.3031406  15.8226599  24.8294207  91.4814047  14.2738709  28.6820037
  91.4632522  15.0947590  28.1900306  92.4033967  14.1492784  28.9070178
  87.9387101  11.7882838  29.5243546  88.4715438  11.0271126  29.2942853
  87.4101182  11.4956490  30.2667700  79.1742646   9.2176435  17.8725789
  80.0117868   9.6273443  17.6559497  79.3520914   8.2775877  17.8425983
  89.3039814  10.9168831  17.0362358  88.7761175  10.1821590  16.7235595
  88.8027316  11.6943507  16.7902326  94.2832660   9.1117851  22.1529404
  93.6256334   9.8017113  22.2409532  95.0873059   9.5014283  22.4963390
  90.3560493  17.4446548  12.9594017  89.6822191  17.7478245  13.5678975
  90.7426315  18.2475628  12.6099474  93.8599915  12.4468225  18.3312488
  93.4062242  11.6059135  18.3877679  93.2293881  13.0829624  18.6687268
  92.3032854  14.2844722  19.2662306  92.5955828  14.8449779  18.5474672
  92.8131474  14.5773283  20.0215465  79.1968818   6.5567150  18.5436523
  78.9993217   5.9636511  17.8187589  78.6415482   6.2519360  19.2612462
  87.2666479  15.0625073  20.3555760  87.2242658  15.2885919  19.4264292
  88.1829178  14.8288448  20.5041561  96.4699229  10.7204104  22.9696989
  96.9035736  10.6279393  23.8180043  97.1830810  10.6961604  22.3317005
  85.3832280  11.9388102  20.1517722  86.1772878  11.4438422  19.9500297
  84.6723972  11.4105965  19.7885428  90.2027124  14.3206198  24.5030090
  90.2564147  14.8897134  25.2707806  89.3341906  14.4908083  24.1384127
  81.6915043   6.0831184  16.2277475  80.7612631   6.0215639  16.4447437
  81.7872515   5.5607137  15.4314116  97.3314779  10.7627804  25.5029875
  97.5250669  11.6673615  25.7489150  97.2315397  10.3035223  26.3368460
  92.3929888  10.9134547  31.0770755  92.2415394  10.6845099  30.1600839
  92.3834567  11.8705148  31.0902100  89.1615224   8.4866460  26.0617022
  90.0907284   8.6377619  25.8885989  88.7406254   8.5750480  25.2065668
  87.9603556  12.5117124  23.8315559  87.8214642  12.1435909  24.7041497
  87.1718152  13.0264764  23.6599517  88.5551708  17.6126221  15.1741096
  88.7303463  17.1414264  15.9886719  87.8684496  18.2391987  15.4022357
  89.5108771  11.8898727  21.2204397  89.1758604  11.8499497  22.1162047
  89.0112717  11.2243443  20.7474807  83.4853015   7.2966357  26.7456978
  83.3472813   6.5646596  27.3468517  84.3957938   7.2075257  26.4641166
  86.1135316   7.0086316  26.2340658  86.8234934   6.3679508  26.1927276
  86.0704624   7.2599211  27.1566839  94.1022094  13.9453669  29.1547237
  94.0434640  13.2612890  28.4877820  94.5041613  14.6872660  28.7027863
  83.1212793  20.7615583  21.9480956  83.3609391  21.3934107  22.6259975
  82.2781990  20.4103623  22.2346315  94.1039502  11.9093253  27.3861217
  93.2166280  11.5719175  27.5087616  94.6738053  11.1776285  27.6229982
  75.7568649   8.2417345  20.7104268  76.4439689   7.9279075  20.1225284
  75.6016777   9.1458710  20.4371520  87.6340655  16.5694706  24.3522460
  87.5610826  17.3749677  24.8641765  87.1918048  16.7686672  23.5270481
  87.4230435  15.8066476  17.8625282  86.6397956  16.3488156  17.9563506
  88.1223180  16.3240455  18.2619523  90.0939338  16.4681540  26.5080619
  90.8067311  17.1029005  26.4356520  89.6029367  16.5645406  25.6920621
  91.8156865  10.3732792  18.0797910  90.8813144  10.4934255  17.9102615
  91.9933534   9.4705259  17.8157920  85.1451252  14.2175983  27.3286190
  85.8460711  14.8512466  27.4815584  84.6746367  14.5590715  26.5681829
  89.9059712  16.8080284  19.2566910  90.0882106  15.9901940  19.7194663
  90.7292698  17.0247976  18.8191800  90.2401877  15.7348469  16.5181959
  90.7689644  15.2240924  15.9052121  90.5030097  15.4190999  17.3827492
  88.9940111   7.5140402  31.6404777  88.3180748   7.4134531  32.3107152
  89.8167745   7.3579616  32.1040774  80.7418970  13.7512338  24.2617292
  81.3272407  13.0056026  24.3945196  80.5443809  14.0616295  25.1453956
  83.5957625  16.7863586  19.2779735  82.9268001  17.2709713  18.7943775
  83.4570495  17.0332806  20.1923113  75.3336625   6.3217939  22.9821735
  75.3720724   5.7881529  23.7758853  74.8276918   5.7953144  22.3632713
  87.7362894  18.8207329  25.8762393  88.2881202  18.9838951  26.6411478
  88.0769087  19.4111767  25.2042418  92.5873768  13.6468587  31.7311047
  93.1313672  14.2598545  31.2366002  92.0060613  14.2048165  32.2478060
  78.9645202   5.0482041  16.0575667  79.2598643   4.1392719  16.0042720
  78.0633238   5.0269780  15.7356669  90.8731281  16.7689305  22.8626075
  90.7482421  15.9679045  22.3537021  91.5310372  17.2635498  22.3740045
  92.9366190  14.5698325  24.4905625  91.9896525  14.4503676  24.4183952
  93.2848963  13.6820823  24.5731887  89.9412623  14.3651041  20.6909977
  89.7937585  13.4367748  20.8717547  90.7666116  14.3871132  20.2067053
  93.5446745  15.1879600  21.7774850  94.4693292  14.9822461  21.6399301
  93.3762048  14.9396001  22.6864192  84.6773359   5.1774592  22.2612839
  84.5317939   5.4914895  23.1537121  84.1998562   5.7959492  21.7083738
  93.3342061  15.7065267  17.1336942  93.5078938  15.1411690  16.3810794
  93.8270952  16.5066162  16.9516432  79.1519021   7.7179936  25.2000500
  78.6072489   8.4939744  25.3320775  80.0298371   8.0650741  25.0419622
  79.9385043   6.8449833  28.0930657  79.1966779   6.9932468  28.6795288
  79.6177787   7.1058098  27.2297407  87.8828705  16.3865811  27.8911047
  88.1915832  16.1414958  28.7633747  88.6804187  16.5912449  27.4029918
  87.9049317  18.5403720  20.1216424  87.4654308  18.0480099  20.8149281
  88.6557434  17.9976688  19.8808499  80.3841656  14.7315261  20.1241052
  81.2099676  14.4319033  19.7439695  80.0335708  13.9622884  20.5730841
  85.3523189  14.0841730  22.1938726  84.7303199  13.4212435  21.8940953
  86.0228056  14.1102861  21.5112373  78.5850261  12.6501588  21.0829986
  77.7482170  12.2223762  20.9013987  78.5573907  12.8434031  22.0200777
  95.9102563  13.1064641  31.0672369  95.1198106  13.0888780  30.5276868
  95.6735917  13.6452935  31.8221405  96.0300438   9.9557107  28.3805097
  96.0798443   9.7907115  29.3220620  95.9214361   9.0884366  27.9902978
  84.9136696  12.6345653  15.6697186  85.0624817  13.3181117  15.0163859
  85.7203140  12.6150743  16.1846642  97.5318634  12.3754049  28.6247119
  97.2403443  12.7384029  29.4610580  96.9190766  11.6621057  28.4460451
  82.6689329   8.6610831  16.6758255  82.4235371   7.7573161  16.8738465
  82.8385244   8.6627981  15.7337733  88.4132102  15.1293783  13.1408934
  87.8406069  15.7483970  12.6879405  88.9864896  15.6793145  13.6748855
  91.6329362  15.4130933  14.2717516  92.5660035  15.3476495  14.4750391
  91.5452574  16.2487200  13.8132048  88.6817593  10.5172342  31.9425643
  89.6020602  10.6950941  32.1365690  88.6467176   9.5728388  31.7905342
  77.8999758   5.7110936  20.8678918  77.5802542   4.8576244  20.5753292
  77.3533186   5.9259514  21.6236885  81.6779665   8.4273377  24.5848424
  81.8965675   9.3590485  24.6036458  82.0905439   8.0681351  25.3703228
  77.7688018   9.3313847  22.8372039  77.0751489   8.9167800  22.3241994
  78.5161009   9.3734384  22.2405458  86.4138801   7.4303721  32.7916235
  85.9305882   8.2304082  32.9980124  86.4999740   7.4411666  31.8383679
  79.6824760   9.2632101  20.7138054  79.6595449   9.3619788  19.7619937
  79.9925397  10.1097252  21.0355220  82.3412138  11.3208256  24.8284669
  83.2955392  11.2892199  24.7614600  82.1424662  10.8598880  25.6434894
  82.9311520   9.8909372  27.3955466  83.7504409  10.3853451  27.4190303
  83.2048328   8.9741340  27.3673034  80.6962367  16.8627876  21.8454866
  80.5616835  16.1028277  21.2792864  80.2794429  17.5868776  21.3783655
  83.8531493  17.7597193  22.0573309  83.7363877  18.7042625  21.9551999
  83.0323939  17.4570754  22.4459108  78.1846435   4.2247506  28.0947663
  78.8305298   3.7146460  28.5834888  77.9763586   4.9616188  28.6691089
  90.7099827  11.2928354  33.5939804  91.5790986  11.4669006  33.2326439
  90.2306578  12.1122770  33.4715533  84.8786007  18.4125455  25.2729237
  85.7813254  18.4449065  25.5895732  84.6523377  17.4825906  25.2875573
  86.6339609  17.1656441  21.9339316  85.6835240  17.1658303  21.8203688
  86.9372095  16.4189176  21.4175351 102.3692303  23.0016980  22.9985078
 103.0070713  22.8823727  22.2948419 102.2513145  23.9497823  23.0573031
  99.1782009  22.9544408  22.9346603  98.8400520  22.8385472  22.0467138
 100.0471777  22.5535573  22.9147609  95.0368825  24.8079884  18.9243494
  94.4733690  24.7169821  18.1559782  94.9221220  23.9879788  19.4045987
  99.6601792  24.1079259  28.8932809  99.6490433  23.7132058  28.0213312
  99.8222431  23.3745332  29.4866580  92.5833256  26.3031076  21.7627715
  93.3754548  25.9621900  21.3474014  92.8229907  26.4126051  22.6829868
 100.6168383  28.4750852  14.2357959  99.9656363  29.0604932  13.8491973
 101.4112746  29.0057047  14.2952997  94.5424010  25.5639989  14.6345093
  95.3154886  25.0168976  14.4957969  94.8949409  26.4284238  14.8459555
  96.3809053  26.8916371  27.8411993  96.0898919  27.7962002  27.7258659
  97.0166037  26.9332899  28.5556062  97.3065260  24.2693220  24.4313352
  97.9028832  24.0449242  23.7170315  97.3640231  23.5277965  25.0338800
 101.9233571  20.7268433  20.0738287 102.7096660  20.3087857  19.7228704
 102.1872275  21.6314526  20.2419935  96.5986577  23.6260761  14.4687918
  96.4822835  22.9505664  15.1369003  96.7088837  23.1393135  13.6520071
  98.9418118  23.0870908  18.1734607  98.5776325  22.5601529  18.8847529
  99.7985234  22.6969377  18.0001093 104.8467419  14.3765241  25.4365874
 104.5150743  15.2460652  25.2127089 104.2513032  14.0601525  26.1159904
 101.3398938  26.5777787  24.8361786 101.0399661  27.4802825  24.7277594
 100.9949998  26.3109970  25.6882939  94.7911420  23.0291584  20.8698491
  93.8661916  22.8967798  21.0776183  95.0395833  23.8085803  21.3668433
 104.7396082  19.0960327  22.5159224 103.8312959  19.0275735  22.2217985
 104.6883678  19.5732272  23.3441049  92.1520231  22.6724857  21.7042280
  92.2812612  22.9259336  22.6181692  91.4717682  23.2652565  21.3846935
  96.3219718  33.3422107  17.8032754  96.2443748  34.2929932  17.8821235
  95.7181361  32.9967980  18.4607680  98.8136948  20.5149972  30.4594121
  98.0370282  21.0743893  30.4496986  99.4527511  21.0006755  30.9808991
 106.6057728  17.2976765  24.2937098 105.9632108  17.5909298  23.6476892
 106.1012657  17.1829686  25.0990294  97.0683320  23.3235426  30.0212088
  97.8098004  23.8620470  29.7446912  96.3620305  23.9501715  30.1783640
 102.5438660  25.4664566  28.6184249 102.9522016  25.0246977  27.8738882
 101.8215921  24.8917194  28.8718442  98.8969730  20.4037173  25.9917806
  99.7430925  20.8276587  26.1352455  98.8368367  19.7470797  26.6856370
 102.8667474  26.0265757  22.3736538 102.2376337  26.1911471  21.6712606
 102.4793136  26.4407366  23.1447502 106.7456706  26.9620195  19.7280902
 106.0607744  27.3419096  19.1777935 106.8300555  27.5715521  20.4612850
 102.0469175  18.0641541  27.6498980 101.8030107  18.8183602  27.1133256
 102.3229105  18.4426889  28.4846227 104.0007638  24.6080154  26.3276246
 104.2124533  25.2511914  25.6510627 103.9537386  23.7742470  25.8598176
 101.6033867  17.2197974  23.2312818 100.7418346  17.5179228  23.5229555
 101.6296301  17.4368373  22.2993850  98.4195436  25.7640165  19.6386623
  98.8833782  26.0427868  18.8491246  98.1552234  24.8623610  19.4559714
  95.3119517  25.3111647  22.5766387  95.8820874  25.7398915  21.9383871
  95.9027629  25.0294231  23.2750572  97.3564322  21.8863317  16.4476189
  98.0588365  22.3384361  16.9150115  97.0244951  21.2447136  17.0756082
  95.8044684  20.4775074  30.8227398  95.1743344  21.1591355  31.0562795
  95.6980772  20.3658156  29.8780536  91.0989656  20.1446870  21.7493322
  90.3088710  20.4004399  21.2733433  91.5900903  20.9595208  21.8545363
 105.1153466  27.4852109  24.4998603 105.9370909  27.0832296  24.2181285
 105.1115869  27.3820343  25.4514719  93.0504401  20.5091449  18.7076799
  92.2535565  20.6210144  19.2260295  92.8229994  20.8478101  17.8417689
  98.8810069  27.0336152  26.6559313  98.9454502  27.4956560  27.4917485
  98.1720993  26.4033517  26.7841623  89.3827359  20.3977360  24.1808313
  89.6335398  21.2824370  24.4465889  89.9186907  20.2181962  23.4083405
  98.5958087  28.7004260  16.5238294  98.4603762  29.5455796  16.9523142
  99.1367899  28.9023538  15.7604228  95.0825426  14.7795840  33.1852649
  94.6892372  14.2262038  33.8600293  95.8991567  15.0906418  33.5759167
  92.0487484  26.2179698  17.0966219  92.5612005  27.0122948  17.2471784
  92.7010197  25.5205988  17.0299820  93.8582369  29.3345454  19.1788972
  94.0348997  30.2563419  18.9909956  94.6539202  29.0203874  19.6083352
  97.9993387  16.1953719  30.7772906  98.7403101  16.7960872  30.6977368
  98.2311310  15.4531357  30.2190948  93.1434725  21.3810086  29.0551135
  93.0288241  20.4795343  29.3558234  92.2879243  21.6273783  28.7035952
 100.2226563  29.3227826  30.6538636  99.7790417  28.5364205  30.3359540
 100.8843777  29.5106977  29.9882527  94.9813684  30.8523628  25.1799314
  95.5321109  30.7240691  24.4076308  94.1425160  31.1518517  24.8294207
 102.3207801  29.6030626  28.6820037 102.3026277  30.4239507  28.1900306
 103.2427721  29.4784702  28.9070178  98.7780855  27.1174756  29.5243546
  99.3109192  26.3563044  29.2942853  98.2494936  26.8248408  30.2667700
 101.9450550  12.2234822  25.0537187 101.6014820  13.1136464  24.9776298
 102.3129513  12.0336479  24.1906772  90.0136401  24.5468352  17.8725789
  90.8511623  24.9565361  17.6559497  90.1914669  23.6067794  17.8425983
 101.0247091  14.5939477  23.0186421 100.5211886  14.5569612  22.2054226
 101.3177698  15.5032220  23.0783077  97.2689977  14.6778207  22.0252602
  98.1342973  14.4821015  21.6658492  97.3367486  14.4488559  22.9521959
 100.1433568  26.2460748  17.0362358  99.6154930  25.5113508  16.7235595
  99.6421071  27.0235425  16.7902326 105.1226414  24.4409769  22.1529404
 104.4650089  25.1309030  22.2409532 105.9266813  24.8306201  22.4963390
  94.8752296  16.9080415  19.3968969  95.4496048  16.6855596  18.6642162
  95.4623278  16.9769109  20.1497570 103.9331873  22.7954142  20.2033346
 104.4463755  23.4284133  20.7055055 104.5833097  22.1955337  19.8376706
 101.1954247  32.7738466  12.9594017 100.5215946  33.0770163  13.5678975
 101.5820069  33.5767546  12.6099474 100.4112704  20.2703597  22.4491686
  99.4935265  20.4918544  22.2913374 100.8272847  20.3449908  21.5903393
 104.6993669  27.7760143  18.3312488 104.2455996  26.9351053  18.3877679
 104.0687636  28.4121541  18.6687268 103.1426608  29.6136640  19.2662306
 103.4349583  30.1741697  18.5474672 103.6525229  29.9065201  20.0215465
  90.0362572  21.8859068  18.5436523  89.8386972  21.2928428  17.8187589
  89.4809236  21.5811278  19.2612462  98.0159296  21.7782174  20.6631116
  98.0707906  20.8256011  20.5873593  97.2050498  21.9341613  21.1472414
  95.9551656  20.3959234  18.4221495  95.1419521  20.6953404  18.8286687
  96.4510650  20.0014923  19.1395977  98.1060234  30.3916991  20.3555760
  98.0636412  30.6177837  19.4264292  99.0222932  30.1580365  20.5041561
 101.5525867  20.8601058  27.2536389 101.9075255  21.0872531  28.1130855
 102.1997999  21.1919435  26.6313644  95.4465730  17.9677589  24.0382730
  96.0865110  17.8266348  23.3405693  94.6143261  17.6812103  23.6621332
 107.3092984  26.0496021  22.9696989 107.7429491  25.9571310  23.8180043
 108.0224565  26.0253522  22.3317005  96.2226034  27.2680020  20.1517722
  97.0166633  26.7730340  19.9500297  95.5117727  26.7397883  19.7885428
 101.0420879  29.6498115  24.5030090 101.0957901  30.2189052  25.2707806
 100.1735660  29.8200000  24.1384127  92.5308798  21.4123102  16.2277475
  91.6006386  21.3507557  16.4447437  92.6266270  20.8899054  15.4314116
  92.4494347  17.9377914  18.8155717  92.7101164  18.8523248  18.7064877
  93.2711519  17.4702357  18.9652329  93.9219272  19.3515672  25.9854541
  94.5942326  19.1433034  25.3367190  93.0949059  19.1537758  25.5459773
 108.1708533  26.0919722  25.5029875 108.3644424  26.9965532  25.7489150
 108.0709152  25.6327141  26.3368460  99.8244844  15.9777612  28.0020202
  99.1772759  16.6767562  27.9084678 100.5945860  16.4113756  28.3696450
 103.2323642  26.2426465  31.0770755 103.0809149  26.0137016  30.1600839
 103.2228322  27.1997066  31.0902100 100.0008979  23.8158377  26.0617022
 100.9301039  23.9669537  25.8885989  99.5800009  23.9042398  25.2065668
  98.7997310  27.8409042  23.8315559  98.6608396  27.4727826  24.7041497
  98.0111907  28.3556681  23.6599517  99.3945462  32.9418138  15.1741096
  99.5697218  32.4706181  15.9886719  98.7078250  33.5683904  15.4022357
 100.3502525  27.2190644  21.2204397 100.0152358  27.1791414  22.1162047
  99.8506471  26.5535360  20.7474807  94.3246769  22.6258275  26.7456978
  94.1866567  21.8938513  27.3468517  95.2351693  22.5367175  26.4641166
  96.9529070  22.3378234  26.2340658  97.6628689  21.6971426  26.1927276
  96.9098378  22.5891129  27.1566839 104.9415849  29.2745587  29.1547237
 104.8828395  28.5904807  28.4877820 105.3435367  30.0164577  28.7027863
  95.6658004  19.3243452  28.0536297  95.1295361  18.8734190  28.7057894
  95.0774713  19.4589361  27.3106762  93.9606548  36.0907501  21.9480956
  94.2003146  36.7226025  22.6259975  93.1175744  35.7395541  22.2346315
 104.9433256  27.2385171  27.3861217 104.0560035  26.9011093  27.5087616
 105.5131807  26.5068202  27.6229982  86.5962403  23.5709263  20.7104268
  87.2833443  23.2570993  20.1225284  86.4410532  24.4750627  20.4371520
  91.3997125  18.4599459  25.1389292  91.3155314  17.8525129  24.4039702
  90.5779832  18.9508478  25.1398788  98.4734409  31.8986623  24.3522460
  98.4004581  32.7041595  24.8641765  98.0311803  32.0978589  23.5270481
  98.2624189  31.1358393  17.8625282  97.4791711  31.6780074  17.9563506
  98.9616934  31.6532373  18.2619523 100.9333093  31.7973457  26.5080619
 101.6461065  32.4320922  26.4356520 100.4423122  31.8937323  25.6920621
 102.6550620  25.7024710  18.0797910 101.7206899  25.8226173  17.9102615
 102.8327288  24.7997177  17.8157920  98.1555808  19.0870406  20.2331172
  97.7853595  18.5341446  20.9212077  98.6514900  18.4828539  19.6806172
  95.9845006  29.5467901  27.3286190  96.6854466  30.1804384  27.4815584
  95.5140121  29.8882632  26.5681829 103.7846292  22.1012508  25.1538740
 103.1317743  22.3488416  24.4991193 104.1626672  21.2876647  24.8201217
 100.7453466  32.1372202  19.2566910 100.9275861  31.3193858  19.7194663
 101.5686452  32.3539894  18.8191800 101.0795632  31.0640387  16.5181959
 101.6083398  30.5532841  15.9052121 101.3423851  30.7482917  17.3827492
  99.8333865  22.8432319  31.6404777  99.1574503  22.7426449  32.3107152
 100.6561499  22.6871533  32.1040774  91.5812725  29.0804256  24.2617292
  92.1666161  28.3347944  24.3945196  91.3837563  29.3908213  25.1453956
  94.4351380  32.1155503  19.2779735  93.7661755  32.6001631  18.7943775
  94.2964249  32.3624724  20.1923113  86.1730379  21.6509856  22.9821735
  86.2114479  21.1173447  23.7758853  85.6670672  21.1245062  22.3632713
  98.5756648  34.1499247  25.8762393  99.1274956  34.3130868  26.6411478
  98.9162842  34.7403685  25.2042418  93.5521142  16.4974397  26.4784278
  93.6162468  17.3589228  26.0661675  93.4888262  15.8848398  25.7456636
  93.0273414  18.5697529  30.1257312  93.6545453  18.1874607  30.7394836
  92.1701333  18.3511731  30.4913004 103.4267523  28.9760504  31.7311047
 103.9707427  29.5890463  31.2366002 102.8454368  29.5340083  32.2478060
  89.8038957  20.3773958  16.0575667  90.0992398  19.4684637  16.0042720
  88.9026993  20.3561698  15.7356669 101.7125036  32.0981222  22.8626075
 101.5876175  31.2970962  22.3537021 102.3704127  32.5927416  22.3740045
  93.3333204  18.4529955  22.0403215  92.6119790  19.0665923  21.9010689
  94.1226460  18.9887720  21.9619861 103.7759944  29.8990243  24.4905625
 102.8290280  29.7795594  24.4183952 104.1242717  29.0112741  24.5731887
  96.1359517  15.7884381  28.3143867  96.6593919  16.0346678  29.0770176
  95.9171851  16.6204416  27.8947004  91.5326798  18.0588056  16.1814992
  91.2039505  17.1785435  15.9990098  91.8866169  18.0035725  17.0691381
 100.7806377  29.6942959  20.6909977 100.6331340  28.7659666  20.8717547
 101.6059871  29.7163049  20.2067053  94.6468622  18.3461026  16.5490470
  94.9864694  18.8746947  15.8269078  95.0940742  18.6841432  17.3249036
 104.3840499  30.5171517  21.7774850 105.3087047  30.3114379  21.6399301
 104.2155803  30.2687919  22.6864192  97.3412062  16.7298077  25.9993538
  97.0008883  15.9305890  26.4014218  96.6351069  17.0299787  25.4270371
  97.9928534  13.8147389  24.4520861  98.8154604  13.3407867  24.3299751
  98.2366598  14.5937873  24.9519547  95.5167113  20.5066510  22.2612839
  95.3711694  20.8206813  23.1537121  95.0392317  21.1251410  21.7083738
  97.3763496  17.4969058  22.3093729  97.3625065  16.6010151  21.9726027
  98.0935924  17.5039721  22.9432015  99.2289627  17.9306398  24.3546856
  98.9707404  18.8523468  24.3531187  98.6974667  17.5336832  25.0447320
 104.1735815  31.0357185  17.1336942 104.3472693  30.4703607  16.3810794
 104.6664707  31.8358080  16.9516432  89.9912775  23.0471854  25.2000500
  89.4466243  23.8231662  25.3320775  90.8692125  23.3942658  25.0419622
  96.7800392  16.3783438  17.5781299  96.9016303  15.4500084  17.7772186
  96.4902434  16.3922124  16.6659614  90.7778797  22.1741750  28.0930657
  90.0360533  22.3224386  28.6795288  90.4571541  22.4350016  27.2297407
  98.7222460  31.7157729  27.8911047  99.0309586  31.4706875  28.7633747
  99.5197942  31.9204367  27.4029918  98.7443072  33.8695638  20.1216424
  98.3048062  33.3772017  20.8149281  99.4951189  33.3268606  19.8808499
  91.2235411  30.0607179  20.1241052  92.0493431  29.7610951  19.7439695
  90.8729463  29.2914801  20.5730841  96.1916944  29.4133647  22.1938726
  95.5696953  28.7504352  21.8940953  96.8621811  29.4394779  21.5112373
  89.4244016  27.9793505  21.0829986  88.5875924  27.5515680  20.9013987
  89.3967661  28.1725949  22.0200777  96.2641471  17.8915435  31.7871232
  96.3129627  18.7677558  31.4049001  96.8063986  17.3492828  31.2142875
 106.7496317  28.4356558  31.0672369 105.9591861  28.4180697  30.5276868
 106.5129672  28.9744852  31.8221405 106.8694192  25.2849025  28.3805097
 106.9192197  25.1199032  29.3220620 106.7608115  24.4176284  27.9902978
  95.7530451  27.9637571  15.6697186  95.9018571  28.6473035  15.0163859
  96.5596894  27.9442661  16.1846642 104.1597954  21.2679953  29.6964404
 105.0607817  21.1286418  29.4048402 104.2345929  21.4334408  30.6362581
  98.4940760  18.6446808  28.5417590  97.6244069  18.9380374  28.2700179
  98.7300240  19.2287253  29.2624854 108.3712389  27.7045966  28.6247119
 108.0797197  28.0675947  29.4610580 107.7584520  26.9912975  28.4460451
 106.6199577  22.8278581  27.0927177 107.0953699  23.0206227  26.2846028
 105.6965143  22.8837767  26.8470560  93.5083084  23.9902748  16.6758255
  93.2629126  23.0865078  16.8738465  93.6778998  23.9919899  15.7337733
 101.1979794  14.8626425  26.0583011 101.7161738  15.5987452  25.7329499
 100.8434926  15.1690418  26.8929770  92.7778731  19.7231106  14.1744416
  92.0847976  19.7975461  13.5184452  92.5330483  18.9591449  14.6965933
  99.2525856  30.4585701  13.1408934  98.6799823  31.0775888  12.6879405
  99.8258650  31.0085063  13.6748855 105.3201246  19.7044341  25.3255482
 106.2718669  19.8042439  25.3467706 105.1504697  18.9122610  25.8353567
 103.3415626  16.7899924  25.5114883 102.7465558  17.0704937  24.8161372
 103.0565322  17.2793825  26.2831624 102.4723116  30.7422851  14.2717516
 103.4053789  30.6768413  14.4750391 102.3846329  31.5779118  13.8132048
 107.7989324  22.9250461  24.4397782 107.7665644  21.9866462  24.6257466
 108.4089948  23.0034498  23.7063607  99.5211347  25.8464260  31.9425643
 100.4414357  26.0242859  32.1365690  99.4860930  24.9020305  31.7905342
  88.7393512  21.0402854  20.8678918  88.4196297  20.1868162  20.5753292
  88.1926941  21.2551432  21.6236885  92.5173420  23.7565295  24.5848424
  92.7359430  24.6882402  24.6036458  92.9299194  23.3973269  25.3703228
  97.3901285  19.3298500  33.9751173  97.2898012  20.2792857  33.9063264
  97.1722827  19.0016739  33.1027243  88.6081772  24.6605765  22.8372039
  87.9145244  24.2459718  22.3241994  89.3554763  24.7026302  22.2405458
  97.2532555  22.7595639  32.7916235  96.7699637  23.5595999  32.9980124
  97.3393494  22.7703584  31.8383679  90.5218515  24.5924019  20.7138054
  90.4989203  24.6911706  19.7619937  90.8319151  25.4389170  21.0355220
  93.1805893  26.6500174  24.8284669  94.1349146  26.6184116  24.7614600
  92.9818416  26.1890798  25.6434894  93.7705275  25.2201290  27.3955466
  94.5898164  25.7145369  27.4190303  94.0442083  24.3033258  27.3673034
  91.5356122  32.1919793  21.8454866  91.4010589  31.4320194  21.2792864
  91.1188184  32.9160693  21.3783655  94.6925247  33.0889110  22.0573309
  94.5757632  34.0334543  21.9551999  93.8717694  32.7862672  22.4459108
  89.0240189  19.5539424  28.0947663  89.6699053  19.0438378  28.5834888
  88.8157340  20.2908105  28.6691089 101.5493581  26.6220271  33.5939804
 102.4184741  26.7960924  33.2326439 101.0700333  27.4414688  33.4715533
  95.7179762  33.7417372  25.2729237  96.6207008  33.7740983  25.5895732
  95.4917132  32.8117823  25.2875573  97.4733364  32.4948359  21.9339316
  96.5228995  32.4950220  21.8203688  97.7765850  31.7481093  21.4175351
  93.3637680  16.7007041  32.1922677  94.2269142  16.3443846  32.4026002
  92.7903091  16.3620936  32.8798082 113.2086057  38.3308897  22.9985078
 113.8464467  38.2115645  22.2948419 113.0906900  39.2789741  23.0573031
 110.0175763  38.2836325  22.9346603 109.6794275  38.1677390  22.0467138
 110.8865532  37.8827490  22.9147609 105.8762579  40.1371802  18.9243494
 105.3127444  40.0461739  18.1559782 105.7614974  39.3171706  19.4045987
 110.4995546  39.4371177  28.8932809 110.4884187  39.0423975  28.0213312
 110.6616186  38.7037250  29.4866580 103.4227011  41.6322993  21.7627715
 104.2148303  41.2913818  21.3474014 103.6623661  41.7417968  22.6829868
 111.4562138  43.8042769  14.2357959 110.8050118  44.3896850  13.8491973
 112.2506501  44.3348964  14.2952997 105.3817765  40.8931907  14.6345093
 106.1548641  40.3460894  14.4957969 105.7343164  41.7576156  14.8459555
 107.2202807  42.2208289  27.8411993 106.9292673  43.1253920  27.7258659
 107.8559792  42.2624816  28.5556062 108.1459014  39.5985137  24.4313352
 108.7422587  39.3741160  23.7170315 108.2033986  38.8569883  25.0338800
 112.7627326  36.0560351  20.0738287 113.5490415  35.6379774  19.7228704
 113.0266030  36.9606443  20.2419935 107.4380331  38.9552679  14.4687918
 107.3216590  38.2797582  15.1369003 107.5482591  38.4685053  13.6520071
 109.7811872  38.4162826  18.1734607 109.4170080  37.8893447  18.8847529
 110.6378988  38.0261295  18.0001093 115.6861173  29.7057158  25.4365874
 115.3544498  30.5752569  25.2127089 115.0906786  29.3893442  26.1159904
 112.1792693  41.9069704  24.8361786 111.8793416  42.8094743  24.7277594
 111.8343752  41.6401888  25.6882939 105.6305174  38.3583501  20.8698491
 104.7055671  38.2259715  21.0776183 105.8789587  39.1377720  21.3668433
 115.5789836  34.4252245  22.5159224 114.6706714  34.3567653  22.2217985
 115.5277432  34.9024189  23.3441049 102.9913985  38.0016775  21.7042280
 103.1206366  38.2551254  22.6181692 102.3111436  38.5944483  21.3846935
 107.1613472  48.6714025  17.8032754 107.0837502  49.6221850  17.8821235
 106.5575116  48.3259897  18.4607680 109.6530702  35.8441890  30.4594121
 108.8764036  36.4035810  30.4496986 110.2921265  36.3298673  30.9808991
 117.4451483  32.6268683  24.2937098 116.8025863  32.9201216  23.6476892
 116.9406411  32.5121603  25.0990294 107.9077074  38.6527343  30.0212088
 108.6491759  39.1912387  29.7446912 107.2014060  39.2793632  30.1783640
 113.3832414  40.7956484  28.6184249 113.7915770  40.3538894  27.8738882
 112.6609676  40.2209111  28.8718442 109.7363484  35.7329091  25.9917806
 110.5824679  36.1568504  26.1352455 109.6762122  35.0762715  26.6856370
 113.7061229  41.3557675  22.3736538 113.0770091  41.5203389  21.6712606
 113.3186891  41.7699284  23.1447502 117.5850461  42.2912112  19.7280902
 116.9001499  42.6711014  19.1777935 117.6694310  42.9007439  20.4612850
 112.8862929  33.3933459  27.6498980 112.6423861  34.1475520  27.1133256
 113.1622860  33.7718807  28.4846227 114.8401392  39.9372071  26.3276246
 115.0518287  40.5803831  25.6510627 114.7931140  39.1034388  25.8598176
 112.4427621  32.5489892  23.2312818 111.5812100  32.8471146  23.5229555
 112.4690056  32.7660291  22.2993850 109.2589191  41.0932083  19.6386623
 109.7227536  41.3719786  18.8491246 108.9945989  40.1915527  19.4559714
 106.1513272  40.6403564  22.5766387 106.7214629  41.0690833  21.9383871
 106.7421383  40.3586149  23.2750572 108.1958077  37.2155235  16.4476189
 108.8982120  37.6676279  16.9150115 107.8638705  36.5739054  17.0756082
 106.6438438  35.8066992  30.8227398 106.0137099  36.4883273  31.0562795
 106.5374526  35.6950073  29.8780536 101.9383411  35.4738788  21.7493322
 101.1482465  35.7296316  21.2733433 102.4294658  36.2887126  21.8545363
 115.9547220  42.8144027  24.4998603 116.7764664  42.4124214  24.2181285
 115.9509623  42.7112261  25.4514719 103.8898156  35.8383367  18.7076799
 103.0929319  35.9502061  19.2260295 103.6623748  36.1770019  17.8417689
 109.7203824  42.3628070  26.6559313 109.7848256  42.8248477  27.4917485
 109.0114747  41.7325435  26.7841623 100.2221114  35.7269278  24.1808313
 100.4729152  36.6116288  24.4465889 100.7580662  35.5473880  23.4083405
 109.4351841  44.0296178  16.5238294 109.2997516  44.8747713  16.9523142
 109.9761654  44.2315455  15.7604228 105.9219181  30.1087758  33.1852649
 105.5286126  29.5553956  33.8600293 106.7385321  30.4198336  33.5759167
 102.8881239  41.5471616  17.0966219 103.4005759  42.3414866  17.2471784
 103.5403951  40.8497906  17.0299820 104.6976123  44.6637372  19.1788972
 104.8742752  45.5855337  18.9909956 105.4932957  44.3495791  19.6083352
 108.8387142  31.5245637  30.7772906 109.5796855  32.1252790  30.6977368
 109.0705065  30.7823274  30.2190948 103.9828480  36.7102004  29.0551135
 103.8681995  35.8087261  29.3558234 103.1272998  36.9565701  28.7035952
 111.0620318  44.6519744  30.6538636 110.6184172  43.8656123  30.3359540
 111.7237531  44.8398895  29.9882527 105.8207439  46.1815546  25.1799314
 106.3714864  46.0532609  24.4076308 104.9818915  46.4810435  24.8294207
 113.1601556  44.9322544  28.6820037 113.1420031  45.7531425  28.1900306
 114.0821476  44.8076619  28.9070178 109.6174610  42.4466674  29.5243546
 110.1502947  41.6854962  29.2942853 109.0888691  42.1540325  30.2667700
 112.7844305  27.5526740  25.0537187 112.4408574  28.4428381  24.9776298
 113.1523267  27.3628397  24.1906772 100.8530155  39.8760270  17.8725789
 101.6905377  40.2857278  17.6559497 101.0308423  38.9359712  17.8425983
 111.8640845  29.9231395  23.0186421 111.3605641  29.8861530  22.2054226
 112.1571452  30.8324137  23.0783077 108.1083731  30.0070124  22.0252602
 108.9736728  29.8112933  21.6658492 108.1761240  29.7780476  22.9521959
 110.9827323  41.5752666  17.0362358 110.4548684  40.8405426  16.7235595
 110.4814825  42.3527342  16.7902326 115.9620169  39.7701687  22.1529404
 115.3043843  40.4600948  22.2409532 116.7660568  40.1598118  22.4963390
 105.7146050  32.2372332  19.3968969 106.2889802  32.0147514  18.6642162
 106.3017033  32.3061027  20.1497570 114.7725627  38.1246059  20.2033346
 115.2857509  38.7576051  20.7055055 115.4226851  37.5247255  19.8376706
 112.0348002  48.1030384  12.9594017 111.3609700  48.4062080  13.5678975
 112.4213824  48.9059464  12.6099474 111.2506458  35.5995515  22.4491686
 110.3329020  35.8210462  22.2913374 111.6666602  35.6741825  21.5903393
 115.5387424  43.1052061  18.3312488 115.0849751  42.2642971  18.3877679
 114.9081390  43.7413459  18.6687268 113.9820363  44.9428557  19.2662306
 114.2743337  45.5033614  18.5474672 114.4918983  45.2357118  20.0215465
 100.8756327  37.2150985  18.5436523 100.6780726  36.6220346  17.8187589
 100.3202991  36.9103195  19.2612462 108.8553050  37.1074092  20.6631116
 108.9101660  36.1547928  20.5873593 108.0444252  37.2633531  21.1472414
 106.7945410  35.7251152  18.4221495 105.9813276  36.0245322  18.8286687
 107.2904404  35.3306840  19.1395977 108.9453988  45.7208908  20.3555760
 108.9030167  45.9469755  19.4264292 109.8616687  45.4872283  20.5041561
 112.3919622  36.1892976  27.2536389 112.7469010  36.4164449  28.1130855
 113.0391753  36.5211353  26.6313644 106.2859485  33.2969507  24.0382730
 106.9258864  33.1558266  23.3405693 105.4537015  33.0104020  23.6621332
 118.1486738  41.3787939  22.9696989 118.5823245  41.2863228  23.8180043
 118.8618319  41.3545439  22.3317005 107.0619789  42.5971937  20.1517722
 107.8560387  42.1022258  19.9500297 106.3511481  42.0689801  19.7885428
 111.8814633  44.9790033  24.5030090 111.9351656  45.5480969  25.2707806
 111.0129415  45.1491918  24.1384127 103.3702552  36.7415019  16.2277475
 102.4400140  36.6799475  16.4447437 103.4660024  36.2190972  15.4314116
 103.2888101  33.2669832  18.8155717 103.5494919  34.1815165  18.7064877
 104.1105274  32.7994275  18.9652329 104.7613027  34.6807589  25.9854541
 105.4336080  34.4724951  25.3367190 103.9342813  34.4829675  25.5459773
 119.0102288  41.4211640  25.5029875 119.2038178  42.3257450  25.7489150
 118.9102906  40.9619059  26.3368460 110.6638599  31.3069530  28.0020202
 110.0166514  32.0059480  27.9084678 111.4339614  31.7405674  28.3696450
 114.0717397  41.5718382  31.0770755 113.9202903  41.3428934  30.1600839
 114.0622076  42.5288984  31.0902100 110.8402733  39.1450295  26.0617022
 111.7694793  39.2961455  25.8885989 110.4193763  39.2334316  25.2065668
 109.6391065  43.1700959  23.8315559 109.5002151  42.8019744  24.7041497
 108.8505661  43.6848599  23.6599517 110.2339217  48.2710056  15.1741096
 110.4090972  47.7998099  15.9886719 109.5472005  48.8975822  15.4022357
 111.1896280  42.5482562  21.2204397 110.8546113  42.5083332  22.1162047
 110.6900226  41.8827278  20.7474807 105.1640524  37.9550192  26.7456978
 105.0260322  37.2230431  27.3468517 106.0745447  37.8659092  26.4641166
 107.7922825  37.6670152  26.2340658 108.5022443  37.0263344  26.1927276
 107.7492133  37.9183046  27.1566839 115.7809603  44.6037505  29.1547237
 115.7222149  43.9196725  28.4877820 116.1829122  45.3456495  28.7027863
 106.5051759  34.6535369  28.0536297 105.9689116  34.2026108  28.7057894
 105.9168467  34.7881278  27.3106762 104.8000302  51.4199419  21.9480956
 105.0396900  52.0517943  22.6259975 103.9569499  51.0687459  22.2346315
 115.7827011  42.5677089  27.3861217 114.8953789  42.2303011  27.5087616
 116.3525562  41.8360120  27.6229982  97.4356158  38.9001181  20.7104268
  98.1227197  38.5862911  20.1225284  97.2804286  39.8042545  20.4371520
 102.2390880  33.7891377  25.1389292 102.1549069  33.1817047  24.4039702
 101.4173586  34.2800395  25.1398788 109.3128164  47.2278541  24.3522460
 109.2398335  48.0333513  24.8641765 108.8705557  47.4270507  23.5270481
 109.1017944  46.4650311  17.8625282 108.3185465  47.0071991  17.9563506
 109.8010689  46.9824291  18.2619523 111.7726847  47.1265375  26.5080619
 112.4854820  47.7612840  26.4356520 111.2816876  47.2229241  25.6920621
 113.4944374  41.0316628  18.0797910 112.5600653  41.1518090  17.9102615
 113.6721043  40.1289095  17.8157920 108.9949562  34.4162324  20.2331172
 108.6247350  33.8633364  20.9212077 109.4908655  33.8120457  19.6806172
 106.8238761  44.8759819  27.3286190 107.5248220  45.5096302  27.4815584
 106.3533876  45.2174550  26.5681829 114.6240047  37.4304426  25.1538740
 113.9711497  37.6780334  24.4991193 115.0020427  36.6168564  24.8201217
 111.5847221  47.4664119  19.2566910 111.7669615  46.6485775  19.7194663
 112.4080207  47.6831812  18.8191800 111.9189386  46.3932304  16.5181959
 112.4477153  45.8824759  15.9052121 112.1817606  46.0774835  17.3827492
 110.6727620  38.1724237  31.6404777 109.9968257  38.0718366  32.3107152
 111.4955254  38.0163451  32.1040774 102.4206479  44.4096174  24.2617292
 103.0059916  43.6639862  24.3945196 102.2231318  44.7200130  25.1453956
 105.2745134  47.4447421  19.2779735 104.6055510  47.9293549  18.7943775
 105.1358004  47.6916642  20.1923113  97.0124134  36.9801774  22.9821735
  97.0508233  36.4465365  23.7758853  96.5064427  36.4536979  22.3632713
 109.4150403  49.4791165  25.8762393 109.9668711  49.6422786  26.6411478
 109.7556596  50.0695602  25.2042418 104.3914896  31.8266314  26.4784278
 104.4556223  32.6881145  26.0661675 104.3282016  31.2140316  25.7456636
 103.8667169  33.8989447  30.1257312 104.4939207  33.5166524  30.7394836
 103.0095087  33.6803649  30.4913004 114.2661277  44.3052422  31.7311047
 114.8101181  44.9182380  31.2366002 113.6848122  44.8632001  32.2478060
 100.6432711  35.7065876  16.0575667 100.9386152  34.7976554  16.0042720
  99.7420747  35.6853615  15.7356669 112.5518790  47.4273140  22.8626075
 112.4269930  46.6262880  22.3537021 113.2097881  47.9219333  22.3740045
 104.1726958  33.7821873  22.0403215 103.4513544  34.3957840  21.9010689
 104.9620214  34.3179637  21.9619861 114.6153699  45.2282160  24.4905625
 113.6684034  45.1087511  24.4183952 114.9636472  44.3404658  24.5731887
 106.9753272  31.1176299  28.3143867 107.4987674  31.3638596  29.0770176
 106.7565605  31.9496334  27.8947004 102.3720553  33.3879974  16.1814992
 102.0433259  32.5077353  15.9990098 102.7259924  33.3327642  17.0691381
 111.6200132  45.0234876  20.6909977 111.4725094  44.0951584  20.8717547
 112.4453625  45.0454967  20.2067053 105.4862376  33.6752943  16.5490470
 105.8258449  34.2038865  15.8269078 105.9334497  34.0133350  17.3249036
 115.2234254  45.8463435  21.7774850 116.1480801  45.6406296  21.6399301
 115.0549557  45.5979836  22.6864192 108.1805817  32.0589994  25.9993538
 107.8402637  31.2597807  26.4014218 107.4744823  32.3591705  25.4270371
 108.8322289  29.1439307  24.4520861 109.6548358  28.6699785  24.3299751
 109.0760352  29.9229790  24.9519547 106.3560868  35.8358427  22.2612839
 106.2105448  36.1498730  23.1537121 105.8786071  36.4543328  21.7083738
 108.2157250  32.8260975  22.3093729 108.2018819  31.9302069  21.9726027
 108.9329679  32.8331639  22.9432015 110.0683381  33.2598315  24.3546856
 109.8101159  34.1815386  24.3531187 109.5368421  32.8628750  25.0447320
 115.0129570  46.3649103  17.1336942 115.1866447  45.7995525  16.3810794
 115.5058461  47.1649997  16.9516432 100.8306530  38.3763772  25.2000500
 100.2859998  39.1523580  25.3320775 101.7085880  38.7234576  25.0419622
 107.6194146  31.7075356  17.5781299 107.7410058  30.7792002  17.7772186
 107.3296189  31.7214042  16.6659614 101.6172552  37.5033668  28.0930657
 100.8754288  37.6516303  28.6795288 101.2965296  37.7641934  27.2297407
 109.5616214  47.0449646  27.8911047 109.8703341  46.7998793  28.7633747
 110.3591696  47.2496285  27.4029918 109.5836826  49.1987556  20.1216424
 109.1441817  48.7063935  20.8149281 110.3344943  48.6560523  19.8808499
 102.0629165  45.3899097  20.1241052 102.8887185  45.0902869  19.7439695
 101.7123217  44.6206719  20.5730841 107.0310698  44.7425565  22.1938726
 106.4090708  44.0796270  21.8940953 107.7015565  44.7686697  21.5112373
 100.2637770  43.3085423  21.0829986  99.4269679  42.8807597  20.9013987
 100.2361416  43.5017866  22.0200777 107.1035226  33.2207353  31.7871232
 107.1523381  34.0969476  31.4049001 107.6457740  32.6784746  31.2142875
 117.5890072  43.7648476  31.0672369 116.7985615  43.7472615  30.5276868
 117.3523426  44.3036770  31.8221405 117.7087947  40.6140943  28.3805097
 117.7585952  40.4490950  29.3220620 117.6001870  39.7468202  27.9902978
 106.5924205  43.2929488  15.6697186 106.7412326  43.9764953  15.0163859
 107.3990649  43.2734578  16.1846642 114.9991709  36.5971871  29.6964404
 115.9001572  36.4578335  29.4048402 115.0739683  36.7626325  30.6362581
 109.3334514  33.9738725  28.5417590 108.4637824  34.2672291  28.2700179
 109.5693995  34.5579170  29.2624854 119.2106143  43.0337884  28.6247119
 118.9190952  43.3967865  29.4610580 118.5978275  42.3204892  28.4460451
 117.4593332  38.1570499  27.0927177 117.9347453  38.3498145  26.2846028
 116.5358897  38.2129685  26.8470560 104.3476838  39.3194666  16.6758255
 104.1022880  38.4156996  16.8738465 104.5172753  39.3211816  15.7337733
 112.0373548  30.1918342  26.0583011 112.5555492  30.9279369  25.7329499
 111.6828681  30.4982336  26.8929770 103.6172486  35.0523023  14.1744416
 102.9241731  35.1267378  13.5184452 103.3724238  34.2883367  14.6965933
 110.0919611  45.7877619  13.1408934 109.5193578  46.4067806  12.6879405
 110.6652404  46.3376980  13.6748855 116.1595001  35.0336259  25.3255482
 117.1112424  35.1334356  25.3467706 115.9898451  34.2414527  25.8353567
 114.1809380  32.1191842  25.5114883 113.5859312  32.3996855  24.8161372
 113.8959077  32.6085743  26.2831624 113.3116871  46.0714769  14.2717516
 114.2447544  46.0060330  14.4750391 113.2240083  46.9071036  13.8132048
 118.6383078  38.2542378  24.4397782 118.6059399  37.3158379  24.6257466
 119.2483702  38.3326415  23.7063607 110.3605102  41.1756178  31.9425643
 111.2808111  41.3534777  32.1365690 110.3254685  40.2312223  31.7905342
  99.5787267  36.3694771  20.8678918  99.2590051  35.5160079  20.5753292
  99.0320695  36.5843349  21.6236885 103.3567174  39.0857212  24.5848424
 103.5753184  40.0174320  24.6036458 103.7692948  38.7265187  25.3703228
 108.2295040  34.6590418  33.9751173 108.1291767  35.6084775  33.9063264
 108.0116582  34.3308657  33.1027243  99.4475527  39.9897683  22.8372039
  98.7538998  39.5751636  22.3241994 100.1948518  40.0318219  22.2405458
 108.0926310  38.0887557  32.7916235 107.6093391  38.8887917  32.9980124
 108.1787249  38.0995502  31.8383679 101.3612269  39.9215937  20.7138054
 101.3382957  40.0203624  19.7619937 101.6712906  40.7681087  21.0355220
 104.0199647  41.9792092  24.8284669 104.9742901  41.9476034  24.7614600
 103.8212171  41.5182715  25.6434894 104.6099029  40.5493208  27.3955466
 105.4291918  41.0437286  27.4190303 104.8835837  39.6325176  27.3673034
 102.3749876  47.5211711  21.8454866 102.2404344  46.7612112  21.2792864
 101.9581938  48.2452611  21.3783655 105.5319002  48.4181028  22.0573309
 105.4151386  49.3626461  21.9551999 104.7111448  48.1154590  22.4459108
  99.8633944  34.8831341  28.0947663 100.5092807  34.3730295  28.5834888
  99.6551095  35.6200023  28.6691089 112.3887336  41.9512189  33.5939804
 113.2578495  42.1252841  33.2326439 111.9094087  42.7706606  33.4715533
 106.5573516  49.0709290  25.2729237 107.4600763  49.1032900  25.5895732
 106.3310886  48.1409741  25.2875573 108.3127118  47.8240276  21.9339316
 107.3622749  47.8242138  21.8203688 108.6159604  47.0773011  21.4175351
 104.2031435  32.0298959  32.1922677 105.0662896  31.6735763  32.4026002
 103.6296845  31.6912853  32.8798082 120.8569518  53.6128243  22.9346603
 120.5188029  53.4969308  22.0467138 121.7259286  53.2119408  22.9147609
 116.7156334  55.4663719  18.9243494 116.1521199  55.3753656  18.1559782
 116.6008729  54.6463624  19.4045987 121.3389301  54.7663095  28.8932809
 121.3277942  54.3715893  28.0213312 121.5009940  54.0329167  29.4866580
 114.2620765  56.9614911  21.7627715 115.0542057  56.6205736  21.3474014
 114.5017416  57.0709886  22.6829868 116.2211519  56.2223824  14.6345093
 116.9942395  55.6752811  14.4957969 116.5736918  57.0868074  14.8459555
 118.0596562  57.5500207  27.8411993 117.7686428  58.4545837  27.7258659
 118.6953546  57.5916734  28.5556062 118.9852769  54.9277055  24.4313352
 119.5816341  54.7033077  23.7170315 119.0427740  54.1861801  25.0338800
 118.2774086  54.2844596  14.4687918 118.1610344  53.6089500  15.1369003
 118.3876346  53.7976970  13.6520071 120.6205627  53.7454743  18.1734607
 120.2563834  53.2185364  18.8847529 121.4772743  53.3553212  18.0001093
 116.4698929  53.6875419  20.8698491 115.5449425  53.5551633  21.0776183
 116.7183342  54.4669638  21.3668433 113.8307740  53.3308692  21.7042280
 113.9600121  53.5843171  22.6181692 113.1505191  53.9236400  21.3846935
 118.0007227  64.0005942  17.8032754 117.9231257  64.9513767  17.8821235
 117.3968870  63.6551815  18.4607680 120.4924457  51.1733808  30.4594121
 119.7157791  51.7327728  30.4496986 121.1315020  51.6590591  30.9808991
 118.7470829  53.9819261  30.0212088 119.4885513  54.5204305  29.7446912
 118.0407814  54.6085550  30.1783640 120.5757239  51.0621008  25.9917806
 121.4218434  51.4860422  26.1352455 120.5155876  50.4054633  26.6856370
 120.0982945  56.4224000  19.6386623 120.5621291  56.7011703  18.8491246
 119.8339743  55.5207445  19.4559714 116.9907026  55.9695482  22.5766387
 117.5608383  56.3982750  21.9383871 117.5815138  55.6878067  23.2750572
 119.0351831  52.5447153  16.4476189 119.7375874  52.9968196  16.9150115
 118.7032460  51.9030972  17.0756082 117.4832193  51.1358909  30.8227398
 116.8530853  51.8175190  31.0562795 117.3768281  51.0241991  29.8780536
 112.7777165  50.8030705  21.7493322 111.9876219  51.0588234  21.2733433
 113.2688412  51.6179043  21.8545363 114.7291910  51.1675285  18.7076799
 113.9323074  51.2793979  19.2260295 114.5017503  51.5061937  17.8417689
 120.5597578  57.6919988  26.6559313 120.6242011  58.1540395  27.4917485
 119.8508502  57.0617353  26.7841623 111.0614868  51.0561196  24.1808313
 111.3122906  51.9408206  24.4465889 111.5974416  50.8765797  23.4083405
 120.2745596  59.3588095  16.5238294 120.1391271  60.2039631  16.9523142
 120.8155408  59.5607373  15.7604228 116.7612935  45.4379675  33.1852649
 116.3679881  44.8845874  33.8600293 117.5779076  45.7490254  33.5759167
 113.7274993  56.8763533  17.0966219 114.2399514  57.6706784  17.2471784
 114.3797706  56.1789824  17.0299820 115.5369878  59.9929290  19.1788972
 115.7136506  60.9147254  18.9909956 116.3326711  59.6787709  19.6083352
 119.6780896  46.8537554  30.7772906 120.4190610  47.4544707  30.6977368
 119.9098819  46.1115192  30.2190948 114.8222234  52.0393922  29.0551135
 114.7075750  51.1379179  29.3558234 113.9666752  52.2857618  28.7035952
 116.6601193  61.5107463  25.1799314 117.2108618  61.3824527  24.4076308
 115.8212669  61.8102352  24.8294207 120.4568364  57.7758591  29.5243546
 120.9896701  57.0146879  29.2942853 119.9282445  57.4832243  30.2667700
 111.6923910  55.2052188  17.8725789 112.5299132  55.6149196  17.6559497
 111.8702178  54.2651630  17.8425983 118.9477486  45.3362042  22.0252602
 119.8130482  45.1404851  21.6658492 119.0154995  45.1072394  22.9521959
 121.8221077  56.9044584  17.0362358 121.2942439  56.1697343  16.7235595
 121.3208580  57.6819260  16.7902326 116.5539805  47.5664250  19.3968969
 117.1283557  47.3439432  18.6642162 117.1410787  47.6352945  20.1497570
 111.7150081  52.5442903  18.5436523 111.5174481  51.9512264  17.8187589
 111.1596745  52.2395113  19.2612462 119.6946805  52.4366009  20.6631116
 119.7495415  51.4839846  20.5873593 118.8838007  52.5925449  21.1472414
 117.6339165  51.0543069  18.4221495 116.8207030  51.3537240  18.8286687
 118.1298159  50.6598758  19.1395977 119.7847743  61.0500826  20.3555760
 119.7423921  61.2761672  19.4264292 120.7010441  60.8164201  20.5041561
 117.1253239  48.6261425  24.0382730 117.7652619  48.4850184  23.3405693
 116.2930770  48.3395938  23.6621332 117.9013543  57.9263855  20.1517722
 118.6954142  57.4314175  19.9500297 117.1905236  57.3981718  19.7885428
 114.2096307  52.0706937  16.2277475 113.2793895  52.0091392  16.4447437
 114.3053779  51.5482890  15.4314116 114.1281856  48.5961750  18.8155717
 114.3888673  49.5107083  18.7064877 114.9499028  48.1286192  18.9652329
 115.6006781  50.0099507  25.9854541 116.2729835  49.8016869  25.3367190
 114.7736568  49.8121593  25.5459773 121.5032353  46.6361448  28.0020202
 120.8560268  47.3351397  27.9084678 122.2733369  47.0697592  28.3696450
 120.4784819  58.4992877  23.8315559 120.3395905  58.1311662  24.7041497
 119.6899416  59.0140517  23.6599517 121.0732971  63.6001974  15.1741096
 121.2484727  63.1290017  15.9886719 120.3865759  64.2267740  15.4022357
 122.0290034  57.8774480  21.2204397 121.6939867  57.8375250  22.1162047
 121.5293980  57.2119196  20.7474807 116.0034278  53.2842110  26.7456978
 115.8654076  52.5522349  27.3468517 116.9139202  53.1951010  26.4641166
 118.6316579  52.9962069  26.2340658 119.3416198  52.3555261  26.1927276
 118.5885887  53.2474964  27.1566839 117.3445513  49.9827287  28.0536297
 116.8082870  49.5318026  28.7057894 116.7562222  50.1173196  27.3106762
 115.6394057  66.7491336  21.9480956 115.8790655  67.3809861  22.6259975
 114.7963253  66.3979376  22.2346315 108.2749912  54.2293098  20.7104268
 108.9620952  53.9154828  20.1225284 108.1198041  55.1334463  20.4371520
 113.0784634  49.1183295  25.1389292 112.9942823  48.5108964  24.4039702
 112.2567341  49.6092313  25.1398788 120.1521918  62.5570459  24.3522460
 120.0792090  63.3625430  24.8641765 119.7099312  62.7562425  23.5270481
 119.9411698  61.7942229  17.8625282 119.1579220  62.3363909  17.9563506
 120.6404443  62.3116208  18.2619523 119.8343317  49.7454241  20.2331172
 119.4641104  49.1925282  20.9212077 120.3302409  49.1412375  19.6806172
 117.6632515  60.2051736  27.3286190 118.3641975  60.8388219  27.4815584
 117.1927630  60.5466468  26.5681829 121.5121374  53.5016155  31.6404777
 120.8362011  53.4010284  32.3107152 122.3349008  53.3455369  32.1040774
 113.2600234  59.7388091  24.2617292 113.8453670  58.9931779  24.3945196
 113.0625072  60.0492048  25.1453956 116.1138889  62.7739339  19.2779735
 115.4449264  63.2585466  18.7943775 115.9751758  63.0208559  20.1923113
 107.8517888  52.3093692  22.9821735 107.8901988  51.7757282  23.7758853
 107.3458181  51.7828897  22.3632713 120.2544157  64.8083082  25.8762393
 120.8062465  64.9714704  26.6411478 120.5950351  65.3987520  25.2042418
 115.2308651  47.1558232  26.4784278 115.2949977  48.0173063  26.0661675
 115.1675771  46.5432234  25.7456636 114.7060923  49.2281365  30.1257312
 115.3332962  48.8458442  30.7394836 113.8488842  49.0095567  30.4913004
 111.4826466  51.0357794  16.0575667 111.7779907  50.1268472  16.0042720
 110.5814502  51.0145533  15.7356669 115.0120713  49.1113790  22.0403215
 114.2907299  49.7249758  21.9010689 115.8013969  49.6471555  21.9619861
 117.8147026  46.4468217  28.3143867 118.3381428  46.6930513  29.0770176
 117.5959360  47.2788252  27.8947004 113.2114307  48.7171891  16.1814992
 112.8827014  47.8369270  15.9990098 113.5653678  48.6619560  17.0691381
 116.3256131  49.0044861  16.5490470 116.6652203  49.5330782  15.8269078
 116.7728251  49.3425267  17.3249036 119.0199571  47.3881912  25.9993538
 118.6796392  46.5889725  26.4014218 118.3138578  47.6883623  25.4270371
 119.6716043  44.4731224  24.4520861 120.4942113  43.9991703  24.3299751
 119.9154107  45.2521708  24.9519547 117.1954622  51.1650345  22.2612839
 117.0499203  51.4790648  23.1537121 116.7179826  51.7835245  21.7083738
 119.0551005  48.1552893  22.3093729 119.0412574  47.2593986  21.9726027
 119.7723433  48.1623557  22.9432015 120.9077136  48.5890233  24.3546856
 120.6494913  49.5107304  24.3531187 120.3762176  48.1920668  25.0447320
 111.6700284  53.7055689  25.2000500 111.1253752  54.4815497  25.3320775
 112.5479634  54.0526494  25.0419622 118.4587901  47.0367273  17.5781299
 118.5803812  46.1083919  17.7772186 118.1689943  47.0505959  16.6659614
 112.4566306  52.8325586  28.0930657 111.7148042  52.9808221  28.6795288
 112.1359050  53.0933851  27.2297407 120.4009969  62.3741564  27.8911047
 120.7097095  62.1290711  28.7633747 121.1985451  62.5788202  27.4029918
 120.4230581  64.5279473  20.1216424 119.9835571  64.0355852  20.8149281
 121.1738698  63.9852441  19.8808499 112.9022920  60.7191014  20.1241052
 113.7280940  60.4194786  19.7439695 112.5516972  59.9498637  20.5730841
 117.8704453  60.0717483  22.1938726 117.2484462  59.4088188  21.8940953
 118.5409320  60.0978614  21.5112373 111.1031525  58.6377341  21.0829986
 110.2663433  58.2099515  20.9013987 111.0755170  58.8309784  22.0200777
 117.9428980  48.5499271  31.7871232 117.9917136  49.4261393  31.4049001
 118.4851495  48.0076664  31.2142875 117.4317960  58.6221406  15.6697186
 117.5806080  59.3056870  15.0163859 118.2384403  58.6026496  16.1846642
 120.1728269  49.3030643  28.5417590 119.3031578  49.5964209  28.2700179
 120.4087749  49.8871088  29.2624854 115.1870593  54.6486584  16.6758255
 114.9416635  53.7448914  16.8738465 115.3566507  54.6503734  15.7337733
 114.4566240  50.3814941  14.1744416 113.7635485  50.4559296  13.5184452
 114.2117992  49.6175285  14.6965933 120.9313365  61.1169536  13.1408934
 120.3587332  61.7359723  12.6879405 121.5046159  61.6668898  13.6748855
 121.1998856  56.5048095  31.9425643 122.1201866  56.6826694  32.1365690
 121.1648439  55.5604141  31.7905342 110.4181021  51.6986689  20.8678918
 110.0983806  50.8451997  20.5753292 109.8714450  51.9135267  21.6236885
 114.1960929  54.4149130  24.5848424 114.4146939  55.3466238  24.6036458
 114.6086703  54.0557104  25.3703228 119.0688794  49.9882336  33.9751173
 118.9685521  50.9376693  33.9063264 118.8510336  49.6600575  33.1027243
 110.2869281  55.3189600  22.8372039 109.5932753  54.9043553  22.3241994
 111.0342272  55.3610137  22.2405458 118.9320064  53.4179475  32.7916235
 118.4487146  54.2179835  32.9980124 119.0181003  53.4287419  31.8383679
 112.2006024  55.2507854  20.7138054 112.1776712  55.3495541  19.7619937
 112.5106660  56.0973005  21.0355220 114.8593402  57.3084009  24.8284669
 115.8136655  57.2767952  24.7614600 114.6605925  56.8474633  25.6434894
 115.4492784  55.8785125  27.3955466 116.2685673  56.3729204  27.4190303
 115.7229592  54.9617093  27.3673034 113.2143631  62.8503629  21.8454866
 113.0798098  62.0904030  21.2792864 112.7975693  63.5744529  21.3783655
 116.3712756  63.7472946  22.0573309 116.2545141  64.6918378  21.9551999
 115.5505203  63.4446507  22.4459108 110.7027698  50.2123259  28.0947663
 111.3486562  49.7022213  28.5834888 110.4944849  50.9491941  28.6691089
 117.3967271  64.4001208  25.2729237 118.2994517  64.4324818  25.5895732
 117.1704641  63.4701659  25.2875573 119.1520873  63.1532194  21.9339316
 118.2016504  63.1534056  21.8203688 119.4553359  62.4064929  21.4175351
 115.0425189  47.3590876  32.1922677 115.9056651  47.0027681  32.4026002
 114.4690600  47.0204771  32.8798082 121.9008623  66.3853113  24.1808313
 122.1516661  67.2700123  24.4465889 122.4368171  66.2057715  23.4083405
 119.1143667  69.5585016  20.7104268 119.8014706  69.2446746  20.1225284
 118.9591795  70.4626381  20.4371520 118.6911643  67.6385609  22.9821735
 118.7295742  67.1049200  23.7758853 118.1851936  67.1120815  22.3632713
 121.9425279  73.9669258  21.0829986 121.1057188  73.5391433  20.9013987
 121.9148925  74.1601702  22.0200777 121.2574776  67.0278607  20.8678918
 120.9377560  66.1743915  20.5753292 120.7108204  67.2427185  21.6236885
 121.1263036  70.6481518  22.8372039 120.4326507  70.2335471  22.3241994
 121.8736027  70.6902055  22.2405458 121.5421453  65.5415177  28.0947663
 122.1880316  65.0314131  28.5834888 121.3338604  66.2783858  28.6691089
   4.8121906  54.4874698 100.5011732   4.0585615  53.9182096 100.3455736
   4.9469447  54.4537363 101.4482366   1.6337654  54.4577449  98.4055398
   2.0768800  53.7084774  98.0074522   0.7564164  54.4487585  98.0229130
   1.1770519  55.9282687 100.7977846   2.0117410  56.3672491 100.9615406
   1.3129648  55.4521340  99.9786092   5.2228321  54.6450308 103.2331976
   5.9531710  54.3835596 103.7939679   4.6135267  53.9079030 103.2734044
   3.3043618  52.7858171 103.8306427   2.5776782  52.6514136 103.2222919
   2.8890905  53.0935000 104.6363145   0.9221413  49.0070023 101.1839859
   1.5165904  48.7665759 100.4733167   0.9947997  48.2877154 101.8113395
   3.2292486  52.3136224  99.9583280   2.6692044  52.3829413 100.7314842
   2.6235990  52.1377209  99.2382776   4.8148505  68.9892738 102.6513236
   5.4526915  68.8699485 101.9476576   4.6969348  69.9373582 102.7101188
   1.6238211  68.9420166 102.5874760   1.2856722  68.8261231 101.6995295
   2.4927979  68.5411331 102.5675766   3.0624585  74.4626610  93.8886116
   2.4112565  75.0480691  93.5020130   3.8568948  74.9932805  93.9481154
   4.3689773  66.7144192  99.7266444   5.1552862  66.2963615  99.3756861
   4.6328477  67.6190284  99.8948092   4.5399850  72.1517042  94.4255100
   3.9045683  72.2251669  95.1376005   4.2097257  72.7410641  93.7474180
   9.7698200  66.6519425 100.6299422  10.5023372  66.0818642 100.8637252
   9.0137556  66.2641025 101.0705928   1.3874320  69.0746666  97.8262765
   1.0232527  68.5477287  98.5375686   2.2441436  68.6845135  97.6529250
   7.2923621  60.3640999 105.0894031   6.9606945  61.2336410 104.8655246
   6.6969234  60.0477283 105.7688061   1.0279807  64.1036566  92.8224113
   1.1954209  64.9716803  93.1894584   0.8376976  64.2663848  91.8985402
   3.7855140  72.5653545 104.4889943   3.4855863  73.4678584 104.3805751
   3.4406200  72.2985728 105.3411096   7.1852284  65.0836085 102.1687381
   6.2769161  65.0151494 101.8746142   7.1339880  65.5608030 102.9969206
   9.0513930  63.2852524 103.9465255   8.4088311  63.5785057 103.3005049
   8.5468859  63.1705444 104.7518451   6.7054094  67.0315697  94.6351114
   7.6171950  67.2643084  94.4598812   6.1963741  67.6152741  94.0726193
   4.9894862  71.4540325 108.2712407   5.3978218  71.0122735 107.5267039
   4.2672123  70.8792952 108.5246599   1.3425932  66.3912931 105.6445963
   2.1887127  66.8152345 105.7880612   1.2824569  65.7346556 106.3384527
   5.3123676  72.0141515 102.0264695   4.6832539  72.1787229 101.3240763
   4.9249338  72.4283125 102.7975659   9.1912908  72.9495953  99.3809059
   8.5063946  73.3294854  98.8306093   9.2756757  73.5591280 100.1141007
   4.4925377  64.0517300 107.3027137   4.2486309  64.8059360 106.7661413
   4.7685308  64.4302647 108.1374384   6.4463840  70.5955912 105.9804403
   6.6580735  71.2387672 105.3038784   6.3993588  69.7618229 105.5126333
   4.0490069  63.2073733 102.8840975   3.1874548  63.5054986 103.1757712
   4.0752503  63.4244132 101.9522007   0.8651638  71.7515923  99.2914781
   1.3289984  72.0303626  98.5019403   0.6008436  70.8499368  99.1087871
   7.5609668  73.4727868 104.1526760   8.3827111  73.0708055 103.8709442
   7.5572071  73.3696102 105.1042876  15.6515661  69.8166616 100.5011732
  14.8979369  69.2474014 100.3455736  15.7863202  69.7829281 101.4482366
   1.0414289  74.6880018  96.1766451   0.9059964  75.5331554  96.6051299
   1.5824101  74.8899296  95.4132385   4.3906752  58.2110580 104.7065344
   4.0471022  59.1012222 104.6304455   4.7585715  58.0212238 103.8434929
   4.3557035  68.2019191  93.2137779   3.8403659  68.9723796  93.4526167
   4.0834344  67.5284327  93.8370841   1.9404146  63.0468892  98.2723018
   1.0845742  62.6575743  98.0928657   2.3531098  63.1260853  97.4122803
   3.4703293  60.5815235 102.6714578   2.9668088  60.5445371 101.8582383
   3.7633900  61.4907978 102.7311234   9.3291309  70.9551546  95.1490953
   8.5520752  70.6162705  94.7046115  10.0082790  70.9604169  94.4745918
   4.1443338  66.0746283  95.0397561   3.8393474  66.3892433  95.8907704
   5.0973780  66.1527703  95.0824894   2.5889770  72.2336507  96.6890515
   2.0611132  71.4989266  96.3763752   2.0877273  73.0111183  96.4430483
   7.5682616  70.4285527 101.8057561   6.9106291  71.1184789 101.8937690
   8.3723015  70.8181959 102.1491547   6.3788075  68.7829900  99.8561503
   6.8919957  69.4159892 100.3583212   7.0289299  68.1831095  99.4904863
   3.6410449  78.7614224  92.6122174   2.9672148  79.0645921  93.2207132
   4.0276271  79.5643305  92.2627631   2.8568906  66.2579355 102.1019843
   1.9391467  66.4794302 101.9441531   3.2729049  66.3325666 101.2431551
   3.6403954  67.6570771  97.2322523   4.3875773  68.1692168  96.9229646
   3.9095543  67.3354824  98.0926917   1.9130604  70.1529312  94.2149478
   1.0041823  69.8688345  94.3121947   1.9425688  70.5728390  93.3552785
   7.1449871  73.7635901  97.9840645   6.6912198  72.9226811  98.0405836
   6.5143838  74.3997300  98.3215425   6.0882791  64.6927887  99.2141313
   5.3505548  64.1805274  99.5451555   6.3409564  64.2528269  98.4024590
   5.5882810  75.6012398  98.9190463   5.8805785  76.1617455  98.2002829
   6.0981431  75.8940959  99.6743623   6.1894418  57.4704139  99.8083082
   6.4953295  56.6101503  99.5208997   6.9147023  58.0621760  99.6082076
   1.6106692  71.6938056  91.5537556   1.1726121  70.9773914  91.0943194
   2.3517132  71.9214170  90.9922648   0.5516436  76.3792749 100.0083917
   0.5092614  76.6053595  99.0792449   1.4679134  76.1456124 100.1569718
   3.9982069  66.8476817 106.9064546   4.3531457  67.0748290 107.7659012
   4.6454201  67.1795193 106.2841801   9.7279806  69.9695253  97.6113875
   9.5897705  70.1596849  96.6835064   9.3716025  70.7314635  98.0681926
   9.7549186  72.0371780 102.6225146  10.1885693  71.9447069 103.4708200
  10.4680767  72.0129280 101.9845162   3.4877081  75.6373874 104.1558247
   3.5414103  76.2064810 104.9235963   2.6191862  75.8075759 103.7912284
  10.6164736  72.0795480 105.1558032  10.8100626  72.9841291 105.4017307
  10.5165354  71.6202899 105.9896617   2.2701046  61.9653371 107.6548359
   1.6228961  62.6643320 107.5612836   3.0402062  62.3989515 108.0224607
   2.4465181  69.8034136 105.7145179   3.3757241  69.9545295 105.5414146
   2.0256211  69.8918157 104.8593825   1.8401664  78.9293897  94.8269253
   2.0153420  78.4581940  95.6414876   1.1534452  79.5559663  95.0550514
   2.7958728  73.2066403 100.8732554   2.4608560  73.1667173 101.7690204
   2.2962673  72.5411119 100.4002964   5.7317919  70.5522437  91.1469614
   5.1147090  69.8269265  91.0502667   5.2634408  71.3131797  90.8036688
   7.3872051  75.2621346 108.8075394   7.3284597  74.5780566 108.1405977
   7.7891569  76.0040336 108.3556020   7.3889458  73.2260929 107.0389374
   6.5016237  72.8886851 107.1615773   7.9588009  72.4943961 107.2758139
   4.0177041  62.9328781 100.1587644   4.5145741  62.1798744  99.8388714
   3.2464023  62.9693098  99.5930853  11.8706799  68.6369147 101.8005936
  11.8596675  69.5193862 101.4299869  11.0024178  68.2840698 101.6060473
   5.1006822  71.6900469  97.7326067   4.1663101  71.8101931  97.5630772
   5.2783490  70.7872935  97.4686077   8.4879373  67.5317788  98.2676102
   8.9539825  68.3645779  98.1936404   8.9386874  67.0662769  98.9721360
   6.5555604  73.8761609  95.2662254   6.8315448  73.7618204  96.1756128
   5.6860103  73.4779094  95.2274427   6.4596036  59.8998375 102.3067003
   5.5459116  60.1302602 102.4749210   6.8889137  59.9836819 103.1581035
   6.2302495  68.0888267 104.8066897   5.5773945  68.3364174 104.1519350
   6.6082874  67.2752405 104.4729374   3.1909668  78.1247960  98.9095067
   3.3732063  77.3069616  99.3722820   4.0142654  78.3415652  98.4719957
   3.5251834  77.0516145  96.1710116   4.0539600  76.5408600  95.5580278
   3.7880053  76.7358675  97.0355649   4.1581238  78.0856981 102.5154232
   4.0332377  77.2846721 102.0065178   4.8160329  78.5803174 102.0268202
   6.2216146  75.8866001 104.1433782   5.2746482  75.7671352 104.0712109
   6.5698919  74.9988499 104.2260044   3.2262579  75.6818717 100.3438135
   3.0787542  74.7535425 100.5245705   4.0516073  75.7038808  99.8595210
   6.8296701  76.5047276 101.4303007   7.7543249  76.2990137 101.2927458
   6.6612005  76.2563677 102.3392349   3.2224094  63.5356555  95.3370252
   3.4387708  64.4181193  95.0359080   2.7418161  63.1442768  94.6075894
   1.6745829  63.9182156 104.0075013   1.4163606  64.8399227 104.0059344
   1.1430869  63.5212591 104.6975477   6.6192017  77.0232943  96.7865099
   6.7928895  76.4579366  96.0338951   7.1120909  77.8233838  96.6044589
   2.0947784  60.0514107 100.3676176   2.1169481  60.1153440  99.4128155
   2.5115843  59.2118615 100.5616682  12.4731409  69.7869366  98.4055398
  12.9162555  69.0376691  98.0074522  11.5957919  69.7779503  98.0229130
   7.6067190  76.3399708  93.8861997   8.3018095  76.9606400  94.1049312
   7.9490340  75.4895059  94.1614375   9.5058613  73.7899413  95.4149328
  10.0309937  74.1286686  94.6898648   9.4180966  72.8546429  95.2312462
   1.1899274  79.8571397  99.7744581   0.7504264  79.3647775 100.4677438
   1.9407391  79.3144364  99.5336656   9.3150394  71.2724783 108.0333254
   9.3648399  71.1074791 108.9748777   9.2064317  70.4052042 107.6431135
   6.6054157  67.2555711 109.3492561   7.5064019  67.1162176 109.0576559
   6.6802131  67.4210166 110.2890738  10.8168591  73.6921725 108.2775276
  10.5253399  74.0551705 109.1138737  10.2040722  72.9788733 108.0988608
  12.0164273  71.2574605 100.7977846  12.8511165  71.6964409 100.9615406
  12.1523402  70.7813258  99.9786092   9.0655779  68.8154339 106.7455334
   9.5409901  69.0081986 105.9374185   8.1421345  68.8713525 106.4998717
   3.6435996  60.8502183 105.7111168   4.1617940  61.5863210 105.3857656
   3.2891128  61.1566176 106.5457927   3.8948590  57.2702465 101.2312064
   4.1750344  56.6025655 101.8572491   4.6799197  57.4631561 100.7186728
   1.6982058  76.4461459  92.7937091   1.1256025  77.0651647  92.3407562
   2.2714852  76.9960821  93.3277013   7.7657448  65.6920099 104.9783639
   8.7174871  65.7918197 104.9995863   7.5960899  64.8998368 105.4881724
   5.7871828  62.7775683 105.1643040   5.1921760  63.0580695 104.4689529
   5.5021524  63.2669584 105.9359781   4.9179318  76.7298610  93.9245673
   5.8509991  76.6644171  94.1278548   4.8302531  77.5654876  93.4660206
   7.5467335  76.0464480  90.8849620   7.4680966  75.7124343  91.7785378
   8.3677002  76.5386248  90.8841093  10.2445526  68.9126219 104.0925939
  10.2121846  67.9742220 104.2785623  10.8546150  68.9910256 103.3591764
   2.0828857  67.7822272  90.1353143   3.0287962  67.6528480  90.2041561
   1.7043102  67.0436934  90.6122571  10.3940014  65.7037263 104.1384222
   9.8779063  64.9195719 103.9514151  11.2779963  65.3755979 104.3030742
   8.0550741  59.4478278 100.0980035   7.8575563  59.1393366 100.9823367
   8.6650447  60.1739917 100.2277965  16.0622076  69.9742226 103.2331976
  16.7925464  69.7127514 103.7939679  15.4529021  69.2370948 103.2734044
  14.1437373  68.1150089 103.8306427  13.4170537  67.9806054 103.2222919
  13.7284660  68.4226917 104.6363145   1.8833840  60.2509138  96.2252270
   1.0734568  59.9056223  96.6007516   2.5718257  59.9416682  96.8139881
   3.8124388  59.3287185  97.8476566   4.3655427  59.7482638  98.5066589
   4.0494474  58.4022933  97.8899522   7.1903195  61.4387710  97.3555231
   6.6101864  62.0972514  96.9733283   6.9239128  60.6165055  96.9442648
   5.6406761  60.8392768  99.5576551   6.1406540  60.9509302  98.7490870
   6.2842369  60.5353821 100.1977359   5.9728073  63.5987801  96.4111579
   5.0853928  63.8837451  96.1931774   6.3882062  63.4381564  95.5638856
   9.3242609  63.6234322 100.1265918  10.1002999  64.1130774 100.3990535
   8.5990743  64.0492376 100.5837788  11.7615168  64.3361941 101.1839859
  12.3559659  64.0957677 100.4733167  11.8341752  63.6169071 101.8113395
   5.1171287  73.3632475  90.5059599   5.8207137  73.5682478  91.1217254
   4.3933935  73.9309237  90.7708682   5.9469097  69.1142337  96.6261869
   5.8904298  69.5710888  95.7869501   6.4997439  68.3533021  96.4484712
   9.7573903  64.9032068  97.4511988   9.5010837  64.5028704  98.2820196
   9.1326771  65.6175862  97.3262128  14.0686241  67.6428142  99.9583280
  13.5085799  67.7121331 100.7314842  13.4629744  67.4669126  99.2382776
   7.0257984  73.8015004  92.5558059   7.8603588  73.3696203  92.3735534
   6.8642327  73.6297018  93.4834953   6.6803876  70.3047118  93.9214398
   6.6252680  70.1391389  92.9802842   6.0549931  71.0123151  94.0776588
   3.8052121  56.3998003  97.7545653   3.0384517  55.8456490  97.9002336
   4.2162826  56.4719872  98.6159805  15.6542259  84.3184656 102.6513236
  16.2920669  84.1991403 101.9476576  15.5363102  85.2665500 102.7101188
  12.4631965  84.2712084 102.5874760  12.1250477  84.1553148 101.6995295
  13.3321734  83.8703249 102.5675766   8.3218781  86.1247560  98.5771651
   7.7583646  86.0337497  97.8087939   8.2071176  85.3047465  99.0574144
  13.9018340  89.7918528  93.8886116  13.2506320  90.3772608  93.5020130
  14.6962703  90.3224723  93.9481154   7.8273967  86.8807665  94.2873250
   8.6004843  86.3336652  94.1486126   8.1799366  87.7451914  94.4987712
  10.5915216  85.5860896 104.0841509  11.1878789  85.3616918 103.3698472
  10.6490188  84.8445641 104.6866957  10.1640245  83.0400331  91.9191700
  10.4165765  82.5181852  91.1575163   9.2264804  82.8766476  92.0218384
  15.2083528  82.0436109  99.7266444  15.9946617  81.6255533  99.3756861
  15.4722232  82.9482202  99.8948092  15.3793605  87.4808960  94.4255100
  14.7439438  87.5543586  95.1376005  15.0491011  88.0702559  93.7474180
  20.6091955  81.9811343 100.6299422  21.3417127  81.4110559 100.8637252
  19.8531310  81.5932943 101.0705928   9.8836534  84.9428437  94.1216075
   9.7672792  84.2673340  94.7897160   9.9938793  84.4560811  93.3048228
  12.2268074  84.4038584  97.8262765  11.8626282  83.8769205  98.5375686
  13.0835190  84.0137053  97.6529250  18.1317375  75.6932917 105.0894031
  17.8000700  76.5628328 104.8655246  17.5362988  75.3769201 105.7688061
  11.8673561  79.4328484  92.8224113  12.0347964  80.3008720  93.1894584
  11.6770730  79.5955766  91.8985402  14.6248895  87.8945463 104.4889943
  14.3249618  88.7970502 104.3805751  14.2799954  87.6277646 105.3411096
   8.0761376  84.3459260 100.5226648   7.1511873  84.2135474 100.7304340
   8.3245789  85.1253479 101.0196590  18.0246038  80.4128003 102.1687381
  17.1162916  80.3443411 101.8746142  17.9733634  80.8899948 102.9969206
  11.8462782  81.8886141  93.8070780  11.7262407  82.3343192  94.6456260
  11.1515371  82.2371459  93.2484318   9.6069674  94.6589783  97.4560911
   9.5293704  95.6097608  97.5349392   9.0031318  94.3135656  98.1135837
  19.8907685  78.6144441 103.9465255  19.2482065  78.9076974 103.3005049
  19.3862613  78.4997362 104.7518451  17.5447848  82.3607614  94.6351114
  18.4565705  82.5935001  94.4598812  17.0357496  82.9444659  94.0726193
  15.8288616  86.7832242 108.2712407  16.2371972  86.3414653 107.5267039
  15.1065878  86.2084870 108.5246599  12.1819686  81.7204849 105.6445963
  13.0280881  82.1444263 105.7880612  12.1218324  81.0638473 106.3384527
  16.1517431  87.3433433 102.0264695  15.5226293  87.5079147 101.3240763
  15.7643093  87.7575042 102.7975659  20.0306663  88.2787871  99.3809059
  19.3457701  88.6586772  98.8306093  20.1150512  88.8883197 100.1141007
  15.3319131  79.3809217 107.3027137  15.0880063  80.1351278 106.7661413
  15.6079062  79.7594565 108.1374384  17.2857594  85.9247830 105.9804403
  17.4974490  86.5679590 105.3038784  17.2387343  85.0910146 105.5126333
  14.8883823  78.5365650 102.8840975  14.0268302  78.8346904 103.1757712
  14.9146258  78.7536049 101.9522007  11.7045393  87.0807841  99.2914781
  12.1683738  87.3595544  98.5019403  11.4402191  86.1791286  99.1087871
   8.5969474  86.6279323 102.2294544   9.1670831  87.0566591 101.5912028
   9.1877586  86.3461907 102.9278729  10.6414279  83.2030993  96.1004346
  11.3438322  83.6552037  96.5678272  10.3094907  82.5614812  96.7284239
   4.3839613  81.4614546 101.4021479   3.5938667  81.7172075 100.9261590
   4.8750860  82.2762884 101.5073520  18.4003422  88.8019785 104.1526760
  19.2220866  88.3999973 103.8709442  18.3965825  88.6988019 105.1042876
   6.3354358  81.8259125  98.3604956   5.5385521  81.9377820  98.8788452
   6.1079950  82.1645778  97.4945846  26.4909415  85.1458534 100.5011732
  25.7373124  84.5765932 100.3455736  26.6256956  85.1121198 101.4482366
  11.8808043  90.0171936  96.1766451  11.7453718  90.8623472  96.6051299
  12.4217856  90.2191214  95.4132385   5.3337441  87.5347374  96.7494376
   5.8461961  88.3290624  96.8999941   5.9860154  86.8373665  96.6827977
   7.1432325  90.6513130  98.8317129   7.3198954  91.5731095  98.6438113
   7.9389159  90.3371550  99.2611509  11.2843344  77.5121395 110.4301063
  12.0253057  78.1128548 110.3505525  11.5161267  76.7699033 109.8719105
  15.2300507  73.5402498 104.7065344  14.8864776  74.4304140 104.6304455
  15.5979469  73.3504156 103.8434929   3.2986357  85.8636028  97.5253947
   4.1361579  86.2733037  97.3087654   3.4764625  84.9235471  97.4954140
  15.1950790  83.5311109  93.2137779  14.6797413  84.3015714  93.4526167
  14.9228098  82.8576245  93.8370841  12.7797901  78.3760810  98.2723018
  11.9239497  77.9867660  98.0928657  13.1924852  78.4552771  97.4122803
  14.3097047  75.9107153 102.6714578  13.8061843  75.8737288 101.8582383
  14.6027654  76.8199896 102.7311234  10.5539933  75.9945883 101.6780759
  11.4192930  75.7988691 101.3186649  10.6217442  75.7656235 102.6050116
  20.1685064  86.2843464  95.1490953  19.3914507  85.9454623  94.7046115
  20.8476545  86.2896087  94.4745918  14.9837093  81.4038201  95.0397561
  14.6787228  81.7184350  95.8907704  15.9367535  81.4819621  95.0824894
  13.4283525  87.5628424  96.6890515  12.9004886  86.8281184  96.3763752
  12.9271027  88.3403101  96.4430483  18.4076371  85.7577445 101.8057561
  17.7500045  86.4476706 101.8937690  19.2116770  86.1473877 102.1491547
   8.1602252  78.2248091  99.0497126   8.7346004  78.0023272  98.3170319
   8.7473235  78.2936785  99.8025727  17.2181829  84.1121818  99.8561503
  17.7313711  84.7451809 100.3583212  17.8683053  83.5123013  99.4904863
   8.4871839  80.2552552  93.0693011   7.6509152  80.5927238  93.3902286
   8.3476609  80.1201532  92.1320148  10.4624920  75.0989340  97.7772196
   9.8089332  74.7838357  97.1528810  10.4205394  74.4765080  98.5032019
  11.5736125  85.3808635  89.6925488  10.6663187  85.1497888  89.8916637
  12.0707157  84.5846254  89.8799469  14.4804204  94.0906142  92.6122174
  13.8065902  94.3937839  93.2207132  14.8670026  94.8935222  92.2627631
  13.6962660  81.5871273 102.1019843  12.7785222  81.8086220 101.9441531
  14.1122804  81.6617584 101.2431551  14.4797708  82.9862689  97.2322523
  15.2269527  83.4984086  96.9229646  14.7489298  82.6646742  98.0926917
  12.7524358  85.4821230  94.2149478  11.8435577  85.1980262  94.3121947
  12.7819442  85.9020308  93.3552785  17.9843626  89.0927819  97.9840645
  17.5305953  88.2518729  98.0405836  17.3537592  89.7289217  98.3215425
  16.9276545  80.0219805  99.2141313  16.1899302  79.5097191  99.5451555
  17.1803319  79.5820187  98.4024590  16.4276565  90.9304316  98.9190463
  16.7199539  91.4909373  98.2002829  16.9375185  91.2232877  99.6743623
  17.0288173  72.7996057  99.8083082  17.3347049  71.9393421  99.5208997
  17.7540777  73.3913677  99.6082076   3.3212529  83.2026744  98.1964680
   3.1236928  82.6096104  97.4715747   2.7659193  82.8978954  98.9140619
  11.3009252  83.0949850 100.3159273  11.3557862  82.1423687 100.2401750
  10.4900454  83.2509289 100.8000572  12.4500446  87.0229973  91.5537556
  12.0119876  86.3065832  91.0943194  13.1910887  87.2506088  90.9922648
   9.2401612  81.7126910  98.0749652   8.4269478  82.0121080  98.4814844
   9.7360606  81.3182599  98.7924134  11.3910190  91.7084667 100.0083917
  11.3486369  91.9345513  99.0792449  12.3072889  91.4748041 100.1569718
  14.8375824  82.1768734 106.9064546  15.1925212  82.4040208 107.7659012
  15.4847955  82.5087111 106.2841801  20.5673561  85.2987170  97.6113875
  20.4291459  85.4888766  96.6835064  20.2109780  86.0606553  98.0681926
   8.7315687  79.2845265 103.6910887   9.3715066  79.1434025 102.9933850
   7.8993218  78.9979779 103.3149489  20.5942940  87.3663697 102.6225146
  21.0279447  87.2738986 103.4708200  21.3074521  87.3421198 101.9845162
   9.5075991  88.5847696  99.8045879  10.3016589  88.0898016  99.6028454
   8.7967683  88.0565559  99.4413585  14.3270835  90.9665791 104.1558247
  14.3807858  91.5356728 104.9235963  13.4585617  91.1367676 103.7912284
   5.8158754  82.7290778  95.8805632   4.8856342  82.6675233  96.0975594
   5.9116226  82.2066730  95.0842273   5.7344303  79.2545590  98.4683874
   5.9951121  80.1690924  98.3593034   6.5561476  78.7870033  98.6180487
  21.4558490  87.4087398 105.1558032  21.6494380  88.3133208 105.4017307
  21.3559108  86.9494817 105.9896617  13.1094801  77.2945288 107.6548359
  12.4622716  77.9935238 107.5612836  13.8795816  77.7281432 108.0224607
  13.2858935  85.1326053 105.7145179  14.2150995  85.2837213 105.5414146
  12.8649965  85.2210074 104.8593825  12.0847267  89.1576718 103.4843716
  11.9458353  88.7895502 104.3569655  11.2961863  89.6724357 103.3127674
  12.6795419  94.2585814  94.8269253  12.8547175  93.7873857  95.6414876
  11.9928207  94.8851580  95.0550514  13.6352482  88.5358321 100.8732554
  13.3002315  88.4959090 101.7690204  13.1356428  87.8703036 100.4002964
  16.5711674  85.8814355  91.1469614  15.9540844  85.1561183  91.0502667
  16.1028162  86.6423715  90.8036688  18.2265805  90.5913263 108.8075394
  18.1678351  89.9072483 108.1405977  18.6285324  91.3332253 108.3556020
   8.3610220  80.0999779  90.2690918   7.4839686  79.9788580  89.9053165
   8.8367973  79.3085857  90.0169807  18.2283213  88.5552847 107.0389374
  17.3409991  88.2178769 107.1615773  18.7981764  87.8235878 107.2758139
  11.5474146  92.4526070  97.5153439  10.7641667  92.9947750  97.6091663
  12.2466891  92.9700049  97.9147680  14.8570796  78.2620699 100.1587644
  15.3539495  77.5090661  99.8388714  14.0857777  78.2985016  99.5930853
  22.7100553  83.9661065 101.8005936  22.6990429  84.8485780 101.4299869
  21.8417933  83.6132615 101.6060473  15.9400576  87.0192386  97.7326067
  15.0056855  87.1393849  97.5630772  16.1177245  86.1164853  97.4686077
  11.4405764  80.4038082  99.8859329  11.0703552  79.8509122 100.5740234
  11.9364857  79.7996215  99.3334329  19.3273128  82.8609705  98.2676102
  19.7933580  83.6937697  98.1936404  19.7780628  82.3954687  98.9721360
  17.3949359  89.2053527  95.2662254  17.6709203  89.0910121  96.1756128
  16.5253858  88.8071012  95.2274427  17.2989791  75.2290292 102.3067003
  16.3852870  75.4594519 102.4749210  17.7282892  75.3128737 103.1581035
  17.0696249  83.4180184 104.8066897  16.4167699  83.6656092 104.1519350
  17.4476629  82.6044323 104.4729374  14.0303423  93.4539878  98.9095067
  14.2125817  92.6361534  99.3722820  14.8536409  93.6707570  98.4719957
  14.3645588  92.3808063  96.1710116  14.8933355  91.8700517  95.5580278
  14.6273808  92.0650593  97.0355649   6.8371098  77.8142073 106.1312435
   6.9012425  78.6756904 105.7189832   6.7738218  77.2016074 105.3984793
   3.0888913  81.6941634  95.7103824   3.3842354  80.7852313  95.6570878
   2.1876949  81.6729374  95.3884826  14.9974992  93.4148898 102.5154232
  14.8726132  92.6138638 102.0065178  15.6554083  93.9095092 102.0268202
   6.6183160  79.7697631 101.6931372   5.8969746  80.3833599 101.5538846
   7.4076416  80.3055396 101.6148018  17.0609901  91.2157919 104.1433782
  16.1140236  91.0963270 104.0712109  17.4092674  90.3280417 104.2260044
   9.4209474  77.1052057 107.9672024   9.9443876  77.3514354 108.7298334
   9.2021807  77.9372092 107.5475162   4.8176755  79.3755732  95.8343149
   4.4889461  78.4953111  95.6518255   5.1716126  79.3203401  96.7219538
  14.0656334  91.0110635 100.3438135  13.9181296  90.0827342 100.5245705
  14.8909827  91.0330725  99.8595210   7.9318578  79.6628702  96.2018627
   8.2714651  80.1914623  95.4797235   8.3790699  80.0009108  96.9777193
  17.6690456  91.8339194 101.4303007  18.5937003  91.6282055 101.2927458
  17.5005759  91.5855595 102.3392349  10.6262019  78.0465753 105.6521695
  10.2858839  77.2473566 106.0542375   9.9201025  78.3467463 105.0798528
  11.2778491  75.1315065 104.1049018  12.1004560  74.6575543 103.9827908
  11.5216554  75.9105549 104.6047704   9.9186725  78.1603323  94.4011919
  10.6395088  78.5384576  93.8975636   9.2952029  78.8792200  94.5046897
  14.0617848  78.8648472  95.3370252  14.2781463  79.7473110  95.0359080
  13.5811915  78.4734686  94.6075894   8.8017070  81.8234186 101.9140996
   8.6561650  82.1374489 102.8065278   8.3242273  82.4419086 101.3611895
  10.6613452  78.8136734 101.9621886  10.6475021  77.9177827 101.6254184
  11.3785881  78.8207397 102.5960172  12.5139583  79.2474074 104.0075013
  12.2557361  80.1691144 104.0059344  11.9824624  78.8504508 104.6975477
  17.4585772  92.3524861  96.7865099  17.6322649  91.7871283  96.0338951
  17.9514663  93.1525756  96.6044589  10.0650348  77.6951114  97.2309456
  10.1866260  76.7667760  97.4300344   9.7752391  77.7089800  96.3187771
  12.9341539  75.3806024 100.3676176  12.9563236  75.4445357  99.4128155
  13.3509598  74.5410533 100.5616682  23.3125163  85.1161284  98.4055398
  23.7556309  84.3668609  98.0074522  22.4351673  85.1071420  98.0229130
  18.4460944  91.6691625  93.8861997  19.1411849  92.2898318  94.1049312
  18.7884095  90.8186977  94.1614375  20.3452368  89.1191331  95.4149328
  20.8703692  89.4578604  94.6898648  20.2574720  88.1838346  95.2312462
  12.0293028  95.1863314  99.7744581  11.5898019  94.6939693 100.4677438
  12.7801145  94.6436282  99.5336656  20.1544149  86.6016701 108.0333254
  20.2042154  86.4366708 108.9748777  20.0458072  85.7343960 107.6431135
   9.0380407  89.2805247  95.3225343   9.1868528  89.9640711  94.6692016
   9.8446851  89.2610337  95.8374799  17.4447911  82.5847629 109.3492561
  18.3457774  82.4454094 109.0576559  17.5195886  82.7502084 110.2890738
  11.7790716  79.9614484 108.1945747  10.9094026  80.2548050 107.9228336
  12.0150197  80.5454929 108.9153011  21.6562345  89.0213642 108.2775276
  21.3647154  89.3843623 109.1138737  21.0434477  88.3080651 108.0988608
  22.8558028  86.5866522 100.7977846  23.6904919  87.0256326 100.9615406
  22.9917157  86.1105175  99.9786092  19.9049534  84.1446257 106.7455334
  20.3803655  84.3373903 105.9374185  18.9815099  84.2005443 106.4998717
   6.7933040  85.3070424  96.3286412   6.5479082  84.4032754  96.5266622
   6.9628955  85.3087575  95.3865890  14.4829750  76.1794101 105.7111168
  15.0011694  76.9155128 105.3857656  14.1284883  76.4858094 106.5457927
   6.0628688  81.0398782  93.8272574   5.3697933  81.1143137  93.1712610
   5.8180440  80.2759125  94.3494090  14.7342344  72.5994383 101.2312064
  15.0144098  71.9317572 101.8572491  15.5192951  72.7923479 100.7186728
  12.5375813  91.7753377  92.7937091  11.9649780  92.3943564  92.3407562
  13.1108607  92.3252739  93.3277013  18.6051203  81.0212017 104.9783639
  19.5568626  81.1210115 104.9995863  18.4354653  80.2290286 105.4881724
  16.6265582  78.1067600 105.1643040  16.0315514  78.3872613 104.4689529
  16.3415279  78.5961501 105.9359781  15.7573073  92.0590527  93.9245673
  16.6903746  91.9936089  94.1278548  15.6696285  92.8946794  93.4660206
  18.3861089  91.3756398  90.8849620  18.3074721  91.0416261  91.7785378
  19.2070756  91.8678165  90.8841093  21.0839280  84.2418137 104.0925939
  21.0515601  83.3034138 104.2785623  21.6939904  84.3202174 103.3591764
  12.9222611  83.1114190  90.1353143  13.8681716  82.9820398  90.2041561
  12.5436856  82.3728852  90.6122571  21.2333769  81.0329180 104.1384222
  20.7172818  80.2487637 103.9514151  22.1173718  80.7047897 104.3030742
  18.8944496  74.7770196 100.0980035  18.6969317  74.4685284 100.9823367
  19.5044201  75.5031835 100.2277965  26.9015830  85.3034144 103.2331976
  27.6319219  85.0419432 103.7939679  26.2922776  84.5662866 103.2734044
  24.9831127  83.4442006 103.8306427  24.2564291  83.3097971 103.2222919
  24.5678414  83.7518835 104.6363145  11.1065529  81.0364166  90.0708028
  10.1996984  80.7397279  90.1470742  11.3841510  80.7393984  89.2042315
  12.7227594  75.5801056  96.2252270  11.9128323  75.2348141  96.6007516
  13.4112011  75.2708600  96.8139881  14.6518143  74.6579103  97.8476566
  15.2049181  75.0774556  98.5066589  14.8888229  73.7314851  97.8899522
   9.8764313  77.8951101  90.2120008  10.7383477  78.2206000  90.4715825
  10.0614657  77.1082597  89.6993073  18.0296950  76.7679628  97.3555231
  17.4495619  77.4264432  96.9733283  17.7632882  75.9456972  96.9442648
  16.4800516  76.1684686  99.5576551  16.9800294  76.2801220  98.7490870
  17.1236124  75.8645738 100.1977359  16.8121828  78.9279718  96.4111579
  15.9247683  79.2129369  96.1931774  17.2275817  78.7673482  95.5638856
  20.1636364  78.9526239 100.1265918  20.9396754  79.4422692 100.3990535
  19.4384498  79.3784293 100.5837788  22.6008922  79.6653858 101.1839859
  23.1953413  79.4249594 100.4733167  22.6735506  78.9460989 101.8113395
  15.9565041  88.6924393  90.5059599  16.6600891  88.8974395  91.1217254
  15.2327690  89.2601155  90.7708682  16.7862851  84.4434254  96.6261869
  16.7298053  84.9002806  95.7869501  17.3391194  83.6824939  96.4484712
  20.5967657  80.2323986  97.4511988  20.3404592  79.8320622  98.2820196
  19.9720525  80.9467780  97.3262128  24.9079995  82.9720059  99.9583280
  24.3479553  83.0413249 100.7314842  24.3023499  82.7961044  99.2382776
  17.8651738  89.1306922  92.5558059  18.6997342  88.6988121  92.3735534
  17.7036081  88.9588936  93.4834953  17.5197631  85.6339035  93.9214398
  17.4646434  85.4683307  92.9802842  16.8943686  86.3415068  94.0776588
  10.8293756  75.1347144  93.4999717  10.8172426  76.0788984  93.6567987
  11.7217178  74.9517290  93.2059178  14.6445876  71.7289921  97.7545653
  13.8778271  71.1748408  97.9002336  15.0556581  71.8011790  98.6159805
  26.4936014  99.6476573 102.6513236  27.1314424  99.5283321 101.9476576
  26.3756856 100.5957417 102.7101188  23.3025720  99.6004001 102.5874760
  22.9644231  99.4845066 101.6995295  24.1715488  99.1995166 102.5675766
  19.1612536 101.4539478  98.5771651  18.5977401 101.3629415  97.8087939
  19.0464931 100.6339382  99.0574144  24.7412094 105.1210445  93.8886116
  24.0900074 105.7064526  93.5020130  25.5356457 105.6516640  93.9481154
  18.6667721 102.2099583  94.2873250  19.4398597 101.6628570  94.1486126
  19.0193120 103.0743832  94.4987712  21.4308971 100.9152813 104.0841509
  22.0272543 100.6908836 103.3698472  21.4883942 100.1737559 104.6866957
  21.0033999  98.3692249  91.9191700  21.2559520  97.8473770  91.1575163
  20.0658558  98.2058394  92.0218384  26.0477282  97.3728027  99.7266444
  26.8340371  96.9547450  99.3756861  26.3115986  98.2774119  99.8948092
  26.2187359 102.8100877  94.4255100  25.5833192 102.8835504  95.1376005
  25.8884766 103.3994476  93.7474180  31.4485709  97.3103260 100.6299422
  32.1810881  96.7402477 100.8637252  30.6925065  96.9224861 101.0705928
  20.7230288 100.2720355  94.1216075  20.6066546  99.5965258  94.7897160
  20.8332548  99.7852729  93.3048228  23.0661829  99.7330502  97.8262765
  22.7020036  99.2061123  98.5375686  23.9228945  99.3428971  97.6529250
  28.9711130  91.0224834 105.0894031  28.6394454  91.8920245 104.8655246
  28.3756743  90.7061118 105.7688061  22.7067316  94.7620401  92.8224113
  22.8741718  95.6300638  93.1894584  22.5164485  94.9247683  91.8985402
  25.4642649 103.2237380 104.4889943  25.1643372 104.1262419 104.3805751
  25.1193709 102.9569564 105.3411096  18.9155131  99.6751177 100.5226648
  17.9905627  99.5427391 100.7304340  19.1639544 100.4545396 101.0196590
  28.8639793  95.7419921 102.1687381  27.9556670  95.6735329 101.8746142
  28.8127389  96.2191866 102.9969206  22.6856537  97.2178059  93.8070780
  22.5656162  97.6635110  94.6456260  21.9909125  97.5663377  93.2484318
  20.4463429 109.9881701  97.4560911  20.3687459 110.9389526  97.5349392
  19.8425072 109.6427573  98.1135837  30.7301439  93.9436359 103.9465255
  30.0875820  94.2368892 103.3005049  30.2256368  93.8289279 104.7518451
  28.3841603  97.6899532  94.6351114  29.2959459  97.9226919  94.4598812
  27.8751250  98.2736576  94.0726193  26.6682371 102.1124160 108.2712407
  27.0765727 101.6706571 107.5267039  25.9459632 101.5376788 108.5246599
  23.0213441  97.0496767 105.6445963  23.8674636  97.4736180 105.7880612
  22.9612078  96.3930391 106.3384527  26.9911185 102.6725351 102.0264695
  26.3620048 102.8371065 101.3240763  26.6036847 103.0866960 102.7975659
  30.8700417 103.6079788  99.3809059  30.1851455 103.9878690  98.8306093
  30.9544266 104.2175115 100.1141007  26.1712886  94.7101135 107.3027137
  25.9273818  95.4643196 106.7661413  26.4472816  95.0886483 108.1374384
  28.1251349 101.2539747 105.9804403  28.3368244 101.8971507 105.3038784
  28.0781097 100.4202064 105.5126333  25.7277578  93.8657568 102.8840975
  24.8662057  94.1638822 103.1757712  25.7540012  94.0827967 101.9522007
  22.5439147 102.4099759  99.2914781  23.0077493 102.6887462  98.5019403
  22.2795945 101.5083203  99.1087871  19.4363228 101.9571240 102.2294544
  20.0064585 102.3858509 101.5912028  20.0271340 101.6753825 102.9278729
  21.4808033  98.5322911  96.1004346  22.1832077  98.9843955  96.5678272
  21.1488662  97.8906730  96.7284239  15.2233367  96.7906464 101.4021479
  14.4332421  97.0463992 100.9261590  15.7144615  97.6054802 101.5073520
  29.2397177 104.1311703 104.1526760  30.0614620 103.7291890 103.8709442
  29.2359580 104.0279937 105.1042876  17.1748113  97.1551043  98.3604956
  16.3779276  97.2669737  98.8788452  16.9473705  97.4937695  97.4945846
  37.3303170 100.4750451 100.5011732  36.5766878  99.9057849 100.3455736
  37.4650711 100.4413116 101.4482366  22.7201798 105.3463854  96.1766451
  22.5847473 106.1915389  96.6051299  23.2611610 105.5483131  95.4132385
  16.1731195 102.8639292  96.7494376  16.6855716 103.6582542  96.8999941
  16.8253908 102.1665582  96.6827977  17.9826080 105.9805048  98.8317129
  18.1592708 106.9023013  98.6438113  18.7782913 105.6663467  99.2611509
  22.1237098  92.8413313 110.4301063  22.8646812  93.4420466 110.3505525
  22.3555021  92.0990950 109.8719105  26.0694261  88.8694416 104.7065344
  25.7258531  89.7596057 104.6304455  26.4373224  88.6796073 103.8434929
  14.1380112 101.1927946  97.5253947  14.9755334 101.6024954  97.3087654
  14.3158380 100.2527388  97.4954140  26.0344544  98.8603027  93.2137779
  25.5191168  99.6307631  93.4526167  25.7621853  98.1868163  93.8370841
  23.6191655  93.7052727  98.2723018  22.7633251  93.3159578  98.0928657
  24.0318607  93.7844688  97.4122803  25.1490802  91.2399071 102.6714578
  24.6455597  91.2029206 101.8582383  25.4421409  92.1491813 102.7311234
  21.3933688  91.3237800 101.6780759  22.2586684  91.1280609 101.3186649
  21.4611197  91.0948152 102.6050116  31.0078818 101.6135381  95.1490953
  30.2308261 101.2746541  94.7046115  31.6870299 101.6188004  94.4745918
  25.8230847  96.7330119  95.0397561  25.5180983  97.0476268  95.8907704
  26.7761289  96.8111539  95.0824894  24.2677279 102.8920342  96.6890515
  23.7398641 102.1573102  96.3763752  23.7664782 103.6695018  96.4430483
  29.2470125 101.0869363 101.8057561  28.5893800 101.7768624 101.8937690
  30.0510524 101.4765795 102.1491547  18.9996007  93.5540008  99.0497126
  19.5739759  93.3315190  98.3170319  19.5866989  93.6228703  99.8025727
  28.0575584  99.4413735  99.8561503  28.5707466 100.0743727 100.3583212
  28.7076808  98.8414931  99.4904863  19.3265594  95.5844469  93.0693011
  18.4902906  95.9219156  93.3902286  19.1870363  95.4493449  92.1320148
  21.3018674  90.4281257  97.7772196  20.6483087  90.1130274  97.1528810
  21.2599149  89.8056998  98.5032019  22.4129879 100.7100552  89.6925488
  21.5056941 100.4789806  89.8916637  22.9100911  99.9138172  89.8799469
  25.3197958 109.4198060  92.6122174  24.6459657 109.7229756  93.2207132
  25.7063780 110.2227140  92.2627631  24.5356415  96.9163191 102.1019843
  23.6178976  97.1378138 101.9441531  24.9516558  96.9909501 101.2431551
  25.3191463  98.3154607  97.2322523  26.0663281  98.8276004  96.9229646
  25.5883052  97.9938659  98.0926917  23.5918113 100.8113147  94.2149478
  22.6829332 100.5272180  94.3121947  23.6213197 101.2312226  93.3552785
  28.8237380 104.4219737  97.9840645  28.3699707 103.5810647  98.0405836
  28.1931347 105.0581135  98.3215425  27.7670300  95.3511723  99.2141313
  27.0293057  94.8389109  99.5451555  28.0197073  94.9112104  98.4024590
  27.2670319 106.2596233  98.9190463  27.5593294 106.8201291  98.2002829
  27.7768940 106.5524794  99.6743623  27.8681927  88.1287975  99.8083082
  28.1740804  87.2685338  99.5208997  28.5934532  88.7205595  99.6082076
  14.1606283  98.5318661  98.1964680  13.9630683  97.9388022  97.4715747
  13.6052947  98.2270872  98.9140619  22.1403007  98.4241768 100.3159273
  22.1951617  97.4715604 100.2401750  21.3294209  98.5801207 100.8000572
  23.2894201 102.3521891  91.5537556  22.8513630 101.6357750  91.0943194
  24.0304641 102.5798006  90.9922648  20.0795367  97.0418828  98.0749652
  19.2663232  97.3412998  98.4814844  20.5754361  96.6474516  98.7924134
  22.2303945 107.0376585 100.0083917  22.1880123 107.2637431  99.0792449
  23.1466643 106.8039959 100.1569718  25.6769578  97.5060652 106.9064546
  26.0318966  97.7332125 107.7659012  26.3241710  97.8379029 106.2841801
  31.4067315 100.6279088  97.6113875  31.2685214 100.8180684  96.6835064
  31.0503534 101.3898471  98.0681926  19.5709441  94.6137183 103.6910887
  20.2108821  94.4725942 102.9933850  18.7386972  94.3271696 103.3149489
  31.4336695 102.6955615 102.6225146  31.8673202 102.6030904 103.4708200
  32.1468276 102.6713115 101.9845162  20.3469745 103.9139614  99.8045879
  21.1410344 103.4189934  99.6028454  19.6361438 103.3857477  99.4413585
  25.1664590 106.2957709 104.1558247  25.2201612 106.8648645 104.9235963
  24.2979371 106.4659594 103.7912284  16.6552509  98.0582695  95.8805632
  15.7250097  97.9967151  96.0975594  16.7509981  97.5358648  95.0842273
  16.5738058  94.5837508  98.4683874  16.8344875  95.4982841  98.3593034
  17.3955230  94.1161951  98.6180487  32.2952244 102.7379316 105.1558032
  32.4888135 103.6425126 105.4017307  32.1952863 102.2786735 105.9896617
  23.9488555  92.6237206 107.6548359  23.3016470  93.3227156 107.5612836
  24.7189571  93.0573350 108.0224607  24.1252690 100.4617971 105.7145179
  25.0544750 100.6129131 105.5414146  23.7043720 100.5501992 104.8593825
  22.9241021 104.4868636 103.4843716  22.7852107 104.1187420 104.3569655
  22.1355618 105.0016275 103.3127674  23.5189173 109.5877732  94.8269253
  23.6940929 109.1165775  95.6414876  22.8321961 110.2143498  95.0550514
  24.4746236 103.8650238 100.8732554  24.1396069 103.8251008 101.7690204
  23.9750182 103.1994954 100.4002964  27.4105428 101.2106273  91.1469614
  26.7934599 100.4853101  91.0502667  26.9421917 101.9715633  90.8036688
  29.0659560 105.9205181 108.8075394  29.0072106 105.2364401 108.1405977
  29.4679078 106.6624171 108.3556020  19.2003974  95.4291697  90.2690918
  18.3233440  95.3080498  89.9053165  19.6761727  94.6377775  90.0169807
  29.0676967 103.8844765 107.0389374  28.1803746 103.5470687 107.1615773
  29.6375518 103.1527796 107.2758139  22.3867900 107.7817987  97.5153439
  21.6035422 108.3239667  97.6091663  23.0860645 108.2991967  97.9147680
  25.6964550  93.5912617 100.1587644  26.1933250  92.8382579  99.8388714
  24.9251532  93.6276933  99.5930853  33.5494308  99.2952982 101.8005936
  33.5384184 100.1777698 101.4299869  32.6811687  98.9424533 101.6060473
  26.7794331 102.3484304  97.7326067  25.8450610 102.4685766  97.5630772
  26.9570999 101.4456771  97.4686077  22.2799519  95.7330000  99.8859329
  21.9097306  95.1801040 100.5740234  22.7758611  95.1288133  99.3334329
  30.1666882  98.1901623  98.2676102  30.6327334  99.0229615  98.1936404
  30.6174383  97.7246605  98.9721360  28.2343113 104.5345444  95.2662254
  28.5102957 104.4202039  96.1756128  27.3647612 104.1362929  95.2274427
  28.1383545  90.5582210 102.3067003  27.2246625  90.7886437 102.4749210
  28.5676646  90.6420654 103.1581035  27.9090003  98.7472102 104.8066897
  27.2561454  98.9948010 104.1519350  28.2870383  97.9336240 104.4729374
  24.8697177 108.7831795  98.9095067  25.0519572 107.9653451  99.3722820
  25.6930163 108.9999488  98.4719957  25.2039343 107.7099980  96.1710116
  25.7327109 107.1992435  95.5580278  25.4667562 107.3942511  97.0355649
  17.6764853  93.1433990 106.1312435  17.7406179  94.0048821 105.7189832
  17.6131973  92.5307992 105.3984793  13.9282668  97.0233552  95.7103824
  14.2236109  96.1144230  95.6570878  13.0270704  97.0021292  95.3884826
  25.8368747 108.7440816 102.5154232  25.7119886 107.9430556 102.0065178
  26.4947838 109.2387010 102.0268202  17.4576915  95.0989549 101.6931372
  16.7363501  95.7125516 101.5538846  18.2470171  95.6347313 101.6148018
  27.9003655 106.5449836 104.1433782  26.9533991 106.4255187 104.0712109
  28.2486428 105.6572334 104.2260044  20.2603228  92.4343975 107.9672024
  20.7837630  92.6806272 108.7298334  20.0415562  93.2664010 107.5475162
  15.6570509  94.7047650  95.8343149  15.3283216  93.8245029  95.6518255
  16.0109880  94.6495318  96.7219538  24.9050088 106.3402552 100.3438135
  24.7575051 105.4119260 100.5245705  25.7303582 106.3622643  99.8595210
  18.7712333  94.9920620  96.2018627  19.1108405  95.5206541  95.4797235
  19.2184453  95.3301026  96.9777193  28.5084210 107.1631111 101.4303007
  29.4330758 106.9573973 101.2927458  28.3399514 106.9147512 102.3392349
  21.4655773  93.3757670 105.6521695  21.1252594  92.5765483 106.0542375
  20.7594780  93.6759381 105.0798528  22.1172245  90.4606983 104.1049018
  22.9398315  89.9867461 103.9827908  22.3610309  91.2397466 104.6047704
  20.7580480  93.4895241  94.4011919  21.4788842  93.8676494  93.8975636
  20.1345784  94.2084118  94.5046897  24.9011603  94.1940390  95.3370252
  25.1175217  95.0765028  95.0359080  24.4205670  93.8026604  94.6075894
  19.6410824  97.1526103 101.9140996  19.4955405  97.4666406 102.8065278
  19.1636028  97.7711004 101.3611895  21.5007207  94.1428651 101.9621886
  21.4868776  93.2469745 101.6254184  22.2179635  94.1499315 102.5960172
  23.3533338  94.5765992 104.0075013  23.0951115  95.4983062 104.0059344
  22.8218378  94.1796426 104.6975477  28.2979526 107.6816779  96.7865099
  28.4716404 107.1163201  96.0338951  28.7908418 108.4817674  96.6044589
  20.9044103  93.0243032  97.2309456  21.0260014  92.0959678  97.4300344
  20.6146145  93.0381718  96.3187771  23.7735293  90.7097942 100.3676176
  23.7956990  90.7737275  99.4128155  24.1903352  89.8702451 100.5616682
  34.1518918 100.4453202  98.4055398  34.5950064  99.6960527  98.0074522
  33.2745428 100.4363338  98.0229130  29.2854699 106.9983543  93.8861997
  29.9805604 107.6190236  94.1049312  29.6277849 106.1478894  94.1614375
  31.1846122 104.4483249  95.4149328  31.7097446 104.7870521  94.6898648
  31.0968475 103.5130264  95.2312462  22.8686783 110.5155232  99.7744581
  22.4291773 110.0231611 100.4677438  23.6194900 109.9728200  99.5336656
  30.9937903 101.9308619 108.0333254  31.0435908 101.7658626 108.9748777
  30.8851826 101.0635878 107.6431135  19.8774162 104.6097164  95.3225343
  20.0262282 105.2932629  94.6692016  20.6840605 104.5902254  95.8374799
  28.2841666  97.9139547 109.3492561  29.1851528  97.7746011 109.0576559
  28.3589640  98.0794001 110.2890738  22.6184471  95.2906401 108.1945747
  21.7487780  95.5839967 107.9228336  22.8543951  95.8746846 108.9153011
  32.4956100 104.3505560 108.2775276  32.2040908 104.7135541 109.1138737
  31.8828231 103.6372568 108.0988608  33.6951782 101.9158440 100.7977846
  34.5298674 102.3548244 100.9615406  33.8310911 101.4397093  99.9786092
  30.7443288  99.4738175 106.7455334  31.2197410  99.6665821 105.9374185
  29.8208854  99.5297361 106.4998717  17.6326795 100.6362342  96.3286412
  17.3872837  99.7324672  96.5266622  17.8022709 100.6379492  95.3865890
  25.3223505  91.5086018 105.7111168  25.8405449  92.2447045 105.3857656
  24.9678637  91.8150012 106.5457927  16.9022442  96.3690699  93.8272574
  16.2091687  96.4435054  93.1712610  16.6574194  95.6051043  94.3494090
  25.5736099  87.9286301 101.2312064  25.8537853  87.2609490 101.8572491
  26.3586706  88.1215396 100.7186728  23.3769567 107.1045295  92.7937091
  22.8043534 107.7235482  92.3407562  23.9502361 107.6544656  93.3277013
  29.4444957  96.3503935 104.9783639  30.3962380  96.4502032 104.9995863
  29.2748408  95.5582203 105.4881724  27.4659337  93.4359518 105.1643040
  26.8709269  93.7164531 104.4689529  27.1809033  93.9253419 105.9359781
  26.5966827 107.3882445  93.9245673  27.5297500 107.3228007  94.1278548
  26.5090040 108.2238712  93.4660206  29.2254844 106.7048315  90.8849620
  29.1468475 106.3708179  91.7785378  30.0464511 107.1970083  90.8841093
  31.9233035  99.5710055 104.0925939  31.8909355  98.6326055 104.2785623
  32.5333659  99.6494091 103.3591764  23.7616366  98.4406107  90.1353143
  24.7075471  98.3112316  90.2041561  23.3830611  97.7020769  90.6122571
  32.0727523  96.3621098 104.1384222  31.5566572  95.5779555 103.9514151
  32.9567472  96.0339815 104.3030742  29.7338250  90.1062114 100.0980035
  29.5363072  89.7977202 100.9823367  30.3437956  90.8323752 100.2277965
  37.7409585 100.6326061 103.2331976  38.4712973 100.3711349 103.7939679
  37.1316530  99.8954783 103.2734044  35.8224882  98.7733924 103.8306427
  35.0958046  98.6389889 103.2222919  35.4072169  99.0810753 104.6363145
  21.9459283  96.3656084  90.0708028  21.0390738  96.0689197  90.1470742
  22.2235264  96.0685902  89.2042315  23.5621349  90.9092974  96.2252270
  22.7522077  90.5640059  96.6007516  24.2505766  90.6000517  96.8139881
  25.4911897  89.9871020  97.8476566  26.0442936  90.4066474  98.5066589
  25.7281983  89.0606769  97.8899522  20.7158068  93.2243019  90.2120008
  21.5777232  93.5497917  90.4715825  20.9008412  92.4374515  89.6993073
  28.8690704  92.0971546  97.3555231  28.2889373  92.7556350  96.9733283
  28.6026637  91.2748890  96.9442648  27.3194270  91.4976603  99.5576551
  27.8194049  91.6093138  98.7490870  27.9629878  91.1937656 100.1977359
  27.6515582  94.2571636  96.4111579  26.7641437  94.5421287  96.1931774
  28.0669571  94.0965399  95.5638856  31.0030118  94.2818157 100.1265918
  31.7790508  94.7714609 100.3990535  30.2778252  94.7076211 100.5837788
  33.4402677  94.9945776 101.1839859  34.0347168  94.7541512 100.4733167
  33.5129261  94.2752907 101.8113395  26.7958796 104.0216311  90.5059599
  27.4994646 104.2266313  91.1217254  26.0721444 104.5893072  90.7708682
  27.6256606  99.7726172  96.6261869  27.5691807 100.2294723  95.7869501
  28.1784948  99.0116856  96.4484712  31.4361412  95.5615904  97.4511988
  31.1798346  95.1612539  98.2820196  30.8114280  96.2759698  97.3262128
  35.7473750  98.3011977  99.9583280  35.1873308  98.3705166 100.7314842
  35.1417253  98.1252962  99.2382776  28.7045493 104.4598840  92.5558059
  29.5391097 104.0280038  92.3735534  28.5429836 104.2880853  93.4834953
  28.3591385 100.9630953  93.9214398  28.3040189 100.7975225  92.9802842
  27.7337440 101.6706986  94.0776588  21.6687511  90.4639062  93.4999717
  21.6566180  91.4080902  93.6567987  22.5610932  90.2809208  93.2059178
  25.4839630  87.0581839  97.7545653  24.7172026  86.5040325  97.9002336
  25.8950335  87.1303708  98.6159805  37.3329768 114.9768491 102.6513236
  37.9708178 114.8575238 101.9476576  37.2150611 115.9249335 102.7101188
  34.1419474 114.9295919 102.5874760  33.8037986 114.8136984 101.6995295
  35.0109243 114.5287084 102.5675766  31.8427754 113.6984166  91.9191700
  32.0953274 113.1765688  91.1575163  30.9052313 113.5350312  92.0218384
  36.8871037 112.7019945  99.7266444  37.6734126 112.2839368  99.3756861
  37.1509741 113.6066037  99.8948092  42.2879464 112.6395178 100.6299422
  43.0204636 112.0694395 100.8637252  41.5318819 112.2516778 101.0705928
  33.9055583 115.0622419  97.8262765  33.5413791 114.5353040  98.5375686
  34.7622699 114.6720889  97.6529250  39.8104884 106.3516752 105.0894031
  39.4788209 107.2212163 104.8655246  39.2150497 106.0353036 105.7688061
  33.5461070 110.0912319  92.8224113  33.7135473 110.9592556  93.1894584
  33.3558239 110.2539601  91.8985402  39.7033547 111.0711838 102.1687381
  38.7950425 111.0027247 101.8746142  39.6521143 111.5483783 102.9969206
  33.5250291 112.5469977  93.8070780  33.4049916 112.9927027  94.6456260
  32.8302880 112.8955294  93.2484318  41.5695194 109.2728277 103.9465255
  40.9269574 109.5660810 103.3005049  41.0650122 109.1581197 104.7518451
  39.2235357 113.0191450  94.6351114  40.1353214 113.2518837  94.4598812
  38.7145004 113.6028494  94.0726193  37.5076125 117.4416078 108.2712407
  37.9159481 116.9998488 107.5267039  36.7853387 116.8668705 108.5246599
  33.8607195 112.3788684 105.6445963  34.7068390 112.8028098 105.7880612
  33.8005833 111.7222309 106.3384527  37.0106640 110.0393053 107.3027137
  36.7667572 110.7935113 106.7661413  37.2866571 110.4178400 108.1374384
  38.9645103 116.5831665 105.9804403  39.1761998 117.2263425 105.3038784
  38.9174851 115.7493982 105.5126333  36.5671332 109.1949486 102.8840975
  35.7055811 109.4930739 103.1757712  36.5933767 109.4119885 101.9522007
  32.3201788 113.8614829  96.1004346  33.0225831 114.3135872  96.5678272
  31.9882416 113.2198648  96.7284239  26.0627122 112.1198381 101.4021479
  25.2726176 112.3755910 100.9261590  26.5538369 112.9346719 101.5073520
  28.0141867 112.4842961  98.3604956  27.2173030 112.5961655  98.8788452
  27.7867459 112.8229613  97.4945846  48.1696924 115.8042369 100.5011732
  47.4160633 115.2349767 100.3455736  48.3044465 115.7705034 101.4482366
  32.9630853 108.1705230 110.4301063  33.7040566 108.7712383 110.3505525
  33.1948776 107.4282868 109.8719105  36.9088016 104.1986333 104.7065344
  36.5652285 105.0887975 104.6304455  37.2766978 104.0087991 103.8434929
  36.8738299 114.1894944  93.2137779  36.3584922 114.9599549  93.4526167
  36.6015607 113.5160081  93.8370841  34.4585410 109.0344645  98.2723018
  33.6027006 108.6451496  98.0928657  34.8712361 109.1136606  97.4122803
  35.9884556 106.5690988 102.6714578  35.4849352 106.5321124 101.8582383
  36.2815163 107.4783731 102.7311234  32.2327442 106.6529718 101.6780759
  33.0980439 106.4572527 101.3186649  32.3004951 106.4240070 102.6050116
  41.8472573 116.9427299  95.1490953  41.0702015 116.6038458  94.7046115
  42.5264054 116.9479922  94.4745918  36.6624602 112.0622036  95.0397561
  36.3574737 112.3768186  95.8907704  37.6155044 112.1403456  95.0824894
  40.0863880 116.4161280 101.8057561  39.4287554 117.1060542 101.8937690
  40.8904279 116.8057712 102.1491547  29.8389761 108.8831926  99.0497126
  30.4133513 108.6607108  98.3170319  30.4260744 108.9520621  99.8025727
  38.8969338 114.7705653  99.8561503  39.4101220 115.4035645 100.3583212
  39.5470562 114.1706848  99.4904863  30.1659348 110.9136387  93.0693011
  29.3296661 111.2511074  93.3902286  30.0264118 110.7785367  92.1320148
  32.1412429 105.7573175  97.7772196  31.4876841 105.4422192  97.1528810
  32.0992903 105.1348915  98.5032019  33.2523634 116.0392470  89.6925488
  32.3450696 115.8081723  89.8916637  33.7494666 115.2430089  89.8799469
  35.3750169 112.2455108 102.1019843  34.4572731 112.4670056 101.9441531
  35.7910313 112.3201419 101.2431551  36.1585217 113.6446524  97.2322523
  36.9057036 114.1567921  96.9229646  36.4276807 113.3230577  98.0926917
  34.4311867 116.1405065  94.2149478  33.5223086 115.8564098  94.3121947
  34.4606951 116.5604143  93.3552785  38.6064054 110.6803640  99.2141313
  37.8686811 110.1681027  99.5451555  38.8590828 110.2404022  98.4024590
  38.7075682 103.4579892  99.8083082  39.0134558 102.5977256  99.5208997
  39.4328286 104.0497513  99.6082076  32.9796761 113.7533685 100.3159273
  33.0345371 112.8007522 100.2401750  32.1687963 113.9093125 100.8000572
  30.9189121 112.3710745  98.0749652  30.1056987 112.6704916  98.4814844
  31.4148115 111.9766434  98.7924134  36.5163333 112.8352570 106.9064546
  36.8712721 113.0624043 107.7659012  37.1635464 113.1670947 106.2841801
  42.2461070 115.9571006  97.6113875  42.1078968 116.1472602  96.6835064
  41.8897289 116.7190388  98.0681926  30.4103196 109.9429101 103.6910887
  31.0502575 109.8017860 102.9933850  29.5780726 109.6563614 103.3149489
  42.2730449 118.0247533 102.6225146  42.7066956 117.9322822 103.4708200
  42.9862030 118.0005033 101.9845162  27.4946263 113.3874613  95.8805632
  26.5643851 113.3259068  96.0975594  27.5903735 112.8650566  95.0842273
  27.4131812 109.9129426  98.4683874  27.6738630 110.8274759  98.3593034
  28.2348985 109.4453868  98.6180487  43.1345999 118.0671233 105.1558032
  43.3281889 118.9717044 105.4017307  43.0346617 117.6078652 105.9896617
  34.7882310 107.9529124 107.6548359  34.1410225 108.6519074 107.5612836
  35.5583325 108.3865268 108.0224607  34.9646444 115.7909889 105.7145179
  35.8938504 115.9421048 105.5414146  34.5437474 115.8793910 104.8593825
  38.2499183 116.5398190  91.1469614  37.6328353 115.8145018  91.0502667
  37.7815671 117.3007550  90.8036688  30.0397729 110.7583615  90.2690918
  29.1627195 110.6372415  89.9053165  30.5155482 109.9669693  90.0169807
  36.5358305 108.9204534 100.1587644  37.0327004 108.1674497  99.8388714
  35.7645286 108.9568851  99.5930853  44.3888062 114.6244900 101.8005936
  44.3777938 115.5069615 101.4299869  43.5205442 114.2716451 101.6060473
  33.1193273 111.0621917  99.8859329  32.7491061 110.5092958 100.5740234
  33.6152366 110.4580051  99.3334329  41.0060637 113.5193541  98.2676102
  41.4721089 114.3521532  98.1936404  41.4568137 113.0538522  98.9721360
  38.9777299 105.8874128 102.3067003  38.0640379 106.1178355 102.4749210
  39.4070401 105.9712572 103.1581035  38.7483758 114.0764020 104.8066897
  38.0955208 114.3239927 104.1519350  39.1264138 113.2628158 104.4729374
  28.5158607 108.4725908 106.1312435  28.5799934 109.3340739 105.7189832
  28.4525727 107.8599910 105.3984793  24.7676422 112.3525470  95.7103824
  25.0629863 111.4436148  95.6570878  23.8664458 112.3313209  95.3884826
  28.2970669 110.4281466 101.6931372  27.5757255 111.0417434 101.5538846
  29.0863925 110.9639231 101.6148018  31.0996983 107.7635893 107.9672024
  31.6231385 108.0098189 108.7298334  30.8809316 108.5955928 107.5475162
  26.4964264 110.0339567  95.8343149  26.1676970 109.1536946  95.6518255
  26.8503635 109.9787236  96.7219538  29.6106087 110.3212537  96.2018627
  29.9502160 110.8498458  95.4797235  30.0578208 110.6592943  96.9777193
  32.3049528 108.7049588 105.6521695  31.9646348 107.9057401 106.0542375
  31.5988534 109.0051299 105.0798528  32.9566000 105.7898900 104.1049018
  33.7792069 105.3159379 103.9827908  33.2004063 106.5689384 104.6047704
  31.5974234 108.8187159  94.4011919  32.3182597 109.1968412  93.8975636
  30.9739538 109.5376036  94.5046897  35.7405357 109.5232308  95.3370252
  35.9568972 110.4056946  95.0359080  35.2599424 109.1318521  94.6075894
  30.4804579 112.4818021 101.9140996  30.3349159 112.7958324 102.8065278
  30.0029782 113.1002921 101.3611895  32.3400961 109.4720569 101.9621886
  32.3262530 108.5761662 101.6254184  33.0573390 109.4791233 102.5960172
  34.1927092 109.9057909 104.0075013  33.9344870 110.8274980 104.0059344
  33.6612133 109.5088344 104.6975477  31.7437857 108.3534949  97.2309456
  31.8653769 107.4251595  97.4300344  31.4539900 108.3673635  96.3187771
  34.6129048 106.0389860 100.3676176  34.6350745 106.1029193  99.4128155
  35.0297107 105.1994368 100.5616682  44.9912672 115.7745119  98.4055398
  45.4343818 115.0252444  98.0074522  44.1139182 115.7655256  98.0229130
  41.8331658 117.2600536 108.0333254  41.8829663 117.0950544 108.9748777
  41.7245581 116.3927795 107.6431135  39.1235420 113.2431464 109.3492561
  40.0245283 113.1037929 109.0576559  39.1983395 113.4085919 110.2890738
  33.4578225 110.6198319 108.1945747  32.5881535 110.9131885 107.9228336
  33.6937706 111.2038764 108.9153011  44.5345537 117.2450358 100.7977846
  45.3692428 117.6840162 100.9615406  44.6704666 116.7689011  99.9786092
  41.5837043 114.8030092 106.7455334  42.0591164 114.9957739 105.9374185
  40.6602608 114.8589278 106.4998717  36.1617259 106.8377936 105.7111168
  36.6799203 107.5738963 105.3857656  35.8072392 107.1441929 106.5457927
  27.7416197 111.6982617  93.8272574  27.0485442 111.7726972  93.1712610
  27.4967949 110.9342961  94.3494090  36.4129853 103.2578219 101.2312064
  36.6931607 102.5901408 101.8572491  37.1980460 103.4507314 100.7186728
  40.2838712 111.6795852 104.9783639  41.2356135 111.7793950 104.9995863
  40.1142162 110.8874121 105.4881724  38.3053091 108.7651436 105.1643040
  37.7103023 109.0456448 104.4689529  38.0202788 109.2545337 105.9359781
  42.7626789 114.9001972 104.0925939  42.7303110 113.9617973 104.2785623
  43.3727413 114.9786009 103.3591764  34.6010120 113.7698025  90.1353143
  35.5469225 113.6404233  90.2041561  34.2224365 113.0312687  90.6122571
  42.9121278 111.6913016 104.1384222  42.3960327 110.9071472 103.9514151
  43.7961226 111.3631732 104.3030742  40.5732005 105.4354031 100.0980035
  40.3756826 105.1269119 100.9823367  41.1831710 106.1615670 100.2277965
  48.5803339 115.9617979 103.2331976  49.3106728 115.7003267 103.7939679
  47.9710285 115.2246701 103.2734044  46.6618636 114.1025842 103.8306427
  45.9351800 113.9681807 103.2222919  46.2465923 114.4102670 104.6363145
  32.7853037 111.6948002  90.0708028  31.8784493 111.3981114  90.1470742
  33.0629018 111.3977820  89.2042315  34.4015103 106.2384891  96.2252270
  33.5915832 105.8931976  96.6007516  35.0899520 105.9292435  96.8139881
  36.3305651 105.3162938  97.8476566  36.8836690 105.7358391  98.5066589
  36.5675738 104.3898686  97.8899522  31.5551822 108.5534937  90.2120008
  32.4170986 108.8789835  90.4715825  31.7402166 107.7666433  89.6993073
  39.7084459 107.4263463  97.3555231  39.1283128 108.0848267  96.9733283
  39.4420391 106.6040808  96.9442648  38.1588025 106.8268521  99.5576551
  38.6587803 106.9385055  98.7490870  38.8023633 106.5229574 100.1977359
  38.4909337 109.5863554  96.4111579  37.6035192 109.8713204  96.1931774
  38.9063326 109.4257317  95.5638856  41.8423873 109.6110075 100.1265918
  42.6184263 110.1006527 100.3990535  41.1172007 110.0368129 100.5837788
  44.2796431 110.3237694 101.1839859  44.8740922 110.0833430 100.4733167
  44.3523015 109.6044824 101.8113395  38.4650360 115.1018090  96.6261869
  38.4085562 115.5586641  95.7869501  39.0178703 114.3408774  96.4484712
  42.2755166 110.8907821  97.4511988  42.0192100 110.4904457  98.2820196
  41.6508034 111.6051615  97.3262128  46.5867504 113.6303895  99.9583280
  46.0267062 113.6997084 100.7314842  45.9811007 113.4544879  99.2382776
  39.1985140 116.2922871  93.9214398  39.1433943 116.1267142  92.9802842
  38.5731195 116.9998904  94.0776588  32.5081265 105.7930980  93.4999717
  32.4959935 106.7372820  93.6567987  33.4004687 105.6101125  93.2059178
  36.3233385 102.3873756  97.7545653  35.5565780 101.8332243  97.9002336
  36.7344090 102.4595625  98.6159805  47.7481770 119.5278251 104.7065344
  47.4046040 120.4179893 104.6304455  48.1160733 119.3379909 103.8434929
  49.5469436 118.7871810  99.8083082  49.8528313 117.9269174  99.5208997
  50.2722041 119.3789430  99.6082076  49.8171054 121.2166046 102.3067003
  48.9034134 121.4470272 102.4749210  50.2464155 121.3004490 103.1581035
  47.2523608 118.5870136 101.2312064  47.5325362 117.9193325 101.8572491
  48.0374215 118.7799232 100.7186728  51.4125759 120.7645949 100.0980035
  51.2150581 120.4561037 100.9823367  52.0225465 121.4907588 100.2277965
  47.1699406 120.6454856  97.8476566  47.7230445 121.0650309  98.5066589
  47.4069492 119.7190604  97.8899522  47.1627139 117.7165674  97.7545653
  46.3959535 117.1624161  97.9002336  47.5737844 117.7887543  98.6159805
   4.8121908  31.4936821  87.2257038   4.0585616  30.9244219  87.0701043
   4.9469449  31.4599485  88.1727673   1.6337655  31.4639571  85.1300705
   2.0768801  30.7146896  84.7319828   0.7564166  31.4549708  84.7474437
   1.1770520  32.9344809  87.5223153   2.0117411  33.3734614  87.6860713
   1.3129649  32.4583463  86.7031398   5.2228323  31.6512431  89.9577282
   5.9531711  31.3897719  90.5184986   4.6135268  30.9141153  89.9979350
   3.3043620  29.7920294  90.5551734   2.5776783  29.6576258  89.9468225
   2.8890907  30.0997122  91.3608452   0.9221415  26.0132146  87.9085165
   1.5165905  25.7727882  87.1978474   0.9947998  25.2939276  88.5358702
   3.2292487  29.3198347  86.6828586   2.6692045  29.3891536  87.4560149
   2.6235991  29.1439331  85.9628083   4.8148506  45.9954860  89.3758542
   5.4526916  45.8761608  88.6721882   4.6969349  46.9435704  89.4346494
   1.6238212  45.9482289  89.3120067   1.2856724  45.8323353  88.4240602
   2.4927980  45.5473454  89.2921073   2.1057995  47.1017140  95.2706272
   2.0946636  46.7069939  94.3986776   2.2678635  46.3683213  95.8640044
   3.0624587  51.4688733  80.6131423   2.4112566  52.0542813  80.2265437
   3.8568949  51.9994928  80.6726460   4.3689774  43.7206314  86.4511750
   5.1552864  43.3025737  86.1002167   4.6328479  44.6252407  86.6193399
   4.5399852  49.1579165  81.1500407   3.9045685  49.2313791  81.8621312
   4.2097258  49.7472763  80.4719486   9.7698201  43.6581548  87.3544729
  10.5023373  43.0880764  87.5882558   9.0137557  43.2703148  87.7951234
   1.3874321  46.0808789  84.5508071   1.0232528  45.5539410  85.2620993
   2.2441437  45.6907258  84.3774557   7.2923622  37.3703122  91.8139337
   6.9606947  38.2398533  91.5900552   6.6969235  37.0539406  92.4933368
   1.0279808  41.1098689  79.5469420   1.1954211  41.9778925  79.9139891
   0.8376977  41.2725970  78.6230709   3.7855141  49.5715668  91.2135250
   3.4855864  50.4740706  91.1051057   3.4406201  49.3047851  92.0656403
   7.1852285  42.0898208  88.8932687   6.2769162  42.0213616  88.5991448
   7.1339881  42.5670153  89.7214513   1.2593151  43.5087853  96.8367585
   0.4826485  44.0681774  96.8270449   1.8983714  43.9944636  97.3582455
   9.0513932  40.2914646  90.6710561   8.4088312  40.5847179  90.0250356
   8.5468860  40.1767567  91.4763758   6.7054095  44.0377819  81.3596421
   7.6171951  44.2705206  81.1844118   6.1963742  44.6214864  80.7971499
   4.9894863  48.4602447  94.9957713   5.3978219  48.0184858  94.2512346
   4.2672124  47.8855075  95.2491906   1.3425933  43.3975054  92.3691270
   2.1887128  43.8214468  92.5125919   1.2824571  42.7408678  93.0629833
   5.3123678  49.0203638  88.7510002   4.6832540  49.1849352  88.0486070
   4.9249340  49.4345247  89.5220966   9.1912909  49.9558076  86.1054366
   8.5063948  50.3356977  85.5551399   9.2756759  50.5653402  86.8386314
   4.4925378  41.0579422  94.0272444   4.2486310  41.8121483  93.4906719
   4.7685309  41.4364770  94.8619691   6.4463841  47.6018035  92.7049709
   6.6580736  48.2449795  92.0284090   6.3993589  46.7680351  92.2371639
   4.0490070  40.2135855  89.6086281   3.1874549  40.5117109  89.9003019
   4.0752505  40.4306254  88.6767314   0.8651639  48.7578046  86.0160087
   1.3289985  49.0365749  85.2264710   0.6008438  47.8561491  85.8333178
   7.5609669  50.4789990  90.8772067   8.3827113  50.0770177  90.5954748
   7.5572072  50.3758224  91.8288182   1.3266272  50.0274033  93.0332777
   1.3910705  50.4894441  93.8690949   0.6177196  49.3971398  93.1615087
  15.6515662  46.8228739  87.2257038  14.8979370  46.2536137  87.0701043
  15.7863203  46.7891403  88.1727673   1.0414290  51.6942141  82.9011758
   0.9059965  52.5393677  83.3296605   1.5824103  51.8961419  82.1377691
   2.6682766  52.3165707  97.0312100   2.2246621  51.5302086  96.7133004
   3.3299980  52.5044858  96.3655990   4.7664005  52.5968507  95.0593501
   4.7482480  53.4177388  94.5673770   5.6883925  52.4722583  95.2843642
   1.2237059  50.1112637  95.9017009   1.7565395  49.3500925  95.6716317
   0.6951140  49.8186289  96.6441164   4.3906754  35.2172703  91.4310651
   4.0471023  36.1074344  91.3549762   4.7585716  35.0274360  90.5680236
   4.3557036  45.2081314  79.9383086   3.8403660  45.9785919  80.1771474
   4.0834345  44.5346450  80.5616148   1.9404147  40.0531015  84.9968324
   1.0845744  39.6637865  84.8173963   2.3531099  40.1322976  84.1368110
   3.4703294  37.5877358  89.3959884   2.9668090  37.5507493  88.5827690
   3.7633901  38.4970101  89.4556541   9.3291311  47.9613669  81.8736260
   8.5520753  47.6224828  81.4291422  10.0082791  47.9666292  81.1991225
   4.1443340  43.0808406  81.7642867   3.8393475  43.3954555  82.6153010
   5.0973782  43.1589826  81.8070200   2.5889771  49.2398629  83.4135821
   2.0611133  48.5051389  83.1009059   2.0877274  50.0173306  83.1675790
   7.5682617  47.4347650  88.5302868   6.9106292  48.1246911  88.6182996
   8.3723017  47.8244082  88.8736854   6.3788076  45.7892023  86.5806809
   6.8919958  46.4222014  87.0828519   7.0289300  45.1893218  86.2150169
   3.6410450  55.7676347  79.3367480   2.9672149  56.0708044  79.9452438
   4.0276272  56.5705427  78.9872938   2.8568907  43.2641478  88.8265150
   1.9391468  43.4856425  88.6686838   3.2729051  43.3387789  87.9676857
   3.6403955  44.6632894  83.9567830   4.3875774  45.1754291  83.6474952
   3.9095544  44.3416946  84.8172224   1.9130605  47.1591434  80.9394784
   1.0041824  46.8750467  81.0367254   1.9425689  47.5790513  80.0798091
   7.1449872  50.7698024  84.7085952   6.6912200  49.9288934  84.7651142
   6.5143839  51.4059422  85.0460732   6.0882792  41.6990010  85.9386619
   5.3505549  41.1867396  86.2696862   6.3409566  41.2590392  85.1269896
   5.5882812  52.6074521  85.6435770   5.8805786  53.1679578  84.9248136
   6.0981432  52.9003082  86.3988929   6.1894419  34.4766262  86.5328389
   6.4953296  33.6163625  86.2454304   6.9147024  35.0683882  86.3327383
   1.6106693  48.7000178  78.2782863   1.1726123  47.9836037  77.8188500
   2.3517134  48.9276293  77.7167954   0.5516437  53.3854872  86.7329223
   0.5092616  53.6115718  85.8037755   1.4679136  53.1518246  86.8815024
   3.9982071  43.8538939  93.6309852   4.3531458  44.0810412  94.4904318
   4.6454202  44.1857316  93.0087108   9.7279808  46.9757375  84.3359182
   9.5897706  47.1658971  83.4080371   9.3716026  47.7376758  84.7927233
   9.7549187  49.0433902  89.3470453  10.1885694  48.9509191  90.1953507
  10.4680768  49.0191403  88.7090469   3.4877082  52.6435996  90.8803554
   3.5414104  53.2126933  91.6481270   2.6191863  52.8137881  90.5157591
  10.6164737  49.0857603  91.8803338  10.8100627  49.9903413  92.1262613
  10.5165355  48.6265022  92.7141923   2.2701047  38.9715493  94.3793666
   1.6228963  39.6705443  94.2858142   3.0402063  39.4051637  94.7469914
   5.6779845  49.2364346  97.4544219   5.5265352  49.0074897  96.5374303
   5.6684525  50.1934947  97.4675564   2.4465182  46.8096258  92.4390485
   3.3757242  46.9607418  92.2659453   2.0256212  46.8980279  91.5839132
   1.8401666  55.9356019  81.5514560   2.0153421  55.4644062  82.3660182
   1.1534454  56.5621785  81.7795820   2.7958729  50.2128525  87.5977861
   2.4608561  50.1729295  88.4935511   2.2962674  49.5473241  87.1248271
   5.7317920  47.5584560  77.8714921   5.1147091  46.8331388  77.7747973
   5.2634409  48.3193920  77.5281995   7.3872052  52.2683468  95.5320701
   7.3284598  51.5842688  94.8651284   7.7891570  53.0102458  95.0801327
   7.3889459  50.2323052  93.7634681   6.5016238  49.8948974  93.8861079
   7.9588010  49.5006083  94.0003446   4.0177042  39.9390904  86.8832951
   4.5145742  39.1860866  86.5634021   3.2464024  39.9755221  86.3176160
  11.8706800  45.6431269  88.5251242  11.8596676  46.5255985  88.1545175
  11.0024179  45.2902820  88.3305779   3.3789296  54.7911338  92.8854082
   4.0917268  55.4258803  92.8129984   2.8879325  54.8875204  92.0694084
   5.1006823  48.6962591  84.4571374   4.1663102  48.8164054  84.2876078
   5.2783492  47.7935058  84.1931384   8.4879375  44.5379910  84.9921408
   8.9539827  45.3707902  84.9181711   8.9386875  44.0724892  85.6966667
   6.5555606  50.8823732  81.9907560   6.8315450  50.7680326  82.9001434
   5.6860104  50.4841217  81.9519733   6.4596037  36.9060497  89.0312310
   5.5459117  37.1364724  89.1994517   6.8889139  36.9898941  89.8826342
   6.2302496  45.0950389  91.5312204   5.5773946  45.3426297  90.8764656
   6.6082876  44.2814528  91.1974681   3.1909670  55.1310083  85.6340374
   3.3732064  54.3131738  86.0968126   4.0142656  55.3477775  85.1965264
   3.5251835  54.0578268  82.8955422   4.0539602  53.5470722  82.2825585
   3.7880055  53.7420798  83.7600955   2.2790069  45.8370200  98.0178241
   1.6030706  45.7364330  98.6880616   3.1017703  45.6809414  98.4814238
   1.0212852  57.1437128  92.2535857   1.5731160  57.3068749  93.0184942
   1.3619045  57.7341566  91.5815882   5.8723726  51.9698385  98.1084511
   6.4163630  52.5828344  97.6139466   5.2910571  52.5277964  98.6251524
   4.1581239  55.0919103  89.2399539   4.0332378  54.2908843  88.7310484
   4.8160330  55.5865297  88.7513509   6.2216147  52.8928123  90.8679089
   5.2746483  52.7733475  90.7957416   6.5698920  52.0050622  90.9505350
   3.2262581  52.6880840  87.0683441   3.0787543  51.7597547  87.2491011
   4.0516074  52.7100930  86.5840516   6.8296702  53.5109398  88.1548314
   7.7543250  53.3052260  88.0172765   6.6612006  53.2625800  89.0637655
   3.2224095  40.5418677  82.0615558   3.4387709  41.4243315  81.7604387
   2.7418162  40.1504891  81.3321200   1.6745830  40.9244279  90.7320320
   1.4163608  41.8461349  90.7304650   1.1430870  40.5274713  91.4220784
   6.6192019  54.0295066  83.5110405   6.7928896  53.4641488  82.7584258
   7.1120910  54.8295961  83.3289895   2.0947786  37.0576229  87.0921483
   2.1169482  37.1215562  86.1373462   2.5115845  36.2180738  87.2861989
  12.4731410  46.7931489  85.1300705  12.9162556  46.0438814  84.7319828
  11.5957920  46.7841625  84.7474437   7.6067191  53.3461830  80.6107304
   8.3018096  53.9668523  80.8294618   7.9490341  52.4957182  80.8859682
   9.5058614  50.7961536  82.1394634  10.0309938  51.1348809  81.4143954
   9.4180967  49.8608551  81.9557769   1.1678663  54.7095609  94.2684511
   1.4765789  54.4644756  95.1407211   1.9654145  54.9142248  93.7803381
   1.1899275  56.8633519  86.4989888   0.7504265  56.3709898  87.1922744
   1.9407392  56.3206487  86.2581963   9.1952520  51.4294439  97.4445832
   8.4048064  51.4118578  96.9050332   8.9585875  51.9682733  98.1994869
   9.3150395  48.2786906  94.7578561   9.3648400  48.1136913  95.6994084
   9.2064319  47.4114165  94.3676442   6.6054158  44.2617834  96.0737868
   7.5064021  44.1224299  95.7821865   6.6802132  44.4272289  97.0136045
  10.8168592  50.6983847  95.0020582  10.5253401  51.0613828  95.8384043
  10.2040724  49.9850856  94.8233915  12.0164275  48.2636727  87.5223153
  12.8511166  48.7026531  87.6860713  12.1523403  47.7875380  86.7031398
   9.0655780  45.8216462  93.4700640   9.5409902  46.0144108  92.6619492
   8.1421346  45.8775648  93.2244024   3.6435997  37.8564306  92.4356474
   4.1617941  38.5925332  92.1102963   3.2891130  38.1628299  93.2703233
   3.8948591  34.2764588  87.9557371   4.1750345  33.6087777  88.5817797
   4.6799198  34.4693684  87.4432035   1.6982060  53.4523582  79.5182397
   1.1256027  54.0713769  79.0652869   2.2714853  54.0022944  80.0522319
   7.7657449  42.6982222  91.7028946   8.7174872  42.7980320  91.7241170
   7.5960900  41.9060491  92.2127030   5.7871829  39.7837805  91.8888347
   5.1921761  40.0642818  91.1934836   5.5021526  40.2731706  92.6605088
   4.9179319  53.7360732  80.6490980   5.8509993  53.6706294  80.8523855
   4.8302532  54.5716999  80.1905512   7.5467336  53.0526602  77.6094927
   7.4680968  52.7186466  78.5030685   8.3677003  53.5448370  77.6086399
  10.2445527  45.9188342  90.8171246  10.2121847  44.9804342  91.0030930
  10.8546151  45.9972378  90.0837071   2.0828858  44.7884395  76.8598450
   3.0287963  44.6590603  76.9286868   1.7043103  44.0499057  77.3367878
  10.3940016  42.7099385  90.8629529   9.8779064  41.9257842  90.6759458
  11.2779964  42.3818102  91.0276048   8.0550743  36.4540401  86.8225342
   7.8575564  36.1455489  87.7068674   8.6650448  37.1802040  86.9523271
  16.0622077  46.9804349  89.9577282  16.7925466  46.7189637  90.5184986
  15.4529023  46.2433071  89.9979350  14.1437374  45.1212211  90.5551734
  13.4170538  44.9868176  89.9468225  13.7284661  45.4289040  91.3608452
   1.9667551  48.8402141  98.3199107   2.8870560  49.0180740  98.5139153
   1.9317134  47.8958186  98.1678806   1.8833841  37.2571261  82.9497576
   1.0734569  36.9118346  83.3252822   2.5718258  36.9478805  83.5385188
   3.8124389  36.3349308  84.5721873   4.3655428  36.7544761  85.2311896
   4.0494476  35.4085056  84.6144829   7.1903196  38.4449833  84.0800537
   6.6101865  39.1034637  83.6978590   6.9239129  37.6227177  83.6687955
   5.6406763  37.8454891  86.2821857   6.1406541  37.9571425  85.4736176
   6.2842371  37.5415943  86.9222666   5.9728074  40.6049923  83.1356885
   5.0853929  40.8899574  82.9177080   6.3882063  40.4443687  82.2884162
   9.3242611  40.6296444  86.8511225  10.1003001  41.1192897  87.1235841
   8.5990745  41.0554498  87.3083094  11.7615169  41.3424063  87.9085165
  12.3559660  41.1019799  87.1978474  11.8341753  40.6231194  88.5358702
   5.1171288  50.3694598  77.2304905   5.8207138  50.5744600  77.8462561
   4.3933937  50.9371360  77.4953989   5.9469098  46.1204459  83.3507176
   5.8904300  46.5773011  82.5114808   6.4997441  45.3595144  83.1730018
   9.7573904  41.9094191  84.1757295   9.5010838  41.5090827  85.0065503
   9.1326772  42.6237985  84.0507434  14.0686242  44.6490264  86.6828586
  13.5085800  44.7183454  87.4560149  13.4629745  44.4731249  85.9628083
   7.0257985  50.8077127  79.2803365   7.8603589  50.3758326  79.0980840
   6.8642328  50.6359141  80.2080260   6.6803877  47.3109240  80.6459705
   6.6252681  47.1453512  79.7048149   6.0549933  48.0185273  80.8021894
   3.9949785  49.6158152  99.9713268   4.8640944  49.7898805  99.6099902
   3.5156536  50.4352569  99.8488997   3.8052122  33.4060126  84.4790960
   3.0384518  32.8518613  84.6247642   4.2162827  33.4781995  85.3405112
  15.6542260  61.3246778  89.3758542  16.2920670  61.2053526  88.6721882
  15.5363103  62.2727622  89.4346494  12.4631967  61.2774206  89.3120067
  12.1250478  61.1615271  88.4240602  13.3321735  60.8765371  89.2921073
   8.3218782  63.1309683  85.3016958   7.7583647  63.0399620  84.5333246
   8.2071177  62.3109587  85.7819450  12.9451750  62.4309058  95.2706272
  12.9340390  62.0361856  94.3986776  13.1072389  61.6975131  95.8640044
   5.8683214  64.6260874  88.1401178   6.6604506  64.2851699  87.7247478
   6.1079864  64.7355849  89.0603332  13.9018341  66.7980650  80.6131423
  13.2506321  67.3834731  80.2265437  14.6962704  67.3286845  80.6726460
   7.8273968  63.8869788  81.0118557   8.6004844  63.3398775  80.8731433
   8.1799367  64.7514037  81.2233018   9.6659011  65.2146170  94.2185456
   9.3748877  66.1191801  94.1032123  10.3015995  65.2562697  94.9329526
  10.5915218  62.5923018  90.8086816  11.1878790  62.3679041  90.0943779
  10.6490189  61.8507764  91.4112264  10.1640246  60.0462454  78.6437007
  10.4165767  59.5243975  77.8820470   9.2264805  59.8828599  78.7463691
  15.2083529  59.0498232  86.4511750  15.9946618  58.6317655  86.1002167
  15.4722233  59.9544324  86.6193399  15.3793606  64.4871082  81.1500407
  14.7439439  64.5605709  81.8621312  15.0491013  65.0764681  80.4719486
  20.6091956  58.9873465  87.3544729  21.3417128  58.4172682  87.5882558
  19.8531312  58.5995066  87.7951234   9.8836535  61.9490560  80.8461382
   9.7672793  61.2735463  81.5142466   9.9938795  61.4622934  80.0293535
  12.2268076  61.4100707  84.5508071  11.8626283  60.8831328  85.2620993
  13.0835192  61.0199176  84.3774557  18.1317376  52.6995039  91.8139337
  17.8000701  53.5690450  91.5900552  17.5362990  52.3831323  92.4933368
  11.8673563  56.4390606  79.5469420  12.0347965  57.3070843  79.9139891
  11.6770732  56.6017888  78.6230709  14.6248896  64.9007585  91.2135250
  14.3249619  65.8032624  91.1051057  14.2799955  64.6339769  92.0656403
   8.0761377  61.3521382  87.2471955   7.1511874  61.2197596  87.4549646
   8.3245791  62.1315601  87.7441897  18.0246040  57.4190126  88.8932687
  17.1162917  57.3505534  88.5991448  17.9733635  57.8962070  89.7214513
  11.8462784  58.8948264  80.5316087  11.7262409  59.3405315  81.3701567
  11.1515372  59.2433582  79.9729625   5.4370188  60.9954656  88.0815744
   5.5662570  61.2489135  88.9955155   4.7567640  61.5882364  87.7620399
   9.6069676  71.6651906  84.1806218   9.5293705  72.6159731  84.2594698
   9.0031319  71.3197778  84.8381144  12.0986905  58.8379771  96.8367585
  11.3220239  59.3973691  96.8270449  12.7377468  59.3236554  97.3582455
  19.8907686  55.6206564  90.6710561  19.2482066  55.9139097  90.0250356
  19.3862615  55.5059484  91.4763758  17.5447850  59.3669737  81.3596421
  18.4565706  59.5997124  81.1844118  17.0357497  59.9506781  80.7971499
  10.3533278  61.6465224  96.3985552  11.0947962  62.1850268  96.1220375
   9.6470263  62.2731513  96.5557103  15.8288617  63.7894365  94.9957713
  16.2371973  63.3476775  94.2512346  15.1065879  63.2146992  95.2491906
  12.1819687  58.7266972  92.3691270  13.0280883  59.1506385  92.5125919
  12.1218325  58.0700596  93.0629833  16.1517432  64.3495556  88.7510002
  15.5226294  64.5141270  88.0486070  15.7643094  64.7637165  89.5220966
  20.0306664  65.2849993  86.1054366  19.3457702  65.6648895  85.5551399
  20.1150513  65.8945320  86.8386314  15.3319133  56.3871340  94.0272444
  15.0880065  57.1413401  93.4906719  15.6079063  56.7656688  94.8619691
  17.2857596  62.9309952  92.7049709  17.4974491  63.5741712  92.0284090
  17.2387344  62.0972269  92.2371639  14.8883824  55.5427773  89.6086281
  14.0268304  55.8409027  89.9003019  14.9146259  55.7598172  88.6767314
  11.7045394  64.0869964  86.0160087  12.1683739  64.3657667  85.2264710
  11.4402192  63.1853408  85.8333178   8.5969475  63.6341445  88.9539850
   9.1670832  64.0628714  88.3157335   9.1877587  63.3524030  89.6524036
  10.6414280  60.2093116  82.8249652  11.3438323  60.6614160  83.2923579
  10.3094908  59.5676935  83.4529545   9.0894641  58.8004873  97.2000862
   8.4593302  59.4821153  97.4336259   8.9830729  58.6887954  96.2554000
   4.3839614  58.4676669  88.1266786   3.5938668  58.7234197  87.6506896
   4.8750861  59.2825007  88.2318826  18.4003423  65.8081908  90.8772067
  19.2220867  65.4062095  90.5954748  18.3965826  65.7050142  91.8288182
   6.3354359  58.8321248  85.0850263   5.5385523  58.9439942  85.6033758
   6.1079951  59.1707900  84.2191153  12.1660027  65.3565951  93.0332777
  12.2304459  65.8186358  93.8690949  11.4570951  64.7263316  93.1615087
   2.6677317  58.7207159  90.5581777   2.9185355  59.6054169  90.8239353
   3.2036865  58.5411761  89.7856868  26.4909417  62.1520656  87.2257038
  25.7373125  61.5828054  87.0701043  26.6256958  62.1183321  88.1727673
  11.8808045  67.0234059  82.9011758  11.7453719  67.8685594  83.3296605
  12.4217857  67.2253336  82.1377691   8.3675384  53.1025638  99.5626113
   7.9742330  52.5491837 100.2373757   9.1841525  53.4136217  99.9532630
   5.3337442  64.5409497  83.4739683   5.8461963  65.3352747  83.6245247
   5.9860155  63.8435787  83.4073284   7.1432327  67.6575253  85.5562436
   7.3198955  68.5793218  85.3683420   7.9389160  67.3433672  85.9856816
  11.2843345  54.5183518  97.1546369  12.0253059  55.1190671  97.0750832
  11.5161268  53.7761155  96.5964412   6.4284683  59.7039885  95.4324599
   6.3138198  58.8025142  95.7331698   5.5729201  59.9503582  95.0809416
  13.5076521  67.6457625  97.0312100  13.0640375  66.8594004  96.7133004
  14.1693735  67.8336776  96.3655990   8.2663642  69.1753427  91.5572778
   8.8171067  69.0470490  90.7849772   7.4275118  69.4748316  91.2067671
  15.6057759  67.9260425  95.0593501  15.5876234  68.7469306  94.5673770
  16.5277679  67.8014500  95.2843642  12.0630813  65.4404555  95.9017009
  12.5959150  64.6792843  95.6716317  11.5344894  65.1478206  96.6441164
  15.2300508  50.5464620  91.4310651  14.8864778  51.4366262  91.3549762
  15.5979471  50.3566278  90.5680236   3.2986359  62.8698151  84.2499253
   4.1361581  63.2795159  84.0332961   3.4764626  61.9297593  84.2199447
  15.1950791  60.5373232  79.9383086  14.6797414  61.3077836  80.1771474
  14.9228099  59.8638368  80.5616148  12.7797902  55.3822932  84.9968324
  11.9239498  54.9929783  84.8173963  13.1924854  55.4614893  84.1368110
  14.3097049  52.9169276  89.3959884  13.8061844  52.8799411  88.5827690
  14.6027655  53.8262018  89.4556541  10.5539934  53.0008005  88.4026066
  11.4192931  52.8050814  88.0431955  10.6217443  52.7718357  89.3295423
  20.1685065  63.2905586  81.8736260  19.3914508  62.9516746  81.4291422
  20.8476546  63.2958209  81.1991225  14.9837094  58.4100324  81.7642867
  14.6787230  58.7246473  82.6153010  15.9367536  58.4881744  81.8070200
  13.4283526  64.5690547  83.4135821  12.9004887  63.8343307  83.1009059
  12.9271029  65.3465223  83.1675790  18.4076372  62.7639568  88.5302868
  17.7500046  63.4538829  88.6182996  19.2116771  63.1535999  88.8736854
   8.1602253  55.2310213  85.7742433   8.7346005  55.0085395  85.0415626
   8.7473236  55.2998908  86.5271034  17.2181831  61.1183940  86.5806809
  17.7313712  61.7513932  87.0828519  17.8683055  60.5185136  86.2150169
   8.4871841  57.2614674  79.7938318   7.6509153  57.5989361  80.1147593
   8.3476610  57.1263654  78.8565455  10.4624921  52.1051462  84.5017502
   9.8089334  51.7900479  83.8774117  10.4205395  51.4827203  85.2277325
  11.5736126  62.3870757  76.4170794  10.6663188  62.1560011  76.6161943
  12.0707158  61.5908377  76.6044776  14.4804205  71.0968264  79.3367480
  13.8065904  71.3999961  79.9452438  14.8670027  71.8997345  78.9872938
  13.6962662  58.5933396  88.8265150  12.7785223  58.8148343  88.6686838
  14.1122805  58.6679706  87.9676857  14.4797709  59.9924811  83.9567830
  15.2269528  60.5046209  83.6474952  14.7489299  59.6708864  84.8172224
  12.7524359  62.4883352  80.9394784  11.8435579  62.2042385  81.0367254
  12.7819443  62.9082431  80.0798091  17.9843627  66.0989942  84.7085952
  17.5305954  65.2580852  84.7651142  17.3537594  66.7351340  85.0460732
  16.9276546  57.0281928  85.9386619  16.1899303  56.5159314  86.2696862
  17.1803320  56.5882309  85.1269896  16.4276566  67.9366438  85.6435770
  16.7199541  68.4971495  84.9248136  16.9375187  68.2294999  86.3988929
  17.0288174  49.8058180  86.5328389  17.3347051  48.9455543  86.2454304
  17.7540779  50.3975800  86.3327383   3.3212530  60.2088866  84.9209987
   3.1236930  59.6158227  84.1961053   2.7659194  59.9041076  85.6385925
  11.3009254  60.1011973  87.0404580  11.3557863  59.1485809  86.9647056
  10.4900456  60.2571412  87.5245878  12.4500447  64.0292096  78.2782863
  12.0119877  63.3127955  77.8188500  13.1910888  64.2568211  77.7167954
   9.2401613  58.7189032  84.7994959   8.4269479  59.0183203  85.2060151
   9.7360608  58.3244721  85.5169441  11.3910191  68.7146789  86.7329223
  11.3486370  68.9407636  85.8037755  12.3072890  68.4810164  86.8815024
  14.8375825  59.1830857  93.6309852  15.1925213  59.4102330  94.4904318
  15.4847956  59.5149234  93.0087108  20.5673562  62.3049293  84.3359182
  20.4291461  62.4950889  83.4080371  20.2109781  63.0668676  84.7927233
   8.7315688  56.2907388  90.4156194   9.3715068  56.1496147  89.7179157
   7.8993219  56.0041901  90.0394796  20.5942942  64.3725820  89.3470453
  21.0279448  64.2801109  90.1953507  21.3074522  64.3483320  88.7090469
   9.5075992  65.5909818  86.5291186  10.3016591  65.0960139  86.3273761
   8.7967685  65.0627682  86.1658892  14.3270837  67.9727914  90.8803554
  14.3807859  68.5418850  91.6481270  13.4585618  68.1429799  90.5157591
   5.8158756  59.7352900  82.6050939   4.8856344  59.6737356  82.8220901
   5.9116228  59.2128853  81.8087580   5.7344305  56.2607713  85.1929180
   5.9951122  57.1753046  85.0838341   6.5561477  55.7932156  85.3425793
   7.2069230  57.6745470  92.3628005   7.8792283  57.4662832  91.7140654
   6.3799016  57.4767556  91.9233237  21.4558491  64.4149521  91.8803338
  21.6494381  65.3195331  92.1262613  21.3559109  63.9556940  92.7141923
  13.1094802  54.3007411  94.3793666  12.4622717  54.9997361  94.2858142
  13.8795817  54.7343555  94.7469914  16.5173600  64.5656263  97.4544219
  16.3659106  64.3366815  96.5374303  16.5078279  65.5226865  97.4675564
  13.2858936  62.1388176  92.4390485  14.2150996  62.2899336  92.2659453
  12.8649966  62.2272197  91.5839132  12.0847268  66.1638840  90.2089023
  11.9458354  65.7957625  91.0814961  11.2961864  66.6786480  90.0372981
  12.6795420  71.2647937  81.5514560  12.8547176  70.7935980  82.3660182
  11.9928208  71.8913703  81.7795820  13.6352483  65.5420443  87.5977861
  13.3002316  65.5021213  88.4935511  13.1356429  64.8765159  87.1248271
   7.6096727  60.9488073  93.1230442   7.4716525  60.2168312  93.7241981
   8.5201651  60.8596973  92.8414630  16.5711675  62.8876477  77.8714921
  15.9540846  62.1623306  77.7747973  16.1028163  63.6485838  77.5281995
  10.2379028  60.6608032  92.6114122  10.9478646  60.0201225  92.5700740
  10.1948336  60.9120927  93.5340302  18.2265807  67.5975386  95.5320701
  18.1678353  66.9134606  94.8651284  18.6285325  68.3394376  95.0801327
   8.9507962  57.6473250  94.4309761   8.4145319  57.1963989  95.0831358
   8.3624670  57.7819159  93.6880226   7.2456505  74.4137300  88.3254420
   7.4853104  75.0455824  89.0033438   6.4025702  74.0625340  88.6119779
   8.3610221  57.1061902  76.9936225   7.4839687  56.9850703  76.6298471
   8.8367974  56.3147980  76.7415113  18.2283214  65.5614970  93.7634681
  17.3409993  65.2240892  93.8861079  18.7981765  64.8298001  94.0003446
   4.6847083  56.7829258  91.5162756   4.6005272  56.1754928  90.7813166
   3.8629790  57.2738276  91.5172252  11.7584367  70.2216422  90.7295924
  11.6854539  71.0271394  91.2415228  11.3161760  70.4208388  89.9043945
  11.5474147  69.4588192  84.2398745  10.7641669  70.0009872  84.3336970
  12.2466892  69.9762172  84.6392987  14.8570797  55.2682822  86.8832951
  15.3539497  54.5152784  86.5634021  14.0857778  55.3047138  86.3176160
  22.7100554  60.9723187  88.5251242  22.6990431  61.8547903  88.1545175
  21.8417934  60.6194738  88.3305779  14.2183051  70.1203256  92.8854082
  14.9311023  70.7550721  92.8129984  13.7273079  70.2167122  92.0694084
  15.9400578  64.0254509  84.4571374  15.0056856  64.1455971  84.2876078
  16.1177246  63.1226976  84.1931384  11.4405766  57.4100205  86.6104635
  11.0703553  56.8571245  87.2985541  11.9364858  56.8058338  86.0579635
  19.3273129  59.8671828  84.9921408  19.7933581  60.6999820  84.9181711
  19.7780630  59.4016810  85.6966667   9.2694964  67.8697700  93.7059653
   9.9704424  68.5034183  93.8589047   8.7990079  68.2112431  92.9455293
  17.3949360  66.2115649  81.9907560  17.6709204  66.0972244  82.9001434
  16.5253859  65.8133134  81.9519733  17.2989792  52.2352415  89.0312310
  16.3852872  52.4656642  89.1994517  17.7282893  52.3190859  89.8826342
  17.0696250  60.4242307  91.5312204  16.4167700  60.6718214  90.8764656
  17.4476630  59.6106445  91.1974681  14.0303424  70.4602000  85.6340374
  14.2125819  69.6423656  86.0968126  14.8536410  70.6769692  85.1965264
  14.3645590  69.3870185  82.8955422  14.8933356  68.8762640  82.2825585
  14.6273809  69.0712716  83.7600955  13.1183823  61.1662118  98.0178241
  12.4424460  61.0656247  98.6880616  13.9411457  61.0101332  98.4814238
   4.8662682  67.4034055  90.6390756   5.4516119  66.6577743  90.7718660
   4.6687521  67.7138011  91.5227420   7.7201338  70.4385302  85.6553198
   7.0511713  70.9231430  85.1717238   7.5814207  70.6854522  86.5696577
  11.8606606  72.4729046  92.2535857  12.4124914  72.6360667  93.0184942
  12.2012800  73.0633483  91.5815882   6.8371099  54.8204195  92.8557741
   6.9012426  55.6819026  92.4435139   6.7738220  54.2078197  92.1230100
   6.3123372  56.8927328  96.5030776   6.9395411  56.5104405  97.1168300
   5.4551291  56.6741530  96.8686468  16.7117480  67.2990303  98.1084511
  17.2557384  67.9120261  97.6139466  16.1304325  67.8569881  98.6251524
   3.0888915  58.7003757  82.4349130   3.3842356  57.7914435  82.3816184
   2.1876950  58.6791496  82.1130133  14.9974993  70.4211021  89.2399539
  14.8726133  69.6200761  88.7310484  15.6554085  70.9157214  88.7513509
   6.6183162  56.7759754  88.4176679   5.8969747  57.3895721  88.2784152
   7.4076417  57.3117518  88.3393325  17.0609902  68.2220041  90.8679089
  16.1140237  68.1025392  90.7957416  17.4092675  67.3342539  90.9505350
   9.4209475  54.1114180  94.6917331   9.9443877  54.3576477  95.4543640
   9.2021808  54.9434215  94.2720468   4.8176756  56.3817855  82.5588456
   4.4889462  55.5015234  82.3763562   5.1716127  56.3265523  83.4464845
  14.0656335  68.0172757  87.0683441  13.9181298  67.0889465  87.2491011
  14.8909829  68.0392848  86.5840516   7.9318579  56.6690824  82.9263933
   8.2714652  57.1976746  82.2042542   8.3790700  57.0071231  83.7022500
  17.6690457  68.8401316  88.1548314  18.5937004  68.6344177  88.0172765
  17.5005760  68.5917717  89.0637655  10.6262020  55.0527875  92.3767001
  10.2858841  54.2535688  92.7787681   9.9201027  55.3529586  91.8043835
  11.2778492  52.1377188  90.8294324  12.1004561  51.6637666  90.7073215
  11.5216556  52.9167671  91.3293011   9.9186727  55.1665446  81.1257226
  10.6395089  55.5446699  80.6220943   9.2952031  55.8854323  81.2292204
  14.0617849  55.8710595  82.0615558  14.2781464  56.7535233  81.7604387
  13.5811917  55.4796808  81.3321200   8.8017071  58.8296308  88.6386303
   8.6561652  59.1436611  89.5310585   8.3242274  59.4481209  88.0857202
  10.6613454  55.8198856  88.6867193  10.6475022  54.9239950  88.3499491
  11.3785882  55.8269520  89.3205479  12.5139584  56.2536196  90.7320320
  12.2557362  57.1753267  90.7304650  11.9824625  55.8566631  91.4220784
  17.4585773  69.3586984  83.5110405  17.6322651  68.7933406  82.7584258
  17.9514664  70.1587878  83.3289895   3.2762733  61.3701653  91.5773964
   2.7316201  62.1461461  91.7094239   4.1542083  61.7172457  91.4193086
  10.0650350  54.7013237  83.9554763  10.1866261  53.7729883  84.1545650
   9.7752392  54.7151922  83.0433078  12.9341540  52.3868147  87.0921483
  12.9563237  52.4507480  86.1373462  13.3509599  51.5472656  87.2861989
  23.3125164  62.1223407  85.1300705  23.7556310  61.3730732  84.7319828
  22.4351675  62.1133543  84.7474437  18.4460946  68.6753748  80.6107304
  19.1411850  69.2960441  80.8294618  18.7884096  67.8249099  80.8859682
   4.0628755  60.4971549  94.4704121   3.3210491  60.6454184  95.0568751
   3.7421499  60.7579815  93.6070870  20.3452369  66.1253453  82.1394634
  20.8703693  66.4640726  81.4143954  20.2574721  65.1900469  81.9557769
  12.0072417  70.0387527  94.2684511  12.3159544  69.7936674  95.1407211
  12.8047900  70.2434166  93.7803381  12.0293030  72.1925437  86.4989888
  11.5898020  71.7001815  87.1922744  12.7801146  71.6498404  86.2581963
   4.5085369  68.3836978  86.5014516   5.3343388  68.0840750  86.1213159
   4.1579421  67.6144600  86.9504304   9.4766902  67.7363446  88.5712189
   8.8546911  67.0734151  88.2714417  10.1471769  67.7624578  87.8885837
   2.7093974  66.3023304  87.4603449   1.8725882  65.8745478  87.2787451
   2.6817619  66.4955747  88.3974240   9.5491429  56.2145234  98.1644695
   9.5979585  57.0907357  97.7822465  10.0913943  55.6722627  97.5916339
  20.0346275  66.7586357  97.4445832  19.2441819  66.7410496  96.9050332
  19.7979629  67.2974651  98.1994869  20.1544150  63.6078824  94.7578561
  20.2042155  63.4428831  95.6994084  20.0458073  62.7406083  94.3676442
   9.0380409  66.2867369  82.0470650   9.1868529  66.9702834  81.3937323
   9.8446852  66.2672459  82.5620106  17.4447912  59.5909752  96.0737868
  18.3457775  59.4516216  95.7821865  17.5195887  59.7564206  97.0136045
  11.7790718  56.9676606  94.9191054  10.9094027  57.2610172  94.6473642
  12.0150198  57.5517051  95.6398318  21.6562347  66.0275765  95.0020582
  21.3647155  66.3905746  95.8384043  21.0434478  65.3142773  94.8233915
  22.8558029  63.5928645  87.5223153  23.6904920  64.0318449  87.6860713
  22.9917158  63.1167298  86.7031398  19.9049535  61.1508380  93.4700640
  20.3803657  61.3436026  92.6619492  18.9815100  61.2067565  93.2244024
   6.7933042  62.3132547  83.0531719   6.5479084  61.4094877  83.2511929
   6.9628956  62.3149697  82.1111197  14.4829751  53.1856223  92.4356474
  15.0011695  53.9217250  92.1102963  14.1284884  53.4920217  93.2703233
   6.0628689  58.0460904  80.5517880   5.3697934  58.1205259  79.8957916
   5.8180441  57.2821248  81.0739397  14.7342346  49.6056506  87.9557371
  15.0144099  48.9379695  88.5817797  15.5192953  49.7985601  87.4432035
  12.5375814  68.7815500  79.5182397  11.9649781  69.4005687  79.0652869
  13.1108608  69.3314861  80.0522319  18.6051204  58.0274140  91.7028946
  19.5568627  58.1272237  91.7241170  18.4354654  57.2352408  92.2127030
  16.6265583  55.1129723  91.8888347  16.0315516  55.3934736  91.1934836
  16.3415280  55.6023624  92.6605088  15.7573074  69.0652650  80.6490980
  16.6903747  68.9998211  80.8523855  15.6696287  69.9008917  80.1905512
  18.3861091  68.3818520  77.6094927  18.3074722  68.0478384  78.5030685
  19.2070757  68.8740288  77.6086399  21.0839282  61.2480259  90.8171246
  21.0515602  60.3096260  91.0030930  21.6939905  61.3264296  90.0837071
  12.9222613  60.1176312  76.8598450  13.8681717  59.9882521  76.9286868
  12.5436858  59.3790974  77.3367878  21.2333770  58.0391303  90.8629529
  20.7172819  57.2549759  90.6759458  22.1173719  57.7110019  91.0276048
  18.8944497  51.7832318  86.8225342  18.6969318  51.4747407  87.7068674
  19.5044203  52.5093957  86.9523271  26.9015832  62.3096266  89.9577282
  27.6319220  62.0481554  90.5184986  26.2922777  61.5724988  89.9979350
  24.9831129  60.4504129  90.5551734  24.2564292  60.3160094  89.9468225
  24.5678416  60.7580957  91.3608452  12.8061305  64.1694059  98.3199107
  13.7264315  64.3472658  98.5139153  12.7710888  63.2250104  98.1678806
  11.1065530  58.0426289  76.7953335  10.1996985  57.7459402  76.8716049
  11.3841511  57.7456107  75.9287621   2.0243470  59.3632652  87.2452381
   1.7046254  58.5097960  86.9526755   1.4776898  59.5781230  88.0010349
   5.8023378  62.0795093  90.9621888   6.0209387  63.0112201  90.9809922
   6.2149152  61.7203068  91.7476692  12.7227595  52.5863179  82.9497576
  11.9128324  52.2410263  83.3252822  13.4112012  52.2770722  83.5385188
  14.6518144  51.6641225  84.5721873  15.2049182  52.0836679  85.2311896
  14.8888230  50.7376973  84.6144829  10.6751243  57.6528299 100.3524637
  10.5747970  58.6022656 100.2836728  10.4572785  57.3246538  99.4800707
   9.8764314  54.9013224  76.9365314  10.7383478  55.2268122  77.1961132
  10.0614659  54.1144720  76.4238380   1.8931730  62.9835564  89.2145503
   1.1995202  62.5689516  88.7015457   2.6404721  63.0256100  88.6178922
  18.0296951  53.7741750  84.0800537  17.4495620  54.4326554  83.6978590
  17.7632884  52.9519095  83.6687955  16.4800517  53.1746808  86.2821857
  16.9800296  53.2863343  85.4736176  17.1236125  52.8707861  86.9222666
  10.5382513  61.0825438  99.1689698  10.0549595  61.8825798  99.3753587
  10.6243452  61.0933383  98.2157142   3.8068473  62.9153817  87.0911518
   3.7839161  63.0141505  86.1393401   4.1169109  63.7618968  87.4128684
   6.4655851  64.9729972  91.2058132   7.4199104  64.9413915  91.1388064
   6.2668374  64.5120596  92.0208358   7.0555233  63.5431089  93.7728930
   7.8748122  64.0375167  93.7963767   7.3292040  62.6263057  93.7446497
  16.8121829  55.9341841  83.1356885  15.9247684  56.2191491  82.9177080
  17.2275818  55.7735604  82.2884162  20.1636365  55.9588362  86.8511225
  20.9396755  56.4484814  87.1235841  19.4384499  56.3846416  87.3083094
  22.6008924  56.6715981  87.9085165  23.1953414  56.4311717  87.1978474
  22.6735507  55.9523112  88.5358702   4.8206079  70.5149592  88.2228330
   4.6860547  69.7549993  87.6566328   4.4038142  71.2390492  87.7557119
  15.9565042  65.6986516  77.2304905  16.6600892  65.9036518  77.8462561
  15.2327691  66.2663277  77.4953989  16.7862853  61.4496377  83.3507176
  16.7298054  61.9064928  82.5114808  17.3391195  60.6887061  83.1730018
  20.5967659  57.2386109  84.1757295  20.3404593  56.8382744  85.0065503
  19.9720527  57.9529903  84.0507434  24.9079996  59.9782182  86.6828586
  24.3479554  60.0475371  87.4560149  24.3023500  59.8023167  85.9628083
   7.9775205  71.4118909  88.4346773   7.8607589  72.3564341  88.3325463
   7.1567651  71.1092471  88.8232572  17.8651740  66.1369045  79.2803365
  18.6997344  65.7050243  79.0980840  17.7036083  65.9651058  80.2080260
  17.5197632  62.6401158  80.6459705  17.4646436  62.4745429  79.7048149
  16.8943687  63.3477191  80.8021894   2.3090147  57.8769222  94.4721127
   2.9549011  57.3668176  94.9608352   2.1007298  58.6137904  95.0464552
  14.8343539  64.9450070  99.9713268  15.7034699  65.1190722  99.6099902
  14.3550291  65.7644487  99.8488997  10.8293757  52.1409267  80.2245023
  10.8172427  53.0851107  80.3813294  11.7217179  51.9579412  79.9304484
   9.0029719  72.0647171  91.6502701   9.9056966  72.0970781  91.9669196
   8.7767089  71.1347622  91.6649037  10.7583321  70.8178157  88.3112780
   9.8078952  70.8180019  88.1977152  11.0615808  70.0710892  87.7948814
  14.6445877  48.7352044  84.4790960  13.8778273  48.1810530  84.6247642
  15.0556582  48.8073912  85.3405112   6.6487638  55.0236839  98.5696141
   7.5119099  54.6673644  98.7799466   6.0753049  54.6850734  99.2571545
  26.4936015  76.6538696  89.3758542  27.1314425  76.5345443  88.6721882
  26.3756858  77.6019540  89.4346494  23.3025721  76.6066124  89.3120067
  22.9644233  76.4907189  88.4240602  24.1715489  76.2057289  89.2921073
  19.1612537  78.4601600  85.3016958  18.5977402  78.3691537  84.5333246
  19.0464932  77.6401505  85.7819450  23.7845504  77.7600976  95.2706272
  23.7734145  77.3653774  94.3986776  23.9466144  77.0267048  95.8640044
  16.7076969  79.9552792  88.1401178  17.4998261  79.6143617  87.7247478
  16.9473619  80.0647767  89.0603332  24.7412096  82.1272568  80.6131423
  24.0900075  82.7126648  80.2265437  25.5356458  82.6578763  80.6726460
  18.6667723  79.2161705  81.0118557  19.4398599  78.6690692  80.8731433
  19.0193122  80.0805955  81.2233018  20.5052765  80.5438087  94.2185456
  20.2142631  81.4483718  94.1032123  21.1409750  80.5854615  94.9329526
  21.4308972  77.9214936  90.8086816  22.0272544  77.6970958  90.0943779
  21.4883944  77.1799681  91.4112264  21.0034001  75.3754371  78.6437007
  21.2559521  74.8535893  77.8820470  20.0658560  75.2120517  78.7463691
  26.0477283  74.3790150  86.4511750  26.8340373  73.9609573  86.1002167
  26.3115988  75.2836242  86.6193399  26.2187361  79.8163000  81.1500407
  25.5833194  79.8897627  81.8621312  25.8884767  80.4056599  80.4719486
  31.4485710  74.3165383  87.3544729  32.1810882  73.7464600  87.5882558
  30.6925066  73.9286983  87.7951234  20.7230289  77.2782477  80.8461382
  20.6066547  76.6027381  81.5142466  20.8332549  76.7914851  80.0293535
  23.0661830  76.7392624  84.5508071  22.7020037  76.2123245  85.2620993
  23.9228946  76.3491093  84.3774557  28.9711131  68.0286957  91.8139337
  28.6394456  68.8982368  91.5900552  28.3756744  67.7123241  92.4933368
  22.7067317  71.7682524  79.5469420  22.8741720  72.6362760  79.9139891
  22.5164486  71.9309806  78.6230709  25.4642650  80.2299503  91.2135250
  25.1643373  81.1324542  91.1051057  25.1193710  79.9631686  92.0656403
  18.9155132  76.6813300  87.2471955  17.9905628  76.5489514  87.4549646
  19.1639545  77.4607519  87.7441897  28.8639794  72.7482043  88.8932687
  27.9556671  72.6797452  88.5991448  28.8127390  73.2253988  89.7214513
  22.6856538  74.2240182  80.5316087  22.5656163  74.6697232  81.3701567
  21.9909126  74.5725499  79.9729625  16.2763943  76.3246573  88.0815744
  16.4056324  76.5781052  88.9955155  15.5961394  76.9174281  87.7620399
  20.4463430  86.9943823  84.1806218  20.3687460  87.9451648  84.2594698
  19.8425074  86.6489696  84.8381144  22.9380660  74.1671689  96.8367585
  22.1613994  74.7265609  96.8270449  23.5771223  74.6528472  97.3582455
  30.7301441  70.9498482  90.6710561  30.0875821  71.2431015  90.0250356
  30.2256369  70.8351402  91.4763758  28.3841604  74.6961655  81.3596421
  29.2959460  74.9289042  81.1844118  27.8751251  75.2798699  80.7971499
  21.1927032  76.9757142  96.3985552  21.9341717  77.5142186  96.1220375
  20.4864018  77.6023431  96.5557103  26.6682372  79.1186283  94.9957713
  27.0765728  78.6768693  94.2512346  25.9459633  78.5438910  95.2491906
  23.0213442  74.0558889  92.3691270  23.8674637  74.4798303  92.5125919
  22.9612080  73.3992514  93.0629833  26.9911187  79.6787473  88.7510002
  26.3620049  79.8433187  88.0486070  26.6036849  80.0929083  89.5220966
  30.8700418  80.6141911  86.1054366  30.1851457  80.9940812  85.5551399
  30.9544268  81.2237238  86.8386314  26.1712887  71.7163258  94.0272444
  25.9273819  72.4705318  93.4906719  26.4472818  72.0948605  94.8619691
  28.1251350  78.2601870  92.7049709  28.3368245  78.9033630  92.0284090
  28.0781098  77.4264187  92.2371639  25.7277579  70.8719691  89.6086281
  24.8662058  71.1700944  89.9003019  25.7540014  71.0890090  88.6767314
  22.5439148  79.4161881  86.0160087  23.0077494  79.6949584  85.2264710
  22.2795946  78.5145326  85.8333178  19.4363229  78.9633363  88.9539850
  20.0064587  79.3920631  88.3157335  20.0271341  78.6815948  89.6524036
  21.4808034  75.5385034  82.8249652  22.1832078  75.9906077  83.2923579
  21.1488663  74.8968853  83.4529545  19.9288396  74.1296790  97.2000862
  19.2987057  74.8113071  97.4336259  19.8224484  74.0179872  96.2554000
  15.2233368  73.7968586  88.1266786  14.4332422  74.0526115  87.6506896
  15.7144616  74.6116924  88.2318826  29.2397178  81.1373826  90.8772067
  30.0614622  80.7354013  90.5954748  29.2359581  81.0342060  91.8288182
  17.1748114  74.1613166  85.0850263  16.3779277  74.2731860  85.6033758
  16.9473706  74.4999818  84.2191153  23.0053781  80.6857869  93.0332777
  23.0698214  81.1478276  93.8690949  22.2964705  80.0555234  93.1615087
  13.5071071  74.0499077  90.5581777  13.7579110  74.9346087  90.8239353
  14.0430620  73.8703678  89.7856868  37.3303171  77.4812574  87.2257038
  36.5766879  76.9119972  87.0701043  37.4650712  77.4475238  88.1727673
  22.7201799  82.3525976  82.9011758  22.5847474  83.1977512  83.3296605
  23.2611612  82.5545254  82.1377691  19.2069139  68.4317556  99.5626113
  18.8136084  67.8783755 100.2373757  20.0235279  68.7428135  99.9532630
  16.1731196  79.8701414  83.4739683  16.6855717  80.6644665  83.6245247
  16.8253909  79.1727705  83.4073284  17.9826081  82.9867171  85.5562436
  18.1592709  83.9085135  85.3683420  18.7782915  82.6725590  85.9856816
  22.1237100  69.8475435  97.1546369  22.8646813  70.4482588  97.0750832
  22.3555023  69.1053073  96.5964412  17.2678438  75.0331802  95.4324599
  17.1531953  74.1317060  95.7331698  16.4122955  75.2795499  95.0809416
  24.3470275  82.9749543  97.0312100  23.9034130  82.1885921  96.7133004
  25.0087489  83.1628693  96.3655990  19.1057397  84.5045344  91.5572778
  19.6564822  84.3762408  90.7849772  18.2668873  84.8040233  91.2067671
  26.4451514  83.2552343  95.0593501  26.4269989  84.0761224  94.5673770
  27.3671434  83.1306418  95.2843642  22.9024568  80.7696472  95.9017009
  23.4352904  80.0084760  95.6716317  22.3738649  80.4770124  96.6441164
  26.0694263  65.8756538  91.4310651  25.7258532  66.7658180  91.3549762
  26.4373225  65.6858196  90.5680236  14.1380113  78.1990069  84.2499253
  14.9755335  78.6087077  84.0332961  14.3158381  77.2589511  84.2199447
  26.0344545  75.8665149  79.9383086  25.5191169  76.6369754  80.1771474
  25.7621854  75.1930285  80.5616148  23.6191656  70.7114850  84.9968324
  22.7633253  70.3221700  84.8173963  24.0318608  70.7906811  84.1368110
  25.1490803  68.2461193  89.3959884  24.6455599  68.2091328  88.5827690
  25.4421410  69.1553936  89.4556541  21.3933689  68.3299923  88.4026066
  22.2586686  68.1342732  88.0431955  21.4611198  68.1010275  89.3295423
  31.0078819  78.6197504  81.8736260  30.2308262  78.2808663  81.4291422
  31.6870300  78.6250127  81.1991225  25.8230849  73.7392241  81.7642867
  25.5180984  74.0538391  82.6153010  26.7761291  73.8173661  81.8070200
  24.2677280  79.8982465  83.4135821  23.7398642  79.1635224  83.1009059
  23.7664783  80.6757141  83.1675790  29.2470126  78.0931485  88.5302868
  28.5893801  78.7830747  88.6182996  30.0510526  78.4827917  88.8736854
  18.9996008  70.5602131  85.7742433  19.5739760  70.3377312  85.0415626
  19.5866990  70.6290825  86.5271034  28.0575585  76.4475858  86.5806809
  28.5707467  77.0805850  87.0828519  28.7076809  75.8477053  86.2150169
  19.3265595  72.5906592  79.7938318  18.4902907  72.9281279  80.1147593
  19.1870365  72.4555572  78.8565455  21.3018676  67.4343380  84.5017502
  20.6483088  67.1192397  83.8774117  21.2599150  66.8119120  85.2277325
  22.4129881  77.7162675  76.4170794  21.5056942  77.4851928  76.6161943
  22.9100913  76.9200294  76.6044776  25.3197959  86.4260182  79.3367480
  24.6459658  86.7291879  79.9452438  25.7063781  87.2289262  78.9872938
  24.5356416  73.9225313  88.8265150  23.6178977  74.1440260  88.6686838
  24.9516560  73.9971624  87.9676857  25.3191464  75.3216729  83.9567830
  26.0663283  75.8338126  83.6474952  25.5883053  75.0000782  84.8172224
  23.5918114  77.8175270  80.9394784  22.6829333  77.5334303  81.0367254
  23.6213198  78.2374348  80.0798091  28.8237381  81.4281859  84.7085952
  28.3699709  80.5872769  84.7651142  28.1931348  82.0643258  85.0460732
  27.7670301  72.3573845  85.9386619  27.0293058  71.8451232  86.2696862
  28.0197074  71.9174227  85.1269896  27.2670321  83.2658356  85.6435770
  27.5593295  83.8263413  84.9248136  27.7768941  83.5586917  86.3988929
  27.8681928  65.1350097  86.5328389  28.1740805  64.2747461  86.2454304
  28.5934533  65.7267718  86.3327383  14.1606284  75.5380784  84.9209987
  13.9630684  74.9450145  84.1961053  13.6052948  75.2332994  85.6385925
  22.1403008  75.4303890  87.0404580  22.1951618  74.4777727  86.9647056
  21.3294210  75.5863330  87.5245878  23.2894202  79.3584013  78.2782863
  22.8513632  78.6419872  77.8188500  24.0304643  79.5860128  77.7167954
  20.0795368  74.0480950  84.7994959  19.2663233  74.3475121  85.2060151
  20.5754362  73.6536639  85.5169441  22.2303946  84.0438707  86.7329223
  22.1880125  84.2699553  85.8037755  23.1466645  83.8102082  86.8815024
  25.6769580  74.5122775  93.6309852  26.0318967  74.7394248  94.4904318
  26.3241711  74.8441151  93.0087108  31.4067317  77.6341211  84.3359182
  31.2685215  77.8242807  83.4080371  31.0503535  78.3960593  84.7927233
  19.5709443  71.6199306  90.4156194  20.2108822  71.4788065  89.7179157
  18.7386973  71.3333819  90.0394796  31.4336696  79.7017738  89.3470453
  31.8673203  79.6093027  90.1953507  32.1468277  79.6775238  88.7090469
  20.3469747  80.9201736  86.5291186  21.1410345  80.4252056  86.3273761
  19.6361439  80.3919599  86.1658892  25.1664591  83.3019832  90.8803554
  25.2201613  83.8710768  91.6481270  24.2979372  83.4721717  90.5157591
  16.6552510  75.0644818  82.6050939  15.7250098  75.0029273  82.8220901
  16.7509982  74.5420771  81.8087580  16.5738059  71.5899631  85.1929180
  16.8344876  72.5044964  85.0838341  17.3955231  71.1224073  85.3425793
  18.0462984  73.0037388  92.3628005  18.7186038  72.7954750  91.7140654
  17.2192771  72.8059474  91.9233237  32.2952246  79.7441438  91.8803338
  32.4888136  80.6487249  92.1262613  32.1952864  79.2848857  92.7141923
  23.9488556  69.6299329  94.3793666  23.3016472  70.3289278  94.2858142
  24.7189572  70.0635473  94.7469914  27.3567354  79.8948181  97.4544219
  27.2052861  79.6658733  96.5374303  27.3472034  80.8518782  97.4675564
  24.1252691  77.4680094  92.4390485  25.0544751  77.6191253  92.2659453
  23.7043721  77.5564114  91.5839132  22.9241023  81.4930758  90.2089023
  22.7852108  81.1249542  91.0814961  22.1355619  82.0078398  90.0372981
  23.5189175  86.5939855  81.5514560  23.6940930  86.1227898  82.3660182
  22.8321963  87.2205621  81.7795820  24.4746238  80.8712361  87.5977861
  24.1396070  80.8313131  88.4935511  23.9750183  80.2057077  87.1248271
  18.4490482  76.2779991  93.1230442  18.3110280  75.5460230  93.7241981
  19.3595405  76.1888891  92.8414630  27.4105429  78.2168395  77.8714921
  26.7934600  77.4915223  77.7747973  26.9421918  78.9777755  77.5281995
  21.0772782  75.9899950  92.6114122  21.7872401  75.3493142  92.5700740
  21.0342091  76.2412845  93.5340302  29.0659561  82.9267303  95.5320701
  29.0072107  82.2426524  94.8651284  29.4679079  83.6686293  95.0801327
  19.7901716  72.9765168  94.4309761  19.2539073  72.5255906  95.0831358
  19.2018425  73.1111077  93.6880226  18.0850260  89.7429217  88.3254420
  18.3246858  90.3747741  89.0033438  17.2419456  89.3917257  88.6119779
  19.2003975  72.4353819  76.9936225  18.3233442  72.3142620  76.6298471
  19.6761728  71.6439898  76.7415113  29.0676968  80.8906887  93.7634681
  28.1803747  80.5532809  93.8861079  29.6375519  80.1589919  94.0003446
  10.7206115  77.2230979  87.0877732  11.4077155  76.9092709  86.4998747
  10.5654244  78.1272344  86.8144983  15.5240838  72.1121176  91.5162756
  15.4399026  71.5046845  90.7813166  14.7023544  72.6030194  91.5172252
  22.5978122  85.5508340  90.7295924  22.5248293  86.3563311  91.2415228
  22.1555515  85.7500306  89.9043945  22.3867901  84.7880110  84.2398745
  21.6035423  85.3301790  84.3336970  23.0860647  85.3054089  84.6392987
  25.6964551  70.5974739  86.8832951  26.1933251  69.8444702  86.5634021
  24.9251533  70.6339056  86.3176160  33.5494309  76.3015105  88.5251242
  33.5384185  77.1839820  88.1545175  32.6811688  75.9486656  88.3305779
  25.0576805  85.4495174  92.8854082  25.7704777  86.0842639  92.8129984
  24.5666834  85.5459040  92.0694084  26.7794332  79.3546426  84.4571374
  25.8450611  79.4747889  84.2876078  26.9571001  78.4518893  84.1931384
  22.2799520  72.7392122  86.6104635  21.9097308  72.1863163  87.2985541
  22.7758613  72.1350256  86.0579635  30.1666883  75.1963746  84.9921408
  30.6327336  76.0291737  84.9181711  30.6174384  74.7308727  85.6966667
  20.1088719  83.1989617  93.7059653  20.8098178  83.8326100  93.8589047
  19.6383834  83.5404349  92.9455293  28.2343115  81.5407567  81.9907560
  28.5102959  81.4264162  82.9001434  27.3647613  81.1425052  81.9519733
  28.1383546  67.5644333  89.0312310  27.2246626  67.7948560  89.1994517
  28.5676648  67.6482777  89.8826342  27.9090005  75.7534225  91.5312204
  27.2561455  76.0010132  90.8764656  28.2870385  74.9398363  91.1974681
  24.8697179  85.7893918  85.6340374  25.0519573  84.9715574  86.0968126
  25.6930165  86.0061610  85.1965264  25.2039344  84.7162103  82.8955422
  25.7327111  84.2054558  82.2825585  25.4667564  84.4004633  83.7600955
  23.9577578  76.4954036  98.0178241  23.2818215  76.3948165  98.6880616
  24.7805212  76.3393250  98.4814238  15.7056437  82.7325972  90.6390756
  16.2909874  81.9869660  90.7718660  15.5081275  83.0429929  91.5227420
  18.5595092  85.7677220  85.6553198  17.8905467  86.2523347  85.1717238
  18.4207962  86.0146440  86.5696577  10.2974092  75.3031573  89.3595199
  10.3358191  74.7695163  90.1532317   9.7914384  74.7766778  88.7406176
  22.7000361  87.8020963  92.2535857  23.2518669  87.9652585  93.0184942
  23.0406554  88.3925401  91.5815882  17.6764854  70.1496113  92.8557741
  17.7406180  71.0110944  92.4435139  17.6131974  69.5370115  92.1230100
  17.1517126  72.2219246  96.5030776  17.7789165  71.8396323  97.1168300
  16.2945045  72.0033448  96.8686468  27.5511235  82.6282221  98.1084511
  28.0951139  83.2412179  97.6139466  26.9698080  83.1861799  98.6251524
  13.9282669  74.0295675  82.4349130  14.2236110  73.1206353  82.3816184
  13.0270705  74.0083414  82.1130133  25.8368748  85.7502939  89.2399539
  25.7119887  84.9492679  88.7310484  26.4947839  86.2449132  88.7513509
  17.4576916  72.1051671  88.4176679  16.7363502  72.7187639  88.2784152
  18.2470172  72.6409436  88.3393325  27.9003656  83.5511959  90.8679089
  26.9533992  83.4317310  90.7957416  28.2486429  82.6634457  90.9505350
  20.2603230  69.4406098  94.6917331  20.7837631  69.6868394  95.4543640
  20.0415563  70.2726133  94.2720468  15.6570511  71.7109772  82.5588456
  15.3283217  70.8307151  82.3763562  16.0109881  71.6557441  83.4464845
  24.9050090  83.3464675  87.0683441  24.7575052  82.4181382  87.2491011
  25.7303583  83.3684766  86.5840516  18.7712334  71.9982742  82.9263933
  19.1108406  72.5268663  82.2042542  19.2184454  72.3363148  83.7022500
  28.5084211  84.1693234  88.1548314  29.4330759  83.9636095  88.0172765
  28.3399515  83.9209635  89.0637655  21.4655775  70.3819793  92.3767001
  21.1252595  69.5827606  92.7787681  20.7594781  70.6821504  91.8043835
  22.1172247  67.4669105  90.8294324  22.9398316  66.9929583  90.7073215
  22.3610310  68.2459589  91.3293011  20.7580481  70.4957364  81.1257226
  21.4788844  70.8738617  80.6220943  20.1345785  71.2146241  81.2292204
  24.9011604  71.2002513  82.0615558  25.1175218  72.0827151  81.7604387
  24.4205671  70.8088726  81.3321200  19.6410825  74.1588226  88.6386303
  19.4955406  74.4728529  89.5310585  19.1636029  74.7773126  88.0857202
  21.5007208  71.1490774  88.6867193  21.4868777  70.2531867  88.3499491
  22.2179636  71.1561438  89.3205479  23.3533339  71.5828114  90.7320320
  23.0951117  72.5045185  90.7304650  22.8218379  71.1858549  91.4220784
  28.2979528  84.6878901  83.5110405  28.4716405  84.1225324  82.7584258
  28.7908419  85.4879796  83.3289895  14.1156487  76.6993570  91.5773964
  13.5709956  77.4753378  91.7094239  14.9935837  77.0464375  91.4193086
  20.9044104  70.0305154  83.9554763  21.0260015  69.1021800  84.1545650
  20.6146146  70.0443840  83.0433078  23.7735295  67.7160065  87.0921483
  23.7956991  67.7799398  86.1373462  24.1903354  66.8764573  87.2861989
  34.1518919  77.4515324  85.1300705  34.5950065  76.7022649  84.7319828
  33.2745429  77.4425461  84.7474437  29.2854700  84.0045666  80.6107304
  29.9805605  84.6252358  80.8294618  29.6277850  83.1541017  80.8859682
  14.9022509  75.8263467  94.4704121  14.1604245  75.9746102  95.0568751
  14.5815254  76.0871732  93.6070870  31.1846123  81.4545371  82.1394634
  31.7097447  81.7932644  81.4143954  31.0968476  80.5192386  81.9557769
  22.8466172  85.3679445  94.2684511  23.1553298  85.1228592  95.1407211
  23.6441654  85.5726083  93.7803381  22.8686784  87.5217354  86.4989888
  22.4291774  87.0293733  87.1922744  23.6194901  86.9790322  86.2581963
  15.3479123  83.7128895  86.5014516  16.1737143  83.4132667  86.1213159
  14.9973175  82.9436518  86.9504304  20.3160656  83.0655364  88.5712189
  19.6940665  82.4026069  88.2714417  20.9865523  83.0916495  87.8885837
  13.5487728  81.6315222  87.4603449  12.7119636  81.2037396  87.2787451
  13.5211373  81.8247665  88.3974240  20.3885184  71.5437152  98.1644695
  20.4373339  72.4199274  97.7822465  20.9307698  71.0014545  97.5916339
  30.8740029  82.0878275  97.4445832  30.0835573  82.0702414  96.9050332
  30.6373384  82.6266569  98.1994869  30.9937904  78.9370741  94.7578561
  31.0435909  78.7720749  95.6994084  30.8851828  78.0698000  94.3676442
  19.8774163  81.6159287  82.0470650  20.0262283  82.2994751  81.3937323
  20.6840607  81.5964377  82.5620106  28.2841667  74.9201669  96.0737868
  29.1851530  74.7808134  95.7821865  28.3589641  75.0856124  97.0136045
  22.6184472  72.2968524  94.9191054  21.7487782  72.5902090  94.6473642
  22.8543952  72.8808969  95.6398318  32.4956101  81.3567683  95.0020582
  32.2040910  81.7197663  95.8384043  31.8828232  80.6434691  94.8233915
  33.6951784  78.9220562  87.5223153  34.5298675  79.3610367  87.6860713
  33.8310912  78.4459216  86.7031398  30.7443289  76.4800297  93.4700640
  31.2197411  76.6727944  92.6619492  29.8208855  76.5359483  93.2244024
  17.6326796  77.6424465  83.0531719  17.3872838  76.7386795  83.2511929
  17.8022711  77.6441615  82.1111197  25.3223506  68.5148141  92.4356474
  25.8405450  69.2509168  92.1102963  24.9678639  68.8212134  93.2703233
  16.9022444  73.3752822  80.5517880  16.2091689  73.4497177  79.8957916
  16.6574195  72.6113166  81.0739397  25.5736100  64.9348423  87.9557371
  25.8537854  64.2671612  88.5817797  26.3586707  65.1277519  87.4432035
  23.3769569  84.1107417  79.5182397  22.8043536  84.7297604  79.0652869
  23.9502362  84.6606779  80.0522319  29.4444958  73.3566057  91.7028946
  30.3962381  73.4564155  91.7241170  29.2748409  72.5644326  92.2127030
  27.4659338  70.4421641  91.8888347  26.8709270  70.7226653  91.1934836
  27.1809035  70.9315542  92.6605088  26.5966828  84.3944567  80.6490980
  27.5297502  84.3290129  80.8523855  26.5090041  85.2300834  80.1905512
  29.2254845  83.7110438  77.6094927  29.1468477  83.3770301  78.5030685
  30.0464512  84.2032206  77.6086399  31.9233036  76.5772177  90.8171246
  31.8909356  75.6388178  91.0030930  32.5333660  76.6556214  90.0837071
  23.7616367  75.4468230  76.8598450  24.7075472  75.3174438  76.9286868
  23.3830612  74.7082892  77.3367878  32.0727525  73.3683221  90.8629529
  31.5566573  72.5841677  90.6759458  32.9567473  73.0401937  91.0276048
  29.7338252  67.1124236  86.8225342  29.5363073  66.8039324  87.7068674
  30.3437957  67.8385875  86.9523271  37.7409586  77.6388184  89.9577282
  38.4712975  77.3773472  90.5184986  37.1316532  76.9016906  89.9979350
  35.8224883  75.7796047  90.5551734  35.0958047  75.6452011  89.9468225
  35.4072170  76.0872875  91.3608452  23.6455060  79.4985976  98.3199107
  24.5658069  79.6764575  98.5139153  23.6104643  78.5542022  98.1678806
  21.9459284  73.3718206  76.7953335  21.0390740  73.0751319  76.8716049
  22.2235265  73.0748025  75.9287621  12.8637225  74.6924570  87.2452381
  12.5440009  73.8389878  86.9526755  12.3170653  74.9073148  88.0010349
  16.6417132  77.4087011  90.9621888  16.8603142  78.3404119  90.9809922
  17.0542906  77.0494985  91.7476692  23.5621350  67.9155096  82.9497576
  22.7522078  67.5702181  83.3252822  24.2505767  67.6062640  83.5385188
  25.4911898  66.9933143  84.5721873  26.0442937  67.4128596  85.2311896
  25.7281985  66.0668891  84.6144829  21.5144997  72.9820217 100.3524637
  21.4141724  73.9314574 100.2836728  21.2966540  72.6538456  99.4800707
  20.7158069  70.2305142  76.9365314  21.5777233  70.5560040  77.1961132
  20.9008413  69.4436638  76.4238380  12.7325485  78.3127481  89.2145503
  12.0388956  77.8981434  88.7015457  13.4798476  78.3548018  88.6178922
  28.8690705  69.1033668  84.0800537  28.2889374  69.7618472  83.6978590
  28.6026638  68.2811013  83.6687955  27.3194272  68.5038726  86.2821857
  27.8194050  68.6155260  85.4736176  27.9629880  68.1999779  86.9222666
  21.3776268  76.4117355  99.1689698  20.8943349  77.2117716  99.3753587
  21.4637207  76.4225300  98.2157142  14.6462227  78.2445735  87.0911518
  14.6232915  78.3433422  86.1393401  14.9562864  79.0910886  87.4128684
  17.3049605  80.3021890  91.2058132  18.2592859  80.2705833  91.1388064
  17.1062129  79.8412514  92.0208358  17.8948987  78.8723006  93.7728930
  18.7141876  79.3667085  93.7963767  18.1685795  77.9554974  93.7446497
  27.6515583  71.2633759  83.1356885  26.7641438  71.5483409  82.9177080
  28.0669572  71.1027522  82.2884162  31.0030120  71.2880280  86.8511225
  31.7790510  71.7776732  87.1235841  30.2778254  71.7138334  87.3083094
  33.4402678  72.0007899  87.9085165  34.0347169  71.7603635  87.1978474
  33.5129262  71.2815029  88.5358702  15.6599834  85.8441510  88.2228330
  15.5254302  85.0841911  87.6566328  15.2431896  86.5682410  87.7557119
  26.7958797  81.0278433  77.2304905  27.4994647  81.2328436  77.8462561
  26.0721446  81.5955195  77.4953989  27.6256607  76.7788294  83.3507176
  27.5691809  77.2356846  82.5114808  28.1784950  76.0178979  83.1730018
  31.4361413  72.5678026  84.1757295  31.1798347  72.1674662  85.0065503
  30.8114281  73.2821820  84.0507434  35.7473751  75.3074100  86.6828586
  35.1873309  75.3767289  87.4560149  35.1417254  75.1315084  85.9628083
  18.8168960  86.7410827  88.4346773  18.7001344  87.6856259  88.3325463
  17.9961406  86.4384388  88.8232572  28.7045494  81.4660962  79.2803365
  29.5391098  81.0342161  79.0980840  28.5429837  81.2942976  80.2080260
  28.3591386  77.9693076  80.6459705  28.3040190  77.8037347  79.7048149
  27.7337442  78.6769109  80.8021894  13.1483901  73.2061140  94.4721127
  13.7942765  72.6960094  94.9608352  12.9401053  73.9429822  95.0464552
  25.6737294  80.2741988  99.9713268  26.5428453  80.4482640  99.6099902
  25.1944045  81.0936404  99.8488997  21.6687512  67.4701185  80.2245023
  21.6566182  68.4143025  80.3813294  22.5610934  67.2871330  79.9304484
  19.8423474  87.3939089  91.6502701  20.7450721  87.4262699  91.9669196
  19.6160844  86.4639540  91.6649037  21.5977076  86.1470075  88.3112780
  20.6472707  86.1471937  88.1977152  21.9009562  85.4002810  87.7948814
  25.4839631  64.0643961  84.4790960  24.7172027  63.5102448  84.6247642
  25.8950336  64.1365830  85.3405112  17.4881392  70.3528757  98.5696141
  18.3512854  69.9965562  98.7799466  16.9146803  70.0142652  99.2571545
  37.3329769  91.9830614  89.3758542  37.9708179  91.8637361  88.6721882
  37.2150612  92.9311457  89.4346494  34.1419476  91.9358042  89.3120067
  33.8037987  91.8199106  88.4240602  35.0109244  91.5349207  89.2921073
  30.0006291  93.7893518  85.3016958  29.4371156  93.6983455  84.5333246
  29.8858686  92.9693422  85.7819450  34.6239259  93.0892893  95.2706272
  34.6127899  92.6945692  94.3986776  34.7859898  92.3558966  95.8640044
  27.5470723  95.2844710  88.1401178  28.3392015  94.9435534  87.7247478
  27.7867373  95.3939685  89.0603332  35.5805850  97.4564486  80.6131423
  34.9293830  98.0418566  80.2265437  36.3750213  97.9870681  80.6726460
  29.5061477  94.5453623  81.0118557  30.2792353  93.9982610  80.8731433
  29.8586876  95.4097872  81.2233018  31.3446520  95.8730005  94.2185456
  31.0536386  96.7775636  94.1032123  31.9803504  95.9146533  94.9329526
  32.2702727  93.2506854  90.8086816  32.8666299  93.0262876  90.0943779
  32.3277698  92.5091599  91.4112264  31.8427755  90.7046289  78.6437007
  32.0953276  90.1827810  77.8820470  30.9052314  90.5412434  78.7463691
  36.8871038  89.7082067  86.4511750  37.6734127  89.2901491  86.1002167
  37.1509742  90.6128160  86.6193399  37.0581115  95.1454918  81.1500407
  36.4226948  95.2189544  81.8621312  36.7278522  95.7348517  80.4719486
  42.2879465  89.6457301  87.3544729  43.0204637  89.0756517  87.5882558
  41.5318821  89.2578901  87.7951234  31.5624044  92.6074395  80.8461382
  31.4460302  91.9319298  81.5142466  31.6726304  92.1206769  80.0293535
  33.9055585  92.0684542  84.5508071  33.5413792  91.5415163  85.2620993
  34.7622701  91.6783011  84.3774557  39.8104885  83.3578875  91.8139337
  39.4788210  84.2274286  91.5900552  39.2150499  83.0415159  92.4933368
  33.5461072  87.0974442  79.5469420  33.7135474  87.9654678  79.9139891
  33.3558241  87.2601723  78.6230709  36.3036405  95.5591421  91.2135250
  36.0037128  96.4616459  91.1051057  35.9587464  95.2923604  92.0656403
  29.7548886  92.0105218  87.2471955  28.8299383  91.8781432  87.4549646
  30.0033300  92.7899437  87.7441897  39.7033549  88.0773961  88.8932687
  38.7950426  88.0089369  88.5991448  39.6521144  88.5545906  89.7214513
  33.5250293  89.5532099  80.5316087  33.4049918  89.9989150  81.3701567
  32.8302881  89.9017417  79.9729625  27.1157697  91.6538491  88.0815744
  27.2450079  91.9072970  88.9955155  26.4355149  92.2466199  87.7620399
  31.2857185 102.3235741  84.1806218  31.2081214 103.2743566  84.2594698
  30.6818828 101.9781614  84.8381144  33.7774414  89.4963606  96.8367585
  33.0007748  90.0557527  96.8270449  34.4164977  89.9820389  97.3582455
  41.5695195  86.2790399  90.6710561  40.9269575  86.5722932  90.0250356
  41.0650124  86.1643320  91.4763758  39.2235359  90.0253572  81.3596421
  40.1353215  90.2580959  81.1844118  38.7145006  90.6090617  80.7971499
  32.0320787  92.3049060  96.3985552  32.7735471  92.8434104  96.1220375
  31.3257772  92.9315349  96.5557103  37.5076126  94.4478200  94.9957713
  37.9159482  94.0060611  94.2512346  36.7853388  93.8730828  95.2491906
  33.8607196  89.3850807  92.3691270  34.7068392  89.8090221  92.5125919
  33.8005834  88.7284431  93.0629833  37.8304941  95.0079391  88.7510002
  37.2013803  95.1725105  88.0486070  37.4430603  95.4221000  89.5220966
  41.7094173  95.9433829  86.1054366  41.0245211  96.3232730  85.5551399
  41.7938022  96.5529155  86.8386314  37.0106642  87.0455175  94.0272444
  36.7667574  87.7997236  93.4906719  37.2866572  87.4240523  94.8619691
  38.9645104  93.5893788  92.7049709  39.1762000  94.2325548  92.0284090
  38.9174853  92.7556104  92.2371639  36.5671333  86.2011608  89.6086281
  35.7055812  86.4992862  89.9003019  36.5933768  86.4182007  88.6767314
  33.3832903  94.7453799  86.0160087  33.8471248  95.0241502  85.2264710
  33.1189701  93.8437244  85.8333178  30.2756984  94.2925281  88.9539850
  30.8458341  94.7212549  88.3157335  30.8665096  94.0107865  89.6524036
  32.3201789  90.8676951  82.8249652  33.0225832  91.3197995  83.2923579
  31.9882417  90.2260770  83.4529545  30.7682150  89.4588708  97.2000862
  30.1380811  90.1404989  97.4336259  30.6618238  89.3471790  96.2554000
  26.0627123  89.1260504  88.1266786  25.2726177  89.3818033  87.6506896
  26.5538370  89.9408842  88.2318826  40.0790932  96.4665743  90.8772067
  40.9008376  96.0645930  90.5954748  40.0753335  96.3633977  91.8288182
  28.0141868  89.4905083  85.0850263  27.2173032  89.6023778  85.6033758
  27.7867460  89.8291735  84.2191153  33.8447536  96.0149786  93.0332777
  33.9091968  96.4770194  93.8690949  33.1358460  95.3847151  93.1615087
  24.3464826  89.3790994  90.5581777  24.5972864  90.2638004  90.8239353
  24.8824374  89.1995596  89.7856868  48.1696925  92.8104492  87.2257038
  47.4160634  92.2411890  87.0701043  48.3044467  92.7767156  88.1727673
  33.5595554  97.6817894  82.9011758  33.4241228  98.5269430  83.3296605
  34.1005366  97.8837172  82.1377691  30.0462893  83.7609474  99.5626113
  29.6529839  83.2075672 100.2373757  30.8629034  84.0720052  99.9532630
  27.0124951  95.1993332  83.4739683  27.5249472  95.9936582  83.6245247
  27.6647664  94.5019622  83.4073284  28.8219836  98.3159088  85.5562436
  28.9986464  99.2377053  85.3683420  29.6176669  98.0017507  85.9856816
  32.9630854  85.1767353  97.1546369  33.7040568  85.7774506  97.0750832
  33.1948777  84.4344991  96.5964412  28.1072192  90.3623720  95.4324599
  27.9925707  89.4608977  95.7331698  27.2516710  90.6087417  95.0809416
  35.1864030  98.3041460  97.0312100  34.7427884  97.5177839  96.7133004
  35.8481244  98.4920611  96.3655990  29.9451151  99.8337262  91.5572778
  30.4958576  99.7054325  90.7849772  29.1062627 100.1332151  91.2067671
  37.2845268  98.5844260  95.0593501  37.2663743  99.4053141  94.5673770
  38.2065188  98.4598336  95.2843642  33.7418322  96.0988390  95.9017009
  34.2746659  95.3376678  95.6716317  33.2132403  95.8062042  96.6441164
  36.9088017  81.2048456  91.4310651  36.5652287  82.0950098  91.3549762
  37.2766980  81.0150113  90.5680236  24.9773868  93.5281986  84.2499253
  25.8149090  93.9378995  84.0332961  25.1552135  92.5881428  84.2199447
  36.8738300  91.1957067  79.9383086  36.3584923  91.9661672  80.1771474
  36.6015608  90.5222203  80.5616148  34.4585411  86.0406768  84.9968324
  33.6027007  85.6513618  84.8173963  34.8712363  86.1198729  84.1368110
  35.9884558  83.5753111  89.3959884  35.4849353  83.5383246  88.5827690
  36.2815164  84.4845854  89.4556541  32.2327443  83.6591841  88.4026066
  33.0980440  83.4634649  88.0431955  32.3004952  83.4302192  89.3295423
  41.8472574  93.9489422  81.8736260  41.0702017  93.6100581  81.4291422
  42.5264055  93.9542045  81.1991225  36.6624603  89.0684159  81.7642867
  36.3574739  89.3830308  82.6153010  37.6155045  89.1465579  81.8070200
  35.1071035  95.2274382  83.4135821  34.5792396  94.4927142  83.1009059
  34.6058538  96.0049059  83.1675790  40.0863881  93.4223403  88.5302868
  39.4287555  94.1122664  88.6182996  40.8904280  93.8119835  88.8736854
  29.8389762  85.8894049  85.7742433  30.4133514  85.6669230  85.0415626
  30.4260745  85.9582743  86.5271034  38.8969340  91.7767776  86.5806809
  39.4101221  92.4097767  87.0828519  39.5470564  91.1768971  86.2150169
  30.1659350  87.9198510  79.7938318  29.3296662  88.2573196  80.1147593
  30.0264119  87.7847489  78.8565455  32.1412430  82.7635298  84.5017502
  31.4876843  82.4484315  83.8774117  32.0992904  82.1411038  85.2277325
  33.2523635  93.0454593  76.4170794  32.3450697  92.8143846  76.6161943
  33.7494667  92.2492212  76.6044776  36.1591714 101.7552100  79.3367480
  35.4853413 102.0583797  79.9452438  36.5457536 102.5581180  78.9872938
  35.3750171  89.2517231  88.8265150  34.4572732  89.4732178  88.6686838
  35.7910314  89.3263542  87.9676857  36.1585218  90.6508647  83.9567830
  36.9057037  91.1630044  83.6474952  36.4276808  90.3292699  84.8172224
  34.4311868  93.1467187  80.9394784  33.5223088  92.8626220  81.0367254
  34.4606952  93.5666266  80.0798091  39.6631136  96.7573777  84.7085952
  39.2093463  95.9164687  84.7651142  39.0325103  97.3935175  85.0460732
  38.6064055  87.6865763  85.9386619  37.8686812  87.1743149  86.2696862
  38.8590829  87.2466145  85.1269896  38.1064075  98.5950274  85.6435770
  38.3987050  99.1555331  84.9248136  38.6162696  98.8878835  86.3988929
  38.7075683  80.4642015  86.5328389  39.0134560  79.6039378  86.2454304
  39.4328288  81.0559635  86.3327383  25.0000039  90.8672702  84.9209987
  24.8024439  90.2742062  84.1961053  24.4446703  90.5624912  85.6385925
  32.9796763  90.7595808  87.0404580  33.0345372  89.8069645  86.9647056
  32.1687965  90.9155247  87.5245878  34.1287956  94.6875931  78.2782863
  33.6907386  93.9711790  77.8188500  34.8698397  94.9152046  77.7167954
  30.9189122  89.3772868  84.7994959  30.1056988  89.6767038  85.2060151
  31.4148117  88.9828557  85.5169441  33.0697700  99.3730625  86.7329223
  33.0273879  99.5991471  85.8037755  33.9860399  99.1393999  86.8815024
  36.5163334  89.8414692  93.6309852  36.8712722  90.0686165  94.4904318
  37.1635465  90.1733069  93.0087108  42.2461071  92.9633128  84.3359182
  42.1078970  93.1534724  83.4080371  41.8897290  93.7252511  84.7927233
  30.4103197  86.9491223  90.4156194  31.0502577  86.8079982  89.7179157
  29.5780728  86.6625737  90.0394796  42.2730451  95.0309655  89.3470453
  42.7066957  94.9384944  90.1953507  42.9862031  95.0067156  88.7090469
  31.1863501  96.2493654  86.5291186  31.9804100  95.7543974  86.3273761
  30.4755193  95.7211517  86.1658892  36.0058346  98.6311749  90.8803554
  36.0595368  99.2002686  91.6481270  35.1373127  98.8013634  90.5157591
  27.4946265  90.3936736  82.6050939  26.5643853  90.3321191  82.8220901
  27.5903737  89.8712688  81.8087580  27.4131814  86.9191548  85.1929180
  27.6738631  87.8336882  85.0838341  28.2348986  86.4515991  85.3425793
  28.8856739  88.3329306  92.3628005  29.5579792  88.1246668  91.7140654
  28.0586525  88.1351392  91.9233237  43.1346000  95.0733356  91.8803338
  43.3281890  95.9779166  92.1262613  43.0346618  94.6140775  92.7141923
  34.7882311  84.9591246  94.3793666  34.1410226  85.6581196  94.2858142
  35.5583326  85.3927390  94.7469914  38.1961109  95.2240099  97.4544219
  38.0446615  94.9950650  96.5374303  38.1865788  96.1810700  97.4675564
  34.9646445  92.7972011  92.4390485  35.8938505  92.9483171  92.2659453
  34.5437475  92.8856032  91.5839132  33.7634777  96.8222676  90.2089023
  33.6245863  96.4541460  91.0814961  32.9749373  97.3370315  90.0372981
  34.3582929 101.9231772  81.5514560  34.5334685 101.4519815  82.3660182
  33.6715717 102.5497538  81.7795820  35.3139992  96.2004278  87.5977861
  34.9789825  96.1605048  88.4935511  34.8143938  95.5348994  87.1248271
  29.2884236  91.6071908  93.1230442  29.1504034  90.8752147  93.7241981
  30.1989160  91.5180809  92.8414630  38.2499184  93.5460313  77.8714921
  37.6328355  92.8207141  77.7747973  37.7815672  94.3069673  77.5281995
  31.9166537  91.3191868  92.6114122  32.6266155  90.6785060  92.5700740
  31.8735845  91.5704763  93.5340302  39.9053316  98.2559221  95.5320701
  39.8465862  97.5718441  94.8651284  40.3072834  98.9978211  95.0801327
  30.6295471  88.3057086  94.4309761  30.0932828  87.8547824  95.0831358
  30.0412179  88.4402995  93.6880226  28.9244014 105.0721135  88.3254420
  29.1640613 105.7039659  89.0033438  28.0813211 104.7209175  88.6119779
  30.0397730  87.7645737  76.9936225  29.1627196  87.6434538  76.6298471
  30.5155483  86.9731815  76.7415113  39.9070723  96.2198805  93.7634681
  39.0197502  95.8824727  93.8861079  40.4769274  95.4881836  94.0003446
  21.5599870  92.5522897  87.0877732  22.2470910  92.2384627  86.4998747
  21.4047999  93.4564261  86.8144983  26.3634592  87.4413093  91.5162756
  26.2792781  86.8338763  90.7813166  25.5417298  87.9322112  91.5172252
  33.4371876 100.8800257  90.7295924  33.3642048 101.6855229  91.2415228
  32.9949269 101.0792223  89.9043945  33.2261656 100.1172027  84.2398745
  32.4429178 100.6593708  84.3336970  33.9254401 100.6346007  84.6392987
  36.5358306  85.9266657  86.8832951  37.0327005  85.1736619  86.5634021
  35.7645287  85.9630974  86.3176160  44.3888063  91.6307022  88.5251242
  44.3777940  92.5131738  88.1545175  43.5205443  91.2778573  88.3305779
  35.8970560 100.7787091  92.8854082  36.6098532 101.4134556  92.8129984
  35.4060588 100.8750957  92.0694084  37.6188087  94.6838344  84.4571374
  36.6844365  94.8039807  84.2876078  37.7964755  93.7810811  84.1931384
  33.1193275  88.0684040  86.6104635  32.7491062  87.5155080  87.2985541
  33.6152367  87.4642173  86.0579635  41.0060638  90.5255663  84.9921408
  41.4721090  91.3583655  84.9181711  41.4568138  90.0600645  85.6966667
  30.9482473  98.5281535  93.7059653  31.6491933  99.1618018  93.8589047
  30.4777588  98.8696266  92.9455293  39.0736869  96.8699485  81.9907560
  39.3496713  96.7556079  82.9001434  38.2041368  96.4716970  81.9519733
  38.9777301  82.8936250  89.0312310  38.0640381  83.1240477  89.1994517
  39.4070402  82.9774694  89.8826342  38.7483759  91.0826142  91.5312204
  38.0955209  91.3302050  90.8764656  39.1264139  90.2690281  91.1974681
  35.7090933 101.1185836  85.6340374  35.8913328 100.3007492  86.0968126
  36.5323919 101.3353528  85.1965264  36.0433099 100.0454021  82.8955422
  36.5720865  99.5346475  82.2825585  36.3061318  99.7296551  83.7600955
  34.7971332  91.8245953  98.0178241  34.1211969  91.7240083  98.6880616
  35.6198966  91.6685167  98.4814238  26.5450191  98.0617890  90.6390756
  27.1303628  97.3161578  90.7718660  26.3475030  98.3721847  91.5227420
  29.3988847 101.0969137  85.6553198  28.7299222 101.5815265  85.1717238
  29.2601716 101.3438358  86.5696577  21.1367846  90.6323490  89.3595199
  21.1751946  90.0987081  90.1532317  20.6308139  90.1058696  88.7406176
  33.5394115 103.1312881  92.2535857  34.0912423 103.2944502  93.0184942
  33.8800309 103.7217319  91.5815882  28.5158608  85.4788031  92.8557741
  28.5799935  86.3402862  92.4435139  28.4525729  84.8662032  92.1230100
  27.9910881  87.5511163  96.5030776  28.6182920  87.1688241  97.1168300
  27.1338800  87.3325365  96.8686468  38.3904989  97.9574138  98.1084511
  38.9344893  98.5704097  97.6139466  37.8091834  98.5153717  98.6251524
  24.7676424  89.3587592  82.4349130  25.0629865  88.4498271  82.3816184
  23.8664459  89.3375332  82.1130133  36.6762502 101.0794856  89.2399539
  36.5513642 100.2784596  88.7310484  37.3341594 101.5741050  88.7513509
  28.2970671  87.4343589  88.4176679  27.5757256  88.0479557  88.2784152
  29.0863926  87.9701354  88.3393325  38.7397411  98.8803877  90.8679089
  37.7927746  98.7609228  90.7957416  39.0880184  97.9926375  90.9505350
  31.0996984  84.7698015  94.6917331  31.6231386  85.0160312  95.4543640
  30.8809317  85.6018050  94.2720468  26.4964265  87.0401690  82.5588456
  26.1676971  86.1599069  82.3763562  26.8503636  86.9849359  83.4464845
  35.7443844  98.6756593  87.0683441  35.5968807  97.7473300  87.2491011
  36.5697338  98.6976683  86.5840516  29.6106088  87.3274660  82.9263933
  29.9502161  87.8560581  82.2042542  30.0578209  87.6655066  83.7022500
  39.3477966  99.4985151  88.1548314  40.2724513  99.2928013  88.0172765
  39.1793269  99.2501553  89.0637655  32.3049529  85.7111711  92.3767001
  31.9646350  84.9119524  92.7787681  31.5988535  86.0113421  91.8043835
  32.9566001  82.7961023  90.8294324  33.7792070  82.3221501  90.7073215
  33.2004065  83.5751507  91.3293011  31.5974236  85.8249281  81.1257226
  32.3182598  86.2030534  80.6220943  30.9739540  86.5438158  81.2292204
  35.7405358  86.5294430  82.0615558  35.9568973  87.4119068  81.7604387
  35.2599426  86.1380644  81.3321200  30.4804580  89.4880144  88.6386303
  30.3349161  89.8020447  89.5310585  30.0029783  90.1065044  88.0857202
  32.3400963  86.4782692  88.6867193  32.3262531  85.5823785  88.3499491
  33.0573391  86.4853355  89.3205479  34.1927093  86.9120032  90.7320320
  33.9344871  87.8337102  90.7304650  33.6612134  86.5150466  91.4220784
  39.1373282 100.0170819  83.5110405  39.3110160  99.4517241  82.7584258
  39.6302173 100.8171714  83.3289895  24.9550242  92.0285488  91.5773964
  24.4103710  92.8045296  91.7094239  25.8329592  92.3756292  91.4193086
  31.7437859  85.3597072  83.9554763  31.8653770  84.4313718  84.1545650
  31.4539901  85.3735758  83.0433078  34.6129049  83.0451982  87.0921483
  34.6350746  83.1091315  86.1373462  35.0297108  82.2056491  87.2861989
  44.9912673  92.7807242  85.1300705  45.4343819  92.0314567  84.7319828
  44.1139184  92.7717378  84.7474437  40.1248455  99.3337583  80.6107304
  40.8199359  99.9544276  80.8294618  40.4671605  98.4832935  80.8859682
  25.7416264  91.1555384  94.4704121  24.9998000  91.3038020  95.0568751
  25.4209008  91.4163650  93.6070870  42.0239878  96.7837289  82.1394634
  42.5491202  97.1224562  81.4143954  41.9362230  95.8484304  81.9557769
  33.6859926 100.6971362  94.2684511  33.9947053 100.4520509  95.1407211
  34.4835408 100.9018001  93.7803381  33.7080539 102.8509272  86.4989888
  33.2685529 102.3585651  87.1922744  34.4588655 102.3082240  86.2581963
  26.1872877  99.0420813  86.5014516  27.0130897  98.7424585  86.1213159
  25.8366929  98.2728435  86.9504304  31.1554411  98.3947281  88.5712189
  30.5334420  97.7317986  88.2714417  31.8259278  98.4208413  87.8885837
  24.3881483  96.9607139  87.4603449  23.5513391  96.5329314  87.2787451
  24.3605128  97.1539583  88.3974240  31.2278938  86.8729069  98.1644695
  31.2767094  87.7491192  97.7822465  31.7701452  86.3306462  97.5916339
  41.7133784  97.4170192  97.4445832  40.9229328  97.3994331  96.9050332
  41.4767138  97.9558486  98.1994869  41.8331659  94.2662659  94.7578561
  41.8829664  94.1012666  95.6994084  41.7245582  93.3989918  94.3676442
  30.7167918  96.9451205  82.0470650  30.8656038  97.6286669  81.3937323
  31.5234361  96.9256295  82.5620106  39.1235421  90.2493587  96.0737868
  40.0245284  90.1100052  95.7821865  39.1983396  90.4148042  97.0136045
  33.4578227  87.6260442  94.9191054  32.5881536  87.9194008  94.6473642
  33.6937707  88.2100887  95.6398318  43.3349856  96.6859600  95.0020582
  43.0434664  97.0489581  95.8384043  42.7221987  95.9726609  94.8233915
  44.5345538  94.2512480  87.5223153  45.3692429  94.6902284  87.6860713
  44.6704667  93.7751133  86.7031398  41.5837044  91.8092215  93.4700640
  42.0591166  92.0019861  92.6619492  40.6602609  91.8651401  93.2244024
  28.4720551  92.9716382  83.0531719  28.2266592  92.0678712  83.2511929
  28.6416465  92.9733533  82.1111197  36.1617260  83.8440059  92.4356474
  36.6799204  84.5801085  92.1102963  35.8072393  84.1504052  93.2703233
  27.7416198  88.7044740  80.5517880  27.0485443  88.7789095  79.8957916
  27.4967950  87.9405083  81.0739397  36.4129855  80.2640341  87.9557371
  36.6931608  79.5963530  88.5817797  37.1980462  80.4569437  87.4432035
  34.2163323  99.4399335  79.5182397  33.6437290 100.0589522  79.0652869
  34.7896117  99.9898697  80.0522319  40.2838713  88.6857975  91.7028946
  41.2356136  88.7856073  91.7241170  40.1142163  87.8936244  92.2127030
  38.3053092  85.7713558  91.8888347  37.7103025  86.0518571  91.1934836
  38.0202789  86.2607459  92.6605088  37.4360583  99.7236485  80.6490980
  38.3691256  99.6582047  80.8523855  37.3483796 100.5592752  80.1905512
  40.0648600  99.0402355  77.6094927  39.9862231  98.7062219  78.5030685
  40.8858266  99.5324123  77.6086399  42.7626791  91.9064095  90.8171246
  42.7303111  90.9680096  91.0030930  43.3727414  91.9848131  90.0837071
  34.6010122  90.7760148  76.8598450  35.5469226  90.6466356  76.9286868
  34.2224367  90.0374810  77.3367878  42.9121279  88.6975138  90.8629529
  42.3960328  87.9133595  90.6759458  43.7961228  88.3693855  91.0276048
  40.5732006  82.4416154  86.8225342  40.3756827  82.1331242  87.7068674
  41.1831712  83.1677793  86.9523271  48.5803341  92.9680102  89.9577282
  49.3106729  92.7065390  90.5184986  47.9710286  92.2308824  89.9979350
  46.6618638  91.1087964  90.5551734  45.9351801  90.9743929  89.9468225
  46.2465925  91.4164793  91.3608452  34.4848814  94.8277894  98.3199107
  35.4051824  95.0056493  98.5139153  34.4498397  93.8833939  98.1678806
  32.7853039  88.7010124  76.7953335  31.8784494  88.4043237  76.8716049
  33.0629020  88.4039942  75.9287621  23.7030979  90.0216488  87.2452381
  23.3833763  89.1681796  86.9526755  23.1564407  90.2365066  88.0010349
  27.4810887  92.7378929  90.9621888  27.6996896  93.6696036  90.9809922
  27.8936660  92.3786903  91.7476692  34.4015104  83.2447014  82.9497576
  33.5915833  82.8994099  83.3252822  35.0899521  82.9354558  83.5385188
  36.3305653  82.3225061  84.5721873  36.8836691  82.7420514  85.2311896
  36.5675739  81.3960809  84.6144829  32.3538752  88.3112134 100.3524637
  32.2535479  89.2606491 100.2836728  32.1360294  87.9830373  99.4800707
  31.5551823  85.5597059  76.9365314  32.4170987  85.8851958  77.1961132
  31.7402168  84.7728555  76.4238380  23.5719239  93.6419399  89.2145503
  22.8782711  93.2273352  88.7015457  24.3192230  93.6839936  88.6178922
  39.7084460  84.4325586  84.0800537  39.1283129  85.0910390  83.6978590
  39.4420393  83.6102930  83.6687955  38.1588026  83.8330644  86.2821857
  38.6587805  83.9447178  85.4736176  38.8023634  83.5291696  86.9222666
  32.2170022  91.7409273  99.1689698  31.7337104  92.5409633  99.3753587
  32.3030961  91.7517218  98.2157142  25.4855982  93.5737653  87.0911518
  25.4626670  93.6725340  86.1393401  25.7956618  94.4202804  87.4128684
  28.1443360  95.6313808  91.2058132  29.0986613  95.5997750  91.1388064
  27.9455883  95.1704432  92.0208358  28.7342742  94.2014924  93.7728930
  29.5535631  94.6959003  93.7963767  29.0079549  93.2846892  93.7446497
  38.4909338  86.5925676  83.1356885  37.6035193  86.8775327  82.9177080
  38.9063327  86.4319440  82.2884162  41.8423874  86.6172197  86.8511225
  42.6184264  87.1068650  87.1235841  41.1172008  87.0430251  87.3083094
  44.2796433  87.3299816  87.9085165  44.8740923  87.0895552  87.1978474
  44.3523016  86.6106947  88.5358702  26.4993588 101.1733427  88.2228330
  26.3648056 100.4133828  87.6566328  26.0825651 101.8974327  87.7557119
  37.6352551  96.3570351  77.2304905  38.3388401  96.5620353  77.8462561
  36.9115200  96.9247113  77.4953989  38.4650362  92.1080212  83.3507176
  38.4085563  92.5648764  82.5114808  39.0178704  91.3470897  83.1730018
  42.2755168  87.8969944  84.1757295  42.0192102  87.4966580  85.0065503
  41.6508036  88.6113738  84.0507434  46.5867505  90.6366017  86.6828586
  46.0267063  90.7059207  87.4560149  45.9811009  90.4607002  85.9628083
  29.6562714 102.0702744  88.4346773  29.5395098 103.0148177  88.3325463
  28.8355160 101.7676306  88.8232572  39.5439249  96.7952880  79.2803365
  40.3784853  96.3634079  79.0980840  39.3823592  96.6234894  80.2080260
  39.1985141  93.2984993  80.6459705  39.1433945  93.1329265  79.7048149
  38.5731196  94.0061026  80.8021894  23.9877656  88.5353058  94.4721127
  24.6336520  88.0252012  94.9608352  23.7794807  89.2721739  95.0464552
  36.5131048  95.6033905  99.9713268  37.3822208  95.7774558  99.6099902
  36.0337800  96.4228322  99.8488997  32.5081266  82.7993102  80.2245023
  32.4959936  83.7434942  80.3813294  33.4004688  82.6163248  79.9304484
  30.6817228 102.7231006  91.6502701  31.5844475 102.7554617  91.9669196
  30.4554598 101.7931457  91.6649037  32.4370830 101.4761993  88.3112780
  31.4866461 101.4763854  88.1977152  32.7403316 100.7294727  87.7948814
  36.3233386  79.3935879  84.4790960  35.5565782  78.8394366  84.6247642
  36.7344091  79.4657748  85.3405112  28.3275147  85.6820675  98.5696141
  29.1906608  85.3257480  98.7799466  27.7540558  85.3434570  99.2571545
  48.1723524 107.3122531  89.3758542  48.8101934 107.1929279  88.6721882
  48.0544367 108.2603375  89.4346494  44.9813230 107.2649959  89.3120067
  44.6431742 107.1491024  88.4240602  45.8502998 106.8641124  89.2921073
  40.8400046 109.1185436  85.3016958  40.2764911 109.0275373  84.5333246
  40.7252441 108.2985340  85.7819450  45.4633013 108.4184811  95.2706272
  45.4521654 108.0237609  94.3986776  45.6253653 107.6850884  95.8640044
  38.3864478 110.6136627  88.1401178  39.1785770 110.2727452  87.7247478
  38.6261128 110.7231602  89.0603332  46.4199605 112.7856403  80.6131423
  45.7687584 113.3710484  80.2265437  47.2143967 113.3162598  80.6726460
  40.3455232 109.8745541  81.0118557  41.1186108 109.3274528  80.8731433
  40.6980631 110.7389790  81.2233018  42.1840274 111.2021923  94.2185456
  41.8930140 112.1067554  94.1032123  42.8197259 111.2438450  94.9329526
  43.1096481 108.5798771  90.8086816  43.7060053 108.3554794  90.0943779
  43.1671453 107.8383517  91.4112264  42.6821510 106.0338207  78.6437007
  42.9347030 105.5119728  77.8820470  41.7446069 105.8704352  78.7463691
  47.7264792 105.0373985  86.4511750  48.5127882 104.6193408  86.1002167
  47.9903497 105.9420077  86.6193399  47.8974870 110.4746835  81.1500407
  47.2620703 110.5481462  81.8621312  47.5672276 111.0640434  80.4719486
  53.1273219 104.9749218  87.3544729  53.8598391 104.4048435  87.5882558
  52.3712575 104.5870819  87.7951234  42.4017798 107.9366313  80.8461382
  42.2854056 107.2611216  81.5142466  42.5120058 107.4498687  80.0293535
  44.7449339 107.3976460  84.5508071  44.3807546 106.8707081  85.2620993
  45.6016455 107.0074929  84.3774557  50.6498640  98.6870792  91.8139337
  50.3181965  99.5566203  91.5900552  50.0544253  98.3707076  92.4933368
  44.3854826 102.4266359  79.5469420  44.5529228 103.2946596  79.9139891
  44.1951995 102.5893641  78.6230709  47.1430159 110.8883338  91.2135250
  46.8430882 111.7908377  91.1051057  46.7981219 110.6215522  92.0656403
  40.5942641 107.3397135  87.2471955  39.6693137 107.2073349  87.4549646
  40.8427054 108.1191354  87.7441897  50.5427303 103.4065879  88.8932687
  49.6344180 103.3381287  88.5991448  50.4914899 103.8837823  89.7214513
  44.3644047 104.8824017  80.5316087  44.2443672 105.3281068  81.3701567
  43.6696635 105.2309335  79.9729625  37.9551452 106.9830409  88.0815744
  38.0843833 107.2364888  88.9955155  37.2748903 107.5758117  87.7620399
  42.1250939 117.6527659  84.1806218  42.0474969 118.6035484  84.2594698
  41.5212583 117.3073531  84.8381144  44.6168169 104.8255524  96.8367585
  43.8401503 105.3849444  96.8270449  45.2558732 105.3112307  97.3582455
  52.4088950 101.6082317  90.6710561  51.7663330 101.9014850  90.0250356
  51.9043878 101.4935237  91.4763758  50.0629113 105.3545490  81.3596421
  50.9746969 105.5872877  81.1844118  49.5538760 105.9382534  80.7971499
  42.8714541 107.6340977  96.3985552  43.6129226 108.1726021  96.1220375
  42.1651527 108.2607266  96.5557103  48.3469881 109.7770118  94.9957713
  48.7553237 109.3352528  94.2512346  47.6247142 109.2022745  95.2491906
  44.7000951 104.7142725  92.3691270  45.5462146 105.1382138  92.5125919
  44.6399589 104.0576349  93.0629833  48.6698695 110.3371309  88.7510002
  48.0407558 110.5017023  88.0486070  48.2824358 110.7512918  89.5220966
  52.5487927 111.2725746  86.1054366  51.8638966 111.6524648  85.5551399
  52.6331777 111.8821073  86.8386314  47.8500396 102.3747093  94.0272444
  47.6061328 103.1289154  93.4906719  48.1260327 102.7532441  94.8619691
  49.8038859 108.9185705  92.7049709  50.0155754 109.5617465  92.0284090
  49.7568607 108.0848022  92.2371639  47.4065088 101.5303526  89.6086281
  46.5449567 101.8284780  89.9003019  47.4327523 101.7473925  88.6767314
  44.2226657 110.0745717  86.0160087  44.6865003 110.3533420  85.2264710
  43.9583455 109.1729161  85.8333178  41.1150738 109.6217198  88.9539850
  41.6852095 110.0504467  88.3157335  41.7058850 109.3399783  89.6524036
  43.1595543 106.1968869  82.8249652  43.8619587 106.6489913  83.2923579
  42.8276172 105.5552688  83.4529545  41.6075905 104.7880626  97.2000862
  40.9774566 105.4696907  97.4336259  41.5011993 104.6763707  96.2554000
  36.9020877 104.4552422  88.1266786  36.1119931 104.7109950  87.6506896
  37.3932125 105.2700760  88.2318826  50.9184687 111.7957661  90.8772067
  51.7402131 111.3937848  90.5954748  50.9147090 111.6925895  91.8288182
  38.8535623 104.8197001  85.0850263  38.0566786 104.9315695  85.6033758
  38.6261215 105.1583653  84.2191153  44.6841290 111.3441704  93.0332777
  44.7485723 111.8062111  93.8690949  43.9752214 110.7139069  93.1615087
  35.1858580 104.7082912  90.5581777  35.4366619 105.5929922  90.8239353
  35.7218129 104.5287514  89.7856868  59.0090680 108.1396409  87.2257038
  58.2554388 107.5703807  87.0701043  59.1438221 108.1059074  88.1727673
  44.3989308 113.0109812  82.9011758  44.2634983 113.8561347  83.3296605
  44.9399121 113.2129089  82.1377691  40.8856648  99.0901391  99.5626113
  40.4923593  98.5367590 100.2373757  41.7022788  99.4011970  99.9532630
  37.8518705 110.5285250  83.4739683  38.3643226 111.3228500  83.6245247
  38.5041418 109.8311540  83.4073284  39.6613590 113.6451006  85.5562436
  39.8380218 114.5668971  85.3683420  40.4570424 113.3309425  85.9856816
  43.8024609 100.5059271  97.1546369  44.5434322 101.1066424  97.0750832
  44.0342531  99.7636908  96.5964412  38.9465947 105.6915638  95.4324599
  38.8319462 104.7900895  95.7331698  38.0910464 105.9379335  95.0809416
  46.0257784 113.6333378  97.0312100  45.5821639 112.8469757  96.7133004
  46.6874998 113.8212529  96.3655990  40.7844906 115.1629180  91.5572778
  41.3352331 115.0346243  90.7849772  39.9456381 115.4624069  91.2067671
  48.1239022 113.9136178  95.0593501  48.1057498 114.7345059  94.5673770
  49.0458943 113.7890253  95.2843642  44.5812077 111.4280308  95.9017009
  45.1140413 110.6668596  95.6716317  44.0526158 111.1353959  96.6441164
  47.7481772  96.5340374  91.4310651  47.4046041  97.4242015  91.3549762
  48.1160734  96.3442031  90.5680236  35.8167622 108.8573904  84.2499253
  36.6542844 109.2670912  84.0332961  35.9945890 107.9173346  84.2199447
  47.7132054 106.5248985  79.9383086  47.1978678 107.2953589  80.1771474
  47.4409363 105.8514121  80.5616148  45.2979165 101.3698685  84.9968324
  44.4420762 100.9805536  84.8173963  45.7106117 101.4490646  84.1368110
  46.8278312  98.9045029  89.3959884  46.3243108  98.8675164  88.5827690
  47.1208919  99.8137771  89.4556541  43.0721198  98.9883758  88.4026066
  43.9374195  98.7926567  88.0431955  43.1398707  98.7594110  89.3295423
  52.6866328 109.2781339  81.8736260  51.9095771 108.9392499  81.4291422
  53.3657809 109.2833962  81.1991225  47.5018357 104.3976077  81.7642867
  47.1968493 104.7122226  82.6153010  48.4548800 104.4757497  81.8070200
  45.9464789 110.5566300  83.4135821  45.4186151 109.8219060  83.1009059
  45.4452292 111.3340976  83.1675790  50.9257635 108.7515321  88.5302868
  50.2681310 109.4414582  88.6182996  51.7298035 109.1411752  88.8736854
  40.6783517 101.2185966  85.7742433  41.2527269 100.9961148  85.0415626
  41.2654499 101.2874661  86.5271034  49.7363094 107.1059693  86.5806809
  50.2494976 107.7389685  87.0828519  50.3864318 106.5060889  86.2150169
  41.0053104 103.2490427  79.7938318  40.1690416 103.5865114  80.1147593
  40.8657874 103.1139407  78.8565455  42.9806185  98.0927215  84.5017502
  42.3270597  97.7776232  83.8774117  42.9386659  97.4702956  85.2277325
  44.0917390 108.3746510  76.4170794  43.1844451 108.1435764  76.6161943
  44.5888422 107.5784130  76.6044776  46.9985468 117.0844017  79.3367480
  46.3247167 117.3875714  79.9452438  47.3851290 117.8873098  78.9872938
  46.2143925 104.5809149  88.8265150  45.2966486 104.8024096  88.6686838
  46.6304069 104.6555459  87.9676857  46.9978973 105.9800564  83.9567830
  47.7450792 106.4921962  83.6474952  47.2670562 105.6584617  84.8172224
  45.2705623 108.4759105  80.9394784  44.3616842 108.1918138  81.0367254
  45.3000707 108.8958184  80.0798091  50.5024890 112.0865695  84.7085952
  50.0487217 111.2456605  84.7651142  49.8718857 112.7227093  85.0460732
  49.4457810 103.0157681  85.9386619  48.7080567 102.5035067  86.2696862
  49.6984583 102.5758062  85.1269896  48.9457830 113.9242191  85.6435770
  49.2380804 114.4847248  84.9248136  49.4556450 114.2170752  86.3988929
  49.5469437  95.7933933  86.5328389  49.8528314  94.9331296  86.2454304
  50.2722042  96.3851553  86.3327383  35.8393793 106.1964619  84.9209987
  35.6418193 105.6033980  84.1961053  35.2840457 105.8916829  85.6385925
  43.8190517 106.0887726  87.0404580  43.8739127 105.1361562  86.9647056
  43.0081719 106.2447165  87.5245878  44.9681711 110.0167849  78.2782863
  44.5301141 109.3003708  77.8188500  45.7092152 110.2443964  77.7167954
  41.7582877 104.7064786  84.7994959  40.9450742 105.0058956  85.2060151
  42.2541871 104.3120474  85.5169441  43.9091455 114.7022542  86.7329223
  43.8667634 114.9283389  85.8037755  44.8254154 114.4685917  86.8815024
  47.3557089 105.1706610  93.6309852  47.7106476 105.3978083  94.4904318
  48.0029220 105.5024987  93.0087108  53.0854826 108.2925046  84.3359182
  52.9472724 108.4826642  83.4080371  52.7291044 109.0544429  84.7927233
  41.2496952 102.2783141  90.4156194  41.8896331 102.1371900  89.7179157
  40.4174482 101.9917654  90.0394796  53.1124205 110.3601573  89.3470453
  53.5460712 110.2676862  90.1953507  53.8255786 110.3359073  88.7090469
  42.0257256 111.5785571  86.5291186  42.8197854 111.0835892  86.3273761
  41.3148948 111.0503435  86.1658892  46.8452100 113.9603667  90.8803554
  46.8989122 114.5294603  91.6481270  45.9766881 114.1305552  90.5157591
  38.3340019 105.7228653  82.6050939  37.4037607 105.6613109  82.8220901
  38.4297491 105.2004606  81.8087580  38.2525568 102.2483466  85.1929180
  38.5132385 103.1628799  85.0838341  39.0742740 101.7807909  85.3425793
  39.7250493 103.6621223  92.3628005  40.3973547 103.4538585  91.7140654
  38.8980280 103.4643309  91.9233237  53.9739755 110.4025274  91.8803338
  54.1675645 111.3071084  92.1262613  53.8740373 109.9432693  92.7141923
  45.6276065 100.2883164  94.3793666  44.9803980 100.9873114  94.2858142
  46.3977081 100.7219308  94.7469914  49.0354863 110.5532016  97.4544219
  48.8840370 110.3242568  96.5374303  49.0259543 111.5102618  97.4675564
  45.8040200 108.1263929  92.4390485  46.7332260 108.2775089  92.2659453
  45.3831230 108.2147950  91.5839132  44.6028532 112.1514593  90.2089023
  44.4639617 111.7833378  91.0814961  43.8143128 112.6662233  90.0372981
  45.1976684 117.2523690  81.5514560  45.3728439 116.7811733  82.3660182
  44.5109472 117.8789456  81.7795820  46.1533747 111.5296196  87.5977861
  45.8183579 111.4896966  88.4935511  45.6537692 110.8640912  87.1248271
  40.1277991 106.9363826  93.1230442  39.9897789 106.2044065  93.7241981
  41.0382914 106.8472726  92.8414630  49.0892938 108.8752230  77.8714921
  48.4722109 108.1499059  77.7747973  48.6209427 109.6361591  77.5281995
  42.7560291 106.6483786  92.6114122  43.4659910 106.0076978  92.5700740
  42.7129600 106.8996680  93.5340302  50.7447070 113.5851139  95.5320701
  50.6859616 112.9010359  94.8651284  51.1466588 114.3270129  95.0801327
  41.4689225 103.6349003  94.4309761  40.9326582 103.1839742  95.0831358
  40.8805934 103.7694912  93.6880226  40.8791484 103.0937655  76.9936225
  40.0020951 102.9726456  76.6298471  41.3549237 102.3023733  76.7415113
  50.7464477 111.5490723  93.7634681  49.8591256 111.2116645  93.8861079
  51.3163028 110.8173754  94.0003446  32.3993624 107.8814815  87.0877732
  33.0864664 107.5676545  86.4998747  32.2441753 108.7856179  86.8144983
  37.2028347 102.7705011  91.5162756  37.1186535 102.1630681  90.7813166
  36.3811053 103.2614029  91.5172252  44.2765631 116.2092175  90.7295924
  44.2035802 117.0147147  91.2415228  43.8343024 116.4084141  89.9043945
  44.0655410 115.4463945  84.2398745  43.2822932 115.9885625  84.3336970
  44.7648155 115.9637925  84.6392987  47.3752060 101.2558575  86.8832951
  47.8720760 100.5028537  86.5634021  46.6039042 101.2922891  86.3176160
  55.2281818 106.9598940  88.5251242  55.2171694 107.8423656  88.1545175
  54.3599197 106.6070491  88.3305779  46.7364314 116.1079009  92.8854082
  47.4492286 116.7426474  92.8129984  46.2454343 116.2042875  92.0694084
  48.4581841 110.0130262  84.4571374  47.5238120 110.1331724  84.2876078
  48.6358510 109.1102729  84.1931384  43.9587029 103.3975958  86.6104635
  43.5884817 102.8446998  87.2985541  44.4546122 102.7934091  86.0579635
  51.8454392 105.8547581  84.9921408  52.3114845 106.6875573  84.9181711
  52.2961893 105.3892563  85.6966667  41.7876228 113.8573453  93.7059653
  42.4885687 114.4909936  93.8589047  41.3171343 114.1988184  92.9455293
  49.9130624 112.1991402  81.9907560  50.1890467 112.0847997  82.9001434
  49.0435122 111.8008887  81.9519733  49.8171055  98.2228168  89.0312310
  48.9034135  98.4532395  89.1994517  50.2464157  98.3066612  89.8826342
  49.5877514 106.4118060  91.5312204  48.9348964 106.6593968  90.8764656
  49.9657894 105.5982198  91.1974681  46.5484688 116.4477753  85.6340374
  46.7307082 115.6299409  86.0968126  47.3717674 116.6645446  85.1965264
  46.8826853 115.3745938  82.8955422  47.4114620 114.8638393  82.2825585
  47.1455073 115.0588469  83.7600955  45.6365087 107.1537871  98.0178241
  44.9605724 107.0532000  98.6880616  46.4592721 106.9977085  98.4814238
  37.3843946 113.3909808  90.6390756  37.9697383 112.6453496  90.7718660
  37.1868784 113.7013764  91.5227420  40.2382601 116.4261055  85.6553198
  39.5692976 116.9107183  85.1717238  40.0995471 116.6730276  86.5696577
  31.9761601 105.9615408  89.3595199  32.0145700 105.4278999  90.1532317
  31.4701893 105.4350613  88.7406176  44.3787870 118.4604799  92.2535857
  44.9306178 118.6236420  93.0184942  44.7194063 119.0509236  91.5815882
  39.3552363 100.8079948  92.8557741  39.4193689 101.6694779  92.4435139
  39.2919483 100.1953950  92.1230100  38.8304635 102.8803081  96.5030776
  39.4576674 102.4980158  97.1168300  37.9732554 102.6617283  96.8686468
  49.2298744 113.2866056  98.1084511  49.7738648 113.8996014  97.6139466
  48.6485589 113.8445634  98.6251524  35.6070178 104.6879510  82.4349130
  35.9023619 103.7790188  82.3816184  34.7058214 104.6667249  82.1130133
  47.5156257 116.4086774  89.2399539  47.3907396 115.6076514  88.7310484
  48.1735348 116.9032967  88.7513509  39.1364425 102.7635507  88.4176679
  38.4151011 103.3771474  88.2784152  39.9257681 103.2993271  88.3393325
  49.5791165 114.2095794  90.8679089  48.6321501 114.0901145  90.7957416
  49.9273938 113.3218292  90.9505350  41.9390739 100.0989933  94.6917331
  42.4625140 100.3452230  95.4543640  41.7203072 100.9309968  94.2720468
  37.3358020 102.3693608  82.5588456  37.0070726 101.4890987  82.3763562
  37.6897390 102.3141276  83.4464845  46.5837599 114.0048510  87.0683441
  46.4362561 113.0765218  87.2491011  47.4091092 114.0268601  86.5840516
  40.4499843 102.6566577  82.9263933  40.7895915 103.1852499  82.2042542
  40.8971963 102.9946984  83.7022500  50.1871720 114.8277069  88.1548314
  51.1118268 114.6219930  88.0172765  50.0187024 114.5793470  89.0637655
  43.1443284 101.0403628  92.3767001  42.8040104 100.2411441  92.7787681
  42.4382290 101.3405339  91.8043835  43.7959756  98.1252941  90.8294324
  44.6185825  97.6513419  90.7073215  44.0397819  98.9043424  91.3293011
  42.4367990 101.1541199  81.1257226  43.1576353 101.5322452  80.6220943
  41.8133294 101.8730076  81.2292204  46.5799113 101.8586348  82.0615558
  46.7962727 102.7410986  81.7604387  46.0993180 101.4672561  81.3321200
  41.3198334 104.8172061  88.6386303  41.1742915 105.1312364  89.5310585
  40.8423538 105.4356962  88.0857202  43.1794717 101.8074609  88.6867193
  43.1656286 100.9115703  88.3499491  43.8967145 101.8145273  89.3205479
  45.0320848 102.2411949  90.7320320  44.7738626 103.1629020  90.7304650
  44.5005888 101.8442384  91.4220784  49.9767037 115.3462737  83.5110405
  50.1503914 114.7809159  82.7584258  50.4695928 116.1463631  83.3289895
  35.7943996 107.3577406  91.5773964  35.2497465 108.1337214  91.7094239
  36.6723346 107.7048210  91.4193086  42.5831613 100.6888990  83.9554763
  42.7047524  99.7605636  84.1545650  42.2933655 100.7027676  83.0433078
  45.4522803  98.3743900  87.0921483  45.4744500  98.4383233  86.1373462
  45.8690862  97.5348409  87.2861989  55.8306428 108.1099160  85.1300705
  56.2737574 107.3606485  84.7319828  54.9532938 108.1009296  84.7474437
  50.9642209 114.6629501  80.6107304  51.6593114 115.2836194  80.8294618
  51.3065359 113.8124852  80.8859682  36.5810018 106.4847302  94.4704121
  35.8391754 106.6329937  95.0568751  36.2602763 106.7455568  93.6070870
  52.8633632 112.1129207  82.1394634  53.3884956 112.4516479  81.4143954
  52.7755985 111.1776222  81.9557769  44.5253681 116.0263280  94.2684511
  44.8340807 115.7812427  95.1407211  45.3229163 116.2309919  93.7803381
  44.5474293 118.1801190  86.4989888  44.1079283 117.6877568  87.1922744
  45.2982410 117.6374157  86.2581963  37.0266632 114.3712731  86.5014516
  37.8524652 114.0716503  86.1213159  36.6760684 113.6020353  86.9504304
  41.9948165 113.7239199  88.5712189  41.3728174 113.0609904  88.2714417
  42.6653032 113.7500331  87.8885837  35.2275237 112.2899057  87.4603449
  34.3907145 111.8621231  87.2787451  35.1998882 112.4831500  88.3974240
  42.0672693 102.2020987  98.1644695  42.1160848 103.0783110  97.7822465
  42.6095207 101.6598380  97.5916339  52.5527538 112.7462110  97.4445832
  51.7623082 112.7286249  96.9050332  52.3160893 113.2850404  98.1994869
  52.6725413 109.5954577  94.7578561  52.7223418 109.4304584  95.6994084
  52.5639337 108.7281836  94.3676442  41.5561672 112.2743122  82.0470650
  41.7049792 112.9578587  81.3937323  42.3628116 112.2548212  82.5620106
  49.9629176 105.5785505  96.0737868  50.8639039 105.4391969  95.7821865
  50.0377150 105.7439959  97.0136045  44.2971981 102.9552359  94.9191054
  43.4275290 103.2485925  94.6473642  44.5331461 103.5392804  95.6398318
  54.1743610 112.0151518  95.0020582  53.8828418 112.3781499  95.8384043
  53.5615741 111.3018526  94.8233915  55.3739293 109.5804398  87.5223153
  56.2086184 110.0194202  87.6860713  55.5098421 109.1043051  86.7031398
  52.4230798 107.1384133  93.4700640  52.8984920 107.3311779  92.6619492
  51.4996364 107.1943319  93.2244024  39.3114305 108.3008300  83.0531719
  39.0660347 107.3970630  83.2511929  39.4810220 108.3025450  82.1111197
  47.0011015  99.1731976  92.4356474  47.5192959  99.9093003  92.1102963
  46.6466148  99.4795970  93.2703233  38.5809953 104.0336657  80.5517880
  37.8879198 104.1081012  79.8957916  38.3361704 103.2697001  81.0739397
  47.2523609  95.5932259  87.9557371  47.5325363  94.9255448  88.5817797
  48.0374216  95.7861354  87.4432035  45.0557078 114.7691253  79.5182397
  44.4831045 115.3881440  79.0652869  45.6289871 115.3190614  80.0522319
  51.1232467 104.0149893  91.7028946  52.0749890 104.1147990  91.7241170
  50.9535918 103.2228161  92.2127030  49.1446847 101.1005476  91.8888347
  48.5496779 101.3810489  91.1934836  48.8596544 101.5899377  92.6605088
  48.2754337 115.0528403  80.6490980  49.2085011 114.9873964  80.8523855
  48.1877550 115.8884670  80.1905512  50.9042354 114.3694273  77.6094927
  50.8255986 114.0354137  78.5030685  51.7252021 114.8616041  77.6086399
  53.6020545 107.2356012  90.8171246  53.5696865 106.2972013  91.0030930
  54.2121169 107.3140049  90.0837071  45.4403876 106.1052065  76.8598450
  46.3862981 105.9758274  76.9286868  45.0618121 105.3666727  77.3367878
  53.7515034 104.0267056  90.8629529  53.2354082 103.2425513  90.6759458
  54.6354982 103.6985773  91.0276048  51.4125761  97.7708071  86.8225342
  51.2150582  97.4623160  87.7068674  52.0225466  98.4969710  86.9523271
  59.4197095 108.2972019  89.9577282  60.1500484 108.0357307  90.5184986
  58.8104041 107.5600741  89.9979350  57.5012392 106.4379882  90.5551734
  56.7745556 106.3035847  89.9468225  57.0859679 106.7456710  91.3608452
  45.3242569 110.1569812  98.3199107  46.2445578 110.3348411  98.5139153
  45.2892152 109.2125857  98.1678806  43.6246793 104.0302042  76.7953335
  42.7178249 103.7335155  76.8716049  43.9022774 103.7331860  75.9287621
  34.5424734 105.3508405  87.2452381  34.2227518 104.4973713  86.9526755
  33.9958162 105.5656983  88.0010349  38.3204641 108.0670846  90.9621888
  38.5390651 108.9987954  90.9809922  38.7330415 107.7078821  91.7476692
  45.2408859  98.5738932  82.9497576  44.4309587  98.2286017  83.3252822
  45.9293276  98.2646475  83.5385188  47.1699407  97.6516978  84.5721873
  47.7230446  98.0712432  85.2311896  47.4069494  96.7252726  84.6144829
  43.1932506 103.6404052 100.3524637  43.0929233 104.5898409 100.2836728
  42.9754049 103.3122291  99.4800707  42.3945578 100.8888977  76.9365314
  43.2564742 101.2143875  77.1961132  42.5795922 100.1020473  76.4238380
  34.4112994 108.9711317  89.2145503  33.7176465 108.5565270  88.7015457
  35.1585985 109.0131853  88.6178922  50.5478214  99.7617503  84.0800537
  49.9676883 100.4202308  83.6978590  50.2814147  98.9394848  83.6687955
  48.9981781  99.1622561  86.2821857  49.4981559  99.2739096  85.4736176
  49.6417389  98.8583614  86.9222666  43.0563777 107.0701191  99.1689698
  42.5730858 107.8701551  99.3753587  43.1424716 107.0809136  98.2157142
  36.3249736 108.9029571  87.0911518  36.3020424 109.0017258  86.1393401
  36.6350373 109.7494721  87.4128684  38.9837114 110.9605726  91.2058132
  39.9380368 110.9289668  91.1388064  38.7849638 110.4996349  92.0208358
  39.5736496 109.5306842  93.7728930  40.3929385 110.0250920  93.7963767
  39.8473304 108.6138810  93.7446497  49.3303092 101.9217594  83.1356885
  48.4428947 102.2067245  82.9177080  49.7457081 101.7611357  82.2884162
  52.6817628 101.9464115  86.8511225  53.4578019 102.4360567  87.1235841
  51.9565763 102.3722169  87.3083094  55.1190187 102.6591734  87.9085165
  55.7134678 102.4187470  87.1978474  55.1916771 101.9398865  88.5358702
  37.3387343 116.5025345  88.2228330  37.2041811 115.7425746  87.6566328
  36.9219405 117.2266245  87.7557119  48.4746306 111.6862269  77.2304905
  49.1782156 111.8912271  77.8462561  47.7508955 112.2539030  77.4953989
  49.3044116 107.4372130  83.3507176  49.2479317 107.8940681  82.5114808
  49.8572459 106.6762814  83.1730018  53.1148922 103.2261862  84.1757295
  52.8585856 102.8258497  85.0065503  52.4901790 103.9405656  84.0507434
  57.4261260 105.9657935  86.6828586  56.8660818 106.0351124  87.4560149
  56.8204763 105.7898920  85.9628083  40.4956469 117.3994662  88.4346773
  40.3788853 118.3440095  88.3325463  39.6748915 117.0968224  88.8232572
  50.3833003 112.1244798  79.2803365  51.2178607 111.6925996  79.0980840
  50.2217346 111.9526811  80.2080260  50.0378895 108.6276911  80.6459705
  49.9827699 108.4621182  79.7048149  49.4124951 109.3352944  80.8021894
  34.8271410 103.8644975  94.4721127  35.4730274 103.3543929  94.9608352
  34.6188562 104.6013657  95.0464552  47.3524803 110.9325823  99.9713268
  48.2215962 111.1066475  99.6099902  46.8731554 111.7520240  99.8488997
  43.3475021  98.1285020  80.2245023  43.3353691  99.0726860  80.3813294
  44.2398443  97.9455165  79.9304484  41.5210983 118.0522924  91.6502701
  42.4238230 118.0846534  91.9669196  41.2948353 117.1223375  91.6649037
  43.2764585 116.8053910  88.3112780  42.3260216 116.8055772  88.1977152
  43.5797071 116.0586645  87.7948814  47.1627140  94.7227797  84.4790960
  46.3959536  94.1686283  84.6247642  47.5737845  94.7949665  85.3405112
  39.1668901 101.0112593  98.5696141  40.0300363 100.6549397  98.7799466
  38.5934312 100.6726487  99.2571545  59.0117278 122.6414449  89.3758542
  59.6495688 122.5221196  88.6721882  58.8938121 123.5895293  89.4346494
  55.8206985 122.5941877  89.3120067  55.4825496 122.4782942  88.4240602
  56.6896753 122.1933042  89.2921073  56.3026768 123.7476729  95.2706272
  56.2915408 123.3529527  94.3986776  56.4647407 123.0142801  95.8640044
  53.5215264 121.3630124  78.6437007  53.7740785 120.8411646  77.8820470
  52.5839823 121.1996270  78.7463691  58.5658547 120.3665903  86.4511750
  59.3521636 119.9485326  86.1002167  58.8297251 121.2711995  86.6193399
  63.9666974 120.3041136  87.3544729  64.6992146 119.7340353  87.5882558
  63.2106330 119.9162736  87.7951234  55.5843094 122.7268377  84.5508071
  55.2201301 122.1998998  85.2620993  56.4410210 122.3366846  84.3774557
  61.4892394 114.0162710  91.8139337  61.1575719 114.8858121  91.5900552
  60.8938008 113.6998994  92.4933368  55.2248581 117.7558277  79.5469420
  55.3922983 118.6238514  79.9139891  55.0345750 117.9185559  78.6230709
  61.3821058 118.7357796  88.8932687  60.4737935 118.6673205  88.5991448
  61.3308653 119.2129741  89.7214513  55.2037802 120.2115935  80.5316087
  55.0837427 120.6572985  81.3701567  54.5090390 120.5601252  79.9729625
  55.4561923 120.1547442  96.8367585  54.6795257 120.7141362  96.8270449
  56.0952486 120.6404225  97.3582455  63.2482704 116.9374235  90.6710561
  62.6057084 117.2306768  90.0250356  62.7437633 116.8227155  91.4763758
  60.9022868 120.6837408  81.3596421  61.8140724 120.9164795  81.1844118
  60.3932515 121.2674452  80.7971499  59.1863635 125.1062036  94.9957713
  59.5946991 124.6644446  94.2512346  58.4640897 124.5314663  95.2491906
  55.5394705 120.0434642  92.3691270  56.3855901 120.4674056  92.5125919
  55.4793343 119.3868267  93.0629833  58.6894151 117.7039011  94.0272444
  58.4455083 118.4581071  93.4906719  58.9654081 118.0824358  94.8619691
  60.6432613 124.2477623  92.7049709  60.8549509 124.8909383  92.0284090
  60.5962362 123.4139940  92.2371639  58.2458842 116.8595444  89.6086281
  57.3843321 117.1576697  89.9003019  58.2721277 117.0765843  88.6767314
  53.9989298 121.5260787  82.8249652  54.7013341 121.9781830  83.2923579
  53.6669926 120.8844606  83.4529545  52.4469659 120.1172543  97.2000862
  51.8168320 120.7988824  97.4336259  52.3405747 120.0055625  96.2554000
  47.7414632 119.7844339  88.1266786  46.9513686 120.0401868  87.6506896
  48.2325879 120.5992677  88.2318826  49.6929377 120.1488919  85.0850263
  48.8960541 120.2607613  85.6033758  49.4654969 120.4875571  84.2191153
  69.8484434 123.4688327  87.2257038  69.0948143 122.8995725  87.0701043
  69.9831976 123.4350992  88.1727673  51.7250402 114.4193309  99.5626113
  51.3317348 113.8659508 100.2373757  52.5416542 114.7303888  99.9532630
  54.6418363 115.8351188  97.1546369  55.3828077 116.4358341  97.0750832
  54.8736286 115.0928826  96.5964412  49.7859701 121.0207556  95.4324599
  49.6713216 120.1192813  95.7331698  48.9304219 121.2671252  95.0809416
  58.5875526 111.8632291  91.4310651  58.2439795 112.7533933  91.3549762
  58.9554489 111.6733949  90.5680236  58.5525809 121.8540902  79.9383086
  58.0372432 122.6245507  80.1771474  58.2803117 121.1806038  80.5616148
  56.1372920 116.6990603  84.9968324  55.2814516 116.3097453  84.8173963
  56.5499872 116.7782564  84.1368110  57.6672066 114.2336946  89.3959884
  57.1636862 114.1967082  88.5827690  57.9602673 115.1429689  89.4556541
  53.9114952 114.3175676  88.4026066  54.7767949 114.1218485  88.0431955
  53.9792461 114.0886028  89.3295423  63.5260083 124.6073257  81.8736260
  62.7489526 124.2684416  81.4291422  64.2051564 124.6125880  81.1991225
  58.3412112 119.7267994  81.7642867  58.0362248 120.0414144  82.6153010
  59.2942554 119.8049414  81.8070200  61.7651390 124.0807238  88.5302868
  61.1075064 124.7706500  88.6182996  62.5691789 124.4703670  88.8736854
  51.5177271 116.5477884  85.7742433  52.0921023 116.3253065  85.0415626
  52.1048254 116.6166579  86.5271034  60.5756849 122.4351611  86.5806809
  61.0888730 123.0681603  87.0828519  61.2258073 121.8352806  86.2150169
  51.8446859 118.5782345  79.7938318  51.0084171 118.9157032  80.1147593
  51.7051628 118.4431325  78.8565455  53.8199939 113.4219133  84.5017502
  53.1664351 113.1068150  83.8774117  53.7780413 112.7994873  85.2277325
  54.9311144 123.7038428  76.4170794  54.0238206 123.4727681  76.6161943
  55.4282176 122.9076047  76.6044776  57.0537680 119.9101066  88.8265150
  56.1360241 120.1316013  88.6686838  57.4697823 119.9847377  87.9676857
  57.8372727 121.3092482  83.9567830  58.5844546 121.8213879  83.6474952
  58.1064317 120.9876535  84.8172224  56.1099377 123.8051023  80.9394784
  55.2010597 123.5210056  81.0367254  56.1394461 124.2250101  80.0798091
  60.2851564 118.3449598  85.9386619  59.5474321 117.8326985  86.2696862
  60.5378338 117.9049980  85.1269896  60.3863192 111.1225850  86.5328389
  60.6922069 110.2623214  86.2454304  61.1115797 111.7143471  86.3327383
  54.6584271 121.4179643  87.0404580  54.7132881 120.4653480  86.9647056
  53.8475474 121.5739083  87.5245878  52.5976631 120.0356703  84.7994959
  51.7844497 120.3350874  85.2060151  53.0935626 119.6412392  85.5169441
  58.1950843 120.4998528  93.6309852  58.5500231 120.7270001  94.4904318
  58.8422974 120.8316904  93.0087108  63.9248580 123.6216964  84.3359182
  63.7866479 123.8118560  83.4080371  63.5684799 124.3836346  84.7927233
  52.0890706 117.6075059  90.4156194  52.7290085 117.4663818  89.7179157
  51.2568237 117.3209572  90.0394796  63.9517960 125.6893491  89.3470453
  64.3854466 125.5968780  90.1953507  64.6649540 125.6650991  88.7090469
  49.1733774 121.0520571  82.6050939  48.2431362 120.9905026  82.8220901
  49.2691246 120.5296524  81.8087580  49.0919323 117.5775384  85.1929180
  49.3526140 118.4920717  85.0838341  49.9136495 117.1099826  85.3425793
  50.5644248 118.9913141  92.3628005  51.2367301 118.7830503  91.7140654
  49.7374034 118.7935227  91.9233237  64.8133509 125.7317191  91.8803338
  65.0069399 126.6363002  92.1262613  64.7134127 125.2724610  92.7141923
  56.4669820 115.6175082  94.3793666  55.8197735 116.3165031  94.2858142
  57.2370835 116.0511226  94.7469914  56.6433954 123.4555847  92.4390485
  57.5726014 123.6067006  92.2659453  56.2224984 123.5439867  91.5839132
  50.9671745 122.2655744  93.1230442  50.8291543 121.5335983  93.7241981
  51.8776669 122.1764644  92.8414630  59.9286693 124.2044148  77.8714921
  59.3115864 123.4790976  77.7747973  59.4603181 124.9653508  77.5281995
  53.5954046 121.9775703  92.6114122  54.3053664 121.3368895  92.5700740
  53.5523354 122.2288598  93.5340302  52.3082980 118.9640921  94.4309761
  51.7720337 118.5131660  95.0831358  51.7199688 119.0986830  93.6880226
  51.7185239 118.4229572  76.9936225  50.8414705 118.3018373  76.6298471
  52.1942992 117.6315651  76.7415113  48.0422101 118.0996929  91.5162756
  47.9580290 117.4922598  90.7813166  47.2204807 118.5905947  91.5172252
  58.2145815 116.5850492  86.8832951  58.7114514 115.8320455  86.5634021
  57.4432796 116.6214809  86.3176160  66.0675572 122.2890858  88.5251242
  66.0565449 123.1715573  88.1545175  65.1992952 121.9362409  88.3305779
  54.7980784 118.7267875  86.6104635  54.4278571 118.1738916  87.2985541
  55.2939876 118.1226009  86.0579635  62.6848147 121.1839499  84.9921408
  63.1508599 122.0167490  84.9181711  63.1355647 120.7184480  85.6966667
  60.6564810 113.5520086  89.0312310  59.7427890 113.7824313  89.1994517
  61.0857911 113.6358530  89.8826342  60.4271268 121.7409978  91.5312204
  59.7742718 121.9885885  90.8764656  60.8051648 120.9274116  91.1974681
  56.4758841 122.4829789  98.0178241  55.7999478 122.3823918  98.6880616
  57.2986475 122.3269003  98.4814238  50.1946117 116.1371866  92.8557741
  50.2587444 116.9986697  92.4435139  50.1313238 115.5245868  92.1230100
  49.6698390 118.2094999  96.5030776  50.2970429 117.8272076  97.1168300
  48.8126309 117.9909201  96.8686468  46.4463933 120.0171428  82.4349130
  46.7417374 119.1082106  82.3816184  45.5451968 119.9959167  82.1130133
  49.9758180 118.0927424  88.4176679  49.2544765 118.7063392  88.2784152
  50.7651435 118.6285189  88.3393325  52.7784493 115.4281851  94.6917331
  53.3018895 115.6744147  95.4543640  52.5596826 116.2601886  94.2720468
  48.1751774 117.6985525  82.5588456  47.8464480 116.8182904  82.3763562
  48.5291145 117.6433194  83.4464845  51.2893597 117.9858495  82.9263933
  51.6289670 118.5144416  82.2042542  51.7365718 118.3238901  83.7022500
  53.9837038 116.3695546  92.3767001  53.6433859 115.5703359  92.7787681
  53.2776044 116.6697257  91.8043835  54.6353510 113.4544858  90.8294324
  55.4579579 112.9805337  90.7073215  54.8791574 114.2335342  91.3293011
  53.2761745 116.4833117  81.1257226  53.9970107 116.8614370  80.6220943
  52.6527049 117.2021994  81.2292204  57.4192867 117.1878266  82.0615558
  57.6356482 118.0702904  81.7604387  56.9386935 116.7964479  81.3321200
  52.1592089 120.1463979  88.6386303  52.0136669 120.4604282  89.5310585
  51.6817292 120.7648879  88.0857202  54.0188472 117.1366527  88.6867193
  54.0050040 116.2407620  88.3499491  54.7360900 117.1437191  89.3205479
  55.8714602 117.5703867  90.7320320  55.6132380 118.4920938  90.7304650
  55.3399643 117.1734302  91.4220784  53.4225368 116.0180907  83.9554763
  53.5441279 115.0897553  84.1545650  53.1327410 116.0319593  83.0433078
  56.2916558 113.7035818  87.0921483  56.3138255 113.7675151  86.1373462
  56.7084617 112.8640326  87.2861989  66.6700182 123.4391077  85.1300705
  67.1131328 122.6898402  84.7319828  65.7926693 123.4301214  84.7474437
  52.9066447 117.5312905  98.1644695  52.9554603 118.4075027  97.7822465
  53.4488961 116.9890298  97.5916339  63.5119168 124.9246494  94.7578561
  63.5617173 124.7596502  95.6994084  63.4033091 124.0573753  94.3676442
  60.8022930 120.9077422  96.0737868  61.7032793 120.7683887  95.7821865
  60.8770905 121.0731877  97.0136045  55.1365736 118.2844277  94.9191054
  54.2669045 118.5777843  94.6473642  55.3725216 118.8684722  95.6398318
  66.2133047 124.9096316  87.5223153  67.0479938 125.3486120  87.6860713
  66.3492176 124.4334969  86.7031398  63.2624553 122.4676050  93.4700640
  63.7378675 122.6603697  92.6619492  62.3390118 122.5235236  93.2244024
  57.8404769 114.5023894  92.4356474  58.3586713 115.2384921  92.1102963
  57.4859902 114.8087887  93.2703233  49.4203707 119.3628575  80.5517880
  48.7272952 119.4372930  79.8957916  49.1755459 118.5988919  81.0739397
  58.0917364 110.9224176  87.9557371  58.3719117 110.2547366  88.5817797
  58.8767971 111.1153272  87.4432035  61.9626222 119.3441810  91.7028946
  62.9143645 119.4439908  91.7241170  61.7929672 118.5520079  92.2127030
  59.9840601 116.4297394  91.8888347  59.3890534 116.7102406  91.1934836
  59.6990298 116.9191295  92.6605088  64.4414300 122.5647930  90.8171246
  64.4090620 121.6263931  91.0030930  65.0514923 122.6431967  90.0837071
  56.2797631 121.4343983  76.8598450  57.2256735 121.3050191  76.9286868
  55.9011876 120.6958645  77.3367878  64.5908788 119.3558974  90.8629529
  64.0747837 118.5717430  90.6759458  65.4748737 119.0277690  91.0276048
  62.2519515 113.0999989  86.8225342  62.0544336 112.7915077  87.7068674
  62.8619221 113.8261628  86.9523271  70.2590850 123.6263937  89.9577282
  70.9894238 123.3649225  90.5184986  69.6497795 122.8892659  89.9979350
  68.3406147 121.7671800  90.5551734  67.6139310 121.6327764  89.9468225
  67.9253434 122.0748628  91.3608452  54.4640548 119.3593959  76.7953335
  53.5572003 119.0627072  76.8716049  54.7416529 119.0623778  75.9287621
  56.0802613 113.9030849  82.9497576  55.2703342 113.5577934  83.3252822
  56.7687030 113.5938393  83.5385188  58.0093162 112.9808896  84.5721873
  58.5624200 113.4004349  85.2311896  58.2463248 112.0544644  84.6144829
  54.0326261 118.9695970 100.3524637  53.9322988 119.9190327 100.2836728
  53.8147803 118.6414209  99.4800707  53.2339332 116.2180895  76.9365314
  54.0958496 116.5435793  77.1961132  53.4189677 115.4312391  76.4238380
  61.3871969 115.0909421  84.0800537  60.8070638 115.7494225  83.6978590
  61.1207902 114.2686766  83.6687955  59.8375535 114.4914479  86.2821857
  60.3375314 114.6031013  85.4736176  60.4811143 114.1875532  86.9222666
  53.8957531 122.3993109  99.1689698  53.4124613 123.1993469  99.3753587
  53.9818470 122.4101053  98.2157142  60.1696847 117.2509512  83.1356885
  59.2822702 117.5359162  82.9177080  60.5850836 117.0903275  82.2884162
  63.5211383 117.2756033  86.8511225  64.2971773 117.7652485  87.1235841
  62.7959517 117.7014087  87.3083094  65.9583942 117.9883652  87.9085165
  66.5528432 117.7479388  87.1978474  66.0310525 117.2690782  88.5358702
  60.1437871 122.7664047  83.3507176  60.0873072 123.2232599  82.5114808
  60.6966213 122.0054732  83.1730018  63.9542677 118.5553779  84.1757295
  63.6979611 118.1550415  85.0065503  63.3295545 119.2697573  84.0507434
  68.2655014 121.2949853  86.6828586  67.7054572 121.3643042  87.4560149
  67.6598518 121.1190837  85.9628083  60.8772650 123.9568829  80.6459705
  60.8221454 123.7913100  79.7048149  60.2518705 124.6644862  80.8021894
  45.6665165 119.1936893  94.4721127  46.3124028 118.6835847  94.9608352
  45.4582316 119.9305575  95.0464552  54.1868775 113.4576938  80.2245023
  54.1747445 114.4018778  80.3813294  55.0792197 113.2747083  79.9304484
  58.0020895 110.0519714  84.4790960  57.2353291 109.4978201  84.6247642
  58.4131600 110.1241583  85.3405112  50.0062656 116.3404510  98.5696141
  50.8694117 115.9841315  98.7799466  49.4328067 116.0018405  99.2571545
  69.4269281 127.1924209  91.4310651  69.0833550 128.0825851  91.3549762
  69.7948243 127.0025867  90.5680236  71.2256946 126.4517768  86.5328389
  71.5315823 125.5915131  86.2454304  71.9509551 127.0435388  86.3327383
  71.4958564 128.8812003  89.0312310  70.5821644 129.1116230  89.1994517
  71.9251666 128.9650448  89.8826342  68.9311118 126.2516094  87.9557371
  69.2112872 125.5839283  88.5817797  69.7161725 126.4445190  87.4432035
  73.0913270 128.4291907  86.8225342  72.8938091 128.1206995  87.7068674
  73.7012975 129.1553546  86.9523271  68.8486916 128.3100814  84.5721873
  69.4017955 128.7296267  85.2311896  69.0857003 127.3836562  84.6144829
  68.8414649 125.3811632  84.4790960  68.0747045 124.8270119  84.6247642
  69.2525354 125.4533501  85.3405112   4.8148507  23.0016983  76.1003849
   5.4526917  22.8823730  75.3967189   4.6969350  23.9497827  76.1591801
   1.6238213  22.9544411  76.0365374   1.2856725  22.8385476  75.1485908
   2.4927982  22.5535576  76.0166380   2.1057996  24.1079263  81.9951579
   2.0946637  23.7132061  81.1232083   2.2678636  23.3745336  82.5885351
   3.0624588  28.4750855  67.3376729   2.4112568  29.0604936  66.9510743
   3.8568951  29.0057050  67.3971767   4.3689776  20.7268437  73.1757057
   5.1552865  20.3087860  72.8247474   4.6328480  21.6314529  73.3438705
   4.5399853  26.1641287  67.8745714   3.9045686  26.2375914  68.5866618
   4.2097259  26.7534886  67.1964793   9.7698203  20.6643670  74.0790035
  10.5023375  20.0942887  74.3127865   9.0137558  20.2765271  74.5196541
   1.3874322  23.0870912  71.2753378   1.0232530  22.5601533  71.9866299
   2.2441438  22.6969381  71.1019863   7.2923623  14.3765244  78.5384644
   6.9606948  15.2460655  78.3145859   6.6969236  14.0601528  79.2178674
   1.0279809  18.1160811  66.2714726   1.1954212  18.9841048  66.6385197
   0.8376979  18.2788093  65.3476016   3.7855143  26.5777790  77.9380557
   3.4855866  27.4802829  77.8296364   3.4406202  26.3109973  78.7901710
   7.1852286  19.0960330  75.6177994   6.2769164  19.0275739  75.3236755
   7.1339882  19.5732275  76.4459820   1.2593152  20.5149976  83.5612891
   0.4826486  21.0743896  83.5515756   1.8983715  21.0006759  84.0827761
   9.0513933  17.2976769  77.3955868   8.4088313  17.5909302  76.7495663
   8.5468861  17.1829689  78.2009065   6.7054096  21.0439942  68.0841727
   7.6171953  21.2767329  67.9089425   6.1963744  21.6276986  67.5216806
   4.9894864  25.4664570  81.7203020   5.3978220  25.0246980  80.9757652
   4.2672126  24.8917197  81.9737213   1.3425934  20.4037177  79.0936577
   2.1887129  20.8276590  79.2371226   1.2824572  19.7470801  79.7875140
   5.3123679  26.0265760  75.4755309   4.6832541  26.1911475  74.7731377
   4.9249341  26.4407370  76.2466273   9.1912911  26.9620198  72.8299672
   8.5063949  27.3419100  72.2796706   9.2756760  27.5715525  73.5631620
   4.4925380  18.0641545  80.7517750   4.2486311  18.8183605  80.2152026
   4.7685310  18.4426893  81.5864997   6.4463842  24.6080157  79.4295016
   6.6580738  25.2511917  78.7529397   6.3993591  23.7742474  78.9616946
   4.0490071  17.2197978  76.3331588   3.1874550  17.5179232  76.6248326
   4.0752506  17.4368377  75.4012621   0.8651641  25.7640169  72.7405394
   1.3289986  26.0427872  71.9510016   0.6008439  24.8623613  72.5578484
   7.5609670  27.4852113  77.6017373   8.3827114  27.0832300  77.3200055
   7.5572073  27.3820347  78.5533489   1.3266274  27.0336156  79.7578084
   1.3910706  27.4956563  80.5936256   0.6177198  26.4033521  79.8860394
  15.6515663  23.8290861  73.9502345  14.8979372  23.2598259  73.7946349
  15.7863204  23.7953526  74.8972980   1.0414291  28.7004264  69.6257064
   0.9059966  29.5455799  70.0541912   1.5824104  28.9023541  68.8622998
   2.6682768  29.3227830  83.7557406   2.2246622  28.5364209  83.4378311
   3.3299981  29.5106981  83.0901297   4.7664006  29.6030630  81.7838808
   4.7482481  30.4239511  81.2919077   5.6883926  29.4784705  82.0088949
   1.2237060  27.1174759  82.6262316   1.7565397  26.3563048  82.3961624
   0.6951141  26.8248411  83.3686470   4.3557038  22.2143437  66.6628393
   3.8403661  22.9848041  66.9016780   4.0834346  21.5408573  67.2861454
   9.3291312  24.9675791  68.5981566   8.5520755  24.6286951  68.1536728
  10.0082793  24.9728414  67.9236531   4.1443341  20.0870529  68.4888174
   3.8393476  20.4016678  69.3398317   5.0973783  20.1651949  68.5315507
   2.5889773  26.2460752  70.1381128   2.0611134  25.5113512  69.8254365
   2.0877275  27.0235428  69.8921096   7.5682619  24.4409772  75.2548174
   6.9106293  25.1309034  75.3428303   8.3723018  24.8306204  75.5982161
   6.3788077  22.7954145  73.3052116   6.8919959  23.4284137  73.8073826
   7.0289301  22.1955341  72.9395476   3.6410452  32.7738469  66.0612787
   2.9672150  33.0770166  66.6697745   4.0276274  33.5767550  65.7118244
   2.8568908  20.2703601  75.5510456   1.9391470  20.4918548  75.3932145
   3.2729052  20.3449911  74.6922164   3.6403956  21.6695016  70.6813137
   4.3875775  22.1816414  70.3720259   3.9095546  21.3479069  71.5417530
   1.9130606  24.1653557  67.6640091   1.0041826  23.8812590  67.7612561
   1.9425690  24.5852636  66.8043398   7.1449874  27.7760147  71.4331259
   6.6912201  26.9351056  71.4896449   6.5143840  28.4121545  71.7706039
   6.0882793  18.7052133  72.6631926   5.3505550  18.1929519  72.9942169
   6.3409567  18.2652514  71.8515203   5.5882813  29.6136643  72.3681077
   5.8805787  30.1741700  71.6493442   6.0981433  29.9065204  73.1234236
   1.6106694  25.7062301  65.0028170   1.1726124  24.9898160  64.5433807
   2.3517135  25.9338416  64.4413261   0.5516438  30.3916994  73.4574530
   0.5092617  30.6177841  72.5283062   1.4679137  30.1580369  73.6060331
   3.9982072  20.8601062  80.3555159   4.3531460  21.0872535  81.2149625
   4.6454203  21.1919439  79.7332414   9.7279809  23.9819498  71.0604488
   9.5897707  24.1721094  70.1325677   9.3716028  24.7438881  71.5172539
   9.7549188  26.0496025  76.0715760  10.1885695  25.9571314  76.9198814
  10.4680769  26.0253525  75.4335776   3.4877083  29.6498119  77.6048860
   3.5414106  30.2189055  78.3726576   2.6191865  29.8200004  77.2402897
  10.6164738  26.0919725  78.6048645  10.8100628  26.9965536  78.8507920
  10.5165356  25.6327145  79.4387230   5.6779847  26.2426468  84.1789526
   5.5265353  26.0137020  83.2619609   5.6684526  27.1997070  84.1920871
   2.4465183  23.8158381  79.1635792   3.3757243  23.9669541  78.9904759
   2.0256213  23.9042402  78.3084439   1.8401667  32.9418142  68.2759866
   2.0153423  32.4706185  69.0905489   1.1534455  33.5683908  68.5041127
   2.7958730  27.2190648  74.3223168   2.4608563  27.1791418  75.2180817
   2.2962676  26.5535364  73.8493578   5.7317922  24.5646682  64.5960227
   5.1147092  23.8393511  64.4993280   5.2634410  25.3256043  64.2527301
   7.3872053  29.2745591  82.2566008   7.3284599  28.5904811  81.5896591
   7.7891572  30.0164581  81.8046634   7.3889461  27.2385175  80.4879987
   6.5016239  26.9011096  80.6106386   7.9588012  26.5068206  80.7248753
   4.0177044  16.9453027  73.6078257   4.5145743  16.1922989  73.2879328
   3.2464025  16.9817343  73.0421467  11.8706801  22.6493392  75.2496549
  11.8596677  23.5318107  74.8790482  11.0024181  22.2964943  75.0551086
   3.3789298  31.7973461  79.6099389   4.0917270  32.4320926  79.5375291
   2.8879326  31.8937327  78.7939391   5.1006824  25.7024714  71.1816681
   4.1663103  25.8226176  71.0121385   5.2783493  24.7997181  70.9176691
   8.4879376  21.5442033  71.7166715   8.9539828  22.3770025  71.6427018
   8.9386876  21.0787015  72.4211973   6.5555607  27.8885854  68.7152867
   6.8315451  27.7742449  69.6246741   5.6860106  27.4903339  68.6765040
   6.2302497  22.1012512  78.2557510   5.5773947  22.3488419  77.6009963
   6.6082877  21.2876650  77.9219988   3.1909671  32.1372205  72.3585681
   3.3732065  31.3193861  72.8213433   4.0142657  32.3539897  71.9210571
   3.5251836  31.0640390  69.6200729   4.0539603  30.5532845  69.0070891
   3.7880056  30.7482920  70.4846262   2.2790070  22.8432323  84.7423547
   1.6030707  22.7426452  85.4125923   3.1017704  22.6871537  85.2059545
   1.0212853  34.1499250  78.9781163   1.5731161  34.3130872  79.7430249
   1.3619046  34.7403688  78.3061188   5.8723727  28.9760508  84.8329818
   6.4163631  29.5890466  84.3384773   5.2910572  29.5340086  85.3496831
   4.1581240  32.0981226  75.9644846   4.0332380  31.2970966  75.4555791
   4.8160331  32.5927419  75.4758815   6.2216149  29.8990246  77.5924396
   5.2746484  29.7795597  77.5202722   6.5698922  29.0112744  77.6750657
   3.2262582  29.6942962  73.7928748   3.0787544  28.7659670  73.9736318
   4.0516075  29.7163053  73.3085823   6.8296704  30.5171521  74.8793621
   7.7543251  30.3114382  74.7418072   6.6612007  30.2687922  75.7882962
   3.2224096  17.5480800  68.7860865   3.4387711  18.4305438  68.4849693
   2.7418163  17.1567013  68.0566507   6.6192020  31.0357188  70.2355712
   6.7928897  30.4703611  69.4829564   7.1120911  31.8358083  70.0535202
  12.4731411  23.7993611  71.8546012  12.9162557  23.0500937  71.4565135
  11.5957921  23.7903748  71.4719744   7.6067192  30.3523953  67.3352610
   8.3018097  30.9730646  67.5539925   7.9490343  29.5019304  67.6104988
   9.5058616  27.8023658  68.8639941  10.0309940  28.1410931  68.1389261
   9.4180968  26.8670674  68.6803076   1.1678664  31.7157732  80.9929818
   1.4765791  31.4706879  81.8652517   1.9654146  31.9204371  80.5048688
   1.1899276  33.8695642  73.2235194   0.7504267  33.3772020  73.9168051
   1.9407393  33.3268609  72.9827269   9.1952522  28.4356562  84.1691139
   8.4048065  28.4180701  83.6295638   8.9585876  28.9744856  84.9240176
   9.3150397  25.2849028  81.4823868   9.3648402  25.1199036  82.4239390
   9.2064320  24.4176287  81.0921748   6.6054159  21.2679956  82.7983174
   7.5064022  21.1286421  82.5067172   6.6802134  21.4334411  83.7381352
  10.8168593  27.7045970  81.7265889  10.5253402  28.0675950  82.5629350
  10.2040725  26.9912978  81.5479221  12.0164276  25.2698850  74.2468459
  12.8511167  25.7088654  74.4106020  12.1523405  24.7937503  73.4276705
   9.0655782  22.8278585  80.1945947   9.5409903  23.0206231  79.3864798
   8.1421347  22.8837770  79.9489331   1.6982061  30.4585705  66.2427704
   1.1256028  31.0775892  65.7898176   2.2714855  31.0085066  66.7767626
   7.7657451  19.7044345  78.4274253   8.7174874  19.8042442  78.4486477
   7.5960901  18.9122613  78.9372337   5.7871830  16.7899928  78.6133654
   5.1921762  17.0704941  77.9180142   5.5021527  17.2793829  79.3850395
   4.9179321  30.7422855  67.3736286   5.8509994  30.6768416  67.5769162
   4.8302533  31.5779122  66.9150819   7.5467337  30.0588725  64.3340234
   7.4680969  29.7248589  65.2275992   8.3677004  30.5510493  64.3331706
  10.2445529  22.9250464  77.5416552  10.2121849  21.9866465  77.7276236
  10.8546152  23.0034501  76.8082377   2.0828859  21.7946517  63.5843756
   3.0287964  21.6652725  63.6532174   1.7043104  21.0561179  64.0613185
  10.3940017  19.7161508  77.5874836   9.8779066  18.9319964  77.4004764
  11.2779966  19.3880224  77.7521355   8.0550744  13.4602523  73.5470648
   7.8575565  13.1517612  74.4313980   8.6650450  14.1864162  73.6768578
  16.0622078  23.9866471  76.6822589  16.7925467  23.7251759  77.2430292
  15.4529024  23.2495193  76.7224657  14.1437375  22.1274334  77.2797040
  13.4170539  21.9930299  76.6713532  13.7284662  22.4351162  78.0853758
   1.9667552  25.8464263  85.0444413   2.8870561  26.0242862  85.2384460
   1.9317135  24.9020309  84.8924113   7.1903198  15.4511955  70.8045844
   6.6101867  16.1096759  70.4223896   6.9239130  14.6289300  70.3933261
   5.6406764  14.8517013  73.0067164   6.1406542  14.9633548  72.1981483
   6.2842372  14.5478066  73.6467973   5.9728076  17.6112046  69.8602192
   5.0853931  17.8961696  69.6422387   6.3882065  17.4505809  69.0129469
   9.3242612  17.6358567  73.5756531  10.1003002  18.1255019  73.8481148
   8.5990746  18.0616621  74.0328401  11.7615170  18.3486186  74.6330472
  12.3559661  18.1081922  73.9223780  11.8341754  17.6293317  75.2604008
   5.1171289  27.3756720  63.9550212   5.8207139  27.5806723  64.5707868
   4.3933938  27.9433482  64.2199296   5.9469099  23.1266582  70.0752482
   5.8904301  23.5835133  69.2360115   6.4997442  22.3657266  69.8975325
   9.7573905  18.9156314  70.9002602   9.5010840  18.5152949  71.7310809
   9.1326773  19.6300108  70.7752741  14.0686243  21.6552387  73.4073893
  13.5085801  21.7245576  74.1805455  13.4629747  21.4793371  72.6873389
   7.0257987  27.8139250  66.0048672   7.8603590  27.3820448  65.8226147
   6.8642329  27.6421263  66.9325567   6.6803879  24.3171363  67.3705011
   6.6252682  24.1515634  66.4293456   6.0549934  25.0247396  67.5267201
   3.9949786  26.6220275  86.6958574   4.8640946  26.7960927  86.3345209
   3.5156537  27.4414692  86.5734304  15.6542262  38.3308901  76.1003849
  16.2920672  38.2115648  75.3967189  15.5363105  39.2789745  76.1591801
  12.4631968  38.2836329  76.0365374  12.1250479  38.1677394  75.1485908
  13.3321736  37.8827494  76.0166380   8.3218784  40.1371805  72.0262264
   7.7583649  40.0461742  71.2578552   8.2071179  39.3171710  72.5064757
  12.9451751  39.4371181  81.9951579  12.9340392  39.0423979  81.1232083
  13.1072390  38.7037253  82.5885351   5.8683216  41.6322997  74.8646485
   6.6604507  41.2913822  74.4492784   6.1079866  41.7417972  75.7848638
  13.9018342  43.8042773  67.3376729  13.2506322  44.3896853  66.9510743
  14.6962705  44.3348968  67.3971767   7.8273969  40.8931910  67.7363864
   8.6004845  40.3460897  67.5976740   8.1799368  41.7576159  67.9478325
   9.6659012  42.2208292  80.9430763   9.3748878  43.1253923  80.8277429
  10.3015996  42.2624820  81.6574833  10.5915219  39.5985141  77.5332123
  11.1878791  39.3741163  76.8189086  10.6490190  38.8569886  78.1357571
  10.1640247  37.0524576  65.3682314  10.4165768  36.5306098  64.6065777
   9.2264806  36.8890722  65.4708997  15.2083530  36.0560355  73.1757057
  15.9946619  35.6379778  72.8247474  15.4722234  36.9606447  73.3438705
  15.3793607  41.4933205  67.8745714  14.7439440  41.5667831  68.5866618
  15.0491014  42.0826804  67.1964793  20.6091957  35.9935588  74.0790035
  21.3417129  35.4234805  74.3127865  19.8531313  35.6057188  74.5196541
   9.8836536  38.9552682  67.5706689   9.7672794  38.2797586  68.2387773
   9.9938796  38.4685056  66.7538842  12.2268077  38.4162829  71.2753378
  11.8626284  37.8893450  71.9866299  13.0835193  38.0261298  71.1019863
  18.1317378  29.7057162  78.5384644  17.8000702  30.5752573  78.3145859
  17.5362991  29.3893446  79.2178674  11.8673564  33.4452729  66.2714726
  12.0347966  34.3132965  66.6385197  11.6770733  33.6080011  65.3476016
  14.6248897  41.9069708  77.9380557  14.3249620  42.8094747  77.8296364
  14.2799957  41.6401891  78.7901710   8.0761379  38.3583505  73.9717261
   7.1511875  38.2259719  74.1794953   8.3245792  39.1377724  74.4687204
  18.0246041  34.4252248  75.6177994  17.1162918  34.3567657  75.3236755
  17.9733637  34.9024193  76.4459820  11.8462785  35.9010386  67.2561393
  11.7262410  36.3467437  68.0946873  11.1515373  36.2495704  66.6974931
   5.4370190  38.0016778  74.8061050   5.5662571  38.2551257  75.7200462
   4.7567641  38.5944486  74.4865705   9.6069677  48.6714028  70.9051524
   9.5293707  49.6221853  70.9840005   9.0031321  48.3259901  71.5626451
  12.0986907  35.8441894  83.5612891  11.3220241  36.4035814  83.5515756
  12.7377470  36.3298677  84.0827761  19.8907687  32.6268686  77.3955868
  19.2482068  32.9201220  76.7495663  19.3862616  32.5121607  78.2009065
  17.5447851  36.3731860  68.0841727  18.4565707  36.6059246  67.9089425
  17.0357498  36.9568904  67.5216806  10.3533279  38.6527347  83.1230858
  11.0947963  39.1912391  82.8465682   9.6470264  39.2793636  83.2802410
  15.8288619  40.7956488  81.7203020  16.2371975  40.3538898  80.9757652
  15.1065880  40.2209115  81.9737213  12.1819689  35.7329094  79.0936577
  13.0280884  36.1568508  79.2371226  12.1218326  35.0762719  79.7875140
  16.1517433  41.3557678  75.4755309  15.5226296  41.5203392  74.7731377
  15.7643095  41.7699288  76.2466273  20.0306665  42.2912116  72.8299672
  19.3457703  42.6711017  72.2796706  20.1150514  42.9007443  73.5631620
  15.3319134  33.3933463  80.7517750  15.0880066  34.1475523  80.2152026
  15.6079065  33.7718810  81.5864997  17.2857597  39.9372075  79.4295016
  17.4974492  40.5803835  78.7529397  17.2387345  39.1034392  78.9616946
  14.8883826  32.5489896  76.3331588  14.0268305  32.8471149  76.6248326
  14.9146260  32.7660295  75.4012621  11.7045395  41.0932086  72.7405394
  12.1683741  41.3719789  71.9510016  11.4402193  40.1915531  72.5578484
   8.5969476  40.6403568  75.6785157   9.1670833  41.0690836  75.0402642
   9.1877588  40.3586152  76.3769343  10.6414281  37.2155239  69.5494959
  11.3438325  37.6676282  70.0168885  10.3094910  36.5739057  70.1774852
   9.0894643  35.8066995  83.9246168   8.4593303  36.4883276  84.1581565
   8.9830731  35.6950077  82.9799307   4.3839615  35.4738791  74.8512093
   3.5938669  35.7296320  74.3752203   4.8750863  36.2887129  74.9564133
  18.4003425  42.8144030  77.6017373  19.2220868  42.4124218  77.3200055
  18.3965828  42.7112265  78.5533489   6.3354361  35.8383370  71.8095569
   5.5385524  35.9502065  72.3279065   6.1079953  36.1770023  70.9436460
  12.1660028  42.3628074  79.7578084  12.2304461  42.8248481  80.5936256
  11.4570952  41.7325439  79.8860394   2.6677318  35.7269282  77.2827083
   2.9185357  36.6116292  77.5484659   3.2036867  35.5473883  76.5102175
  11.8808046  44.0296181  69.6257064  11.7453721  44.8747717  70.0541912
  12.4217858  44.2315459  68.8622998   8.3675385  30.1087761  86.2871419
   7.9742331  29.5553960  86.9619064   9.1841526  30.4198340  86.6777937
   5.3337443  41.5471619  70.1984989   5.8461964  42.3414869  70.3490554
   5.9860156  40.8497910  70.1318591   7.1432328  44.6637376  72.2807742
   7.3198956  45.5855340  72.0928726   7.9389161  44.3495795  72.7102122
  11.2843346  31.5245640  83.8791676  12.0253060  32.1252793  83.7996138
  11.5161269  30.7823278  83.3209719   6.4284684  36.7102007  82.1569906
   6.3138200  35.8087265  82.4577005   5.5729202  36.9565704  81.8054722
  13.5076522  44.6519748  83.7557406  13.0640376  43.8656126  83.4378311
  14.1693736  44.8398898  83.0901297   8.2663643  46.1815549  78.2818085
   8.8171069  46.0532613  77.5095079   7.4275119  46.4810438  77.9312978
  15.6057760  44.9322548  81.7838808  15.5876236  45.7531429  81.2919077
  16.5277680  44.8076623  82.0088949  12.0630814  42.4466677  82.6262316
  12.5959151  41.6854965  82.3961624  11.5344896  42.1540329  83.3686470
  15.2300509  27.5526743  78.1555958  14.8864779  28.4428385  78.0795068
  15.5979472  27.3628401  77.2925543   3.2986360  39.8760274  70.9744560
   4.1361582  40.2857282  70.7578268   3.4764628  38.9359716  70.9444754
  15.1950792  37.5435354  66.6628393  14.6797416  38.3139959  66.9016780
  14.9228101  36.8700490  67.2861454  12.7797903  32.3885055  71.7213631
  11.9239499  31.9991905  71.5419270  13.1924855  32.4677016  70.8613417
  14.3097050  29.9231398  76.1205191  13.8061845  29.8861533  75.3072996
  14.6027657  30.8324141  76.1801848  10.5539936  30.0070128  75.1271373
  11.4192932  29.8112937  74.7677262  10.6217445  29.7780480  76.0540729
  20.1685066  40.2967709  68.5981566  19.3914509  39.9578868  68.1536728
  20.8476547  40.3020332  67.9236531  14.9837095  35.4162446  68.4888174
  14.6787231  35.7308595  69.3398317  15.9367537  35.4943866  68.5315507
  13.4283527  41.5752670  70.1381128  12.9004889  40.8405429  69.8254365
  12.9271030  42.3527346  69.8921096  18.4076373  39.7701690  75.2548174
  17.7500048  40.4600951  75.3428303  19.2116772  40.1598122  75.5982161
   8.1602255  32.2372336  72.4987739   8.7346007  32.0147517  71.7660932
   8.7473237  32.3061030  73.2516341  17.2181832  38.1246063  73.3052116
  17.7313714  38.7576055  73.8073826  17.8683056  37.5247258  72.9395476
   8.4871842  34.2676797  66.5183625   7.6509154  34.6051483  66.8392899
   8.3476612  34.1325777  65.5810762  10.4624922  29.1113585  71.2262809
   9.8089335  28.7962602  70.6019424  10.4205397  28.4889325  71.9522632
  11.5736127  39.3932880  63.1416101  10.6663189  39.1622133  63.3407250
  12.0707159  38.5970499  63.3290082  14.4804206  48.1030387  66.0612787
  13.8065905  48.4062084  66.6697745  14.8670028  48.9059467  65.7118244
  13.6962663  35.5995518  75.5510456  12.7785224  35.8210465  75.3932145
  14.1122806  35.6741829  74.6922164  14.4797711  36.9986934  70.6813137
  15.2269530  37.5108331  70.3720259  14.7489300  36.6770987  71.5417530
  12.7524361  39.4945475  67.6640091  11.8435580  39.2104508  67.7612561
  12.7819445  39.9144553  66.8043398  17.9843628  43.1052064  71.4331259
  17.5305955  42.2642974  71.4896449  17.3537595  43.7413463  71.7706039
  16.9276548  34.0344050  72.6631926  16.1899305  33.5221436  72.9942169
  17.1803321  33.5944432  71.8515203  16.4276567  44.9428561  72.3681077
  16.7199542  45.5033618  71.6493442  16.9375188  45.2357122  73.1234236
  17.0288175  26.8120302  73.2573695  17.3347052  25.9517666  72.9699610
  17.7540780  27.4037922  73.0572689   3.3212531  37.2150989  71.6455293
   3.1236931  36.6220350  70.9206360   2.7659195  36.9103199  72.3631232
  11.3009255  37.1074095  73.7649886  11.3557865  36.1547932  73.6892363
  10.4900457  37.2633534  74.2491185  12.4500449  41.0354218  65.0028170
  12.0119878  40.3190077  64.5433807  13.1910889  41.2630333  64.4413261
   9.2401615  35.7251155  71.5240265   8.4269480  36.0245326  71.9305457
   9.7360609  35.3306844  72.2414747  11.3910193  45.7208912  73.4574530
  11.3486371  45.9469758  72.5283062  12.3072891  45.4872287  73.6060331
  14.8375826  36.1892980  80.3555159  15.1925214  36.4164453  81.2149625
  15.4847958  36.5211356  79.7332414  20.5673563  39.3111415  71.0604488
  20.4291462  39.5013011  70.1325677  20.2109782  40.0730798  71.5172539
   8.7315689  33.2969511  77.1401500   9.3715069  33.1558270  76.4424464
   7.8993220  33.0104024  76.7640102  20.5942943  41.3787942  76.0715760
  21.0279450  41.2863232  76.9198814  21.3074524  41.3545443  75.4335776
   9.5075993  42.5971941  73.2536493  10.3016592  42.1022261  73.0519068
   8.7967686  42.0689804  72.8904198  14.3270838  44.9790037  77.6048860
  14.3807860  45.5480973  78.3726576  13.4585619  45.1491922  77.2402897
   5.8158757  36.7415023  69.3296245   4.8856345  36.6799478  69.5466207
   5.9116229  36.2190976  68.5332887   5.7344306  33.2669836  71.9174487
   5.9951123  34.1815169  71.8083647   6.5561478  32.7994278  72.0671100
   7.2069231  34.6807593  79.0873312   7.8792285  34.4724955  78.4385960
   6.3799018  34.4829679  78.6478544  21.4558493  41.4211643  78.6048645
  21.6494383  42.3257454  78.8507920  21.3559111  40.9619062  79.4387230
  13.1094803  31.3069534  81.1038972  12.4622718  32.0059483  81.0103449
  13.8795819  31.7405678  81.4715221  16.5173601  41.5718386  84.1789526
  16.3659108  41.3428938  83.2619609  16.5078281  42.5288987  84.1920871
  13.2858938  39.1450299  79.1635792  14.2150998  39.2961458  78.9904759
  12.8649968  39.2334319  78.3084439  12.0847269  43.1700963  76.9334330
  11.9458355  42.8019747  77.8060268  11.2961866  43.6848602  76.7618288
  12.6795421  48.2710059  68.2759866  12.8547177  47.7998103  69.0905489
  11.9928209  48.8975826  68.5041127  13.6352485  42.5482566  74.3223168
  13.3002317  42.5083336  75.2180817  13.1356430  41.8827282  73.8493578
   7.6096728  37.9550196  79.8475749   7.4716526  37.2230435  80.4487288
   8.5201652  37.8659096  79.5659936  16.5711676  39.8938600  64.5960227
  15.9540847  39.1685428  64.4993280  16.1028165  40.6547960  64.2527301
  10.2379029  37.6670155  79.3359428  10.9478648  37.0263347  79.2946047
  10.1948337  37.9183050  80.2585609  18.2265808  44.6037508  82.2566008
  18.1678354  43.9196729  81.5896591  18.6285326  45.3456498  81.8046634
   8.9507963  34.6535373  81.1555068   8.4145320  34.2026111  81.8076664
   8.3624672  34.7881282  80.4125532   7.2456507  51.4199422  75.0499726
   7.4853105  52.0517946  75.7278745   6.4025703  51.0687462  75.3365086
   8.3610222  34.1124024  63.7181531   7.4839688  33.9912825  63.3543778
   8.8367975  33.3210103  63.4660420  18.2283215  42.5677092  80.4879987
  17.3409994  42.2303014  80.6106386  18.7981766  41.8360124  80.7248753
   4.6847084  33.7891381  78.2408062   4.6005273  33.1817050  77.5058472
   3.8629791  34.2800399  78.2417559  11.7584368  47.2278545  77.4541230
  11.6854540  48.0333516  77.9660535  11.3161762  47.4270511  76.6289252
  11.5474148  46.4650315  70.9644052  10.7641670  47.0071995  71.0582276
  12.2466893  46.9824294  71.3638293  14.8570798  32.2744944  73.6078257
  15.3539498  31.5214907  73.2879328  14.0857780  32.3109261  73.0421467
  22.7100556  37.9785310  75.2496549  22.6990432  38.8610025  74.8790482
  21.8417935  37.6256861  75.0551086  14.2183052  47.1265379  79.6099389
  14.9311024  47.7612844  79.5375291  13.7273081  47.2229245  78.7939391
  15.9400579  41.0316631  71.1816681  15.0056858  41.1518094  71.0121385
  16.1177247  40.1289098  70.9176691  11.4405767  34.4162327  73.3349942
  11.0703555  33.8633368  74.0230848  11.9364859  33.8120461  72.7824942
  19.3273130  36.8733951  71.7166715  19.7933582  37.7061942  71.6427018
  19.7780631  36.4078932  72.4211973   9.2694966  44.8759822  80.4304960
   9.9704425  45.5096305  80.5834354   8.7990081  45.2174554  79.6700599
  17.3949361  43.2177772  68.7152867  17.6709205  43.1034367  69.6246741
  16.5253860  42.8195257  68.6765040  17.2989793  29.2414538  75.7557616
  16.3852873  29.4718765  75.9239823  17.7282894  29.3252982  76.6071649
  17.0696252  37.4304430  78.2557510  16.4167702  37.6780337  77.6009963
  17.4476631  36.6168568  77.9219988  14.0303425  47.4664123  72.3585681
  14.2125820  46.6485779  72.8213433  14.8536411  47.6831815  71.9210571
  14.3645591  46.3932308  69.6200729  14.8933357  45.8824763  69.0070891
  14.6273810  46.0774838  70.4846262  13.1183825  38.1724241  84.7423547
  12.4424462  38.0718370  85.4125923  13.9411458  38.0163454  85.2059545
   4.8662684  44.4096177  77.3636063   5.4516120  43.6639865  77.4963967
   4.6687522  44.7200134  78.2472726   7.7201339  47.4447425  72.3798505
   7.0511714  47.9293552  71.8962545   7.5814209  47.6916645  73.2941884
  11.8606607  49.4791168  78.9781163  12.4124915  49.6422790  79.7430249
  12.2012801  50.0695606  78.3061188   6.8371101  31.8266318  79.5803048
   6.9012427  32.6881149  79.1680446   6.7738221  31.2140320  78.8475407
   6.3123373  33.8989450  83.2276082   6.9395412  33.5166528  83.8413607
   5.4551292  33.6803652  83.5931775  16.7117482  44.3052426  84.8329818
  17.2557386  44.9182384  84.3384773  16.1304327  44.8632004  85.3496831
   3.0888916  35.7065880  69.1594437   3.3842357  34.7976558  69.1061491
   2.1876952  35.6853619  68.8375439  14.9974995  47.4273144  75.9644846
  14.8726134  46.6262884  75.4555791  15.6554086  47.9219337  75.4758815
   6.6183163  33.7821876  75.1421986   5.8969749  34.3957844  75.0029459
   7.4076419  34.3179641  75.0638632  17.0609903  45.2282164  77.5924396
  16.1140239  45.1087515  77.5202722  17.4092676  44.3404662  77.6750657
   9.4209476  31.1176303  81.4162637   9.9443878  31.3638599  82.1788947
   9.2021810  31.9496337  80.9965775   4.8176758  33.3879977  69.2833762
   4.4889464  32.5077356  69.1008868   5.1716128  33.3327646  70.1710152
  14.0656336  45.0234880  73.7928748  13.9181299  44.0951587  73.9736318
  14.8909830  45.0454971  73.3085823   7.9318581  33.6752947  69.6509240
   8.2714653  34.2038868  68.9287848   8.3790701  34.0133353  70.4267807
  17.6690458  45.8463439  74.8793621  18.5937006  45.6406300  74.7418072
  17.5005762  45.5979840  75.7882962  10.6262021  32.0589998  79.1012308
  10.2858842  31.2597811  79.5032988   9.9201028  32.3591709  78.5289141
  11.2778493  29.1439310  77.5539631  12.1004563  28.6699788  77.4318521
  11.5216557  29.9229794  78.0538317   9.9186728  32.1727569  67.8502533
  10.6395090  32.5508821  67.3466250   9.2952032  32.8916445  67.9537511
  14.0617851  32.8772718  68.7860865  14.2781465  33.7597355  68.4849693
  13.5811918  32.4858931  68.0566507   8.8017072  35.8358431  75.3631610
   8.6561653  36.1498734  76.2555891   8.3242276  36.4543331  74.8102508
  10.6613455  32.8260979  75.4112499  10.6475024  31.9302072  75.0744797
  11.3785883  32.8331643  76.0450785  12.5139586  33.2598319  77.4565627
  12.2557363  34.1815390  77.4549957  11.9824626  32.8628754  78.1466091
  17.4585774  46.3649106  70.2355712  17.6322652  45.7995529  69.4829564
  17.9514666  47.1650001  70.0535202   3.2762734  38.3763775  78.3019271
   2.7316202  39.1523583  78.4339545   4.1542084  38.7234580  78.1438392
  10.0650351  31.7075359  70.6800069  10.1866262  30.7792005  70.8790957
   9.7752393  31.7214045  69.7678385  12.9341541  29.3930270  73.8166789
  12.9563238  29.4569603  72.8618769  13.3509600  28.5534778  74.0107295
  23.3125166  39.1285529  71.8546012  23.7556312  38.3792854  71.4565135
  22.4351676  39.1195665  71.4719744  18.4460947  45.6815871  67.3352610
  19.1411852  46.3022563  67.5539925  18.7884097  44.8311222  67.6104988
   4.0628756  37.5033672  81.1949428   3.3210492  37.6516307  81.7814058
   3.7421500  37.7641937  80.3316177  20.3452370  43.1315576  68.8639941
  20.8703694  43.4702849  68.1389261  20.2574723  42.1962591  68.6803076
  12.0072419  47.0449650  80.9929818  12.3159545  46.7998797  81.8652517
  12.8047901  47.2496288  80.5048688  12.0293031  49.1987559  73.2235194
  11.5898021  48.7063938  73.9168051  12.7801148  48.6560527  72.9827269
   4.5085370  45.3899100  73.2259822   5.3343390  45.0902872  72.8458466
   4.1579422  44.6206723  73.6749611   9.4766903  44.7425568  75.2957496
   8.8546912  44.0796273  74.9959724  10.1471770  44.7686700  74.6131144
   2.7093975  43.3085427  74.1848756   1.8725883  42.8807601  74.0032757
   2.6817620  43.5017870  75.1219547   9.5491430  33.2207356  84.8890002
   9.5979586  34.0969479  84.5067772  10.0913945  32.6784750  84.3161645
  20.0346276  43.7648480  84.1691139  19.2441820  43.7472619  83.6295638
  19.7979631  44.3036773  84.9240176  20.1544151  40.6140946  81.4823868
  20.2042156  40.4490954  82.4239390  20.0458074  39.7468205  81.0921748
   9.0380410  43.2929492  68.7715956   9.1868530  43.9764956  68.1182629
   9.8446853  43.2734582  69.2865412  17.4447914  36.5971874  82.7983174
  18.3457776  36.4578339  82.5067172  17.5195888  36.7626329  83.7381352
  11.7790719  33.9738729  81.6436361  10.9094028  34.2672295  81.3718949
  12.0150199  34.5579174  82.3643624  21.6562348  43.0337888  81.7265889
  21.3647156  43.3967868  82.5629350  21.0434479  42.3204896  81.5479221
  22.8558030  40.5990767  74.2468459  23.6904922  41.0380571  74.4106020
  22.9917159  40.1229421  73.4276705  19.9049536  38.1570502  80.1945947
  20.3803658  38.3498149  79.3864798  18.9815102  38.2129688  79.9489331
   6.7933043  39.3194669  69.7777025   6.5479085  38.4156999  69.9757236
   6.9628957  39.3211820  68.8356503  14.4829753  30.1918346  79.1601781
  15.0011697  30.9279373  78.8348270  14.1284885  30.4982339  79.9948540
   6.0628690  35.0523027  67.2763187   5.3697935  35.1267382  66.6203223
   5.8180442  34.2883371  67.7984704  14.7342347  26.6118628  74.6802678
  15.0144101  25.9441817  75.3063104  15.5192954  26.8047724  74.1677341
  12.5375815  45.7877622  66.2427704  11.9649782  46.4067809  65.7898176
  13.1108609  46.3376984  66.7767626  18.6051205  35.0336262  78.4274253
  19.5568628  35.1334360  78.4486477  18.4354656  34.2414531  78.9372337
  16.6265585  32.1191846  78.6133654  16.0315517  32.3996858  77.9180142
  16.3415281  32.6085746  79.3850395  15.7573075  46.0714772  67.3736286
  16.6903748  46.0060334  67.5769162  15.6696288  46.9071039  66.9150819
  18.3861092  45.3880643  64.3340234  18.3074723  45.0540506  65.2275992
  19.2070759  45.8802411  64.3331706  21.0839283  38.2542382  77.5416552
  21.0515603  37.3158383  77.7276236  21.6939907  38.3326419  76.8082377
  12.9222614  37.1238435  63.5843756  13.8681719  36.9944643  63.6532174
  12.5436859  36.3853097  64.0613185  21.2333771  35.0453425  77.5874836
  20.7172820  34.2611882  77.4004764  22.1173720  34.7172142  77.7521355
  18.8944498  28.7894441  73.5470648  18.6969320  28.4809529  74.4313980
  19.5044204  29.5156080  73.6768578  24.9831130  37.4566251  77.2797040
  24.2564294  37.3222216  76.6713532  24.5678417  37.7643080  78.0853758
  12.8061306  41.1756181  85.0444413  13.7264316  41.3534780  85.2384460
  12.7710889  40.2312226  84.8924113  11.1065531  35.0488411  63.5198642
  10.1996986  34.7521524  63.5961355  11.3841512  34.7518229  62.6532928
   2.0243471  36.3694775  73.9697688   1.7046256  35.5160083  73.6772062
   1.4776900  36.5843353  74.7255655   5.8023379  39.0857216  77.6867195
   6.0209389  40.0174324  77.7055228   6.2149153  38.7265190  78.4721998
  12.7227597  29.5925301  69.6742883  11.9128325  29.2472386  70.0498129
  13.4112014  29.2832845  70.2630494  14.6518145  28.6703348  71.2967180
  15.2049184  29.0898801  71.9557203  14.8888231  27.7439096  71.3390136
  10.6751244  34.6590422  87.0769943  10.5747971  35.6084779  87.0082035
  10.4572786  34.3308660  86.2046014   9.8764316  31.9075347  63.6610621
  10.7383480  32.2330245  63.9206438  10.0614660  31.1206843  63.1483687
   1.8931731  39.9897686  75.9390810   1.1995203  39.5751639  75.4260764
   2.6404722  40.0318223  75.3424228  18.0296952  30.7803873  70.8045844
  17.4495621  31.4388677  70.4223896  17.7632885  29.9581218  70.3933261
  16.4800518  30.1808931  73.0067164  16.9800297  30.2925465  72.1981483
  17.1236126  29.8769984  73.6467973  10.5382514  38.0887560  85.8935005
  10.0549596  38.8887921  86.0998894  10.6243453  38.0995505  84.9402449
   3.8068474  39.9215940  73.8156824   3.7839162  40.0203627  72.8638708
   4.1169110  40.7681091  74.1373991   6.4655852  41.9792095  77.9303439
   7.4199105  41.9476037  77.8633370   6.2668375  41.5182719  78.7453665
   7.0555234  40.5493211  80.4974237   7.8748123  41.0437290  80.5209074
   7.3292042  39.6325179  80.4691804  16.8121830  32.9403963  69.8602192
  15.9247685  33.2253614  69.6422387  17.2275819  32.7797727  69.0129469
  20.1636366  32.9650484  73.5756531  20.9396756  33.4546937  73.8481148
  19.4384500  33.3908539  74.0328401  22.6008925  33.6778104  74.6330472
  23.1953416  33.4373840  73.9223780  22.6735509  32.9585234  75.2604008
   4.8206081  47.5211715  74.9473637   4.6860549  46.7612115  74.3811635
   4.4038143  48.2452614  74.4802426  15.9565044  42.7048638  63.9550212
  16.6600894  42.9098641  64.5707868  15.2327692  43.2725400  64.2199296
  16.7862854  38.4558499  70.0752482  16.7298055  38.9127051  69.2360115
  17.3391196  37.6949184  69.8975325  20.5967660  34.2448231  70.9002602
  20.3404594  33.8444867  71.7310809  19.9720528  34.9592025  70.7752741
  24.9079998  36.9844304  73.4073893  24.3479556  37.0537494  74.1805455
  24.3023501  36.8085289  72.6873389   7.9775206  48.4181032  75.1592079
   7.8607591  49.3626464  75.0570770   7.1567653  48.1154593  75.5477879
  17.8651741  43.1431167  66.0048672  18.6997345  42.7112366  65.8226147
  17.7036084  42.9713181  66.9325567  17.5197633  39.6463281  67.3705011
  17.4646437  39.4807552  66.4293456  16.8943688  40.3539314  67.5267201
   2.3090148  34.8831345  81.1966434   2.9549012  34.3730299  81.6853659
   2.1007299  35.6200027  81.7709859  14.8343540  41.9512192  86.6958574
  15.7034700  42.1252845  86.3345209  14.3550292  42.7706609  86.5734304
  10.8293759  29.1471390  66.9490330  10.8172428  30.0913230  67.1058601
  11.7217181  28.9641535  66.6549791   9.0029721  49.0709293  78.3748008
   9.9056967  49.1032904  78.6914503   8.7767091  48.1409744  78.3894344
  10.7583323  47.8240280  75.0358086   9.8078954  47.8242142  74.9222459
  11.0615809  47.0773015  74.5194121  14.6445878  25.7414166  71.2036267
  13.8778274  25.1872653  71.3492949  15.0556583  25.8136035  72.0650418
   6.6487639  32.0298962  85.2941448   7.5119101  31.6735767  85.5044772
   6.0753050  31.6912857  85.9816852  26.4936016  53.6600818  76.1003849
  27.1314426  53.5407566  75.3967189  26.3756859  54.6081662  76.1591801
  23.3025722  53.6128247  76.0365374  22.9644234  53.4969311  75.1485908
  24.1715491  53.2119412  76.0166380  19.1612538  55.4663723  72.0262264
  18.5977403  55.3753660  71.2578552  19.0464933  54.6463627  72.5064757
  23.7845505  54.7663098  81.9951579  23.7734146  54.3715897  81.1232083
  23.9466145  54.0329171  82.5885351  16.7076970  56.9614915  74.8646485
  17.4998262  56.6205739  74.4492784  16.9473620  57.0709890  75.7848638
  24.7412097  59.1334691  67.3376729  24.0900077  59.7188771  66.9510743
  25.5356460  59.6640886  67.3971767  18.6667724  56.2223828  67.7363864
  19.4398600  55.6752815  67.5976740  19.0193123  57.0868077  67.9478325
  20.5052767  57.5500210  80.9430763  20.2142632  58.4545841  80.8277429
  21.1409751  57.5916738  81.6574833  21.4308973  54.9277059  77.5332123
  22.0272546  54.7033081  76.8189086  21.4883945  54.1861804  78.1357571
  21.0034002  52.3816494  65.3682314  21.2559522  51.8598015  64.6065777
  20.0658561  52.2182639  65.4708997  26.0477285  51.3852272  73.1757057
  26.8340374  50.9671695  72.8247474  26.3115989  52.2898364  73.3438705
  26.2187362  56.8225123  67.8745714  25.5833195  56.8959749  68.5866618
  25.8884768  57.4118721  67.1964793  20.7230291  54.2844600  67.5706689
  20.6066549  53.6089503  68.2387773  20.8332550  53.7976974  66.7538842
  23.0661831  53.7454747  71.2753378  22.7020039  53.2185368  71.9866299
  23.9228947  53.3553216  71.1019863  22.7067318  48.7744647  66.2714726
  22.8741721  49.6424883  66.6385197  22.5164487  48.9371928  65.3476016
  25.4642652  57.2361626  77.9380557  25.1643375  58.1386664  77.8296364
  25.1193711  56.9693809  78.7901710  18.9155133  53.6875422  73.9717261
  17.9905630  53.5551637  74.1794953  19.1639546  54.4669642  74.4687204
  22.6856539  51.2302304  67.2561393  22.5656164  51.6759355  68.0946873
  21.9909128  51.5787622  66.6974931  16.2763944  53.3308696  74.8061050
  16.4056325  53.5843175  75.7200462  15.5961395  53.9236404  74.4865705
  20.4463431  64.0005946  70.9051524  20.3687461  64.9513771  70.9840005
  19.8425075  63.6551818  71.5626451  22.9380661  51.1733811  83.5612891
  22.1613995  51.7327731  83.5515756  23.5771224  51.6590594  84.0827761
  21.1927033  53.9819265  83.1230858  21.9341718  54.5204309  82.8465682
  20.4864019  54.6085553  83.2802410  26.6682373  56.1248405  81.7203020
  27.0765729  55.6830816  80.9757652  25.9459635  55.5501033  81.9737213
  23.0213443  51.0621012  79.0936577  23.8674638  51.4860426  79.2371226
  22.9612081  50.4054636  79.7875140  26.9911188  56.6849596  75.4755309
  26.3620050  56.8495310  74.7731377  26.6036850  57.0991205  76.2466273
  30.8700420  57.6204034  72.8299672  30.1851458  58.0002935  72.2796706
  30.9544269  58.2299360  73.5631620  28.1251351  55.2663993  79.4295016
  28.3368247  55.9095753  78.7529397  28.0781100  54.4326309  78.9616946
  25.7277580  47.8781813  76.3331588  24.8662059  48.1763067  76.6248326
  25.7540015  48.0952212  75.4012621  22.5439150  56.4224004  72.7405394
  23.0077495  56.7011707  71.9510016  22.2795948  55.5207448  72.5578484
  19.4363231  55.9695485  75.6785157  20.0064588  56.3982754  75.0402642
  20.0271343  55.6878070  76.3769343  21.4808036  52.5447156  69.5494959
  22.1832079  52.9968200  70.0168885  21.1488664  51.9030975  70.1774852
  19.9288397  51.1358913  83.9246168  19.2987058  51.8175194  84.1581565
  19.8224485  51.0241994  82.9799307  15.2233370  50.8030709  74.8512093
  14.4332424  51.0588237  74.3752203  15.7144617  51.6179047  74.9564133
  29.2397179  58.1435948  77.6017373  30.0614623  57.7416135  77.3200055
  29.2359582  58.0404182  78.5533489  17.1748115  51.1675288  71.8095569
  16.3779278  51.2793982  72.3279065  16.9473707  51.5061940  70.9436460
  23.0053783  57.6919991  79.7578084  23.0698215  58.1540399  80.5936256
  22.2964707  57.0617356  79.8860394  13.5071073  51.0561199  77.2827083
  13.7579111  51.9408209  77.5484659  14.0430621  50.8765801  76.5102175
  37.3303172  54.4874697  73.9502345  36.5766881  53.9182095  73.7946349
  37.4650713  54.4537361  74.8972980  22.7201800  59.3588099  69.6257064
  22.5847475  60.2039635  70.0541912  23.2611613  59.5607377  68.8622998
  19.2069140  45.4379679  86.2871419  18.8136086  44.8845877  86.9619064
  20.0235280  45.7490257  86.6777937  16.1731198  56.8763537  70.1984989
  16.6855718  57.6706787  70.3490554  16.8253911  56.1789827  70.1318591
  17.9826082  59.9929293  72.2807742  18.1592711  60.9147258  72.0928726
  18.7782916  59.6787712  72.7102122  22.1237101  46.8537558  83.8791676
  22.8646814  47.4544711  83.7996138  22.3555024  46.1115196  83.3209719
  17.2678439  52.0393925  82.1569906  17.1531954  51.1379182  82.4577005
  16.4122957  52.2857622  81.8054722  24.3470277  59.9811665  83.7557406
  23.9034131  59.1948044  83.4378311  25.0087490  60.1690816  83.0901297
  19.1057398  61.5107467  78.2818085  19.6564823  61.3824530  77.5095079
  18.2668874  61.8102356  77.9312978  26.4451515  60.2614465  81.7838808
  26.4269990  61.0823346  81.2919077  27.3671435  60.1368541  82.0088949
  22.9024569  57.7758595  82.6262316  23.4352906  57.0146883  82.3961624
  22.3738650  57.4832247  83.3686470  14.1380114  55.2052191  70.9744560
  14.9755336  55.6149200  70.7578268  14.3158382  54.2651633  70.9444754
  26.0344547  52.8727272  66.6628393  25.5191170  53.6431877  66.9016780
  25.7621855  52.1992408  67.2861454  23.6191658  47.7176973  71.7213631
  22.7633254  47.3283823  71.5419270  24.0318609  47.7968933  70.8613417
  21.3933690  45.3362046  75.1271373  22.2586687  45.1404854  74.7677262
  21.4611199  45.1072397  76.0540729  31.0078821  55.6259627  68.5981566
  30.2308264  55.2870786  68.1536728  31.6870302  55.6312250  67.9236531
  25.8230850  50.7454364  68.4888174  25.5180985  51.0600513  69.3398317
  26.7761292  50.8235784  68.5315507  24.2677282  56.9044587  70.1381128
  23.7398643  56.1697347  69.8254365  23.7664784  57.6819264  69.8921096
  29.2470128  55.0993608  75.2548174  28.5893802  55.7892869  75.3428303
  30.0510527  55.4890040  75.5982161  18.9996009  47.5664254  72.4987739
  19.5739761  47.3439435  71.7660932  19.5866992  47.6352948  73.2516341
  28.0575586  53.4537980  73.3052116  28.5707468  54.0867972  73.8073826
  28.7076810  52.8539176  72.9395476  19.3265596  49.5968715  66.5183625
  18.4902909  49.9343401  66.8392899  19.1870366  49.4617694  65.5810762
  21.3018677  44.4405502  71.2262809  20.6483089  44.1254520  70.6019424
  21.2599151  43.8181243  71.9522632  22.4129882  54.7224798  63.1416101
  21.5056944  54.4914051  63.3407250  22.9100914  53.9262417  63.3290082
  25.3197961  63.4322305  66.0612787  24.6459659  63.7354001  66.6697745
  25.7063783  64.2351385  65.7118244  24.5356417  50.9287436  75.5510456
  23.6178979  51.1502383  75.3932145  24.9516561  51.0033746  74.6922164
  25.3191465  52.3278852  70.6813137  26.0663284  52.8400249  70.3720259
  25.5883055  52.0062904  71.5417530  23.5918115  54.8237392  67.6640091
  22.6829335  54.5396425  67.7612561  23.6213199  55.2436471  66.8043398
  28.8237383  58.4343982  71.4331259  28.3699710  57.5934892  71.4896449
  28.1931349  59.0705380  71.7706039  27.2670322  60.2720479  72.3681077
  27.5593296  60.8325536  71.6493442  27.7768942  60.5649040  73.1234236
  14.1606286  52.5442907  71.6455293  13.9630685  51.9512267  70.9206360
  13.6052950  52.2395117  72.3631232  22.1403009  52.4366013  73.7649886
  22.1951619  51.4839849  73.6892363  21.3294211  52.5925452  74.2491185
  23.2894203  56.3646136  65.0028170  22.8513633  55.6481995  64.5433807
  24.0304644  56.5922251  64.4413261  20.0795369  51.0543073  71.5240265
  19.2663235  51.3537243  71.9305457  20.5754363  50.6598762  72.2414747
  22.2303947  61.0500830  73.4574530  22.1880126  61.2761676  72.5283062
  23.1466646  60.8164204  73.6060331  25.6769581  51.5184897  80.3555159
  26.0318969  51.7456370  81.2149625  26.3241712  51.8503274  79.7332414
  31.4067318  54.6403333  71.0604488  31.2685216  54.8304929  70.1325677
  31.0503537  55.4022716  71.5172539  19.5709444  48.6261428  77.1401500
  20.2108823  48.4850187  76.4424464  18.7386975  48.3395942  76.7640102
  31.4336697  56.7079860  76.0715760  31.8673204  56.6155149  76.9198814
  32.1468278  56.6837361  75.4335776  20.3469748  57.9263859  73.2536493
  21.1410346  57.4314179  73.0519068  19.6361440  57.3981722  72.8904198
  25.1664592  60.3081954  77.6048860  25.2201615  60.8772891  78.3726576
  24.2979374  60.4783839  77.2402897  16.6552511  52.0706940  69.3296245
  15.7250099  52.0091396  69.5466207  16.7509983  51.5482893  68.5332887
  16.5738060  48.5961753  71.9174487  16.8344878  49.5107087  71.8083647
  17.3955233  48.1286196  72.0671100  18.0462986  50.0099510  79.0873312
  18.7186039  49.8016873  78.4385960  17.2192772  49.8121596  78.6478544
  32.2952247  56.7503561  78.6048645  32.4888137  57.6549371  78.8507920
  32.1952865  56.2910980  79.4387230  23.9488558  46.6361451  81.1038972
  23.3016473  47.3351401  81.0103449  24.7189573  47.0697595  81.4715221
  27.3567356  56.9010304  84.1789526  27.2052862  56.6720855  83.2619609
  27.3472035  57.8580905  84.1920871  24.1252692  54.4742216  79.1635792
  25.0544752  54.6253376  78.9904759  23.7043722  54.5626237  78.3084439
  22.9241024  58.4992881  76.9334330  22.7852110  58.1311665  77.8060268
  22.1355620  59.0140520  76.7618288  23.5189176  63.6001977  68.2759866
  23.6940932  63.1290020  69.0905489  22.8321964  64.2267743  68.5041127
  24.4746239  57.8774483  74.3223168  24.1396072  57.8375253  75.2180817
  23.9750185  57.2119199  73.8493578  18.4490483  53.2842113  79.8475749
  18.3110281  52.5522352  80.4487288  19.3595406  53.1951014  79.5659936
  27.4105431  55.2230518  64.5960227  26.7934601  54.4977346  64.4993280
  26.9421919  55.9839878  64.2527301  21.0772784  52.9962073  79.3359428
  21.7872402  52.3555265  79.2946047  21.0342092  53.2474968  80.2585609
  29.0659562  59.9329426  82.2566008  29.0072108  59.2488646  81.5896591
  29.4679081  60.6748416  81.8046634  19.7901718  49.9827291  81.1555068
  19.2539075  49.5318029  81.8076664  19.2018426  50.1173199  80.4125532
  18.0850261  66.7491340  75.0499726  18.3246859  67.3809864  75.7278745
  17.2419458  66.3979380  75.3365086  19.2003977  49.4415942  63.7181531
  18.3233443  49.3204743  63.3543778  19.6761730  48.6502020  63.4660420
  29.0676970  57.8969010  80.4879987  28.1803748  57.5594932  80.6106386
  29.6375521  57.1652041  80.7248753  10.7206117  54.2293102  73.8123039
  11.4077157  53.9154832  73.2244054  10.5654245  55.1334466  73.5390290
  15.5240839  49.1183298  78.2408062  15.4399028  48.5108968  77.5058472
  14.7023545  49.6092317  78.2417559  22.5978123  62.5570462  77.4541230
  22.5248294  63.3625434  77.9660535  22.1555516  62.7562428  76.6289252
  22.3867903  61.7942232  70.9644052  21.6035424  62.3363913  71.0582276
  23.0860648  62.3116212  71.3638293  25.0576807  62.4557296  79.6099389
  25.7704779  63.0904761  79.5375291  24.5666835  62.5521162  78.7939391
  26.7794333  56.3608549  71.1816681  25.8450612  56.4810012  71.0121385
  26.9571002  55.4581016  70.9176691  22.2799521  49.7454245  73.3349942
  21.9097309  49.1925285  74.0230848  22.7758614  49.1412378  72.7824942
  20.1088720  60.2051740  80.4304960  20.8098180  60.8388223  80.5834354
  19.6383835  60.5466471  79.6700599  28.2343116  58.5469690  68.7152867
  28.5102960  58.4326284  69.6246741  27.3647615  58.1487175  68.6765040
  27.9090006  52.7596347  78.2557510  27.2561456  53.0072255  77.6009963
  28.2870386  51.9460486  77.9219988  24.8697180  62.7956040  72.3585681
  25.0519574  61.9777696  72.8213433  25.6930166  63.0123733  71.9210571
  25.2039345  61.7224226  69.6200729  25.7327112  61.2116680  69.0070891
  25.4667565  61.4066756  70.4846262  23.9577579  53.5016158  84.7423547
  23.2818216  53.4010288  85.4125923  24.7805213  53.3455372  85.2059545
  15.7056438  59.7388095  77.3636063  16.2909875  58.9931783  77.4963967
  15.5081277  60.0492052  78.2472726  18.5595093  62.7739342  72.3798505
  17.8905469  63.2585470  71.8962545  18.4207963  63.0208563  73.2941884
  10.2974093  52.3093695  76.0840506  10.3358192  51.7757286  76.8777624
   9.7914386  51.7828901  75.4651483  22.7000362  64.8083086  78.9781163
  23.2518670  64.9714707  79.7430249  23.0406555  65.3987524  78.3061188
  17.6764855  47.1558236  79.5803048  17.7406182  48.0173067  79.1680446
  17.6131975  46.5432237  78.8475407  17.1517128  49.2281368  83.2276082
  17.7789166  48.8458445  83.8413607  16.2945047  49.0095570  83.5931775
  27.5511236  59.6344343  84.8329818  28.0951140  60.2474302  84.3384773
  26.9698081  60.1923922  85.3496831  13.9282670  51.0357797  69.1594437
  14.2236111  50.1268476  69.1061491  13.0270706  51.0145537  68.8375439
  25.8368749  62.7565061  75.9644846  25.7119889  61.9554801  75.4555791
  26.4947840  63.2511255  75.4758815  17.4576917  49.1113794  75.1421986
  16.7363503  49.7249762  75.0029459  18.2470173  49.6471559  75.0638632
  27.9003658  60.5574081  77.5924396  26.9533993  60.4379433  77.5202722
  28.2486431  59.6696579  77.6750657  20.2603231  46.4468220  81.4162637
  20.7837633  46.6930517  82.1788947  20.0415564  47.2788255  80.9965775
  15.6570512  48.7171895  69.2833762  15.3283218  47.8369274  69.1008868
  16.0109883  48.6619564  70.1710152  24.9050091  60.3526798  73.7928748
  24.7575053  59.4243505  73.9736318  25.7303584  60.3746888  73.3085823
  18.7712335  49.0044865  69.6509240  19.1108408  49.5330786  68.9287848
  19.2184456  49.3425271  70.4267807  28.5084213  61.1755356  74.8793621
  29.4330760  60.9698218  74.7418072  28.3399516  60.9271758  75.7882962
  21.4655776  47.3881915  79.1012308  21.1252596  46.5889729  79.5032988
  20.7594782  47.6883626  78.5289141  22.1172248  44.4731228  77.5539631
  22.9398317  43.9991706  77.4318521  22.3610311  45.2521712  78.0538317
  20.7580482  47.5019486  67.8502533  21.4788845  47.8800739  67.3466250
  20.1345786  48.2208363  67.9537511  24.9011605  48.2064635  68.7860865
  25.1175220  49.0889273  68.4849693  24.4205672  47.8150849  68.0566507
  19.6410827  51.1650349  75.3631610  19.4955407  51.4790652  76.2555891
  19.1636030  51.7835249  74.8102508  21.5007209  48.1552897  75.4112499
  21.4868778  47.2593990  75.0744797  22.2179638  48.1623560  76.0450785
  23.3533340  48.5890237  77.4565627  23.0951118  49.5107307  77.4549957
  22.8218381  48.1920671  78.1466091  28.2979529  61.6941024  70.2355712
  28.4716406  61.1287446  69.4829564  28.7908420  62.4941919  70.0535202
  14.1156489  53.7055693  78.3019271  13.5709957  54.4815501  78.4339545
  14.9935839  54.0526497  78.1438392  20.9044105  47.0367277  70.6800069
  21.0260017  46.1083923  70.8790957  20.6146148  47.0505963  69.7678385
  23.7735296  44.7222187  73.8166789  23.7956993  44.7861520  72.8618769
  24.1903355  43.8826696  74.0107295  34.1518920  54.4577447  71.8546012
  34.5950066  53.7084772  71.4565135  33.2745430  54.4487583  71.4719744
  29.2854701  61.0107788  67.3352610  29.9805606  61.6314481  67.5539925
  29.6277852  60.1603139  67.6104988  14.9022511  52.8325589  81.1949428
  14.1604247  52.9808225  81.7814058  14.5815255  53.0933855  80.3316177
  31.1846125  58.4607494  68.8639941  31.7097449  58.7994767  68.1389261
  31.0968477  57.5254509  68.6803076  22.8466173  62.3741567  80.9929818
  23.1553300  62.1290714  81.8652517  23.6441655  62.5788206  80.5048688
  22.8686785  64.5279477  73.2235194  22.4291776  64.0355856  73.9168051
  23.6194902  63.9852445  72.9827269  15.3479124  60.7191018  73.2259822
  16.1737144  60.4194790  72.8458466  14.9973176  59.9498640  73.6749611
  20.3160657  60.0717486  75.2957496  19.6940667  59.4088191  74.9959724
  20.9865524  60.0978618  74.6131144  13.5487729  58.6377344  74.1848756
  12.7119638  58.2099519  74.0032757  13.5211375  58.8309788  75.1219547
  20.3885185  48.5499274  84.8890002  20.4373340  49.4261397  84.5067772
  20.9307699  48.0076667  84.3161645  30.8740031  59.0940397  84.1691139
  30.0835574  59.0764536  83.6295638  30.6373385  59.6328691  84.9240176
  30.9937906  55.9432864  81.4823868  31.0435911  55.7782871  82.4239390
  30.8851829  55.0760123  81.0921748  19.8774164  58.6221409  68.7715956
  20.0262285  59.3056874  68.1182629  20.6840608  58.6026500  69.2865412
  28.2841668  51.9263792  82.7983174  29.1851531  51.7870257  82.5067172
  28.3589643  52.0918247  83.7381352  22.6184473  49.3030647  81.6436361
  21.7487783  49.5964213  81.3718949  22.8543954  49.8871092  82.3643624
  32.4956102  58.3629805  81.7265889  32.2040911  58.7259786  82.5629350
  31.8828234  57.6496814  81.5479221  33.6951785  55.9282685  74.2468459
  34.5298676  56.3672489  74.4106020  33.8310914  55.4521338  73.4276705
  30.7443291  53.4862420  80.1945947  31.2197412  53.6790066  79.3864798
  29.8208856  53.5421606  79.9489331  17.6326797  54.6486587  69.7777025
  17.3872839  53.7448917  69.9757236  17.8022712  54.6503738  68.8356503
  25.3223507  45.5210263  79.1601781  25.8405451  46.2571290  78.8348270
  24.9678640  45.8274257  79.9948540  16.9022445  50.3814945  67.2763187
  16.2091690  50.4559300  66.6203223  16.6574197  49.6175288  67.7984704
  23.3769570  61.1169540  66.2427704  22.8043537  61.7359727  65.7898176
  23.9502364  61.6668902  66.7767626  29.4444960  50.3628180  78.4274253
  30.3962383  50.4626278  78.4486477  29.2748410  49.5706449  78.9372337
  26.5966830  61.4006690  67.3736286  27.5297503  61.3352252  67.5769162
  26.5090042  62.2362957  66.9150819  29.2254846  60.7172560  64.3340234
  29.1468478  60.3832424  65.2275992  30.0464513  61.2094328  64.3331706
  31.9233037  53.5834300  77.5416552  31.8909358  52.6450300  77.7276236
  32.5333661  53.6618336  76.8082377  23.7616368  52.4530353  63.5843756
  24.7075473  52.3236561  63.6532174  23.3830613  51.7145015  64.0613185
  37.7409587  54.6450307  76.6822589  38.4712976  54.3835595  77.2430292
  37.1316533  53.9079028  76.7224657  35.8224884  52.7858169  77.2797040
  35.0958048  52.6514134  76.6713532  35.4072171  53.0934998  78.0853758
  23.6455061  56.5048099  85.0444413  24.5658070  56.6826698  85.2384460
  23.6104644  55.5604144  84.8924113  21.9459286  50.3780329  63.5198642
  21.0390741  50.0813442  63.5961355  22.2235267  50.0810147  62.6532928
  12.8637226  51.6986692  73.9697688  12.5440010  50.8452001  73.6772062
  12.3170654  51.9135271  74.7255655  16.6417133  54.4149133  77.6867195
  16.8603143  55.3466241  77.7055228  17.0542907  54.0557108  78.4721998
  23.5621351  44.9217219  69.6742883  22.7522080  44.5764304  70.0498129
  24.2505768  44.6124763  70.2630494  21.5144999  49.9882339  87.0769943
  21.4141726  50.9376696  87.0082035  21.2966541  49.6600578  86.2046014
  20.7158070  47.2367264  63.6610621  21.5777234  47.5622163  63.9206438
  20.9008414  46.4498760  63.1483687  12.7325486  55.3189604  75.9390810
  12.0388957  54.9043557  75.4260764  13.4798477  55.3610140  75.3424228
  21.3776269  53.4179478  85.8935005  20.8943351  54.2179838  86.0998894
  21.4637208  53.4287423  84.9402449  14.6462228  55.2507858  73.8156824
  14.6232917  55.3495545  72.8638708  14.9562865  56.0973009  74.1373991
  17.3049606  57.3084013  77.9303439  18.2592860  57.2767955  77.8633370
  17.1062130  56.8474637  78.7453665  17.8948988  55.8785129  80.4974237
  18.7141877  56.3729207  80.5209074  18.1685796  54.9617097  80.4691804
  15.6599835  62.8503632  74.9473637  15.5254303  62.0904033  74.3811635
  15.2431897  63.5744532  74.4802426  26.7958798  58.0340556  63.9550212
  27.4994648  58.2390558  64.5707868  26.0721447  58.6017318  64.2199296
  27.6256608  53.7850417  70.0752482  27.5691810  54.2418968  69.2360115
  28.1784951  53.0241102  69.8975325  35.7473752  52.3136222  73.4073893
  35.1873310  52.3829411  74.1805455  35.1417256  52.1377207  72.6873389
  18.8168961  63.7472949  75.1592079  18.7001345  64.6918382  75.0570770
  17.9961407  63.4446511  75.5477879  28.7045496  58.4723085  66.0048672
  29.5391099  58.0404283  65.8226147  28.5429838  58.3005099  66.9325567
  28.3591388  54.9755198  67.3705011  28.3040191  54.8099470  66.4293456
  27.7337443  55.6831231  67.5267201  13.1483903  50.2123263  81.1966434
  13.7942766  49.7022217  81.6853659  12.9401054  50.9491944  81.7709859
  25.6737295  57.2804110  86.6958574  26.5428454  57.4544762  86.3345209
  25.1944046  58.0998527  86.5734304  21.6687513  44.4763307  66.9490330
  21.6566183  45.4205147  67.1058601  22.5610935  44.2933453  66.6549791
  19.8423475  64.4001211  78.3748008  20.7450722  64.4324821  78.6914503
  19.6160845  63.4701662  78.3894344  21.5977077  63.1532198  75.0358086
  20.6472708  63.1534059  74.9222459  21.9009563  62.4064932  74.5194121
  25.4839633  41.0706084  71.2036267  24.7172028  40.5164571  71.3492949
  25.8950338  41.1427953  72.0650418  17.4881394  47.3590880  85.2941448
  18.3512855  47.0027685  85.5044772  16.9146804  47.0204775  85.9816852
  37.3329771  68.9892736  76.1003849  37.9708181  68.8699483  75.3967189
  37.2150613  69.9373580  76.1591801  34.1419477  68.9420164  76.0365374
  33.8037988  68.8261229  75.1485908  35.0109245  68.5411329  76.0166380
  30.0006293  70.7955641  72.0262264  29.4371158  70.7045578  71.2578552
  29.8858688  69.9755545  72.5064757  34.6239260  70.0955016  81.9951579
  34.6127901  69.7007814  81.1232083  34.7859899  69.3621089  82.5885351
  27.5470725  72.2906832  74.8646485  28.3392016  71.9497657  74.4492784
  27.7867375  72.4001807  75.7848638  35.5805851  74.4626608  67.3376729
  34.9293831  75.0480689  66.9510743  36.3750214  74.9932803  67.3971767
  29.5061478  71.5515745  67.7363864  30.2792354  71.0044733  67.5976740
  29.8586877  72.4159995  67.9478325  31.3446521  72.8792128  80.9430763
  31.0536387  73.7837759  80.8277429  31.9803505  72.9208655  81.6574833
  32.2702728  70.2568976  77.5332123  32.8666300  70.0324999  76.8189086
  32.3277699  69.5153722  78.1357571  31.8427756  67.7108412  65.3682314
  32.0953277  67.1889933  64.6065777  30.9052315  67.5474557  65.4708997
  36.8871039  66.7144190  73.1757057  37.6734128  66.2963613  72.8247474
  37.1509743  67.6190282  73.3438705  37.0581116  72.1517040  67.8745714
  36.4226949  72.2251667  68.5866618  36.7278523  72.7410639  67.1964793
  42.2879466  66.6519423  74.0790035  43.0204638  66.0818640  74.3127865
  41.5318822  66.2641024  74.5196541  31.5624045  69.6136518  67.5706689
  31.4460303  68.9381421  68.2387773  31.6726305  69.1268891  66.7538842
  33.9055586  69.0746665  71.2753378  33.5413793  68.5477286  71.9866299
  34.7622702  68.6845134  71.1019863  39.8104887  60.3640997  78.5384644
  39.4788211  61.2336408  78.3145859  39.2150500  60.0477281  79.2178674
  33.5461073  64.1036564  66.2714726  33.7135475  64.9716801  66.6385197
  33.3558242  64.2663846  65.3476016  36.3036406  72.5653543  77.9380557
  36.0037129  73.4678582  77.8296364  35.9587466  72.2985726  78.7901710
  29.7548888  69.0167340  73.9717261  28.8299384  68.8843554  74.1794953
  30.0033301  69.7961559  74.4687204  39.7033550  65.0836083  75.6177994
  38.7950427  65.0151492  75.3236755  39.6521146  65.5608028  76.4459820
  33.5250294  66.5594222  67.2561393  33.4049919  67.0051273  68.0946873
  32.8302882  66.9079540  66.6974931  27.1157699  68.6600614  74.8061050
  27.2450080  68.9135093  75.7200462  26.4355150  69.2528322  74.4865705
  31.2857186  79.3297864  70.9051524  31.2081216  80.2805689  70.9840005
  30.6818829  78.9843736  71.5626451  33.7774416  66.5025729  83.5612891
  33.0007750  67.0619649  83.5515756  34.4164979  66.9882512  84.0827761
  41.5695196  63.2852522  77.3955868  40.9269577  63.5785055  76.7495663
  41.0650125  63.1705442  78.2009065  39.2235360  67.0315695  68.0841727
  40.1353216  67.2643082  67.9089425  38.7145007  67.6152739  67.5216806
  32.0320788  69.3111182  83.1230858  32.7735472  69.8496226  82.8465682
  31.3257773  69.9377471  83.2802410  37.5076128  71.4540323  81.7203020
  37.9159484  71.0122733  80.9757652  36.7853389  70.8792950  81.9737213
  33.8607198  66.3912930  79.0936577  34.7068393  66.8152343  79.2371226
  33.8005835  65.7346554  79.7875140  37.8304942  72.0141513  75.4755309
  37.2013805  72.1787228  74.7731377  37.4430604  72.4283123  76.2466273
  41.7094174  72.9495951  72.8299672  41.0245212  73.3294853  72.2796706
  41.7938023  73.5591278  73.5631620  37.0106643  64.0517298  80.7517750
  36.7667575  64.8059359  80.2152026  37.2866573  64.4302646  81.5864997
  38.9645106  70.5955910  79.4295016  39.1762001  71.2387670  78.7529397
  38.9174854  69.7618227  78.9616946  36.5671335  63.2073731  76.3331588
  35.7055814  63.5054985  76.6248326  36.5933769  63.4244130  75.4012621
  33.3832904  71.7515922  72.7405394  33.8471250  72.0303625  71.9510016
  33.1189702  70.8499366  72.5578484  30.2756985  71.2987403  75.6785157
  30.8458342  71.7274671  75.0402642  30.8665097  71.0169988  76.3769343
  32.3201790  67.8739074  69.5494959  33.0225834  68.3260118  70.0168885
  31.9882419  67.2322893  70.1774852  30.7682152  66.4650831  83.9246168
  30.1380812  67.1467111  84.1581565  30.6618240  66.3533912  82.9799307
  26.0627124  66.1322627  74.8512093  25.2726178  66.3880155  74.3752203
  26.5538372  66.9470964  74.9564133  40.0790934  73.4727866  77.6017373
  40.9008377  73.0708053  77.3200055  40.0753337  73.3696100  78.5533489
  28.0141870  66.4967206  71.8095569  27.2173033  66.6085900  72.3279065
  27.7867462  66.8353858  70.9436460  33.8447537  73.0211909  79.7578084
  33.9091970  73.4832316  80.5936256  33.1358461  72.3909274  79.8860394
  24.3464827  66.3853117  77.2827083  24.5972866  67.2700127  77.5484659
  24.8824376  66.2057719  76.5102175  48.1696927  69.8166614  73.9502345
  47.4160635  69.2474012  73.7946349  48.3044468  69.7829279  74.8972980
  33.5595555  74.6880017  69.6257064  33.4241230  75.5331552  70.0541912
  34.1005367  74.8899294  68.8622998  30.0462894  60.7671596  86.2871419
  29.6529840  60.2137795  86.9619064  30.8629035  61.0782175  86.6777937
  27.0124952  72.2055455  70.1984989  27.5249473  72.9998705  70.3490554
  27.6647665  71.5081745  70.1318591  28.8219837  75.3221211  72.2807742
  28.9986465  76.2439176  72.0928726  29.6176670  75.0079630  72.7102122
  32.9630855  62.1829476  83.8791676  33.7040569  62.7836629  83.7996138
  33.1948778  61.4407113  83.3209719  28.1072193  67.3685843  82.1569906
  27.9925709  66.4671100  82.4577005  27.2516711  67.6149540  81.8054722
  35.1864031  75.3103583  83.7557406  34.7427885  74.5239962  83.4378311
  35.8481245  75.4982734  83.0901297  29.9451152  76.8399385  78.2818085
  30.4958577  76.7116448  77.5095079  29.1062628  77.1394274  77.9312978
  37.2845269  75.5906383  81.7838808  37.2663745  76.4115264  81.2919077
  38.2065189  75.4660458  82.0088949  33.7418323  73.1050512  82.6262316
  34.2746660  72.3438801  82.3961624  33.2132405  72.8124164  83.3686470
  36.9088018  58.2110578  78.1555958  36.5652288  59.1012220  78.0795068
  37.2766981  58.0212236  77.2925543  24.9773869  70.5344109  70.9744560
  25.8149091  70.9441117  70.7578268  25.1552137  69.5943551  70.9444754
  36.8738301  68.2019190  66.6628393  36.3584925  68.9723794  66.9016780
  36.6015610  67.5284326  67.2861454  34.4585412  63.0468890  71.7213631
  33.6027008  62.6575741  71.5419270  34.8712364  63.1260851  70.8613417
  35.9884559  60.5815234  76.1205191  35.4849354  60.5445369  75.3072996
  36.2815166  61.4907976  76.1801848  32.2327445  60.6653963  75.1271373
  33.0980441  60.4696772  74.7677262  32.3004954  60.4364315  76.0540729
  41.8472575  70.9551544  68.5981566  41.0702018  70.6162704  68.1536728
  42.5264056  70.9604167  67.9236531  36.6624604  66.0746282  68.4888174
  36.3574740  66.3892431  69.3398317  37.6155046  66.1527702  68.5315507
  35.1071036  72.2336505  70.1381128  34.5792398  71.4989265  69.8254365
  34.6058539  73.0111181  69.8921096  40.0863882  70.4285525  75.2548174
  39.4287557  71.1184787  75.3428303  40.8904281  70.8181957  75.5982161
  29.8389764  62.8956171  72.4987739  30.4133516  62.6731353  71.7660932
  30.4260746  62.9644866  73.2516341  38.8969341  68.7829898  73.3052116
  39.4101223  69.4159890  73.8073826  39.5470565  68.1831094  72.9395476
  30.1659351  64.9260632  66.5183625  29.3296663  65.2635319  66.8392899
  30.0264120  64.7909612  65.5810762  32.1412431  59.7697420  71.2262809
  31.4876844  59.4546437  70.6019424  32.0992906  59.1473161  71.9522632
  33.2523636  70.0516715  63.1416101  32.3450698  69.8205969  63.3407250
  33.7494668  69.2554334  63.3290082  36.1591715  78.7614222  66.0612787
  35.4853414  79.0645919  66.6697745  36.5457537  79.5643303  65.7118244
  35.3750172  66.2579354  75.5510456  34.4572733  66.4794301  75.3932145
  35.7910315  66.3325664  74.6922164  36.1585220  67.6570769  70.6813137
  36.9057039  68.1692167  70.3720259  36.4276809  67.3354822  71.5417530
  34.4311870  70.1529310  67.6640091  33.5223089  69.8688343  67.7612561
  34.4606954  70.5728389  66.8043398  39.6631137  73.7635900  71.4331259
  39.2093464  72.9226809  71.4896449  39.0325104  74.3997298  71.7706039
  38.6064057  64.6927886  72.6631926  37.8686814  64.1805272  72.9942169
  38.8590830  64.2528267  71.8515203  38.1064076  75.6012396  72.3681077
  38.3987051  76.1617453  71.6493442  38.6162697  75.8940957  73.1234236
  38.7075684  57.4704138  73.2573695  39.0134561  56.6101501  72.9699610
  39.4328289  58.0621758  73.0572689  25.0000040  67.8734824  71.6455293
  24.8024440  67.2804185  70.9206360  24.4446704  67.5687034  72.3631232
  32.9796764  67.7657931  73.7649886  33.0345374  66.8131767  73.6892363
  32.1687966  67.9217370  74.2491185  34.1287958  71.6938054  65.0028170
  33.6907387  70.9773913  64.5433807  34.8698398  71.9214169  64.4413261
  30.9189124  66.3834990  71.5240265  30.1056989  66.6829161  71.9305457
  31.4148118  65.9890679  72.2414747  33.0697702  76.3792747  73.4574530
  33.0273880  76.6053594  72.5283062  33.9860400  76.1456122  73.6060331
  36.5163335  66.8476815  80.3555159  36.8712723  67.0748288  81.2149625
  37.1635467  67.1795192  79.7332414  42.2461072  69.9695251  71.0604488
  42.1078971  70.1596847  70.1325677  41.8897291  70.7314634  71.5172539
  30.4103198  63.9553346  77.1401500  31.0502578  63.8142105  76.4424464
  29.5780729  63.6687859  76.7640102  42.2730452  72.0371778  76.0715760
  42.7066959  71.9447067  76.9198814  42.9862033  72.0129278  75.4335776
  31.1863502  73.2555776  73.2536493  31.9804101  72.7606097  73.0519068
  30.4755195  72.7273640  72.8904198  36.0058347  75.6373872  77.6048860
  36.0595369  76.2064808  78.3726576  35.1373128  75.8075757  77.2402897
  27.4946266  67.3998858  69.3296245  26.5643854  67.3383314  69.5466207
  27.5903738  66.8774811  68.5332887  27.4131815  63.9253671  71.9174487
  27.6738632  64.8399004  71.8083647  28.2348987  63.4578114  72.0671100
  28.8856740  65.3391428  79.0873312  29.5579794  65.1308790  78.4385960
  28.0586527  65.1413514  78.6478544  43.1346001  72.0795478  78.6048645
  43.3281892  72.9841289  78.8507920  43.0346620  71.6202898  79.4387230
  34.7882312  61.9653369  81.1038972  34.1410227  62.6643319  81.0103449
  35.5583328  62.3989513  81.4715221  38.1961110  72.2302221  84.1789526
  38.0446617  72.0012773  83.2619609  38.1865790  73.1872823  84.1920871
  34.9646447  69.8034134  79.1635792  35.8938507  69.9545294  78.9904759
  34.5437477  69.8918155  78.3084439  33.7634778  73.8284798  76.9334330
  33.6245864  73.4603583  77.8060268  32.9749375  74.3432438  76.7618288
  34.3582930  78.9293895  68.2759866  34.5334686  78.4581938  69.0905489
  33.6715718  79.5559661  68.5041127  35.3139994  73.2066401  74.3223168
  34.9789826  73.1667171  75.2180817  34.8143939  72.5411117  73.8493578
  29.2884237  68.6134031  79.8475749  29.1504035  67.8814270  80.4487288
  30.1989161  68.5242931  79.5659936  38.2499185  70.5522435  64.5960227
  37.6328356  69.8269264  64.4993280  37.7815674  71.3131796  64.2527301
  31.9166538  68.3253990  79.3359428  32.6266157  67.6847183  79.2946047
  31.8735846  68.5766885  80.2585609  39.9053317  75.2621344  82.2566008
  39.8465863  74.5780564  81.5896591  40.3072835  76.0040334  81.8046634
  30.6295472  65.3119208  81.1555068  30.0932829  64.8609947  81.8076664
  30.0412181  65.4465117  80.4125532  28.9244016  82.0783258  75.0499726
  29.1640614  82.7101782  75.7278745  28.0813212  81.7271298  75.3365086
  30.0397731  64.7707860  63.7181531  29.1627197  64.6496660  63.3543778
  30.5155484  63.9793938  63.4660420  39.9070724  73.2260928  80.4879987
  39.0197503  72.8886849  80.6106386  40.4769275  72.4943959  80.7248753
  21.5599871  69.5585019  73.8123039  22.2470911  69.2446749  73.2244054
  21.4048000  70.4626384  73.5390290  26.3634593  64.4475216  78.2408062
  26.2792782  63.8400886  77.5058472  25.5417300  64.9384234  78.2417559
  33.4371877  77.8862380  77.4541230  33.3642049  78.6917352  77.9660535
  32.9949271  78.0854346  76.6289252  33.2261657  77.1234150  70.9644052
  32.4429179  77.6655830  71.0582276  33.9254402  77.6408130  71.3638293
  36.5358307  62.9328780  73.6078257  37.0327007  62.1798742  73.2879328
  35.7645289  62.9693096  73.0421467  44.3888065  68.6369145  75.2496549
  44.3777941  69.5193860  74.8790482  43.5205444  68.2840696  75.0551086
  35.8970561  77.7849214  79.6099389  36.6098533  78.4196679  79.5375291
  35.4060590  77.8813080  78.7939391  37.6188088  71.6900467  71.1816681
  36.6844367  71.8101929  71.0121385  37.7964756  70.7872934  70.9176691
  33.1193276  65.0746163  73.3349942  32.7491063  64.5217203  74.0230848
  33.6152368  64.4704296  72.7824942  41.0060639  67.5317786  71.7166715
  41.4721091  68.3645778  71.6427018  41.4568140  67.0662768  72.4211973
  30.9482475  75.5343658  80.4304960  31.6491934  76.1680141  80.5834354
  30.4777590  75.8758389  79.6700599  39.0736870  73.8761607  68.7152867
  39.3496714  73.7618202  69.6246741  38.2041369  73.4779092  68.6765040
  38.9777302  59.8998373  75.7557616  38.0640382  60.1302600  75.9239823
  39.4070403  59.9836817  76.6071649  38.7483760  68.0888265  78.2557510
  38.0955211  68.3364172  77.6009963  39.1264140  67.2752403  77.9219988
  35.7090934  78.1247958  72.3585681  35.8913329  77.3069614  72.8213433
  36.5323920  78.3415650  71.9210571  36.0433100  77.0516143  69.6200729
  36.5720866  76.5408598  69.0070891  36.3061319  76.7358674  70.4846262
  34.7971334  68.8308076  84.7423547  34.1211971  68.7302205  85.4125923
  35.6198967  68.6747290  85.2059545  26.5450193  75.0680013  77.3636063
  27.1303629  74.3223700  77.4963967  26.3475031  75.3783969  78.2472726
  29.3988848  78.1031260  72.3798505  28.7299223  78.5877388  71.8962545
  29.2601718  78.3500480  73.2941884  21.1367847  67.6385613  76.0840506
  21.1751947  67.1049203  76.8777624  20.6308140  67.1120818  75.4651483
  33.5394116  80.1375004  78.9781163  34.0912424  80.3006625  79.7430249
  33.8800310  80.7279441  78.3061188  28.5158610  62.4850153  79.5803048
  28.5799936  63.3464984  79.1680446  28.4525730  61.8724155  78.8475407
  27.9910882  64.5573286  83.2276082  28.6182921  64.1750363  83.8413607
  27.1338801  64.3387488  83.5931775  38.3904991  74.9636261  84.8329818
  38.9344895  75.5766219  84.3384773  37.8091836  75.5215839  85.3496831
  24.7676425  66.3649715  69.1594437  25.0629866  65.4560393  69.1061491
  23.8664461  66.3437454  68.8375439  36.6762504  78.0856979  75.9644846
  36.5513643  77.2846719  75.4555791  37.3341595  78.5803172  75.4758815
  28.2970672  64.4405712  75.1421986  27.5757258  65.0541679  75.0029459
  29.0863928  64.9763476  75.0638632  38.7397412  75.8865999  77.5924396
  37.7927748  75.7671350  77.5202722  39.0880185  74.9988497  77.6750657
  31.0996985  61.7760138  81.4162637  31.6231387  62.0222435  82.1788947
  30.8809319  62.6080173  80.9965775  26.4964266  64.0463813  69.2833762
  26.1676973  63.1661192  69.1008868  26.8503637  63.9911481  70.1710152
  35.7443845  75.6818715  73.7928748  35.5968808  74.7535423  73.9736318
  36.5697339  75.7038806  73.3085823  29.6106090  64.3336782  69.6509240
  29.9502162  64.8622704  68.9287848  30.0578210  64.6717189  70.4267807
  39.3477967  76.5047274  74.8793621  40.2724515  76.2990135  74.7418072
  39.1793271  76.2563675  75.7882962  32.3049530  62.7173833  79.1012308
  31.9646351  61.9181646  79.5032988  31.5988537  63.0175544  78.5289141
  32.9566002  59.8023146  77.5539631  33.7792072  59.3283624  77.4318521
  33.2004066  60.5813629  78.0538317  31.5974237  62.8311404  67.8502533
  32.3182599  63.2092657  67.3466250  30.9739541  63.5500281  67.9537511
  35.7405360  63.5356553  68.7860865  35.9568974  64.4181191  68.4849693
  35.2599427  63.1442766  68.0566507  30.4804581  66.4942266  75.3631610
  30.3349162  66.8082569  76.2555891  30.0029785  67.1127167  74.8102508
  32.3400964  63.4844814  75.4112499  32.3262533  62.5885907  75.0744797
  33.0573392  63.4915478  76.0450785  34.1927095  63.9182154  77.4565627
  33.9344872  64.8399225  77.4549957  33.6612135  63.5212589  78.1466091
  39.1373283  77.0232942  70.2355712  39.3110161  76.4579364  69.4829564
  39.6302175  77.8233836  70.0535202  24.9550243  69.0347611  78.3019271
  24.4103711  69.8107419  78.4339545  25.8329593  69.3818415  78.1438392
  31.7437860  62.3659194  70.6800069  31.8653771  61.4375841  70.8790957
  31.4539902  62.3797880  69.7678385  34.6129050  60.0514105  73.8166789
  34.6350747  60.1153438  72.8618769  35.0297109  59.2118614  74.0107295
  44.9912675  69.7869364  71.8546012  45.4343821  69.0376690  71.4565135
  44.1139185  69.7779501  71.4719744  40.1248456  76.3399706  67.3352610
  40.8199361  76.9606399  67.5539925  40.4671606  75.4895057  67.6104988
  25.7416265  68.1617507  81.1949428  24.9998001  68.3100142  81.7814058
  25.4209009  68.4225772  80.3316177  42.0239879  73.7899411  68.8639941
  42.5491203  74.1286684  68.1389261  41.9362232  72.8546427  68.6803076
  33.6859928  77.7033485  80.9929818  33.9947054  77.4582632  81.8652517
  34.4835410  77.9080124  80.5048688  33.7080540  79.8571395  73.2235194
  33.2685530  79.3647773  73.9168051  34.4588657  79.3144362  72.9827269
  26.1872879  76.0482936  73.2259822  27.0130899  75.7486707  72.8458466
  25.8366931  75.2790558  73.6749611  31.1554412  75.4009404  75.2957496
  30.5334421  74.7380109  74.9959724  31.8259279  75.4270536  74.6131144
  24.3881484  73.9669262  74.1848756  23.5513392  73.5391436  74.0032757
  24.3605129  74.1601705  75.1219547  31.2278939  63.8791192  84.8890002
  31.2767095  64.7553315  84.5067772  31.7701454  63.3368585  84.3161645
  41.7133785  74.4232315  84.1691139  40.9229329  74.4056454  83.6295638
  41.4767140  74.9620609  84.9240176  41.8331660  71.2724781  81.4823868
  41.8829665  71.1074789  82.4239390  41.7245583  70.4052040  81.0921748
  30.7167919  73.9513327  68.7715956  30.8656039  74.6348792  68.1182629
  31.5234362  73.9318417  69.2865412  39.1235423  67.2555709  82.7983174
  40.0245285  67.1162174  82.5067172  39.1983397  67.4210164  83.7381352
  33.4578228  64.6322564  81.6436361  32.5881537  64.9256130  81.3718949
  33.6937708  65.2163009  82.3643624  43.3349857  73.6921723  81.7265889
  43.0434665  74.0551704  82.5629350  42.7221988  72.9788731  81.5479221
  44.5345539  71.2574603  74.2468459  45.3692431  71.6964407  74.4106020
  44.6704668  70.7813256  73.4276705  41.5837045  68.8154338  80.1945947
  42.0591167  69.0081984  79.3864798  40.6602611  68.8713523  79.9489331
  28.4720552  69.9778505  69.7777025  28.2266594  69.0740835  69.9757236
  28.6416466  69.9795655  68.8356503  36.1617262  60.8502181  79.1601781
  36.6799206  61.5863208  78.8348270  35.8072394  61.1566174  79.9948540
  27.7416199  65.7106862  67.2763187  27.0485444  65.7851217  66.6203223
  27.4967951  64.9467206  67.7984704  36.4129856  57.2702464  74.6802678
  36.6931610  56.6025653  75.3063104  37.1980463  57.4631559  74.1677341
  34.2163324  76.4461458  66.2427704  33.6437291  77.0651645  65.7898176
  34.7896118  76.9960819  66.7767626  40.2838714  65.6920098  78.4274253
  41.2356137  65.7918195  78.4486477  40.1142165  64.8998366  78.9372337
  38.3053094  62.7775681  78.6133654  37.7103026  63.0580694  77.9180142
  38.0202790  63.2669582  79.3850395  37.4360584  76.7298608  67.3736286
  38.3691257  76.6644169  67.5769162  37.3483797  77.5654875  66.9150819
  40.0648601  76.0464478  64.3340234  39.9862232  75.7124342  65.2275992
  40.8858268  76.5386246  64.3331706  42.7626792  68.9126217  77.5416552
  42.7303112  67.9742218  77.7276236  43.3727416  68.9910254  76.8082377
  34.6010123  67.7822270  63.5843756  35.5469228  67.6528478  63.6532174
  34.2224368  67.0436932  64.0613185  42.9121280  65.7037261  77.5874836
  42.3960329  64.9195717  77.4004764  43.7961229  65.3755977  77.7521355
  40.5732007  59.4478276  73.5470648  40.3756829  59.1393365  74.4313980
  41.1831713  60.1739915  73.6768578  48.5803342  69.9742224  76.6822589
  49.3106730  69.7127512  77.2430292  47.9710287  69.2370946  76.7224657
  46.6618639  68.1150087  77.2797040  45.9351803  67.9806052  76.6713532
  46.2465926  68.4226915  78.0853758  34.4848815  71.8340016  85.0444413
  35.4051825  72.0118615  85.2384460  34.4498398  70.8896062  84.8924113
  32.7853040  65.7072247  63.5198642  31.8784495  65.4105359  63.5961355
  33.0629021  65.4102065  62.6532928  23.7030980  67.0278610  73.9697688
  23.3833765  66.1743918  73.6772062  23.1564409  67.2427188  74.7255655
  27.4810888  69.7441051  77.6867195  27.6996898  70.6758159  77.7055228
  27.8936662  69.3849026  78.4721998  34.4015106  60.2509136  69.6742883
  33.5915834  59.9056221  70.0498129  35.0899523  59.9416680  70.2630494
  36.3305654  59.3287183  71.2967180  36.8836693  59.7482637  71.9557203
  36.5675740  58.4022931  71.3390136  32.3538753  65.3174257  87.0769943
  32.2535480  66.2668614  87.0082035  32.1360295  64.9892496  86.2046014
  31.5551825  62.5659182  63.6610621  32.4170989  62.8914080  63.9206438
  31.7402169  61.7790678  63.1483687  23.5719240  70.6481522  75.9390810
  22.8782712  70.2335474  75.4260764  24.3192231  70.6902058  75.3424228
  39.7084461  61.4387708  70.8045844  39.1283130  62.0972512  70.4223896
  39.4420394  60.6165053  70.3933261  38.1588027  60.8392766  73.0067164
  38.6587806  60.9509301  72.1981483  38.8023635  60.5353819  73.6467973
  32.2170023  68.7471396  85.8935005  31.7337105  69.5471756  86.0998894
  32.3030962  68.7579341  84.9402449  25.4855983  70.5799775  73.8156824
  25.4626671  70.6787463  72.8638708  25.7956619  71.4264926  74.1373991
  28.1443361  72.6375930  77.9303439  29.0986614  72.6059873  77.8633370
  27.9455884  72.1766554  78.7453665  28.7342743  71.2077046  80.4974237
  29.5535632  71.7021125  80.5209074  29.0079551  70.2909015  80.4691804
  38.4909339  63.5987799  69.8602192  37.6035194  63.8837449  69.6422387
  38.9063328  63.4381562  69.0129469  41.8423875  63.6234320  73.5756531
  42.6184265  64.1130772  73.8481148  41.1172009  64.0492374  74.0328401
  44.2796434  64.3361939  74.6330472  44.8740925  64.0957675  73.9223780
  44.3523018  63.6169070  75.2604008  26.4993590  78.1795550  74.9473637
  26.3648058  77.4195951  74.3811635  26.0825652  78.9036450  74.4802426
  37.6352553  73.3632473  63.9550212  38.3388403  73.5682476  64.5707868
  36.9115201  73.9309235  64.2199296  38.4650363  69.1142335  70.0752482
  38.4085564  69.5710886  69.2360115  39.0178705  68.3533019  69.8975325
  42.2755169  64.9032067  70.9002602  42.0192103  64.5028702  71.7310809
  41.6508037  65.6175861  70.7752741  46.5867507  67.6428140  73.4073893
  46.0267065  67.7121329  74.1805455  45.9811010  67.4669124  72.6873389
  29.6562715  79.0764867  75.1592079  29.5395100  80.0210299  75.0570770
  28.8355162  78.7738429  75.5477879  39.5439250  73.8015003  66.0048672
  40.3784854  73.3696201  65.8226147  39.3823593  73.6297016  66.9325567
  39.1985142  70.3047116  67.3705011  39.1433946  70.1391387  66.4293456
  38.5731197  71.0123149  67.5267201  23.9877657  65.5415180  81.1966434
  24.6336521  65.0314134  81.6853659  23.7794808  66.2783862  81.7709859
  36.5131049  72.6096028  86.6958574  37.3822209  72.7836680  86.3345209
  36.0337801  73.4290445  86.5734304  32.5081268  59.8055225  66.9490330
  32.4959937  60.7497065  67.1058601  33.4004690  59.6225370  66.6549791
  30.6817230  79.7293129  78.3748008  31.5844476  79.7616739  78.6914503
  30.4554600  78.7993580  78.3894344  32.4370832  78.4824115  75.0358086
  31.4866463  78.4825977  74.9222459  32.7403318  77.7356850  74.5194121
  36.3233387  56.3998002  71.2036267  35.5565783  55.8456488  71.3492949
  36.7344092  56.4719870  72.0650418  28.3275148  62.6882797  85.2941448
  29.1906610  62.3319602  85.5044772  27.7540559  62.3496692  85.9816852
  48.1723525  84.3184654  76.1003849  48.8101935  84.1991401  75.3967189
  48.0544368  85.2665498  76.1591801  44.9813231  84.2712082  76.0365374
  44.6431743  84.1553147  75.1485908  45.8503000  83.8703247  76.0166380
  40.8400047  86.1247558  72.0262264  40.2764912  86.0337495  71.2578552
  40.7252442  85.3047463  72.5064757  45.4633014  85.4246934  81.9951579
  45.4521655  85.0299732  81.1232083  45.6253654  84.6913006  82.5885351
  38.3864479  87.6198750  74.8646485  39.1785771  87.2789575  74.4492784
  38.6261129  87.7293725  75.7848638  46.4199606  89.7918526  67.3376729
  45.7687586  90.3772606  66.9510743  47.2143969  90.3224721  67.3971767
  40.3455233  86.8807663  67.7363864  41.1186109  86.3336650  67.5976740
  40.6980632  87.7451912  67.9478325  42.1840275  88.2084045  80.9430763
  41.8930141  89.1129676  80.8277429  42.8197260  88.2500573  81.6574833
  43.1096482  85.5860894  77.5332123  43.7060055  85.3616916  76.8189086
  43.1671454  84.8445639  78.1357571  42.6821511  83.0400329  65.3682314
  42.9347031  82.5181851  64.6065777  41.7446070  82.8766475  65.4708997
  47.7264794  82.0436108  73.1757057  48.5127883  81.6255531  72.8247474
  47.9903498  82.9482200  73.3438705  47.8974871  87.4808958  67.8745714
  47.2620704  87.5543584  68.5866618  47.5672277  88.0702557  67.1964793
  42.4017799  84.9428435  67.5706689  42.2854058  84.2673339  68.2387773
  42.5120059  84.4560809  66.7538842  44.7449340  84.4038582  71.2753378
  44.3807548  83.8769203  71.9866299  45.6016456  84.0137051  71.1019863
  50.6498641  75.6932915  78.5384644  50.3181966  76.5628326  78.3145859
  50.0544254  75.3769199  79.2178674  44.3854827  79.4328482  66.2714726
  44.5529230  80.3008718  66.6385197  44.1951996  79.5955764  65.3476016
  47.1430161  87.8945461  77.9380557  46.8430884  88.7970500  77.8296364
  46.7981220  87.6277644  78.7901710  40.5942642  84.3459258  73.9717261
  39.6693139  84.2135472  74.1794953  40.8427055  85.1253477  74.4687204
  50.5427304  80.4128001  75.6177994  49.6344182  80.3443410  75.3236755
  50.4914900  80.8899946  76.4459820  44.3644048  81.8886140  67.2561393
  44.2443673  82.3343190  68.0946873  43.6696637  82.2371457  66.6974931
  37.9551453  83.9892531  74.8061050  38.0843834  84.2427010  75.7200462
  37.2748904  84.5820239  74.4865705  42.1250940  94.6589781  70.9051524
  42.0474970  95.6097606  70.9840005  41.5212584  94.3135654  71.5626451
  44.6168170  81.8317647  83.5612891  43.8401504  82.3911567  83.5515756
  45.2558733  82.3174430  84.0827761  52.4088951  78.6144440  77.3955868
  51.7663331  78.9076973  76.7495663  51.9043879  78.4997360  78.2009065
  42.8714542  84.6403100  83.1230858  43.6129227  85.1788144  82.8465682
  42.1651528  85.2669389  83.2802410  48.3469882  86.7832241  81.7203020
  48.7553238  86.3414651  80.9757652  47.6247144  86.2084868  81.9737213
  44.7000952  81.7204847  79.0936577  45.5462147  82.1444261  79.2371226
  44.6399590  81.0638472  79.7875140  48.6698697  87.3433431  75.4755309
  48.0407559  87.5079145  74.7731377  48.2824359  87.7575041  76.2466273
  47.8500397  79.3809216  80.7517750  47.6061329  80.1351276  80.2152026
  48.1260328  79.7594563  81.5864997  49.8038860  85.9247828  79.4295016
  50.0155755  86.5679588  78.7529397  49.7568608  85.0910145  78.9616946
  47.4065089  78.5365649  76.3331588  46.5449568  78.8346902  76.6248326
  47.4327524  78.7536048  75.4012621  44.2226659  87.0807839  72.7405394
  44.6865004  87.3595542  71.9510016  43.9583457  86.1791284  72.5578484
  41.1150740  86.6279321  75.6785157  41.6852097  87.0566589  75.0402642
  41.7058852  86.3461905  76.3769343  43.1595545  83.2030992  69.5494959
  43.8619588  83.6552035  70.0168885  42.8276173  82.5614810  70.1774852
  41.6075906  81.7942748  83.9246168  40.9774567  82.4759029  84.1581565
  41.5011994  81.6825830  82.9799307  36.9020879  81.4614544  74.8512093
  36.1119933  81.7172073  74.3752203  37.3932126  82.2762882  74.9564133
  50.9184688  88.8019783  77.6017373  51.7402132  88.3999971  77.3200055
  50.9147091  88.6988018  78.5533489  38.8535624  81.8259124  71.8095569
  38.0566787  81.9377818  72.3279065  38.6261216  82.1645776  70.9436460
  44.6841292  88.3503827  79.7578084  44.7485724  88.8124234  80.5936256
  43.9752216  87.7201192  79.8860394  35.1858582  81.7145035  77.2827083
  35.4366620  82.5992045  77.5484659  35.7218130  81.5349636  76.5102175
  44.3989309  90.0171934  69.6257064  44.2634984  90.8623470  70.0541912
  44.9399122  90.2191212  68.8622998  40.8856649  76.0963514  86.2871419
  40.4923594  75.5429713  86.9619064  41.7022789  76.4074093  86.6777937
  37.8518707  87.5347372  70.1984989  38.3643227  88.3290623  70.3490554
  38.5041420  86.8373663  70.1318591  39.6613591  90.6513129  72.2807742
  39.8380220  91.5731093  72.0928726  40.4570425  90.3371548  72.7102122
  43.8024610  77.5121393  83.8791676  44.5434323  78.1128546  83.7996138
  44.0342533  76.7699031  83.3209719  38.9465948  82.6977760  82.1569906
  38.8319463  81.7963018  82.4577005  38.0910466  82.9441457  81.8054722
  46.0257786  90.6395501  83.7557406  45.5821640  89.8531879  83.4378311
  46.6874999  90.8274651  83.0901297  40.7844907  92.1691302  78.2818085
  41.3352332  92.0408366  77.5095079  39.9456383  92.4686191  77.9312978
  48.1239024  90.9198301  81.7838808  48.1057499  91.7407182  81.2919077
  49.0458944  90.7952376  82.0088949  44.5812078  88.4342430  82.6262316
  45.1140415  87.6730718  82.3961624  44.0526159  88.1416082  83.3686470
  47.7481773  73.5402496  78.1555958  47.4046042  74.4304138  78.0795068
  48.1160735  73.3504154  77.2925543  35.8167623  85.8636027  70.9744560
  36.6542845  86.2733035  70.7578268  35.9945891  84.9235469  70.9444754
  47.7132056  83.5311107  66.6628393  47.1978679  84.3015712  66.9016780
  47.4409364  82.8576243  67.2861454  45.2979167  78.3760808  71.7213631
  44.4420763  77.9867658  71.5419270  45.7106118  78.4552769  70.8613417
  46.8278313  75.9107151  76.1205191  46.3243109  75.8737286  75.3072996
  47.1208920  76.8199894  76.1801848  43.0721199  75.9945881  75.1271373
  43.9374196  75.7988690  74.7677262  43.1398708  75.7656233  76.0540729
  47.5018359  81.4038199  68.4888174  47.1968494  81.7184349  69.3398317
  48.4548801  81.4819619  68.5315507  45.9464791  87.5628423  70.1381128
  45.4186152  86.8281182  69.8254365  45.4452293  88.3403099  69.8921096
  50.9257637  85.7577443  75.2548174  50.2681311  86.4476705  75.3428303
  51.7298036  86.1473875  75.5982161  40.6783518  78.2248089  72.4987739
  41.2527270  78.0023270  71.7660932  41.2654501  78.2936783  73.2516341
  49.7363095  84.1121816  73.3052116  50.2494977  84.7451808  73.8073826
  50.3864319  83.5123011  72.9395476  41.0053105  80.2552550  66.5183625
  40.1690418  80.5927236  66.8392899  40.8657875  80.1201530  65.5810762
  42.9806186  75.0989338  71.2262809  42.3270598  74.7838355  70.6019424
  42.9386660  74.4765078  71.9522632  44.0917391  85.3808633  63.1416101
  43.1844453  85.1497886  63.3407250  44.5888423  84.5846252  63.3290082
  46.9985470  94.0906140  66.0612787  46.3247168  94.3937837  66.6697745
  47.3851292  94.8935220  65.7118244  46.2143926  81.5871271  75.5510456
  45.2966488  81.8086218  75.3932145  46.6304070  81.6617582  74.6922164
  46.9978974  82.9862687  70.6813137  47.7450793  83.4984084  70.3720259
  47.2670564  82.6646740  71.5417530  45.2705624  85.4821228  67.6640091
  44.3616843  85.1980261  67.7612561  45.3000708  85.9020306  66.8043398
  48.9457831  90.9304314  72.3681077  49.2380805  91.4909371  71.6493442
  49.4556451  91.2232875  73.1234236  35.8393795  83.2026742  71.6455293
  35.6418194  82.6096103  70.9206360  35.2840459  82.8978952  72.3631232
  43.8190518  83.0949848  73.7649886  43.8739128  82.1423685  73.6892363
  43.0081720  83.2509287  74.2491185  44.9681712  87.0229971  65.0028170
  44.5301142  86.3065830  64.5433807  45.7092153  87.2506086  64.4413261
  41.7582878  81.7126908  71.5240265  40.9450744  82.0121079  71.9305457
  42.2541872  81.3182597  72.2414747  43.9091456  91.7084665  73.4574530
  43.8667635  91.9345511  72.5283062  44.8254155  91.4748040  73.6060331
  47.3557090  82.1768733  80.3555159  47.7106478  82.4040206  81.2149625
  48.0029221  82.5087109  79.7332414  41.2496953  79.2845264  77.1401500
  41.8896332  79.1434023  76.4424464  40.4174483  78.9979777  76.7640102
  42.0257257  88.5847694  73.2536493  42.8197855  88.0898014  73.0519068
  41.3148949  88.0565557  72.8904198  46.8452101  90.9665790  77.6048860
  46.8989124  91.5356726  78.3726576  45.9766883  91.1367675  77.2402897
  38.3340020  82.7290776  69.3296245  37.4037608  82.6675231  69.5466207
  38.4297492  82.2066729  68.5332887  38.2525569  79.2545589  71.9174487
  38.5132387  80.1690922  71.8083647  39.0742742  78.7870031  72.0671100
  39.7250495  80.6683346  79.0873312  40.3973548  80.4600708  78.4385960
  38.8980281  80.4705432  78.6478544  45.6276067  77.2945287  81.1038972
  44.9803982  77.9935236  81.0103449  46.3977082  77.7281431  81.4715221
  49.0354865  87.5594139  84.1789526  48.8840371  87.3304691  83.2619609
  49.0259544  88.5164740  84.1920871  45.8040201  85.1326052  79.1635792
  46.7332261  85.2837211  78.9904759  45.3831231  85.2210072  78.3084439
  44.6028533  89.1576716  76.9334330  44.4639619  88.7895500  77.8060268
  43.8143129  89.6724355  76.7618288  45.1976685  94.2585813  68.2759866
  45.3728441  93.7873856  69.0905489  44.5109473  94.8851579  68.5041127
  46.1533748  88.5358319  74.3223168  45.8183581  88.4959089  75.2180817
  45.6537694  87.8703035  73.8493578  40.1277992  83.9425949  79.8475749
  39.9897790  83.2106188  80.4487288  41.0382915  83.8534849  79.5659936
  49.0892940  85.8814353  64.5960227  48.4722110  85.1561181  64.4993280
  48.6209428  86.6423713  64.2527301  42.7560293  83.6545908  79.3359428
  43.4659911  83.0139100  79.2946047  42.7129601  83.9058803  80.2585609
  50.7447071  90.5913261  82.2566008  50.6859617  89.9072482  81.5896591
  51.1466590  91.3332251  81.8046634  41.4689227  80.6411126  81.1555068
  40.9326584  80.1901864  81.8076664  40.8805935  80.7757035  80.4125532
  39.7637770  97.4075175  75.0499726  40.0034368  98.0393699  75.7278745
  38.9206967  97.0563215  75.3365086  40.8791486  80.0999777  63.7181531
  40.0020952  79.9788578  63.3543778  41.3549239  79.3085856  63.4660420
  50.7464479  88.5552845  80.4879987  49.8591257  88.2178767  80.6106386
  51.3163030  87.8235877  80.7248753  32.3993626  84.8876937  73.8123039
  33.0864666  84.5738667  73.2244054  32.2441754  85.7918302  73.5390290
  37.2028348  79.7767134  78.2408062  37.1186537  79.1692803  77.5058472
  36.3811054  80.2676152  78.2417559  44.2765632  93.2154298  77.4541230
  44.2035803  94.0209269  77.9660535  43.8343025  93.4146264  76.6289252
  44.0655412  92.4526068  70.9644052  43.2822933  92.9947748  71.0582276
  44.7648157  92.9700047  71.3638293  47.3752062  78.2620697  73.6078257
  47.8720761  77.5090660  73.2879328  46.6039043  78.2985014  73.0421467
  46.7364315  93.1141132  79.6099389  47.4492288  93.7488597  79.5375291
  46.2454344  93.2104998  78.7939391  48.4581842  87.0192384  71.1816681
  47.5238121  87.1393847  71.0121385  48.6358511  86.1164851  70.9176691
  43.9587030  80.4038080  73.3349942  43.5884818  79.8509121  74.0230848
  44.4546123  79.7996214  72.7824942  41.7876229  90.8635575  80.4304960
  42.4885689  91.4972058  80.5834354  41.3171344  91.2050307  79.6700599
  49.8171056  75.2290291  75.7557616  48.9034136  75.4594518  75.9239823
  50.2464158  75.3128735  76.6071649  49.5877515  83.4180183  78.2557510
  48.9348965  83.6656090  77.6009963  49.9657895  82.6044321  77.9219988
  46.5484689  93.4539876  72.3585681  46.7307083  92.6361532  72.8213433
  47.3717675  93.6707568  71.9210571  46.8826854  92.3808061  69.6200729
  47.4114621  91.8700516  69.0070891  47.1455074  92.0650591  70.4846262
  45.6365088  84.1599994  84.7423547  44.9605725  84.0594123  85.4125923
  46.4592722  84.0039207  85.2059545  37.3843947  90.3971930  77.3636063
  37.9697384  89.6515618  77.4963967  37.1868786  90.7075887  78.2472726
  40.2382602  93.4323178  72.3798505  39.5692978  93.9169305  71.8962545
  40.0995472  93.6792398  73.2941884  31.9761602  82.9677530  76.0840506
  32.0145701  82.4341121  76.8777624  31.4701895  82.4412736  75.4651483
  44.3787871  95.4666921  78.9781163  44.9306179  95.6298543  79.7430249
  44.7194064  96.0571359  78.3061188  39.3552364  77.8142071  79.5803048
  39.4193691  78.6756902  79.1680446  39.2919484  77.2016073  78.8475407
  38.8304637  79.8865204  83.2276082  39.4576675  79.5042281  83.8413607
  37.9732555  79.6679405  83.5931775  49.2298745  90.2928179  84.8329818
  49.7738649  90.9058137  84.3384773  48.6485590  90.8507757  85.3496831
  35.6070179  81.6941633  69.1594437  35.9023620  80.7852311  69.1061491
  34.7058215  81.6729372  68.8375439  47.5156258  93.4148897  75.9644846
  47.3907398  92.6138637  75.4555791  48.1735349  93.9095090  75.4758815
  39.1364426  79.7697629  75.1421986  38.4151012  80.3833597  75.0029459
  39.9257682  80.3055394  75.0638632  49.5791167  91.2157917  77.5924396
  48.6321502  91.0963268  77.5202722  49.9273940  90.3280415  77.6750657
  41.9390740  77.1052056  81.4162637  42.4625142  77.3514352  82.1788947
  41.7203073  77.9372091  80.9965775  37.3358021  79.3755730  69.2833762
  37.0070727  78.4953109  69.1008868  37.6897392  79.3203399  70.1710152
  46.5837600  91.0110633  73.7928748  46.4362562  90.0827340  73.9736318
  47.4091093  91.0330724  73.3085823  40.4499844  79.6628700  69.6509240
  40.7895917  80.1914621  68.9287848  40.8971965  80.0009106  70.4267807
  50.1871722  91.8339192  74.8793621  51.1118269  91.6282053  74.7418072
  50.0187025  91.5855593  75.7882962  43.1443285  78.0465751  79.1012308
  42.8040105  77.2473564  79.5032988  42.4382291  78.3467462  78.5289141
  43.7959757  75.1315063  77.5539631  44.6185826  74.6575541  77.4318521
  44.0397820  75.9105547  78.0538317  42.4367991  78.1603322  67.8502533
  43.1576354  78.5384574  67.3466250  41.8133295  78.8792198  67.9537511
  46.5799114  78.8648471  68.7860865  46.7962729  79.7473109  68.4849693
  46.0993181  78.4734684  68.0566507  41.3198336  81.8234184  75.3631610
  41.1742916  82.1374487  76.2555891  40.8423539  82.4419084  74.8102508
  43.1794718  78.8136732  75.4112499  43.1656287  77.9177825  75.0744797
  43.8967147  78.8207396  76.0450785  45.0320849  79.2474072  77.4565627
  44.7738627  80.1691143  77.4549957  44.5005890  78.8504507  78.1466091
  49.9767038  92.3524859  70.2355712  50.1503915  91.7871282  69.4829564
  50.4695929  93.1525754  70.0535202  35.7943998  84.3639528  78.3019271
  35.2497466  85.1399336  78.4339545  36.6723348  84.7110333  78.1438392
  42.5831614  77.6951112  70.6800069  42.7047526  76.7667758  70.8790957
  42.2933657  77.7089798  69.7678385  45.4522805  75.3806023  73.8166789
  45.4744502  75.4445356  72.8618769  45.8690864  74.5410531  74.0107295
  36.5810020  83.4909425  81.1949428  35.8391756  83.6392060  81.7814058
  36.2602764  83.7517690  80.3316177  44.5253682  93.0325403  80.9929818
  44.8340809  92.7874550  81.8652517  45.3229164  93.2372041  80.5048688
  44.5474294  95.1863312  73.2235194  44.1079285  94.6939691  73.9168051
  45.2982411  94.6436280  72.9827269  37.0266633  91.3774853  73.2259822
  37.8524653  91.0778625  72.8458466  36.6760685  90.6082476  73.6749611
  41.9948166  90.7301321  75.2957496  41.3728176  90.0672027  74.9959724
  42.6653033  90.7562453  74.6131144  35.2275238  89.2961180  74.1848756
  34.3907147  88.8683354  74.0032757  35.1998884  89.4893623  75.1219547
  42.0672694  79.2083110  84.8890002  42.1160849  80.0845232  84.5067772
  42.6095208  78.6660503  84.3161645  52.5527540  89.7524233  84.1691139
  51.7623083  89.7348372  83.6295638  52.3160894  90.2912526  84.9240176
  52.6725415  86.6016699  81.4823868  52.7223420  86.4366707  82.4239390
  52.5639338  85.7343958  81.0921748  41.5561673  89.2805245  68.7715956
  41.7049794  89.9640709  68.1182629  42.3628117  89.2610335  69.2865412
  49.9629177  82.5847627  82.7983174  50.8639040  82.4454092  82.5067172
  50.0377152  82.7502082  83.7381352  44.2971982  79.9614482  81.6436361
  43.4275292  80.2548048  81.3718949  44.5331463  80.5454927  82.3643624
  54.1743611  89.0213641  81.7265889  53.8828420  89.3843621  82.5629350
  53.5615743  88.3080649  81.5479221  52.4230800  84.1446255  80.1945947
  52.8984921  84.3373902  79.3864798  51.4996365  84.2005441  79.9489331
  39.3114306  85.3070422  69.7777025  39.0660348  84.4032752  69.9757236
  39.4810221  85.3087573  68.8356503  47.0011016  76.1794099  79.1601781
  47.5192960  76.9155126  78.8348270  46.6466149  76.4858092  79.9948540
  38.5809954  81.0398780  67.2763187  37.8879199  81.1143135  66.6203223
  38.3361706  80.2759124  67.7984704  47.2523610  72.5994381  74.6802678
  47.5325364  71.9317570  75.3063104  48.0374217  72.7923477  74.1677341
  45.0557079  91.7753375  66.2427704  44.4831046  92.3943562  65.7898176
  45.6289873  92.3252737  66.7767626  51.1232469  81.0212015  78.4274253
  52.0749892  81.1210113  78.4486477  50.9535919  80.2290284  78.9372337
  49.1446848  78.1067599  78.6133654  48.5496780  78.3872611  77.9180142
  48.8596545  78.5961500  79.3850395  48.2754339  92.0590525  67.3736286
  49.2085012  91.9936087  67.5769162  48.1877551  92.8946792  66.9150819
  50.9042355  91.3756396  64.3340234  50.8255987  91.0416259  65.2275992
  51.7252022  91.8678164  64.3331706  45.4403877  83.1114188  63.5843756
  46.3862982  82.9820396  63.6532174  45.0618122  82.3728850  64.0613185
  45.3242570  87.1631934  85.0444413  46.2445579  87.3410533  85.2384460
  45.2892153  86.2187980  84.8924113  43.6246794  81.0364164  63.5198642
  42.7178250  80.7397277  63.5961355  43.9022775  80.7393983  62.6532928
  34.5424735  82.3570528  73.9697688  34.2227519  81.5035836  73.6772062
  33.9958163  82.5719106  74.7255655  38.3204642  85.0732969  77.6867195
  38.5390652  86.0050077  77.7055228  38.7330416  84.7140943  78.4721998
  45.2408860  75.5801054  69.6742883  44.4309589  75.2348139  70.0498129
  45.9293277  75.2708598  70.2630494  47.1699409  74.6579101  71.2967180
  47.7230447  75.0774554  71.9557203  47.4069495  73.7314849  71.3390136
  43.1932508  80.6466175  87.0769943  43.0929235  81.5960532  87.0082035
  42.9754050  80.3184413  86.2046014  42.3945579  77.8951100  63.6610621
  43.2564743  78.2205998  63.9206438  42.5795923  77.1082596  63.1483687
  34.4112995  85.9773439  75.9390810  33.7176466  85.5627392  75.4260764
  35.1585986  86.0193976  75.3424228  48.9981782  76.1684684  73.0067164
  49.4981560  76.2801218  72.1981483  49.6417390  75.8645737  73.6467973
  43.0563778  84.0763313  85.8935005  42.5730859  84.8763674  86.0998894
  43.1424717  84.0871258  84.9402449  36.3249737  85.9091693  73.8156824
  36.3020426  86.0079380  72.8638708  36.6350374  86.7556844  74.1373991
  38.9837115  87.9667848  77.9303439  39.9380369  87.9351790  77.8633370
  38.7849639  87.5058472  78.7453665  39.5736497  86.5368964  80.4974237
  40.3929386  87.0313043  80.5209074  39.8473305  85.6200932  80.4691804
  37.3387344  93.5087468  74.9473637  37.2041812  92.7487868  74.3811635
  36.9219406  94.2328367  74.4802426  48.4746307  88.6924391  63.9550212
  49.1782157  88.8974394  64.5707868  47.7508956  89.2601153  64.2199296
  49.3044117  84.4434252  70.0752482  49.2479319  84.9002804  69.2360115
  49.8572460  83.6824937  69.8975325  40.4956470  94.4056785  75.1592079
  40.3788854  95.3502217  75.0570770  39.6748916  94.1030346  75.5477879
  50.3833004  89.1306920  66.0048672  51.2178608  88.6988119  65.8226147
  50.2217347  88.9588934  66.9325567  50.0378897  85.6339034  67.3705011
  49.9827700  85.4683305  66.4293456  49.4124952  86.3415067  67.5267201
  34.8271412  80.8707098  81.1966434  35.4730275  80.3606052  81.6853659
  34.6188563  81.6075780  81.7709859  47.3524804  87.9387946  86.6958574
  48.2215963  88.1128598  86.3345209  46.8731555  88.7582362  86.5734304
  43.3475022  75.1347143  66.9490330  43.3353692  76.0788983  67.1058601
  44.2398444  74.9517288  66.6549791  41.5210984  95.0585047  78.3748008
  42.4238231  95.0908657  78.6914503  41.2948354  94.1285497  78.3894344
  43.2764586  93.8116033  75.0358086  42.3260217  93.8117895  74.9222459
  43.5797072  93.0648768  74.5194121  47.1627142  71.7289919  71.2036267
  46.3959537  71.1748406  71.3492949  47.5737847  71.8011788  72.0650418
  39.1668903  78.0174715  85.2941448  40.0300364  77.6611520  85.5044772
  38.5934313  77.6788610  85.9816852  55.8206986  99.6004000  76.0365374
  55.4825497  99.4845064  75.1485908  56.6896754  99.1995165  76.0166380
  51.6793802 101.4539476  72.0262264  51.1158667 101.3629413  71.2578552
  51.5646197 100.6339380  72.5064757  56.3026769 100.7538851  81.9951579
  56.2915410 100.3591650  81.1232083  56.4647408 100.0204924  82.5885351
  49.2258233 102.9490668  74.8646485  50.0179525 102.6081492  74.4492784
  49.4654884 103.0585643  75.7848638  57.2593360 105.1210444  67.3376729
  56.6081340 105.7064524  66.9510743  58.0537723 105.6516639  67.3971767
  51.1848987 102.2099581  67.7363864  51.9579863 101.6628568  67.5976740
  51.5374386 103.0743830  67.9478325  53.0234030 103.5375963  80.9430763
  52.7323896 104.4421594  80.8277429  53.6591014 103.5792491  81.6574833
  53.9490237 100.9152812  77.5332123  54.5453809 100.6908834  76.8189086
  54.0065208 100.1737557  78.1357571  53.5215265  98.3692247  65.3682314
  53.7740786  97.8473768  64.6065777  52.5839824  98.2058392  65.4708997
  58.5658548  97.3728025  73.1757057  59.3521637  96.9547448  72.8247474
  58.8297252  98.2774117  73.3438705  58.7368625 102.8100876  67.8745714
  58.1014458 102.8835502  68.5866618  58.4066032 103.3994474  67.1964793
  53.2411554 100.2720353  67.5706689  53.1247812  99.5965256  68.2387773
  53.3513814  99.7852727  66.7538842  55.5843095  99.7330500  71.2753378
  55.2201302  99.2061121  71.9866299  56.4410211  99.3428969  71.1019863
  57.9823915 103.2237379  77.9380557  57.6824638 104.1262417  77.8296364
  57.6374975 102.9569562  78.7901710  51.4336397  99.6751175  73.9717261
  50.5086893  99.5427390  74.1794953  51.6820810 100.4545395  74.4687204
  48.7945208  99.3184449  74.8061050  48.9237589  99.5718928  75.7200462
  48.1142659  99.9112157  74.4865705  52.9644695 109.9881699  70.9051524
  52.8868725 110.9389524  70.9840005  52.3606338 109.6427571  71.5626451
  55.4561925  97.1609564  83.5612891  54.6795259  97.7203485  83.5515756
  56.0952488  97.6466347  84.0827761  53.7108297  99.9695018  83.1230858
  54.4522981 100.5080062  82.8465682  53.0045282 100.5961306  83.2802410
  59.1863637 102.1124158  81.7203020  59.5946993 101.6706569  80.9757652
  58.4640898 101.5376786  81.9737213  55.5394707  97.0496765  79.0936577
  56.3855902  97.4736179  79.2371226  55.4793344  96.3930389  79.7875140
  58.6894152  94.7101133  80.7517750  58.4455084  95.4643194  80.2152026
  58.9654082  95.0886481  81.5864997  60.6432615 101.2539746  79.4295016
  60.8549510 101.8971506  78.7529397  60.5962363 100.4202062  78.9616946
  55.0620413 102.4099757  72.7405394  55.5258759 102.6887460  71.9510016
  54.7977211 101.5083201  72.5578484  51.9544494 101.9571238  75.6785157
  52.5245851 102.3858507  75.0402642  52.5452606 101.6753823  76.3769343
  53.9989299  98.5322909  69.5494959  54.7013343  98.9843953  70.0168885
  53.6669928  97.8906728  70.1774852  52.4469661  97.1234666  83.9246168
  51.8168321  97.8050947  84.1581565  52.3405749  97.0117748  82.9799307
  47.7414633  96.7906462  74.8512093  46.9513687  97.0463990  74.3752203
  48.2325880  97.6054800  74.9564133  49.6929379  97.1551041  71.8095569
  48.8960542  97.2669735  72.3279065  49.4654971  97.4937693  70.9436460
  55.5235046 103.6795744  79.7578084  55.5879479 104.1416152  80.5936256
  54.8145970 103.0493109  79.8860394  46.0252336  97.0436952  77.2827083
  46.2760375  97.9283962  77.5484659  46.5611885  96.8641554  76.5102175
  55.2383064 105.3463852  69.6257064  55.1028739 106.1915388  70.0541912
  55.7792876 105.5483130  68.8622998  51.7250403  91.4255432  86.2871419
  51.3317349  90.8721630  86.9619064  52.5416544  91.7366010  86.6777937
  48.6912461 102.8639290  70.1984989  49.2036982 103.6582540  70.3490554
  49.3435174 102.1665580  70.1318591  50.5007346 105.9805046  72.2807742
  50.6773974 106.9023011  72.0928726  51.2964179 105.6663465  72.7102122
  54.6418364  92.8413311  83.8791676  55.3828078  93.4420464  83.7996138
  54.8736287  92.0990949  83.3209719  49.7859702  98.0269678  82.1569906
  49.6713218  97.1254935  82.4577005  48.9304220  98.2733375  81.8054722
  56.8651540 105.9687418  83.7557406  56.4215394 105.1823797  83.4378311
  57.5268754 106.1566569  83.0901297  51.6238661 107.4983220  78.2818085
  52.1746086 107.3700283  77.5095079  50.7850137 107.7978109  77.9312978
  58.9632778 106.2490218  81.7838808  58.9451254 107.0699099  81.2919077
  59.8852698 106.1244294  82.0088949  55.4205832 103.7634348  82.6262316
  55.9534169 103.0022636  82.3961624  54.8919913 103.4708000  83.3686470
  46.6561378 101.1927944  70.9744560  47.4936600 101.6024953  70.7578268
  46.8339646 100.2527386  70.9444754  53.9114954  91.3237799  75.1271373
  54.7767950  91.1280607  74.7677262  53.9792463  91.0948150  76.0540729
  56.7858545 102.8920340  70.1381128  56.2579907 102.1573100  69.8254365
  56.2846048 103.6695017  69.8921096  51.5177273  93.5540007  72.4987739
  52.0921025  93.3315188  71.7660932  52.1048255  93.6228701  73.2516341
  54.9311145 100.7100551  63.1416101  54.0238207 100.4789804  63.3407250
  55.4282177  99.9138170  63.3290082  57.8379224 109.4198058  66.0612787
  57.1640923 109.7229755  66.6697745  58.2245046 110.2227138  65.7118244
  57.0537681  96.9163189  75.5510456  56.1360242  97.1378136  75.3932145
  57.4697824  96.9909500  74.6922164  56.1099379 100.8113145  67.6640091
  55.2010598 100.5272178  67.7612561  56.1394463 101.2312224  66.8043398
  46.6787549  98.5318660  71.6455293  46.4811949  97.9388020  70.9206360
  46.1234213  98.2270870  72.3631232  54.6584273  98.4241766  73.7649886
  54.7132883  97.4715602  73.6892363  53.8475475  98.5801205  74.2491185
  55.8075467 102.3521889  65.0028170  55.3694896 101.6357748  64.5433807
  56.5485907 102.5798004  64.4413261  52.5976633  97.0418826  71.5240265
  51.7844498  97.3412996  71.9305457  53.0935627  96.6474515  72.2414747
  54.7485211 107.0376583  73.4574530  54.7061389 107.2637429  72.5283062
  55.6647909 106.8039957  73.6060331  58.1950844  97.5060650  80.3555159
  58.5500232  97.7332123  81.2149625  58.8422976  97.8379027  79.7332414
  52.0890707  94.6137181  77.1401500  52.7290087  94.4725940  76.4424464
  51.2568238  94.3271695  76.7640102  52.8651011 103.9139612  73.2536493
  53.6591610 103.4189932  73.0519068  52.1542704 103.3857475  72.8904198
  57.6845856 106.2957707  77.6048860  57.7382878 106.8648644  78.3726576
  56.8160637 106.4659592  77.2402897  49.1733775  98.0582693  69.3296245
  48.2431363  97.9967149  69.5466207  49.2691247  97.5358646  68.5332887
  49.0919324  94.5837506  71.9174487  49.3526141  95.4982840  71.8083647
  49.9136496  94.1161949  72.0671100  50.5644249  95.9975263  79.0873312
  51.2367303  95.7892626  78.4385960  49.7374036  95.7997349  78.6478544
  64.8133510 102.7379314  78.6048645  65.0069401 103.6425124  78.8507920
  64.7134129 102.2786733  79.4387230  56.4669821  92.6237204  81.1038972
  55.8197736  93.3227154  81.0103449  57.2370837  93.0573348  81.4715221
  59.8748619 102.8886057  84.1789526  59.7234126 102.6596608  83.2619609
  59.8653299 103.8456658  84.1920871  56.6433956 100.4617969  79.1635792
  57.5726016 100.6129129  78.9904759  56.2224986 100.5501990  78.3084439
  55.4422287 104.4868634  76.9334330  55.3033373 104.1187418  77.8060268
  54.6536884 105.0016273  76.7618288  56.0370439 109.5877730  68.2759866
  56.2122195 109.1165773  69.0905489  55.3503227 110.2143496  68.5041127
  56.9927502 103.8650236  74.3223168  56.6577335 103.8251006  75.2180817
  56.4931448 103.1994952  73.8493578  50.9671746  99.2717866  79.8475749
  50.8291544  98.5398105  80.4487288  51.8776670  99.1826767  79.5659936
  53.5954047  98.9837826  79.3359428  54.3053666  98.3431018  79.2946047
  53.5523355  99.2350721  80.2585609  61.5840826 105.9205179  82.2566008
  61.5253372 105.2364399  81.5896591  61.9860344 106.6624169  81.8046634
  52.3082981  95.9703044  81.1555068  51.7720338  95.5193782  81.8076664
  51.7199690  96.1048952  80.4125532  50.6031525 112.7367093  75.0499726
  50.8428123 113.3685617  75.7278745  49.7600721 112.3855133  75.3365086
  61.5858233 103.8844763  80.4879987  60.6985012 103.5470685  80.6106386
  62.1556784 103.1527794  80.7248753  43.2387380 100.2168855  73.8123039
  43.9258420  99.9030585  73.2244054  43.0835509 101.1210219  73.5390290
  48.0422102  95.1059051  78.2408062  47.9580291  94.4984721  77.5058472
  47.2204809  95.5968070  78.2417559  55.1159386 108.5446215  77.4541230
  55.0429558 109.3501187  77.9660535  54.6736780 108.7438181  76.6289252
  54.9049166 107.7817985  70.9644052  54.1216688 108.3239666  71.0582276
  55.6041911 108.2991965  71.3638293  57.5758070 108.4433049  79.6099389
  58.2886042 109.0780514  79.5375291  57.0848099 108.5396915  78.7939391
  54.7980785  95.7329998  73.3349942  54.4278572  95.1801038  74.0230848
  55.2939877  95.1288131  72.7824942  52.6269984 106.1927493  80.4304960
  53.3279443 106.8263976  80.5834354  52.1565098 106.5342224  79.6700599
  57.3878443 108.7831794  72.3585681  57.5700838 107.9653449  72.8213433
  58.2111429 108.9999486  71.9210571  57.7220609 107.7099979  69.6200729
  58.2508375 107.1992433  69.0070891  57.9848828 107.3942509  70.4846262
  56.4758842  99.4891911  84.7423547  55.7999480  99.3886041  85.4125923
  57.2986476  99.3331125  85.2059545  48.2237702 105.7263848  77.3636063
  48.8091138 104.9807536  77.4963967  48.0262540 106.0367805  78.2472726
  51.0776357 108.7615095  72.3798505  50.4086732 109.2461223  71.8962545
  50.9389226 109.0084316  73.2941884  42.8155356  98.2969448  76.0840506
  42.8539456  97.7633039  76.8777624  42.3095649  97.7704654  75.4651483
  55.2181625 110.7958839  78.9781163  55.7699933 110.9590460  79.7430249
  55.5587819 111.3863277  78.3061188  50.1946119  93.1433989  79.5803048
  50.2587445  94.0048820  79.1680446  50.1313239  92.5307990  78.8475407
  49.6698391  95.2157121  83.2276082  50.2970430  94.8334199  83.8413607
  48.8126310  94.9971323  83.5931775  60.0692500 105.6220096  84.8329818
  60.6132404 106.2350055  84.3384773  59.4879345 106.1799675  85.3496831
  46.4463934  97.0233550  69.1594437  46.7417375  96.1144229  69.1061491
  45.5451970  97.0021290  68.8375439  58.3550013 108.7440814  75.9644846
  58.2301152 107.9430554  75.4555791  59.0129104 109.2387008  75.4758815
  49.9758181  95.0989547  75.1421986  49.2544767  95.7125515  75.0029459
  50.7651437  95.6347312  75.0638632  60.4184921 106.5449834  77.5924396
  59.4715257 106.4255186  77.5202722  60.7667694 105.6572333  77.6750657
  52.7784494  92.4343973  81.4162637  53.3018896  92.6806270  82.1788947
  52.5596828  93.2664008  80.9965775  48.1751775  94.7047648  69.2833762
  47.8464482  93.8245027  69.1008868  48.5291146  94.6495317  70.1710152
  57.4231354 106.3402551  73.7928748  57.2756317 105.4119258  73.9736318
  58.2484848 106.3622641  73.3085823  51.2893599  94.9920618  69.6509240
  51.6289671  95.5206539  68.9287848  51.7365719  95.3301024  70.4267807
  53.9837039  93.3757668  79.1012308  53.6433860  92.5765482  79.5032988
  53.2776046  93.6759379  78.5289141  52.1592090  97.1526102  75.3631610
  52.0136671  97.4666405  76.2555891  51.6817294  97.7711002  74.8102508
  54.0188473  94.1428650  75.4112499  54.0050042  93.2469743  75.0744797
  54.7360901  94.1499313  76.0450785  55.8714604  94.5765990  77.4565627
  55.6132381  95.4983060  77.4549957  55.3399644  94.1796424  78.1466091
  46.6337752  99.6931446  78.3019271  46.0891220 100.4691254  78.4339545
  47.5117102 100.0402250  78.1438392  47.4203774  98.8201342  81.1949428
  46.6785510  98.9683978  81.7814058  47.0996518  99.0809608  80.3316177
  55.3647437 108.3617320  80.9929818  55.6734563 108.1166467  81.8652517
  56.1622919 108.5663959  80.5048688  55.3868049 110.5155230  73.2235194
  54.9473039 110.0231609  73.9168051  56.1376166 109.9728198  72.9827269
  47.8660388 106.7066771  73.2259822  48.6918408 106.4070543  72.8458466
  47.5154440 105.9374393  73.6749611  52.8341921 106.0593239  75.2957496
  52.2121930 105.3963944  74.9959724  53.5046788 106.0854371  74.6131144
  46.0668993 104.6253097  74.1848756  45.2300901 104.1975272  74.0032757
  46.0392638 104.8185541  75.1219547  52.9066448  94.5375027  84.8890002
  52.9554604  95.4137150  84.5067772  53.4488963  93.9952420  84.3161645
  63.3921294 105.0816150  84.1691139  62.6016838 105.0640289  83.6295638
  63.1554649 105.6204444  84.9240176  63.5119169 101.9308617  81.4823868
  63.5617174 101.7658624  82.4239390  63.4033092 101.0635876  81.0921748
  52.3955428 104.6097163  68.7715956  52.5443548 105.2932627  68.1182629
  53.2021871 104.5902253  69.2865412  60.8022932  97.9139545  82.7983174
  61.7032794  97.7746010  82.5067172  60.8770906  98.0794000  83.7381352
  55.1365737  95.2906400  81.6436361  54.2669046  95.5839966  81.3718949
  55.3725217  95.8746845  82.3643624  65.0137366 104.3505558  81.7265889
  64.7222174 104.7135539  82.5629350  64.4009497 103.6372567  81.5479221
  50.1508061 100.6362340  69.7777025  49.9054103  99.7324670  69.9757236
  50.3203975 100.6379491  68.8356503  49.4203708  96.3690698  67.2763187
  48.7272953  96.4435053  66.6203223  49.1755460  95.6051041  67.7984704
  55.8950833 107.1045293  66.2427704  55.3224800 107.7235480  65.7898176
  56.4683627 107.6544655  66.7767626  59.1148093 107.3882443  67.3736286
  60.0478766 107.3228005  67.5769162  59.0271306 108.2238710  66.9150819
  61.7436110 106.7048313  64.3340234  61.6649741 106.3708177  65.2275992
  62.5645777 107.1970081  64.3331706  56.1636324 102.4923852  85.0444413
  57.0839334 102.6702451  85.2384460  56.1285907 101.5479897  84.8924113
  45.3818489  97.6862446  73.9697688  45.0621274  96.8327754  73.6772062
  44.8351918  97.9011024  74.7255655  49.1598397 100.4024887  77.6867195
  49.3784407 101.3341994  77.7055228  49.5724171 100.0432861  78.4721998
  54.0326262  95.9758092  87.0769943  53.9322989  96.9252449  87.0082035
  53.8147804  95.6476331  86.2046014  45.2506749 101.3065357  75.9390810
  44.5570221 100.8919310  75.4260764  45.9979740 101.3485894  75.3424228
  53.8957532  99.4055231  85.8935005  53.4124614 100.2055591  86.0998894
  53.9818471  99.4163176  84.9402449  47.1643492 101.2383611  73.8156824
  47.1414180 101.3371298  72.8638708  47.4744128 102.0848762  74.1373991
  49.8230870 103.2959766  77.9303439  50.7774123 103.2643708  77.8633370
  49.6243393 102.8350390  78.7453665  50.4130252 101.8660882  80.4974237
  51.2323141 102.3604961  80.5209074  50.6867060 100.9492850  80.4691804
  48.1781099 108.8379385  74.9473637  48.0435566 108.0779786  74.3811635
  47.7613161 109.5620285  74.4802426  59.3140062 104.0216309  63.9550212
  60.0175912 104.2266311  64.5707868  58.5902710 104.5893071  64.2199296
  51.3350224 109.7348702  75.1592079  51.2182609 110.6794135  75.0570770
  50.5142671 109.4322264  75.5477879  45.6665166  96.1999016  81.1966434
  46.3124030  95.6897970  81.6853659  45.4582317  96.9367697  81.7709859
  58.1918558 103.2679863  86.6958574  59.0609718 103.4420515  86.3345209
  57.7125310 104.0874280  86.5734304  52.3604739 110.3876964  78.3748008
  53.2631985 110.4200574  78.6914503  52.1342109 109.4577415  78.3894344
  54.1158341 109.1407951  75.0358086  53.1653972 109.1409812  74.9222459
  54.4190827 108.3940685  74.5194121  50.0062657  93.3466633  85.2941448
  50.8694119  92.9903438  85.5044772  49.4328068  93.0080528  85.9816852
  69.8511034 114.9768489  76.1003849  70.4889444 114.8575236  75.3967189
  69.7331877 115.9249333  76.1591801  66.6600740 114.9295917  76.0365374
  66.3219252 114.8136982  75.1485908  67.5290509 114.5287082  76.0166380
  62.5187556 116.7831394  72.0262264  61.9552421 116.6921331  71.2578552
  62.4039951 115.9631298  72.5064757  67.1420523 116.0830769  81.9951579
  67.1309164 115.6883567  81.1232083  67.3041163 115.3496842  82.5885351
  60.0651988 118.2782585  74.8646485  60.8573280 117.9373410  74.4492784
  60.3048638 118.3877560  75.7848638  68.0987115 120.4502361  67.3376729
  67.4475095 121.0356442  66.9510743  68.8931478 120.9808556  67.3971767
  62.0242742 117.5391499  67.7363864  62.7973618 116.9920486  67.5976740
  62.3768141 118.4035748  67.9478325  63.8627784 118.8667881  80.9430763
  63.5717650 119.7713512  80.8277429  64.4984769 118.9084408  81.6574833
  64.7883991 116.2444729  77.5332123  65.3847564 116.0200752  76.8189086
  64.8458963 115.5029475  78.1357571  64.3609020 113.6984165  65.3682314
  64.6134540 113.1765686  64.6065777  63.4233579 113.5350310  65.4708997
  69.4052303 112.7019943  73.1757057  70.1915392 112.2839366  72.8247474
  69.6691007 113.6066035  73.3438705  69.5762380 118.1392793  67.8745714
  68.9408213 118.2127420  68.5866618  69.2459786 118.7286392  67.1964793
  74.8060730 112.6395176  74.0790035  75.5385902 112.0694393  74.3127865
  74.0500085 112.2516777  74.5196541  64.0805308 115.6012271  67.5706689
  63.9641567 114.9257174  68.2387773  64.1907568 115.1144645  66.7538842
  66.4236849 115.0622418  71.2753378  66.0595057 114.5353039  71.9866299
  67.2803965 114.6720887  71.1019863  72.3286150 106.3516750  78.5384644
  71.9969475 107.2212161  78.3145859  71.7331763 106.0353034  79.2178674
  66.0642336 110.0912317  66.2714726  66.2316739 110.9592554  66.6385197
  65.8739505 110.2539599  65.3476016  68.8217670 118.5529296  77.9380557
  68.5218393 119.4554335  77.8296364  68.4768729 118.2861479  78.7901710
  62.2730151 115.0043093  73.9717261  61.3480648 114.8719307  74.1794953
  62.5214564 115.7837312  74.4687204  72.2214813 111.0711836  75.6177994
  71.3131691 111.0027245  75.3236755  72.1702409 111.5483781  76.4459820
  66.0431557 112.5469975  67.2561393  65.9231182 112.9927026  68.0946873
  65.3484146 112.8955293  66.6974931  59.6338962 114.6476367  74.8061050
  59.7631343 114.9010846  75.7200462  58.9536413 115.2404075  74.4865705
  63.8038449 125.3173617  70.9051524  63.7262479 126.2681442  70.9840005
  63.2000093 124.9719489  71.5626451  66.2955679 112.4901482  83.5612891
  65.5189013 113.0495402  83.5515756  66.9346242 112.9758265  84.0827761
  74.0876460 109.2728275  77.3955868  73.4450840 109.5660808  76.7495663
  73.5831388 109.1581195  78.2009065  71.7416623 113.0191448  68.0841727
  72.6534480 113.2518835  67.9089425  71.2326270 113.6028492  67.5216806
  64.5502051 115.2986935  83.1230858  65.2916736 115.8371979  82.8465682
  63.8439037 115.9253224  83.2802410  70.0257391 117.4416076  81.7203020
  70.4340747 116.9998486  80.9757652  69.3034653 116.8668703  81.9737213
  66.3788461 112.3788683  79.0936577  67.2249656 112.8028096  79.2371226
  66.3187099 111.7222307  79.7875140  70.3486206 118.0017267  75.4755309
  69.7195068 118.1662981  74.7731377  69.9611868 118.4158876  76.2466273
  74.2275438 118.9371704  72.8299672  73.5426476 119.3170606  72.2796706
  74.3119287 119.5467031  73.5631620  69.5287906 110.0393051  80.7517750
  69.2848838 110.7935112  80.2152026  69.8047837 110.4178399  81.5864997
  71.4826369 116.5831663  79.4295016  71.6943264 117.2263423  78.7529397
  71.4356117 115.7493980  78.9616946  69.0852598 109.1949484  76.3331588
  68.2237077 109.4930738  76.6248326  69.1115033 109.4119883  75.4012621
  65.9014168 117.7391675  72.7405394  66.3652513 118.0179378  71.9510016
  65.6370966 116.8375119  72.5578484  62.7938249 117.2863156  75.6785157
  63.3639606 117.7150425  75.0402642  63.3846361 117.0045741  76.3769343
  64.8383054 113.8614827  69.5494959  65.5407097 114.3135871  70.0168885
  64.5063682 113.2198646  70.1774852  63.2863415 112.4526584  83.9246168
  62.6562076 113.1342864  84.1581565  63.1799503 112.3409665  82.9799307
  58.5808388 112.1198380  74.8512093  57.7907442 112.3755908  74.3752203
  59.0719635 112.9346717  74.9564133  72.5972197 119.4603619  77.6017373
  73.4189641 119.0583806  77.3200055  72.5934600 119.3571853  78.5533489
  60.5323133 112.4842959  71.8095569  59.7354296 112.5961653  72.3279065
  60.3048725 112.8229611  70.9436460  66.3628801 119.0087662  79.7578084
  66.4273233 119.4708069  80.5936256  65.6539724 118.3785027  79.8860394
  56.8646091 112.3728870  77.2827083  57.1154129 113.2575880  77.5484659
  57.4005639 112.1933472  76.5102175  80.6878190 115.8042367  73.9502345
  79.9341899 115.2349765  73.7946349  80.8225731 115.7705032  74.8972980
  66.0776818 120.6755770  69.6257064  65.9422493 121.5207305  70.0541912
  66.6186631 120.8775047  68.8622998  62.5644158 106.7547349  86.2871419
  62.1711103 106.2013548  86.9619064  63.3810298 107.0657928  86.6777937
  59.5306216 118.1931208  70.1984989  60.0430736 118.9874458  70.3490554
  60.1828928 117.4957498  70.1318591  61.3401100 121.3096964  72.2807742
  61.5167729 122.2314929  72.0928726  62.1357934 120.9955383  72.7102122
  65.4812119 108.1705229  83.8791676  66.2221832 108.7712382  83.7996138
  65.7130042 107.4282866  83.3209719  60.6253457 113.3561596  82.1569906
  60.5106972 112.4546853  82.4577005  59.7697975 113.6025293  81.8054722
  67.7045295 121.2979336  83.7557406  67.2609149 120.5115715  83.4378311
  68.3662508 121.4858487  83.0901297  62.4632416 122.8275138  78.2818085
  63.0139841 122.6992201  77.5095079  61.6243892 123.1270027  77.9312978
  69.8026533 121.5782136  81.7838808  69.7845008 122.3991017  81.2919077
  70.7246453 121.4536211  82.0088949  66.2599587 119.0926266  82.6262316
  66.7927924 118.3314554  82.3961624  65.7313668 118.7999917  83.3686470
  57.4955132 116.5219862  70.9744560  58.3330354 116.9316870  70.7578268
  57.6733400 115.5819304  70.9444754  69.3919565 114.1894943  66.6628393
  68.8766188 114.9599547  66.9016780  69.1196873 113.5160079  67.2861454
  74.3653839 116.9427297  68.5981566  73.5883281 116.6038457  68.1536728
  75.0445320 116.9479920  67.9236531  67.6252300 118.2212258  70.1381128
  67.0973661 117.4865018  69.8254365  67.1239802 118.9986934  69.8921096
  72.6045146 116.4161278  75.2548174  71.9468820 117.1060540  75.3428303
  73.4085545 116.8057710  75.5982161  71.4150604 114.7705651  73.3052116
  71.9282486 115.4035643  73.8073826  72.0651828 114.1706847  72.9395476
  62.6840614 110.9136385  66.5183625  61.8477927 111.2511072  66.8392899
  62.5445384 110.7785365  65.5810762  65.7704900 116.0392468  63.1416101
  64.8631962 115.8081722  63.3407250  66.2675932 115.2430088  63.3290082
  68.6772979 124.7489975  66.0612787  68.0034677 125.0521672  66.6697745
  69.0638801 125.5519056  65.7118244  67.8931435 112.2455107  75.5510456
  66.9753997 112.4670054  75.3932145  68.3091579 112.3201417  74.6922164
  68.6766483 113.6446522  70.6813137  69.4238302 114.1567920  70.3720259
  68.9458073 113.3230575  71.5417530  66.9493133 116.1405063  67.6640091
  66.0404352 115.8564096  67.7612561  66.9788217 116.5604142  66.8043398
  72.1812401 119.7511653  71.4331259  71.7274728 118.9102563  71.4896449
  71.5506367 120.3873051  71.7706039  71.1245320 110.6803639  72.6631926
  70.3868077 110.1681025  72.9942169  71.3772094 110.2404020  71.8515203
  70.6245340 121.5888149  72.3681077  70.9168314 122.1493206  71.6493442
  71.1343960 121.8816710  73.1234236  57.5181304 113.8610577  71.6455293
  57.3205703 113.2679938  70.9206360  56.9627968 113.5562787  72.3631232
  65.4978027 113.7533684  73.7649886  65.5526637 112.8007520  73.6892363
  64.6869229 113.9093123  74.2491185  66.6469221 117.6813807  65.0028170
  66.2088651 116.9649666  64.5433807  67.3879662 117.9089922  64.4413261
  63.4370387 112.3710743  71.5240265  62.6238253 112.6704914  71.9305457
  63.9329381 111.9766432  72.2414747  65.5878965 122.3668500  73.4574530
  65.5455144 122.5929347  72.5283062  66.5041664 122.1331875  73.6060331
  69.0344599 112.8352568  80.3555159  69.3893987 113.0624041  81.2149625
  69.6816730 113.1670945  79.7332414  74.7642336 115.9571004  71.0604488
  74.6260234 116.1472600  70.1325677  74.4078555 116.7190387  71.5172539
  62.9284462 109.9429099  77.1401500  63.5683841 109.8017858  76.4424464
  62.0961992 109.6563612  76.7640102  74.7911715 118.0247531  76.0715760
  75.2248222 117.9322820  76.9198814  75.5043296 118.0005031  75.4335776
  63.7044766 119.2431529  73.2536493  64.4985364 118.7481850  73.0519068
  62.9936458 118.7149393  72.8904198  68.5239610 121.6249625  77.6048860
  68.5776633 122.1940561  78.3726576  67.6554392 121.7951510  77.2402897
  60.0127529 113.3874611  69.3296245  59.0825117 113.3259067  69.5466207
  60.1085001 112.8650564  68.5332887  61.4038004 111.3267181  79.0873312
  62.0761057 111.1184543  78.4385960  60.5767790 111.1289267  78.6478544
  75.6527265 118.0671231  78.6048645  75.8463155 118.9717042  78.8507920
  75.5527883 117.6078651  79.4387230  67.3063576 107.9529122  81.1038972
  66.6591491 108.6519072  81.0103449  68.0764591 108.3865266  81.4715221
  70.7142374 118.2177974  84.1789526  70.5627880 117.9888526  83.2619609
  70.7047053 119.1748576  84.1920871  67.4827710 115.7909887  79.1635792
  68.4119770 115.9421047  78.9904759  67.0618740 115.8793908  78.3084439
  66.2816042 119.8160551  76.9334330  66.1427128 119.4479336  77.8060268
  65.4930638 120.3308191  76.7618288  66.8764194 124.9169648  68.2759866
  67.0515949 124.4457691  69.0905489  66.1896982 125.5435414  68.5041127
  67.8321257 119.1942154  74.3223168  67.4971090 119.1542924  75.2180817
  67.3325203 118.5286870  73.8493578  61.8065501 114.6009784  79.8475749
  61.6685299 113.8690023  80.4487288  62.7170424 114.5118684  79.5659936
  70.7680449 116.5398188  64.5960227  70.1509619 115.8145017  64.4993280
  70.2996937 117.3007549  64.2527301  64.4347802 114.3129743  79.3359428
  65.1447420 113.6722936  79.2946047  64.3917110 114.5642638  80.2585609
  72.4234580 121.2497097  82.2566008  72.3647126 120.5656317  81.5896591
  72.8254099 121.9916087  81.8046634  63.1476736 111.2994961  81.1555068
  62.6114093 110.8485700  81.8076664  62.5593444 111.4340870  80.4125532
  62.5578995 110.7583613  63.7181531  61.6808461 110.6372414  63.3543778
  63.0336748 109.9669691  63.4660420  72.4251988 119.2136681  80.4879987
  71.5378766 118.8762603  80.6106386  72.9950539 118.4819712  80.7248753
  54.0781135 115.5460772  73.8123039  54.7652175 115.2322503  73.2244054
  53.9229263 116.4502137  73.5390290  58.8815857 110.4350969  78.2408062
  58.7974046 109.8276639  77.5058472  58.0598563 110.9259987  78.2417559
  65.9553141 123.8738133  77.4541230  65.8823312 124.6793105  77.9660535
  65.5130534 124.0730099  76.6289252  65.7442921 123.1109903  70.9644052
  64.9610442 123.6531583  71.0582276  66.4435666 123.6283883  71.3638293
  76.9069328 114.6244898  75.2496549  76.8959204 115.5069614  74.8790482
  76.0386708 114.2716449  75.0551086  68.4151824 123.7724967  79.6099389
  69.1279797 124.4072432  79.5375291  67.9241853 123.8688833  78.7939391
  70.1369351 117.6776220  71.1816681  69.2025630 117.7977682  71.0121385
  70.3146020 116.7748687  70.9176691  65.6374539 111.0621916  73.3349942
  65.2672327 110.5092956  74.0230848  66.1333632 110.4580049  72.7824942
  73.5241903 113.5193539  71.7166715  73.9902355 114.3521531  71.6427018
  73.9749403 113.0538521  72.4211973  63.4663738 121.5219411  80.4304960
  64.1673197 122.1555894  80.5834354  62.9958853 121.8634142  79.6700599
  71.5918134 119.8637360  68.7152867  71.8677978 119.7493955  69.6246741
  70.7222633 119.4654845  68.6765040  71.2665024 114.0764018  78.2557510
  70.6136474 114.3239925  77.6009963  71.6445404 113.2628156  77.9219988
  68.2272198 124.1123711  72.3585681  68.4094592 123.2945367  72.8213433
  69.0505184 124.3291403  71.9210571  68.5614363 123.0391896  69.6200729
  69.0902130 122.5284351  69.0070891  68.8242583 122.7234427  70.4846262
  67.3152597 114.8183829  84.7423547  66.6393234 114.7177958  85.4125923
  68.1380231 114.6623043  85.2059545  59.0631456 121.0555766  77.3636063
  59.6484893 120.3099454  77.4963967  58.8656295 121.3659722  78.2472726
  61.9170111 124.0907013  72.3798505  61.2480487 124.5753141  71.8962545
  61.7782981 124.3376233  73.2941884  53.6549111 113.6261366  76.0840506
  53.6933210 113.0924957  76.8777624  53.1489404 113.0996571  75.4651483
  66.0575380 126.1250757  78.9781163  66.6093688 126.2882378  79.7430249
  66.3981573 126.7155194  78.3061188  61.0339873 108.4725906  79.5803048
  61.0981200 109.3340737  79.1680446  60.9706993 107.8599908  78.8475407
  60.5092146 110.5449039  83.2276082  61.1364184 110.1626116  83.8413607
  59.6520064 110.3263241  83.5931775  70.9086254 120.9512014  84.8329818
  71.4526158 121.5641972  84.3384773  70.3273099 121.5091592  85.3496831
  57.2857688 112.3525468  69.1594437  57.5811129 111.4436146  69.1061491
  56.3845724 112.3313207  68.8375439  69.1943767 124.0732732  75.9644846
  69.0694907 123.2722472  75.4555791  69.8522858 124.5678925  75.4758815
  60.8151935 110.4281465  75.1421986  60.0938521 111.0417432  75.0029459
  61.6045191 110.9639229  75.0638632  71.2578676 121.8741752  77.5924396
  70.3109011 121.7547103  77.5202722  71.6061449 120.9864250  77.6750657
  63.6178249 107.7635891  81.4162637  64.1412651 108.0098188  82.1788947
  63.3990582 108.5955926  80.9965775  59.0145530 110.0339566  69.2833762
  58.6858236 109.1536945  69.1008868  59.3684901 109.9787234  70.1710152
  68.2625109 121.6694468  73.7928748  68.1150071 120.7411176  73.9736318
  69.0878602 121.6914559  73.3085823  71.8659231 122.4923027  74.8793621
  72.7905778 122.2865888  74.7418072  71.6974534 122.2439428  75.7882962
  64.8230794 108.7049586  79.1012308  64.4827614 107.9057399  79.5032988
  64.1169800 109.0051297  78.5289141  65.4747266 105.7898899  77.5539631
  66.2973335 105.3159377  77.4318521  65.7185329 106.5689382  78.0538317
  62.9985845 112.4818019  75.3631610  62.8530425 112.7958322  76.2555891
  62.5211048 113.1002920  74.8102508  64.8582227 109.4720567  75.4112499
  64.8443796 108.5761661  75.0744797  65.5754656 109.4791231  76.0450785
  66.7108358 109.9057907  77.4565627  66.4526136 110.8274978  77.4549957
  66.1793398 109.5088342  78.1466091  71.6554547 123.0108695  70.2355712
  71.8291424 122.4455117  69.4829564  72.1483438 123.8109589  70.0535202
  57.4731507 115.0223364  78.3019271  56.9284975 115.7983172  78.4339545
  58.3510857 115.3694168  78.1438392  77.5093938 115.7745117  71.8546012
  77.9525084 115.0252443  71.4565135  76.6320448 115.7655254  71.4719744
  72.6429719 122.3275459  67.3352610  73.3380624 122.9482152  67.5539925
  72.9852870 121.4770810  67.6104988  58.2597529 114.1493260  81.1949428
  57.5179265 114.2975895  81.7814058  57.9390273 114.4101526  80.3316177
  74.5421142 119.7775164  68.8639941  75.0672467 120.1162437  68.1389261
  74.4543495 118.8422180  68.6803076  66.2041191 123.6909238  80.9929818
  66.5128318 123.4458385  81.8652517  67.0016673 123.8955877  80.5048688
  66.2261803 125.8447148  73.2235194  65.7866794 125.3523526  73.9168051
  66.9769920 125.3020115  72.9827269  58.7054142 122.0358689  73.2259822
  59.5312162 121.7362460  72.8458466  58.3548194 121.2666311  73.6749611
  63.6735675 121.3885157  75.2957496  63.0515685 120.7255862  74.9959724
  64.3440542 121.4146289  74.6131144  56.9062747 119.9545015  74.1848756
  56.0694656 119.5267189  74.0032757  56.8786393 120.1477458  75.1219547
  63.7460203 109.8666945  84.8890002  63.7948358 110.7429068  84.5067772
  64.2882717 109.3244338  84.3161645  74.2315049 120.4108068  84.1691139
  73.4410592 120.3932207  83.6295638  73.9948403 120.9496362  84.9240176
  74.3512924 117.2600534  81.4823868  74.4010929 117.0950542  82.4239390
  74.2426847 116.3927794  81.0921748  63.2349182 119.9389080  68.7715956
  63.3837303 120.6224545  68.1182629  64.0415626 119.9194170  69.2865412
  71.6416686 113.2431463  82.7983174  72.5426549 113.1037927  82.5067172
  71.7164661 113.4085917  83.7381352  65.9759491 110.6198317  81.6436361
  65.1062801 110.9131883  81.3718949  66.2118972 111.2038762  82.3643624
  75.8531120 119.6797476  81.7265889  75.5615929 120.0427457  82.5629350
  75.2403252 118.9664484  81.5479221  77.0526803 117.2450356  74.2468459
  77.8873694 117.6840160  74.4106020  77.1885932 116.7689009  73.4276705
  74.1018309 114.8030091  80.1945947  74.5772430 114.9957737  79.3864798
  73.1783874 114.8589276  79.9489331  60.9901815 115.9654258  69.7777025
  60.7447857 115.0616588  69.9757236  61.1597730 115.9671408  68.8356503
  68.6798525 106.8377934  79.1601781  69.1980469 107.5738961  78.8348270
  68.3253658 107.1441927  79.9948540  60.2597463 111.6982615  67.2763187
  59.5666708 111.7726970  66.6203223  60.0149215 110.9342959  67.7984704
  66.7344588 122.4337211  66.2427704  66.1618555 123.0527398  65.7898176
  67.3077381 122.9836572  66.7767626  72.8019978 111.6795851  78.4274253
  73.7537401 111.7793948  78.4486477  72.6323428 110.8874119  78.9372337
  70.8234357 108.7651434  78.6133654  70.2284289 109.0456447  77.9180142
  70.5384054 109.2545335  79.3850395  69.9541848 122.7174361  67.3736286
  70.8872521 122.6519922  67.5769162  69.8665060 123.5530628  66.9150819
  72.5829864 122.0340231  64.3340234  72.5043496 121.7000095  65.2275992
  73.4039531 122.5261999  64.3331706  75.2808055 114.9001970  77.5416552
  75.2484376 113.9617971  77.7276236  75.8908679 114.9786007  76.8082377
  67.1191386 113.7698023  63.5843756  68.0650491 113.6404231  63.6532174
  66.7405631 113.0312685  64.0613185  75.4302544 111.6913014  77.5874836
  74.9141593 110.9071470  77.4004764  76.3142492 111.3631730  77.7521355
  81.0984605 115.9617977  76.6822589  81.8287994 115.7003265  77.2430292
  80.4891551 115.2246699  76.7224657  79.1799902 114.1025840  77.2797040
  78.4533066 113.9681805  76.6713532  78.7647189 114.4102668  78.0853758
  67.0030079 117.8215770  85.0444413  67.9233088 117.9994369  85.2384460
  66.9679662 116.8771815  84.8924113  65.3034303 111.6948000  63.5198642
  64.3965759 111.3981112  63.5961355  65.5810284 111.3977818  62.6532928
  56.2212244 113.0154363  73.9697688  55.9015028 112.1619671  73.6772062
  55.6745672 113.2302941  74.7255655  59.9992151 115.7316804  77.6867195
  60.2178161 116.6633912  77.7055228  60.4117925 115.3724779  78.4721998
  64.8720017 111.3050010  87.0769943  64.7716744 112.2544367  87.0082035
  64.6541559 110.9768249  86.2046014  64.0733088 108.5534935  63.6610621
  64.9352252 108.8789833  63.9206438  64.2583432 107.7666431  63.1483687
  56.0900504 116.6357275  75.9390810  55.3963975 116.2211227  75.4260764
  56.8373495 116.6777811  75.3424228  64.7351287 114.7347149  85.8935005
  64.2518368 115.5347509  86.0998894  64.8212226 114.7455094  84.9402449
  58.0037246 116.5675528  73.8156824  57.9807934 116.6663216  72.8638708
  58.3137883 117.4140679  74.1373991  60.6624624 118.6251683  77.9303439
  61.6167878 118.5935626  77.8633370  60.4637148 118.1642307  78.7453665
  61.2524006 117.1952800  80.4974237  62.0716895 117.6896878  80.5209074
  61.5260814 116.2784768  80.4691804  74.3605139 109.6110073  73.5756531
  75.1365529 110.1006525  73.8481148  73.6353273 110.0368127  74.0328401
  76.7977697 110.3237692  74.6330472  77.3922188 110.0833428  73.9223780
  76.8704281 109.6044823  75.2604008  59.0174853 124.1671303  74.9473637
  58.8829321 123.4071704  74.3811635  58.6006915 124.8912203  74.4802426
  70.1533816 119.3508226  63.9550212  70.8569666 119.5558229  64.5707868
  69.4296465 119.9184988  64.2199296  70.9831626 115.1018088  70.0752482
  70.9266828 115.5586639  69.2360115  71.5359969 114.3408772  69.8975325
  74.7936432 110.8907820  70.9002602  74.5373366 110.4904455  71.7310809
  74.1689300 111.6051614  70.7752741  79.1048770 113.6303893  73.4073893
  78.5448328 113.6997082  74.1805455  78.4992273 113.4544878  72.6873389
  62.1743979 125.0640620  75.1592079  62.0576363 126.0086052  75.0570770
  61.3536425 124.7614182  75.5477879  72.0620513 119.7890756  66.0048672
  72.8966117 119.3571954  65.8226147  71.9004856 119.6172769  66.9325567
  71.7166406 116.2922869  67.3705011  71.6615209 116.1267140  66.4293456
  71.0912461 116.9998902  67.5267201  56.5058921 111.5290933  81.1966434
  57.1517784 111.0189887  81.6853659  56.2976072 112.2659615  81.7709859
  69.0312313 118.5971781  86.6958574  69.9003472 118.7712433  86.3345209
  68.5519064 119.4166198  86.5734304  63.1998493 125.7168882  78.3748008
  64.1025740 125.7492492  78.6914503  62.9735863 124.7869333  78.3894344
  64.9552095 124.4699868  75.0358086  64.0047726 124.4701730  74.9222459
  65.2584581 123.7232603  74.5194121  60.8456412 108.6758550  85.2941448
  61.7087873 108.3195355  85.5044772  60.2721822 108.3372445  85.9816852
  80.6904789 130.3060407  76.1003849  81.3283199 130.1867154  75.3967189
  80.5725631 131.2541251  76.1591801  77.4994495 130.2587835  76.0365374
  77.1613006 130.1428900  75.1485908  78.3684263 129.8579000  76.0166380
  77.9814278 131.4122687  81.9951579  77.9702919 131.0175485  81.1232083
  78.1434917 130.6788759  82.5885351  75.2002774 129.0276082  65.3682314
  75.4528295 128.5057604  64.6065777  74.2627333 128.8642228  65.4708997
  80.2446057 128.0311861  73.1757057  81.0309146 127.6131284  72.8247474
  80.5084761 128.9357953  73.3438705  85.6454484 127.9687094  74.0790035
  86.3779656 127.3986311  74.3127865  84.8893840 127.5808694  74.5196541
  77.2630604 130.3914335  71.2753378  76.8988811 129.8644956  71.9866299
  78.1197720 130.0012804  71.1019863  83.1679905 121.6808668  78.5384644
  82.8363229 122.5504079  78.3145859  82.5725518 121.3644952  79.2178674
  76.9036091 125.4204235  66.2714726  77.0710493 126.2884471  66.6385197
  76.7133260 125.5831517  65.3476016  83.0608568 126.4003754  75.6177994
  82.1525445 126.3319163  75.3236755  83.0096164 126.8775699  76.4459820
  76.8825312 127.8761893  67.2561393  76.7624937 128.3218943  68.0946873
  76.1877900 128.2247210  66.6974931  77.1349434 127.8193400  83.5612891
  76.3582768 128.3787320  83.5515756  77.7739997 128.3050183  84.0827761
  84.9270214 124.6020193  77.3955868  84.2844594 124.8952726  76.7495663
  84.4225143 124.4873113  78.2009065  82.5810378 128.3483366  68.0841727
  83.4928234 128.5810752  67.9089425  82.0720025 128.9320410  67.5216806
  80.8651146 132.7707994  81.7203020  81.2734502 132.3290404  80.9757652
  80.1428407 132.1960621  81.9737213  77.2182216 127.7080600  79.0936577
  78.0643411 128.1320014  79.2371226  77.1580853 127.0514225  79.7875140
  80.3681661 125.3684969  80.7517750  80.1242593 126.1227029  80.2152026
  80.6441591 125.7470316  81.5864997  82.3220124 131.9123581  79.4295016
  82.5337019 132.5555341  78.7529397  82.2749872 131.0785898  78.9616946
  79.9246353 124.5241402  76.3331588  79.0630832 124.8222655  76.6248326
  79.9508787 124.7411801  75.4012621  75.6776808 129.1906745  69.5494959
  76.3800851 129.6427788  70.0168885  75.3457437 128.5490564  70.1774852
  74.1257170 127.7818501  83.9246168  73.4955830 128.4634782  84.1581565
  74.0193258 127.6701583  82.9799307  69.4202142 127.4490297  74.8512093
  68.6301196 127.7047826  74.3752203  69.9113389 128.2638635  74.9564133
  71.3716887 127.8134877  71.8095569  70.5748051 127.9253571  72.3279065
  71.1442480 128.1521529  70.9436460  73.4037912 122.0839267  86.2871419
  73.0104858 121.5305466  86.9619064  74.2204053 122.3949846  86.6777937
  76.3205873 123.4997146  83.8791676  77.0615587 124.1004299  83.7996138
  76.5523796 122.7574784  83.3209719  71.4647211 128.6853513  82.1569906
  71.3500727 127.7838771  82.4577005  70.6091729 128.9317210  81.8054722
  80.2663036 119.5278249  78.1555958  79.9227306 120.4179891  78.0795068
  80.6341999 119.3379907  77.2925543  80.2313319 129.5186860  66.6628393
  79.7159942 130.2891465  66.9016780  79.9590627 128.8451996  67.2861454
  77.8160430 124.3636561  71.7213631  76.9602026 123.9743411  71.5419270
  78.2287382 124.4428522  70.8613417  79.3459577 121.8982904  76.1205191
  78.8424372 121.8613039  75.3072996  79.6390184 122.8075647  76.1801848
  75.5902463 121.9821634  75.1271373  76.4555459 121.7864443  74.7677262
  75.6579972 121.7531986  76.0540729  80.0199622 127.3913952  68.4888174
  79.7149758 127.7060102  69.3398317  80.9730064 127.4695372  68.5315507
  73.1964782 124.2123842  72.4987739  73.7708534 123.9899023  71.7660932
  73.7835764 124.2812536  73.2516341  82.2544359 130.0997569  73.3052116
  82.7676241 130.7327561  73.8073826  82.9045583 129.4998764  72.9395476
  73.5234369 126.2428303  66.5183625  72.6871681 126.5802990  66.8392899
  73.3839138 126.1077283  65.5810762  75.4987449 121.0865091  71.2262809
  74.8451862 120.7714108  70.6019424  75.4567924 120.4640831  71.9522632
  76.6098654 131.3684386  63.1416101  75.7025716 131.1373639  63.3407250
  77.1069686 130.5722005  63.3290082  78.7325190 127.5747024  75.5510456
  77.8147751 127.7961971  75.3932145  79.1485333 127.6493335  74.6922164
  79.5160238 128.9738440  70.6813137  80.2632056 129.4859837  70.3720259
  79.7851827 128.6522493  71.5417530  77.7886888 131.4696981  67.6640091
  76.8798107 131.1856014  67.7612561  77.8181971 131.8896059  66.8043398
  81.9639075 126.0095556  72.6631926  81.2261831 125.4972943  72.9942169
  82.2165848 125.5695938  71.8515203  82.0650702 118.7871808  73.2573695
  82.3709579 117.9269172  72.9699610  82.7903307 119.3789429  73.0572689
  76.3371782 129.0825601  73.7649886  76.3920392 128.1299438  73.6892363
  75.5262984 129.2385040  74.2491185  74.2764142 127.7002661  71.5240265
  73.4632007 127.9996832  71.9305457  74.7723136 127.3058350  72.2414747
  79.8738353 128.1644486  80.3555159  80.2287741 128.3915959  81.2149625
  80.5210485 128.4962862  79.7332414  73.7678216 125.2721017  77.1401500
  74.4077596 125.1309776  76.4424464  72.9355747 124.9855530  76.7640102
  70.8521284 128.7166529  69.3296245  69.9218872 128.6550984  69.5466207
  70.9478756 128.1942482  68.5332887  70.7706833 125.2421342  71.9174487
  71.0313650 126.1566675  71.8083647  71.5924005 124.7745784  72.0671100
  72.2431758 126.6559099  79.0873312  72.9154812 126.4476461  78.4385960
  71.4161545 126.4581185  78.6478544  78.1457330 123.2821040  81.1038972
  77.4985245 123.9810989  81.0103449  78.9158346 123.7157184  81.4715221
  78.3221465 131.1201805  79.1635792  79.2513525 131.2712964  78.9904759
  77.9012495 131.2085825  78.3084439  72.6459255 129.9301702  79.8475749
  72.5079053 129.1981941  80.4487288  73.5564179 129.8410602  79.5659936
  81.6074203 131.8690106  64.5960227  80.9903374 131.1436934  64.4993280
  81.1390692 132.6299466  64.2527301  75.2741556 129.6421661  79.3359428
  75.9841175 129.0014853  79.2946047  75.2310864 129.8934556  80.2585609
  73.9870490 126.6286879  81.1555068  73.4507847 126.1777617  81.8076664
  73.3987199 126.7632788  80.4125532  73.3972749 126.0875530  63.7181531
  72.5202215 125.9664331  63.3543778  73.8730502 125.2961609  63.4660420
  69.7209611 125.7642887  78.2408062  69.6367800 125.1568556  77.5058472
  68.8992318 126.2551905  78.2417559  79.8933325 124.2496450  73.6078257
  80.3902025 123.4966413  73.2879328  79.1220307 124.2860767  73.0421467
  76.4768294 126.3913833  73.3349942  76.1066081 125.8384874  74.0230848
  76.9727386 125.7871967  72.7824942  84.3635657 128.8485457  71.7166715
  84.8296109 129.6813448  71.6427018  84.8143158 128.3830438  72.4211973
  82.3352320 121.2166044  75.7557616  81.4215400 121.4470271  75.9239823
  82.7645421 121.3004488  76.6071649  82.1058778 129.4055936  78.2557510
  81.4530229 129.6531843  77.6009963  82.4839158 128.5920074  77.9219988
  78.1546351 130.1475747  84.7423547  77.4786988 130.0469876  85.4125923
  78.9773985 129.9914960  85.2059545  71.8733628 123.8017824  79.5803048
  71.9374954 124.6632655  79.1680446  71.8100748 123.1891826  78.8475407
  71.3485900 125.8740957  83.2276082  71.9757939 125.4918034  83.8413607
  70.4913819 125.6555158  83.5931775  68.1251443 127.6817386  69.1594437
  68.4204884 126.7728064  69.1061491  67.2239479 127.6605125  68.8375439
  71.6545690 125.7573382  75.1421986  70.9332276 126.3709350  75.0029459
  72.4438946 126.2931147  75.0638632  74.4572003 123.0927809  81.4162637
  74.9806405 123.3390105  82.1788947  74.2384337 123.9247844  80.9965775
  69.8539284 125.3631483  69.2833762  69.5251991 124.4828862  69.1008868
  70.2078655 125.3079152  70.1710152  72.9681108 125.6504453  69.6509240
  73.3077180 126.1790374  68.9287848  73.4153228 125.9884859  70.4267807
  75.6624548 124.0341504  79.1012308  75.3221369 123.2349317  79.5032988
  74.9563555 124.3343215  78.5289141  76.3141020 121.1190816  77.5539631
  77.1367090 120.6451294  77.4318521  76.5579084 121.8981300  78.0538317
  74.9549255 124.1479075  67.8502533  75.6757617 124.5260327  67.3466250
  74.3314559 124.8667952  67.9537511  79.0980378 124.8524224  68.7860865
  79.3143992 125.7348862  68.4849693  78.6174445 124.4610437  68.0566507
  73.8379599 127.8109937  75.3631610  73.6924180 128.1250240  76.2555891
  73.3604803 128.4294837  74.8102508  75.6975982 124.8012485  75.4112499
  75.6837551 123.9053578  75.0744797  76.4148410 124.8083149  76.0450785
  77.5502113 125.2349825  77.4565627  77.2919890 126.1566896  77.4549957
  77.0187153 124.8380260  78.1466091  75.1012878 123.6826865  70.6800069
  75.2228789 122.7543511  70.8790957  74.8114920 123.6965551  69.7678385
  77.9704068 121.3681776  73.8166789  77.9925765 121.4321109  72.8618769
  78.3872127 120.5286284  74.0107295  74.5853957 125.1958863  84.8890002
  74.6342113 126.0720985  84.5067772  75.1276472 124.6536256  84.3161645
  82.4810440 128.5723380  82.7983174  83.3820303 128.4329845  82.5067172
  82.5558415 128.7377835  83.7381352  76.8153246 125.9490235  81.6436361
  75.9456555 126.2423801  81.3718949  77.0512726 126.5330680  82.3643624
  84.9412063 130.1322008  80.1945947  85.4166185 130.3249655  79.3864798
  84.0177629 130.1881194  79.9489331  79.5192280 122.1669852  79.1601781
  80.0374224 122.9030879  78.8348270  79.1647412 122.4733845  79.9948540
  71.0991217 127.0274533  67.2763187  70.4060462 127.1018888  66.6203223
  70.8542969 126.2634877  67.7984704  79.7704874 118.5870134  74.6802678
  80.0506628 117.9193323  75.3063104  80.5555481 118.7799230  74.1677341
  83.6413732 127.0087768  78.4274253  84.5931155 127.1085866  78.4486477
  83.4717183 126.2166037  78.9372337  81.6628112 124.0943352  78.6133654
  81.0678044 124.3748364  77.9180142  81.3777808 124.5837253  79.3850395
  77.9585141 129.0989941  63.5843756  78.9044246 128.9696149  63.6532174
  77.5799386 128.3604603  64.0613185  86.2696298 127.0204932  77.5874836
  85.7535347 126.2363388  77.4004764  87.1536247 126.6923648  77.7521355
  83.9307025 120.7645947  73.5470648  83.7331846 120.4561035  74.4313980
  84.5406731 121.4907586  73.6768578  76.1428058 127.0239917  63.5198642
  75.2359513 126.7273030  63.5961355  76.4204039 126.7269736  62.6532928
  77.7590124 121.5676807  69.6742883  76.9490852 121.2223892  70.0498129
  78.4474541 121.2584351  70.2630494  79.6880672 120.6454854  71.2967180
  80.2411711 121.0650307  71.9557203  79.9250758 119.7190602  71.3390136
  75.7113771 126.6341928  87.0769943  75.6110498 127.5836285  87.0082035
  75.4935313 126.3060167  86.2046014  74.9126843 123.8826853  63.6610621
  75.7746007 124.2081751  63.9206438  75.0977187 123.0958349  63.1483687
  83.0659479 122.7555379  70.8045844  82.4858148 123.4140183  70.4223896
  82.7995412 121.9332724  70.3933261  81.5163045 122.1560437  73.0067164
  82.0162824 122.2676971  72.1981483  82.1598653 121.8521490  73.6467973
  75.5745041 130.0639066  85.8935005  75.0912123 130.8639427  86.0998894
  75.6605980 130.0747011  84.9402449  81.8484357 124.9155470  69.8602192
  80.9610212 125.2005120  69.6422387  82.2638346 124.7549233  69.0129469
  85.1998893 124.9401990  73.5756531  85.9759283 125.4298443  73.8481148
  84.4747027 125.3660045  74.0328401  87.6371452 125.6529610  74.6330472
  88.2315943 125.4125346  73.9223780  87.7098036 124.9336740  75.2604008
  81.8225381 130.4310005  70.0752482  81.7660582 130.8878557  69.2360115
  82.3753723 129.6700690  69.8975325  85.6330187 126.2199737  70.9002602
  85.3767121 125.8196373  71.7310809  85.0083055 126.9343531  70.7752741
  82.5560160 131.6214787  67.3705011  82.5008964 131.4559058  66.4293456
  81.9306215 132.3290820  67.5267201  67.3452675 126.8582851  81.1966434
  67.9911539 126.3481805  81.6853659  67.1369826 127.5951533  81.7709859
  75.8656286 121.1222896  66.9490330  75.8534955 122.0664736  67.1058601
  76.7579707 120.9393041  66.6549791  79.6808405 117.7165672  71.2036267
  78.9140801 117.1624159  71.3492949  80.0919110 117.7887541  72.0650418
  71.6850166 124.0050468  85.2941448  72.5481628 123.6487273  85.5044772
  71.1115577 123.6664363  85.9816852  15.6542263  15.3371023  62.8249155
  16.2920673  15.2177771  62.1212496  15.5363106  16.2851867  62.8837108
  12.4631969  15.2898451  62.7610680  12.1250481  15.1739516  61.8731215
  13.3321737  14.8889617  62.7411686   8.3218785  17.1433928  58.7507571
   7.7583650  17.0523865  57.9823859   8.2071180  16.3233832  59.2310064
  12.9451752  16.4433303  68.7196886  12.9340393  16.0486101  67.8477389
  13.1072392  15.7099376  69.3130657   5.8683217  18.6385119  61.5891792
   6.6604509  18.2975944  61.1738091   6.1079867  18.7480095  62.5093945
  13.9018344  20.8104896  54.0622036  13.2506323  21.3958976  53.6756050
  14.6962706  21.3411090  54.1217074   7.8273971  17.8994033  54.4609170
   8.6004847  17.3523020  54.3222046   8.1799370  18.7638282  54.6723632
   9.6659013  19.2270415  67.6676070   9.3748879  20.1316046  67.5522736
  10.3015998  19.2686943  68.3820139  10.5915220  16.6047264  64.2577429
  11.1878792  16.3803286  63.5434392  10.6490192  15.8632009  64.8602877
  10.1640249  14.0586699  52.0927620  10.4165769  13.5368220  51.3311083
   9.2264808  13.8952844  52.1954304  15.2083531  13.0622477  59.9002364
  15.9946621  12.6441900  59.5492781  15.4722236  13.9668569  60.0684012
  15.3793609  18.4995328  54.5991020  14.7439442  18.5729954  55.3111925
  15.0491015  19.0888926  53.9210100  20.6091958  12.9997710  60.8035342
  21.3417130  12.4296927  61.0373172  19.8531314  12.6119311  61.2441848
   9.8836537  15.9614805  54.2951995   9.7672795  15.2859708  54.9633080
   9.9938797  15.4747179  53.4784148  12.2268078  15.4224952  57.9998685
  11.8626285  14.8955573  58.7111606  13.0835194  15.0323421  57.8265170
  18.1317379   6.7119285  65.2629951  17.8000704   7.5814695  65.0391166
  17.5362992   6.3955569  65.9423981  11.8673565  10.4514852  52.9960033
  12.0347968  11.3195088  53.3630504  11.6770734  10.6142133  52.0721322
  14.6248898  18.9131831  64.6625863  14.3249621  19.8156869  64.5541671
  14.2799958  18.6464014  65.5147016   8.0761380  15.3645627  60.6962568
   7.1511876  15.2321841  60.9040260   8.3245793  16.1439847  61.1932510
  18.0246042  11.4314371  62.3423301  17.1162919  11.3629779  62.0482062
  17.9733638  11.9086316  63.1705126  11.8462786  12.9072509  53.9806700
  11.7262411  13.3529560  54.8192180  11.1515374  13.2557827  53.4220238
   5.4370191  15.0078901  61.5306357   5.5662572  15.2613380  62.4445769
   4.7567642  15.6006609  61.2111012   9.6069678  25.6776151  57.6296831
   9.5293708  26.6283976  57.7085312   9.0031322  25.3322023  58.2871757
  12.0986908  12.8504016  70.2858198  11.3220242  13.4097936  70.2761063
  12.7377471  13.3360799  70.8073068  19.8907689   9.6330809  64.1201175
  19.2482069   9.9263342  63.4740969  19.3862617   9.5183729  64.9254371
  17.5447852  13.3793982  54.8087034  18.4565708  13.6121369  54.6334731
  17.0357499  13.9631026  54.2462112  10.3533280  15.6589470  69.8476165
  11.0947965  16.1974514  69.5710989   9.6470266  16.2855758  70.0047717
  15.8288620  17.8018610  68.4448326  16.2371976  17.3601021  67.7002959
  15.1065881  17.2271238  68.6982519  12.1819690  12.7391217  65.8181883
  13.0280885  13.1630630  65.9616532  12.1218328  12.0824841  66.5120447
  16.1517435  18.3619801  62.2000615  15.5226297  18.5265515  61.4976683
  15.7643097  18.7761410  62.9711579  20.0306666  19.2974239  59.5544979
  19.3457705  19.6773140  59.0042012  20.1150516  19.9069565  60.2876927
  15.3319135  10.3995585  67.4763057  15.0880067  11.1537646  66.9397333
  15.6079066  10.7780933  68.3110304  17.2857598  16.9434198  66.1540323
  17.4974493  17.5865957  65.4774704  17.2387346  16.1096514  65.6862253
  14.8883827   9.5552018  63.0576895  14.0268306   9.8533272  63.3493632
  14.9146262   9.7722417  62.1257927  11.7045396  18.0994209  59.4650700
  12.1683742  18.3781912  58.6755323  11.4402195  17.1977653  59.2823791
   8.5969477  17.6465690  62.4030464   9.1670835  18.0752959  61.7647948
   9.1877589  17.3648275  63.1014649  10.6414282  14.2217361  56.2740266
  11.3438326  14.6738405  56.7414192  10.3094911  13.5801180  56.9020159
   9.0894644  12.8129118  70.6491475   8.4593305  13.4945399  70.8826872
   8.9830732  12.7012199  69.7044613  18.4003426  19.8206153  64.3262680
  19.2220870  19.4186340  64.0445362  18.3965829  19.7174387  65.2778796
  12.1660029  19.3690196  66.4823390  12.2304462  19.8310604  67.3181562
  11.4570953  18.7387561  66.6105700  26.4909419  16.1644901  60.6747651
  25.7373127  15.5952300  60.5191656  26.6256960  16.1307566  61.6218286
  11.8808047  21.0358304  56.3502371  11.7453722  21.8809840  56.7787219
  12.4217860  21.2377581  55.5868305   5.3337444  18.5533742  56.9230296
   5.8461965  19.3476992  57.0735861   5.9860157  17.8560032  56.8563897
   7.1432329  21.6699498  59.0053049   7.3198958  22.5917463  58.8174033
   7.9389163  21.3557917  59.4347429  13.5076523  21.6581870  70.4802713
  13.0640378  20.8718249  70.1623617  14.1693737  21.8461021  69.8146604
   8.2663645  23.1877672  65.0063391   8.8171070  23.0594735  64.2340385
   7.4275121  23.4872561  64.6558284  15.6057762  21.9384670  68.5084114
  15.5876237  22.7593551  68.0164383  16.5277682  21.8138745  68.7334255
  12.0630816  19.4528800  69.3507623  12.5959152  18.6917088  69.1206930
  11.5344897  19.1602452  70.0931777  15.1950793  14.5497477  53.3873699
  14.6797417  15.3202081  53.6262087  14.9228102  13.8762613  54.0106761
  20.1685068  17.3029831  55.3226873  19.3914510  16.9640991  54.8782035
  20.8476548  17.3082455  54.6481838  14.9837097  12.4224569  55.2133481
  14.6787232  12.7370718  56.0643624  15.9367539  12.5005989  55.2560814
  13.4283528  18.5814792  56.8626435  12.9004890  17.8467552  56.5499672
  12.9271031  19.3589469  56.6166403  18.4076374  16.7763813  61.9793481
  17.7500049  17.4663074  62.0673609  19.2116774  17.1660245  62.3227467
  17.2181833  15.1308185  60.0297423  17.7313715  15.7638177  60.5319132
  17.8683057  14.5309381  59.6640783  11.5736129  16.3995002  49.8661408
  10.6663190  16.1684256  50.0652557  12.0707161  15.6032622  50.0535389
  14.4804207  25.1092510  52.7858094  13.8065906  25.4124206  53.3943052
  14.8670029  25.9121590  52.4363551  13.6962664  12.6057641  62.2755763
  12.7785225  12.8272588  62.1177451  14.1122808  12.6803951  61.4167470
  14.4797712  14.0049057  57.4058443  15.2269531  14.5170454  57.0965565
  14.7489301  13.6833109  58.2662837  12.7524362  16.5007597  54.3885398
  11.8435581  16.2166630  54.4857867  12.7819446  16.9206676  53.5288705
  17.9843629  20.1114187  58.1576565  17.5305957  19.2705097  58.2141756
  17.3537596  20.7475585  58.4951345  16.9276549  11.0406173  59.3877233
  16.1899306  10.5283559  59.7187475  17.1803323  10.6006554  58.5760510
  16.4276569  21.9490684  59.0926383  16.7199543  22.5095741  58.3738749
  16.9375189  22.2419245  59.8479542  11.3009256  14.1136218  60.4895193
  11.3557866  13.1610054  60.4137670  10.4900458  14.2695657  60.9736491
  12.4500450  18.0416341  51.7273476  12.0119880  17.3252200  51.2679114
  13.1910891  18.2692456  51.1658568   9.2401616  12.7313278  58.2485572
   8.4269482  13.0307448  58.6550764   9.7360610  12.3368966  58.9660054
  11.3910194  22.7271035  60.1819837  11.3486373  22.9531881  59.2528369
  12.3072893  22.4934409  60.3305638  14.8375828  13.1955102  67.0800466
  15.1925215  13.4226575  67.9394932  15.4847959  13.5273479  66.4577721
  20.5673565  16.3173538  57.7849795  20.4291463  16.5075134  56.8570984
  20.2109783  17.0792921  58.2417846  20.5942944  18.3850065  62.7961066
  21.0279451  18.2925354  63.6444120  21.3074525  18.3607566  62.1581082
   9.5075995  19.6034064  59.9781799  10.3016593  19.1084384  59.7764374
   8.7967687  19.0751927  59.6149505  14.3270839  21.9852159  64.3294167
  14.3807861  22.5543095  65.0971883  13.4585620  22.1554044  63.9648204
  21.4558494  18.4273766  65.3293952  21.6494384  19.3319576  65.5753227
  21.3559112  17.9681185  66.1632537  16.5173602  18.5780508  70.9034832
  16.3659109  18.3491060  69.9864916  16.5078282  19.5351110  70.9166177
  13.2858939  16.1512421  65.8881099  14.2150999  16.3023581  65.7150066
  12.8649969  16.2396442  65.0329745  12.0847271  20.1763086  63.6579636
  11.9458356  19.8081870  64.5305574  11.2961867  20.6910725  63.4863594
  12.6795423  25.2772182  55.0005173  12.8547178  24.8060225  55.8150796
  11.9928211  25.9037948  55.2286434  13.6352486  19.5544688  61.0468474
  13.3002318  19.5145458  61.9426124  13.1356431  18.8889404  60.5738884
   7.6096730  14.9612318  66.5721055   7.4716528  14.2292557  67.1732594
   8.5201653  14.8721218  66.2905243  16.5711677  16.9000723  51.3205534
  15.9540848  16.1747551  51.2238587  16.1028166  17.6610083  50.9772608
  10.2379030  14.6732278  66.0604735  10.9478649  14.0325470  66.0191353
  10.1948339  14.9245173  66.9830916  18.2265809  21.6099631  68.9811314
  18.1678355  20.9258851  68.3141897  18.6285327  22.3518621  68.5291940
   7.2456508  28.4261545  61.7745033   7.4853106  29.0580069  62.4524052
   6.4025704  28.0749585  62.0610392  18.2283216  19.5739215  67.2125294
  17.3409995  19.2365137  67.3351693  18.7981767  18.8422246  67.4494059
  11.7584370  24.2340667  64.1786537  11.6854541  25.0395639  64.6905842
  11.3161763  24.4332633  63.3534558  11.5474149  23.4712437  57.6889359
  10.7641671  24.0134118  57.7827583  12.2466895  23.9886417  58.0883600
  14.8570799   9.2807067  60.3323564  15.3539499   8.5277029  60.0124634
  14.0857781   9.3171383  59.7666773  22.7100557  14.9847432  61.9741856
  22.6990433  15.8672148  61.6035789  21.8417936  14.6318983  61.7796393
  14.2183053  24.1327501  66.3344696  14.9311025  24.7674966  66.2620597
  13.7273082  24.2291367  65.5184698  15.9400580  18.0378754  57.9061987
  15.0056859  18.1580216  57.7366692  16.1177249  17.1351221  57.6421997
  11.4405768  11.4224450  60.0595249  11.0703556  10.8695490  60.7476154
  11.9364861  10.8182583  59.5070249  19.3273132  13.8796073  58.4412022
  19.7933584  14.7124065  58.3672324  19.7780632  13.4141055  59.1457280
   9.2694967  21.8821945  67.1550267   9.9704426  22.5158428  67.3079661
   8.7990082  22.2236676  66.3945906  17.3949363  20.2239895  55.4398174
  17.6709207  20.1096489  56.3492048  16.5253861  19.8257379  55.4010347
  17.0696253  14.4366552  64.9802817  16.4167703  14.6842460  64.3255270
  17.4476633  13.6230690  64.6465294  14.0303427  24.4726245  59.0830987
  14.2125821  23.6547901  59.5458740  14.8536413  24.6893938  58.6455877
  14.3645592  23.3994431  56.3446036  14.8933359  22.8886885  55.7316198
  14.6273812  23.0836961  57.2091569  13.1183826  15.1786363  71.4668854
  12.4424463  15.0780493  72.1371229  13.9411460  15.0225577  71.9304851
   4.8662685  21.4158300  64.0881369   5.4516122  20.6701988  64.2209273
   4.6687523  21.7262257  64.9718033   7.7201340  24.4509547  59.1043812
   7.0511715  24.9355675  58.6207852   7.5814210  24.6978768  60.0187190
  11.8606609  26.4853291  65.7026470  12.4124917  26.6484912  66.4675555
  12.2012802  27.0757729  65.0306495  16.7117483  21.3114548  71.5575124
  17.2557387  21.9244507  71.0630079  16.1304328  21.8694127  72.0742137
  14.9974996  24.4335266  62.6890152  14.8726135  23.6325006  62.1801098
  15.6554087  24.9281460  62.2004122  17.0609904  22.2344286  64.3169702
  16.1140240  22.1149638  64.2448029  17.4092677  21.3466784  64.3995964
  14.0656338  22.0297003  60.5174054  13.9181300  21.1013710  60.6981624
  14.8909831  22.0517093  60.0331130  17.6690459  22.8525561  61.6038927
  18.5937007  22.6468423  61.4663378  17.5005763  22.6041962  62.5128269
  14.0617852   9.8834840  55.5106172  14.2781466  10.7659478  55.2095000
  13.5811919   9.4921054  54.7811814   8.8017073  12.8420553  62.0876916
   8.6561654  13.1560857  62.9801198   8.3242277  13.4605454  61.5347815
  17.4585776  23.3711229  56.9601019  17.6322653  22.8057651  56.2074871
  17.9514667  24.1712124  56.7780509  23.3125167  16.1347652  58.5791318
  23.7556313  15.3854977  58.1810442  22.4351677  16.1257788  58.1965050
  18.4460948  22.6877993  54.0597917  19.1411853  23.3084686  54.2785232
  18.7884098  21.8373344  54.3350295  20.3452371  20.1377699  55.5885248
  20.8703695  20.4764971  54.8634568  20.2574724  19.2024714  55.4048382
  12.0072420  24.0511772  67.7175124  12.3159546  23.8060919  68.5897824
  12.8047902  24.2558411  67.2293995  12.0293032  26.2049682  59.9480501
  11.5898022  25.7126061  60.6413358  12.7801149  25.6622650  59.7072576
   4.5085371  22.3961223  59.9505129   5.3343391  22.0964995  59.5703772
   4.1579423  21.6268845  60.3994918   9.4766904  21.7487691  62.0202803
   8.8546913  21.0858396  61.7205030  10.1471771  21.7748823  61.3376450
   2.7093976  20.3147549  60.9094063   1.8725884  19.8869724  60.7278064
   2.6817622  20.5079993  61.8464854  20.0346277  20.7710602  70.8936446
  19.2441821  20.7534741  70.3540945  19.7979632  21.3098896  71.6485482
  20.1544152  17.6203069  68.2069174  20.2042157  17.4553076  69.1484697
  20.0458076  16.7530328  67.8167055   9.0380411  20.2991614  55.4961263
   9.1868531  20.9827079  54.8427936   9.8446855  20.2796704  56.0110719
  17.4447915  13.6033997  69.5228481  18.3457778  13.4640462  69.2312479
  17.5195889  13.7688452  70.4626658  11.7790720  10.9800851  68.3681667
  10.9094030  11.2734418  68.0964256  12.0150200  11.5641296  69.0888931
  21.6562349  20.0400010  68.4511196  21.3647158  20.4029991  69.2874657
  21.0434481  19.3267019  68.2724528  22.8558032  17.6052890  60.9713766
  23.6904923  18.0442694  61.1351326  22.9917160  17.1291543  60.1522012
  19.9049537  15.1632625  66.9191254  20.3803659  15.3560271  66.1110105
  18.9815103  15.2191811  66.6734637   6.7933044  16.3256792  56.5022332
   6.5479086  15.4219122  56.7002542   6.9628959  16.3273942  55.5601810
  12.5375817  22.7939745  52.9673011  11.9649784  23.4129932  52.5143482
  13.1108610  23.3439107  53.5012932  18.6051206  12.0398385  65.1519559
  19.5568629  12.1396483  65.1731783  18.4354657  11.2476653  65.6617644
  16.6265586   9.1253968  65.3378960  16.0315518   9.4058981  64.6425449
  16.3415283   9.6147869  66.1095701  15.7573076  23.0776895  54.0981593
  16.6903750  23.0122457  54.3014468  15.6696289  23.9133162  53.6396125
  18.3861093  22.3942765  51.0585540  18.3074725  22.0602629  51.9521298
  19.2070760  22.8864533  51.0577013  21.0839284  15.2604505  64.2661859
  21.0515604  14.3220505  64.4521543  21.6939908  15.3388541  63.5327684
  12.9222615  14.1300558  50.3089063  13.8681720  14.0006766  50.3777481
  12.5436860  13.3915220  50.7858491  21.2333773  12.0515548  64.3120142
  20.7172821  11.2674005  64.1250071  22.1173721  11.7234265  64.4766662
  18.8944500   5.7956564  60.2715955  18.6969321   5.4871652  61.1559287
  19.5044205   6.5218203  60.4013885  26.9015834  16.3220511  63.4067896
  27.6319223  16.0605800  63.9675599  26.2922780  15.5849233  63.4469964
  24.9831131  14.4628374  64.0042347  24.2564295  14.3284339  63.3958839
  24.5678418  14.7705203  64.8099065  12.8061308  18.1818304  71.7689720
  13.7264317  18.3596903  71.9629767  12.7710891  17.2374349  71.6169419
  11.1065532  12.0550534  50.2443948  10.1996988  11.7583647  50.3206662
  11.3841513  11.7580352  49.3778234   5.8023380  16.0919338  64.4112501
   6.0209390  17.0236446  64.4300535   6.2149154  15.7327313  65.1967305
  10.6751246  11.6652544  73.8015250  10.5747972  12.6146901  73.7327341
  10.4572788  11.3370783  72.9291320  18.0296953   7.7865996  57.5291150
  17.4495622   8.4450800  57.1469203  17.7632886   6.9643340  57.1178568
  16.4800520   7.1871053  59.7312471  16.9800298   7.2987588  58.9226790
  17.1236128   6.8832106  60.3713279  10.5382516  15.0949683  72.6180312
  10.0549597  15.8950043  72.8244201  10.6243455  15.1057628  71.6647756
   3.8068475  16.9278063  60.5402131   3.7839163  17.0265750  59.5884014
   4.1169112  17.7743213  60.8619297   6.4655853  18.9854218  64.6548746
   7.4199107  18.9538160  64.5878677   6.2668377  18.5244841  65.4698971
   7.0555235  17.5555334  67.2219543   7.8748124  18.0499412  67.2454380
   7.3292043  16.6387302  67.1937111  16.8121831   9.9466086  56.5847499
  15.9247686  10.2315737  56.3667693  17.2275820   9.7859849  55.7374776
  20.1636368   9.9712607  60.3001838  20.9396758  10.4609059  60.5726455
  19.4384502  10.3970661  60.7573707  22.6008926  10.6840226  61.3575779
  23.1953417  10.4435962  60.6469087  22.6735510   9.9647357  61.9849315
   4.8206082  24.5273837  61.6718943   4.6860550  23.7674238  61.1056941
   4.4038144  25.2514737  61.2047732  15.9565045  19.7110761  50.6795519
  16.6600895  19.9160763  51.2953174  15.2327694  20.2787523  50.9444602
  16.7862855  15.4620622  56.7997789  16.7298057  15.9189173  55.9605421
  17.3391198  14.7011307  56.6220632  20.5967661  11.2510354  57.6247908
  20.3404595  10.8506990  58.4556116  19.9720529  11.9654148  57.4998048
  24.9079999  13.9906427  60.1319200  24.3479557  14.0599616  60.9050762
  24.3023502  13.8147412  59.4118696   7.9775208  25.4243154  61.8837386
   7.8607592  26.3688587  61.7816076   7.1567654  25.1216716  62.2723185
  17.8651742  20.1493290  52.7293979  18.6997346  19.7174488  52.5471454
  17.7036085  19.9775304  53.6570873  17.5197634  16.6525403  54.0950318
  17.4646438  16.4869675  53.1538762  16.8943690  17.3601436  54.2512508
  14.8343542  18.9574315  73.4203881  15.7034701  19.1314967  73.0590516
  14.3550293  19.7768732  73.2979610   9.0029722  26.0771416  65.0993314
   9.9056969  26.1095026  65.4159809   8.7767092  25.1471867  65.1139650
  10.7583324  24.8302403  61.7603393   9.8078955  24.8304264  61.6467765
  11.0615810  24.0835137  61.2439428  26.4936017  30.6662941  62.8249155
  27.1314427  30.5469688  62.1212496  26.3756860  31.6143785  62.8837108
  23.3025724  30.6190369  62.7610680  22.9644235  30.5031434  61.8731215
  24.1715492  30.2181534  62.7411686  19.1612539  32.4725846  58.7507571
  18.5977404  32.3815782  57.9823859  19.0464934  31.6525750  59.2310064
  23.7845507  31.7725221  68.7196886  23.7734147  31.3778019  67.8477389
  23.9466146  31.0391293  69.3130657  16.7076971  33.9677037  61.5891792
  17.4998263  33.6267862  61.1738091  16.9473621  34.0772012  62.5093945
  24.7412098  36.1396813  54.0622036  24.0900078  36.7250894  53.6756050
  25.5356461  36.6703008  54.1217074  18.6667725  33.2285950  54.4609170
  19.4398601  32.6814937  54.3222046  19.0193124  34.0930200  54.6723632
  20.5052768  34.5562333  67.6676070  20.2142634  35.4607964  67.5522736
  21.1409752  34.5978860  68.3820139  21.4308975  31.9339181  64.2577429
  22.0272547  31.7095204  63.5434392  21.4883946  31.1923927  64.8602877
  21.0034003  29.3878617  52.0927620  21.2559524  28.8660138  51.3311083
  20.0658562  29.2244762  52.1954304  26.0477286  28.3914395  59.9002364
  26.8340375  27.9733818  59.5492781  26.3115990  29.2960487  60.0684012
  26.2187363  33.8287245  54.5991020  25.5833196  33.9021872  55.3111925
  25.8884770  34.4180844  53.9210100  31.4485713  28.3289628  60.8035342
  32.1810885  27.7588845  61.0373172  30.6925069  27.9411229  61.2441848
  20.7230292  31.2906722  54.2951995  20.6066550  30.6151626  54.9633080
  20.8332552  30.8039096  53.4784148  23.0661833  30.7516870  57.9998685
  22.7020040  30.2247491  58.7111606  23.9228949  30.3615339  57.8265170
  22.7067320  25.7806769  52.9960033  22.8741722  26.6487006  53.3630504
  22.5164489  25.9434051  52.0721322  25.4642653  34.2423748  64.6625863
  25.1643376  35.1448787  64.5541671  25.1193712  33.9755931  65.5147016
  18.9155134  30.6937545  60.6962568  17.9905631  30.5613759  60.9040260
  19.1639548  31.4731764  61.1932510  28.8639797  26.7606288  62.3423301
  27.9556674  26.6921697  62.0482062  28.8127392  27.2378233  63.1705126
  22.6856541  28.2364427  53.9806700  22.5656166  28.6821478  54.8192180
  21.9909129  28.5849744  53.4220238  16.2763945  30.3370819  61.5306357
  16.4056327  30.5905297  62.4445769  15.5961397  30.9298527  61.2111012
  20.4463433  41.0068069  57.6296831  20.3687462  41.9575894  57.7085312
  19.8425076  40.6613941  58.2871757  22.9380662  28.1795934  70.2858198
  22.1613996  28.7389854  70.2761063  23.5771225  28.6652717  70.8073068
  28.3841607  28.7085900  54.8087034  29.2959463  28.9413287  54.6334731
  27.8751254  29.2922944  54.2462112  21.1927035  30.9881387  69.8476165
  21.9341719  31.5266431  69.5710989  20.4864020  31.6147676  70.0047717
  23.0213444  28.0683135  65.8181883  23.8674640  28.4922548  65.9616532
  22.9612082  27.4116759  66.5120447  26.1712890  25.7287503  67.4763057
  25.9273822  26.4829563  66.9397333  26.4472820  26.1072851  68.3110304
  25.7277581  24.8843936  63.0576895  24.8662061  25.1825189  63.3493632
  25.7540016  25.1014335  62.1257927  22.5439151  33.4286126  59.4650700
  23.0077496  33.7073829  58.6755323  22.2795949  32.5269571  59.2823791
  19.4363232  32.9757608  62.4030464  20.0064589  33.4044876  61.7647948
  20.0271344  32.6940193  63.1014649  21.4808037  29.5509279  56.2740266
  22.1832080  30.0030323  56.7414192  21.1488665  28.9093098  56.9020159
  19.9288398  28.1421035  70.6491475  19.2987059  28.8237316  70.8826872
  19.8224486  28.0304117  69.7044613  15.2233371  27.8092832  61.5757399
  14.4332425  28.0650360  61.0997510  15.7144618  28.6241169  61.6809440
  17.1748116  28.1737411  58.5340876  16.3779280  28.2856105  59.0524372
  16.9473708  28.5124063  57.6681766  23.0053784  34.6982114  66.4823390
  23.0698216  35.1602521  67.3181562  22.2964708  34.0679479  66.6105700
  13.5071074  28.0623322  64.0072390  13.7579112  28.9470332  64.2729966
  14.0430622  27.8827923  63.2347482  22.7201802  36.3650221  56.3502371
  22.5847476  37.2101757  56.7787219  23.2611614  36.5669499  55.5868305
  19.2069141  22.4441801  73.0116726  18.8136087  21.8908000  73.6864370
  20.0235282  22.7552380  73.4023244  16.1731199  33.8825660  56.9230296
  16.6855720  34.6768910  57.0735861  16.8253912  33.1851950  56.8563897
  17.9826084  36.9991416  59.0053049  18.1592712  37.9209380  58.8174033
  18.7782917  36.6849835  59.4347429  22.1237102  23.8599680  70.6036983
  22.8646816  24.4606834  70.5241445  22.3555025  23.1177318  70.0455025
  17.2678440  29.0456048  68.8815212  17.1531955  28.1441305  69.1822311
  16.4122958  29.2919744  68.5300029  24.3470278  36.9873788  70.4802713
  23.9034132  36.2010167  70.1623617  25.0087492  37.1752938  69.8146604
  19.1057399  38.5169590  65.0063391  19.6564824  38.3886653  64.2340385
  18.2668875  38.8164479  64.6558284  22.9024570  34.7820717  69.3507623
  23.4352907  34.0209006  69.1206930  22.3738651  34.4894369  70.0931777
  26.0694265  19.8880783  64.8801264  25.7258535  20.7782425  64.8040375
  26.4373228  19.6982441  64.0170849  14.1380116  32.2114314  57.6989866
  14.9755338  32.6211322  57.4823574  14.3158383  31.2713756  57.6690060
  26.0344548  29.8789394  53.3873699  25.5191171  30.6493999  53.6262087
  25.7621856  29.2054531  54.0106761  23.6191659  24.7239095  58.4458938
  22.7633255  24.3345946  58.2664576  24.0318611  24.8031056  57.5858723
  25.1490806  22.2585439  62.8450498  24.6455601  22.2215574  62.0318303
  25.4421412  23.1678181  62.9047154  21.3933691  22.3424168  61.8516679
  22.2586688  22.1466977  61.4922569  21.4611200  22.1134520  62.7786036
  25.8230851  27.7516487  55.2133481  25.5180987  28.0662636  56.0643624
  26.7761293  27.8297906  55.2560814  24.2677283  33.9106710  56.8626435
  23.7398644  33.1759469  56.5499672  23.7664786  34.6881386  56.6166403
  18.9996010  24.5726376  59.2233046  19.5739762  24.3501558  58.4906239
  19.5866993  24.6415071  59.9761647  28.0575588  30.4600103  60.0297423
  28.5707469  31.0930095  60.5319132  28.7076812  29.8601299  59.6640783
  19.3265598  26.6030837  53.2428931  18.4902910  26.9405524  53.5638206
  19.1870367  26.4679817  52.3056068  21.3018678  21.4467625  57.9508115
  20.6483091  21.1316642  57.3264730  21.2599152  20.8243366  58.6767938
  22.4129883  31.7286920  49.8661408  21.5056945  31.4976174  50.0652557
  22.9100915  30.9324539  50.0535389  25.3197962  40.4384427  52.7858094
  24.6459661  40.7416124  53.3943052  25.7063784  41.2413508  52.4363551
  24.5356419  27.9349559  62.2755763  23.6178980  28.1564506  62.1177451
  24.9516562  28.0095869  61.4167470  25.3191466  29.3340974  57.4058443
  26.0663285  29.8462372  57.0965565  25.5883056  29.0125027  58.2662837
  23.5918116  31.8299515  54.3885398  22.6829336  31.5458548  54.4857867
  23.6213200  32.2498594  53.5288705  27.7670303  26.3698091  59.3877233
  27.0293060  25.8575477  59.7187475  28.0197077  25.9298472  58.5760510
  27.2670323  37.2782601  59.0926383  27.5593298  37.8387658  58.3738749
  27.7768944  37.5711162  59.8479542  27.8681931  19.1474343  59.9819002
  28.1740808  18.2871706  59.6944917  28.5934536  19.7391963  59.7817996
  14.1606287  29.5505029  58.3700600  13.9630687  28.9574390  57.6451666
  13.6052951  29.2457239  59.0876539  22.1403011  29.4428136  60.4895193
  22.1951620  28.4901972  60.4137670  21.3294213  29.5987575  60.9736491
  23.2894204  33.3708259  51.7273476  22.8513634  32.6544118  51.2679114
  24.0304645  33.5984374  51.1658568  20.0795370  28.0605195  58.2485572
  19.2663236  28.3599366  58.6550764  20.5754365  27.6660884  58.9660054
  22.2303948  38.0562952  60.1819837  22.1880127  38.2823799  59.2528369
  23.1466647  37.8226327  60.3305638  25.6769582  28.5247020  67.0800466
  26.0318970  28.7518493  67.9394932  26.3241713  28.8565397  66.4577721
  19.5709445  25.6323551  63.8646807  20.2108825  25.4912310  63.1669770
  18.7386976  25.3458064  63.4885409  20.3469749  34.9325981  59.9781799
  21.1410348  34.4376301  59.7764374  19.6361442  34.4043844  59.6149505
  25.1664594  37.3144077  64.3294167  25.2201616  37.8835013  65.0971883
  24.2979375  37.4845962  63.9648204  16.6552513  29.0769063  56.0541552
  15.7250101  29.0153519  56.2711514  16.7509985  28.5545016  55.2578193
  16.5738062  25.6023876  58.6419794  16.8344879  26.5169209  58.5328954
  17.3955234  25.1348318  58.7916406  18.0462987  27.0161633  65.8118618
  18.7186040  26.8078995  65.1631267  17.2192774  26.8183719  65.3723850
  23.9488559  23.6423574  67.8284279  23.3016474  24.3413524  67.7348755
  24.7189574  24.0759718  68.1960527  24.1252693  31.4804339  65.8881099
  25.0544753  31.6315498  65.7150066  23.7043723  31.5688360  65.0329745
  22.9241025  35.5055003  63.6579636  22.7852111  35.1373788  64.5305574
  22.1355621  36.0202643  63.4863594  23.5189177  40.6064100  55.0005173
  23.6940933  40.1352143  55.8150796  22.8321965  41.2329866  55.2286434
  24.4746240  34.8836606  61.0468474  24.1396073  34.8437376  61.9426124
  23.9750186  34.2181322  60.5738884  18.4490484  30.2904236  66.5721055
  18.3110282  29.5584475  67.1732594  19.3595408  30.2013136  66.2905243
  27.4105432  32.2292640  51.3205534  26.7934603  31.5039468  51.2238587
  26.9421920  32.9902001  50.9772608  21.0772785  30.0024195  66.0604735
  21.7872403  29.3617388  66.0191353  21.0342093  30.2537090  66.9830916
  19.7901719  26.9889413  67.8800374  19.2539076  26.5380152  68.5321971
  19.2018427  27.1235322  67.1370839  18.0850262  43.7553463  61.7745033
  18.3246861  44.3871987  62.4524052  17.2419459  43.4041503  62.0610392
  19.2003978  26.4478065  50.4426838  18.3233444  26.3266865  50.0789085
  19.6761731  25.6564143  50.1905727  10.7206118  31.2355224  60.5368345
  11.4077158  30.9216954  59.9489361  10.5654247  32.1396589  60.2635597
  15.5240840  26.1245421  64.9653369  15.4399029  25.5171090  64.2303779
  14.7023547  26.6154439  64.9662865  22.5978124  39.5632585  64.1786537
  22.5248296  40.3687556  64.6905842  22.1555517  39.7624551  63.3534558
  22.3867904  38.8004355  57.6889359  21.6035426  39.3426035  57.7827583
  23.0860649  39.3178335  58.0883600  25.6964554  24.6098984  60.3323564
  26.1933254  23.8568947  60.0124634  24.9251535  24.6463301  59.7666773
  22.2799523  26.7516367  60.0595249  21.9097310  26.1987408  60.7476154
  22.7758615  26.1474501  59.5070249  30.1666886  29.2087991  58.4412022
  30.6327338  30.0415983  58.3672324  30.6174387  28.7432973  59.1457280
  20.1088721  37.2113862  67.1550267  20.8098181  37.8450345  67.3079661
  19.6383836  37.5528594  66.3945906  28.1383549  21.5768578  62.4802923
  27.2246629  21.8072805  62.6485130  28.5676650  21.6607022  63.3316955
  24.8697181  39.8018163  59.0830987  25.0519576  38.9839819  59.5458740
  25.6930167  40.0185855  58.6455877  25.2039347  38.7286348  56.3446036
  25.7327113  38.2178803  55.7316198  25.4667566  38.4128878  57.2091569
  23.9577580  30.5078281  71.4668854  23.2818217  30.4072410  72.1371229
  24.7805214  30.3517495  71.9304851  15.7056439  36.7450218  64.0881369
  16.2909876  35.9993905  64.2209273  15.5081278  37.0554174  64.9718033
  18.5595095  39.7801465  59.1043812  17.8905470  40.2647593  58.6207852
  18.4207964  40.0270685  60.0187190  10.2974094  29.3155818  62.8085812
  10.3358194  28.7819408  63.6022930   9.7914387  28.7891023  62.1896790
  22.7000363  41.8145208  65.7026470  23.2518671  41.9776830  66.4675555
  23.0406557  42.4049646  65.0306495  17.6764856  24.1620358  66.3048355
  17.7406183  25.0235189  65.8925752  17.6131977  23.5494360  65.5720713
  17.1517129  26.2343491  69.9521389  17.7789168  25.8520568  70.5658913
  16.2945048  26.0157693  70.3177081  13.9282672  28.0419920  55.8839744
  14.2236113  27.1330598  55.8306797  13.0270707  28.0207659  55.5620746
  17.4576919  26.1175916  61.8667292  16.7363504  26.7311884  61.7274766
  18.2470174  26.6533681  61.7883938  20.2603232  23.4530343  68.1407944
  20.7837634  23.6992639  68.9034253  20.0415565  24.2850378  67.7211081
  15.6570513  25.7234018  56.0079069  15.3283219  24.8431396  55.8254175
  16.0109884  25.6681686  56.8955458  24.9050092  37.3588920  60.5174054
  24.7575055  36.4305628  60.6981624  25.7303586  37.3809011  60.0331130
  18.7712336  26.0106987  56.3754547  19.1108409  26.5392909  55.6533155
  19.2184457  26.3487393  57.1513113  21.4655777  24.3944038  65.8257615
  21.1252598  23.5951851  66.2278295  20.7594784  24.6945749  65.2534448
  22.1172249  21.4793350  64.2784938  22.9398318  21.0053829  64.1563828
  22.3610313  22.2583834  64.7783624  20.7580484  24.5081609  54.5747839
  21.4788846  24.8862862  54.0711556  20.1345788  25.2270486  54.6782817
  24.9011606  25.2126758  55.5106172  25.1175221  26.0951396  55.2095000
  24.4205674  24.8212971  54.7811814  19.6410828  28.1712471  62.0876916
  19.4955409  28.4852774  62.9801198  19.1636031  28.7897371  61.5347815
  21.5007211  25.1615019  62.1357806  21.4868779  24.2656112  61.7990104
  22.2179639  25.1685683  62.7696092  23.3533341  25.5952359  64.1810933
  23.0951119  26.5169430  64.1795264  22.8218382  25.1982794  64.8711397
  14.1156490  30.7117816  65.0264577  13.5709958  31.4877623  65.1584852
  14.9935840  31.0588620  64.8683699  20.9044107  24.0429399  57.4045376
  21.0260018  23.1146046  57.6036263  20.6146149  24.0568085  56.4923691
  23.7735297  21.7284310  60.5412096  23.7956994  21.7923643  59.5864075
  24.1903356  20.8888818  60.7352602  14.9022512  29.8387712  67.9194734
  14.1604248  29.9870347  68.5059365  14.5815256  30.0995977  67.0561484
  22.8466174  39.3803690  67.7175124  23.1553301  39.1352837  68.5897824
  23.6441657  39.5850328  67.2293995  22.8686787  41.5341600  59.9480501
  22.4291777  41.0417978  60.6413358  23.6194903  40.9914567  59.7072576
  15.3479126  37.7253140  59.9505129  16.1737145  37.4256912  59.5703772
  14.9973178  36.9560763  60.3994918  20.3160659  37.0779609  62.0202803
  19.6940668  36.4150314  61.7205030  20.9865526  37.1040741  61.3376450
  13.5487731  35.6439467  60.9094063  12.7119639  35.2161641  60.7278064
  13.5211376  35.8371910  61.8464854  20.3885186  25.5561397  71.6135309
  20.4373342  26.4323520  71.2313078  20.9307700  25.0138790  71.0406952
  19.8774166  35.6283532  55.4961263  20.0262286  36.3118996  54.8427936
  20.6840609  35.6088622  56.0110719  28.2841669  28.9325914  69.5228481
  29.1851532  28.7932379  69.2312479  28.3589644  29.0980369  70.4626658
  22.6184475  26.3092769  68.3681667  21.7487784  26.6026335  68.0964256
  22.8543955  26.8933214  69.0888931  17.6326799  31.6548710  56.5022332
  17.3872841  30.7511040  56.7002542  17.8022713  31.6565860  55.5601810
  25.3223508  22.5272386  65.8847088  25.8405452  23.2633413  65.5593576
  24.9678641  22.8336379  66.7193847  16.9022446  27.3877067  54.0008493
  16.2091691  27.4621422  53.3448529  16.6574198  26.6237411  54.5230010
  25.5736103  18.9472669  61.4047984  25.8537856  18.2795858  62.0308411
  26.3586710  19.1401764  60.8922648  23.3769571  38.1231663  52.9673011
  22.8043538  38.7421850  52.5143482  23.9502365  38.6731024  53.5012932
  23.7616370  29.4592475  50.3089063  24.7075474  29.3298683  50.3777481
  23.3830615  28.7207137  50.7858491  29.7338254  21.1248481  60.2715955
  29.5363075  20.8163569  61.1559287  30.3437960  21.8510120  60.4013885
  23.6455062  33.5110221  71.7689720  24.5658072  33.6888820  71.9629767
  23.6104645  32.5666267  71.6169419  21.9459287  27.3842452  50.2443948
  21.0390742  27.0875564  50.3206662  22.2235268  27.0872270  49.3778234
  12.8637227  28.7048815  60.6942995  12.5440011  27.8514123  60.4017369
  12.3170655  28.9197393  61.4500962  16.6417135  31.4211256  64.4112501
  16.8603144  32.3528364  64.4300535  17.0542909  31.0619230  65.1967305
  23.5621352  21.9279341  56.3988190  22.7522081  21.5826426  56.7743436
  24.2505769  21.6186885  56.9875801  25.4911901  21.0057388  58.0212486
  26.0442939  21.4252842  58.6802509  25.7281987  20.0793136  58.0635442
  21.5145000  26.9944462  73.8015250  21.4141727  27.9438819  73.7327341
  21.2966542  26.6662701  72.9291320  20.7158071  24.2429387  50.3855927
  21.5777235  24.5684285  50.6451745  20.9008416  23.4560883  49.8728993
  12.7325487  32.3251727  62.6636116  12.0388959  31.9105679  62.1506071
  13.4798478  32.3672263  62.0669535  28.8690708  23.1157913  57.5291150
  28.2889377  23.7742717  57.1469203  28.6026641  22.2935258  57.1178568
  27.3194274  22.5162971  59.7312471  27.8194053  22.6279506  58.9226790
  27.9629882  22.2124024  60.3713279  21.3776270  30.4241601  72.6180312
  20.8943352  31.2241961  72.8244201  21.4637209  30.4349546  71.6647756
  14.6462230  32.2569980  60.5402131  14.6232918  32.3557668  59.5884014
  14.9562866  33.1035131  60.8619297  17.3049608  34.3146135  64.6548746
  18.2592861  34.2830078  64.5878677  17.1062131  33.8536759  65.4698971
  17.8948990  32.8847251  67.2219543  18.7141879  33.3791330  67.2454380
  18.1685797  31.9679220  67.1937111  27.6515586  25.2758004  56.5847499
  26.7641441  25.5607654  56.3667693  28.0669575  25.1151767  55.7374776
  31.0030122  25.3004525  60.3001838  31.7790512  25.7900977  60.5726455
  30.2778256  25.7262579  60.7573707  15.6599836  39.8565755  61.6718943
  15.5254304  39.0966156  61.1056941  15.2431899  40.5806655  61.2047732
  26.7958799  35.0402678  50.6795519  27.4994649  35.2452681  51.2953174
  26.0721448  35.6079440  50.9444602  27.6256610  30.7912540  56.7997789
  27.5691811  31.2481091  55.9605421  28.1784952  30.0303224  56.6220632
  31.4361416  26.5802272  57.6247908  31.1798350  26.1798907  58.4556116
  30.8114284  27.2946065  57.4998048  18.8168962  40.7535072  61.8837386
  18.7001346  41.6980504  61.7816076  17.9961408  40.4508633  62.2723185
  28.3591389  31.9817321  54.0950318  28.3040193  31.8161592  53.1538762
  27.7337444  32.6893354  54.2512508  13.1483904  27.2185385  67.9211740
  13.7942768  26.7084339  68.4098965  12.9401055  27.9554067  68.4955166
  21.6687514  21.4825430  53.6735636  21.6566184  22.4267270  53.8303907
  22.5610936  21.2995575  53.3795098  19.8423476  41.4063334  65.0993314
  20.7450723  41.4386944  65.4159809  19.6160846  40.4763785  65.1139650
  21.5977078  40.1594320  61.7603393  20.6472709  40.1596182  61.6467765
  21.9009565  39.4127055  61.2439428  25.4839634  18.0768207  57.9281573
  24.7172030  17.5226693  58.0738256  25.8950339  18.1490075  58.7895725
  17.4881395  24.3653002  72.0186754  18.3512856  24.0089807  72.2290079
  16.9146806  24.0266897  72.7062159  27.5470726  49.2968955  61.5891792
  28.3392018  48.9559779  61.1738091  27.7867376  49.4063930  62.5093945
  31.2857187  56.3359986  57.6296831  31.2081217  57.2867811  57.7085312
  30.6818831  55.9905859  58.2871757  26.0627125  43.1384749  61.5757399
  25.2726179  43.3942278  61.0997510  26.5538373  43.9533087  61.6809440
  24.3464828  43.3915240  64.0072390  24.5972867  44.2762250  64.2729966
  24.8824377  43.2119841  63.2347482  33.5595556  51.6942139  56.3502371
  33.4241231  52.5393675  56.7787219  34.1005369  51.8961417  55.5868305
  27.0124953  49.2117577  56.9230296  27.5249474  50.0060827  57.0735861
  27.6647666  48.5143868  56.8563897  28.8219838  52.3283333  59.0053049
  28.9986466  53.2501298  58.8174033  29.6176672  52.0141753  59.4347429
  35.1864032  52.3165706  70.4802713  34.7427887  51.5302084  70.1623617
  35.8481246  52.5044856  69.8146604  29.9451154  53.8461507  65.0063391
  30.4958579  53.7178571  64.2340385  29.1062630  54.1456396  64.6558284
  24.9773870  47.5406231  57.6989866  25.8149092  47.9503240  57.4823574
  25.1552138  46.6005674  57.6690060  36.1591716  55.7676345  52.7858094
  35.4853415  56.0708042  53.3943052  36.5457538  56.5705425  52.4363551
  25.0000041  44.8796947  58.3700600  24.8024441  44.2866308  57.6451666
  24.4446705  44.5749157  59.0876539  33.0697703  53.3854870  60.1819837
  33.0273882  53.6115716  59.2528369  33.9860402  53.1518245  60.3305638
  31.1863504  50.2617899  59.9781799  31.9804102  49.7668219  59.7764374
  30.4755196  49.7335762  59.6149505  34.3582932  55.9356017  55.0005173
  34.5334687  55.4644061  55.8150796  33.6715720  56.5621784  55.2286434
  28.9244017  59.0845380  61.7745033  29.1640615  59.7163904  62.4524052
  28.0813213  58.7333420  62.0610392  21.5599872  46.5647142  60.5368345
  22.2470912  46.2508872  59.9489361  21.4048001  47.4688507  60.2635597
  33.4371879  54.8924503  64.1786537  33.3642050  55.6979474  64.6905842
  32.9949272  55.0916468  63.3534558  33.2261658  54.1296273  57.6889359
  32.4429180  54.6717953  57.7827583  33.9254404  54.6470252  58.0883600
  35.8970562  54.7911337  66.3344696  36.6098534  55.4258801  66.2620597
  35.4060591  54.8875203  65.5184698  26.5450194  52.0742135  64.0881369
  27.1303631  51.3285823  64.2209273  26.3475032  52.3846092  64.9718033
  29.3988849  55.1093383  59.1043812  28.7299224  55.5939510  58.6207852
  29.2601719  55.3562603  60.0187190  21.1367849  44.6447735  62.8085812
  21.1751948  44.1111326  63.6022930  20.6308141  44.1182941  62.1896790
  33.5394118  57.1437126  65.7026470  34.0912426  57.3068748  66.4675555
  33.8800311  57.7341564  65.0306495  33.6859929  54.7095608  67.7175124
  33.9947055  54.4644754  68.5897824  34.4835411  54.9142246  67.2293995
  33.7080541  56.8633517  59.9480501  33.2685531  56.3709896  60.6413358
  34.4588658  56.3206485  59.7072576  26.1872880  53.0545058  59.9505129
  27.0130900  52.7548830  59.5703772  25.8366932  52.2852681  60.3994918
  31.1554413  52.4071526  62.0202803  30.5334422  51.7442231  61.7205030
  31.8259280  52.4332658  61.3376450  24.3881485  50.9731385  60.9094063
  23.5513393  50.5453559  60.7278064  24.3605130  51.1663828  61.8464854
  30.7167920  50.9575450  55.4961263  30.8656040  51.6410914  54.8427936
  31.5234364  50.9380540  56.0110719  23.7030982  44.0340733  60.6942995
  23.3833766  43.1806041  60.4017369  23.1564410  44.2489311  61.4500962
  23.5719242  47.6543644  62.6636116  22.8782713  47.2397597  62.1506071
  24.3192233  47.6964181  62.0669535  25.4855984  47.5861898  60.5402131
  25.4626672  47.6849585  59.5884014  25.7956621  48.4327049  60.8619297
  26.4993591  55.1857673  61.6718943  26.3648059  54.4258073  61.1056941
  26.0825653  55.9098572  61.2047732  29.6562717  56.0826990  61.8837386
  29.5395101  57.0272422  61.7816076  28.8355163  55.7800551  62.2723185
  30.6817231  56.7355251  65.0993314  31.5844478  56.7678862  65.4159809
  30.4554601  55.8055702  65.1139650  32.4370833  55.4886238  61.7603393
  31.4866464  55.4888100  61.6467765  32.7403319  54.7418973  61.2439428
  44.9813233  61.2774204  62.7610680  44.6431744  61.1615269  61.8731215
  45.8503001  60.8765370  62.7411686  40.8400048  63.1309681  58.7507571
  40.2764913  63.0399618  57.9823859  40.7252443  62.3109585  59.2310064
  45.4633016  62.4309056  68.7196886  45.4521656  62.0361854  67.8477389
  45.6253655  61.6975129  69.3130657  38.3864480  64.6260872  61.5891792
  39.1785772  64.2851697  61.1738091  38.6261130  64.7355848  62.5093945
  46.4199607  66.7980649  54.0622036  45.7687587  67.3834729  53.6756050
  47.2143970  67.3286844  54.1217074  40.3455234  63.8869786  54.4609170
  41.1186110  63.3398773  54.3222046  40.6980633  64.7514035  54.6723632
  42.1840277  65.2146168  67.6676070  41.8930143  66.1191799  67.5522736
  42.8197261  65.2562696  68.3820139  43.1096484  62.5923017  64.2577429
  43.7060056  62.3679039  63.5434392  43.1671455  61.8507762  64.8602877
  42.6821512  60.0462452  52.0927620  42.9347033  59.5243973  51.3311083
  41.7446071  59.8828597  52.1954304  47.8974872  64.4871081  54.5991020
  47.2620705  64.5605707  55.3111925  47.5672279  65.0764679  53.9210100
  42.4017801  61.9490558  54.2951995  42.2854059  61.2735461  54.9633080
  42.5120061  61.4622932  53.4784148  44.7449342  61.4100705  57.9998685
  44.3807549  60.8831326  58.7111606  45.6016458  61.0199174  57.8265170
  47.1430162  64.9007584  64.6625863  46.8430885  65.8032622  64.5541671
  46.7981221  64.6339767  65.5147016  40.5942643  61.3521380  60.6962568
  39.6693140  61.2197594  60.9040260  40.8427057  62.1315600  61.1932510
  37.9551454  60.9954654  61.5306357  38.0843836  61.2489133  62.4445769
  37.2748906  61.5882362  61.2111012  42.1250942  71.6651904  57.6296831
  42.0474971  72.6159729  57.7085312  41.5212585  71.3197776  58.2871757
  42.8714544  61.6465223  69.8476165  43.6129228  62.1850267  69.5710989
  42.1651529  62.2731511  70.0047717  48.3469883  63.7894363  68.4448326
  48.7553239  63.3476774  67.7002959  47.6247145  63.2146991  68.6982519
  48.6698698  64.3495554  62.2000615  48.0407560  64.5141268  61.4976683
  48.2824360  64.7637163  62.9711579  49.8038862  62.9309951  66.1540323
  50.0155757  63.5741711  65.4774704  49.7568610  62.0972267  65.6862253
  44.2226660  64.0869962  59.4650700  44.6865005  64.3657665  58.6755323
  43.9583458  63.1853406  59.2823791  41.1150741  63.6341443  62.4030464
  41.6852098  64.0628712  61.7647948  41.7058853  63.3524028  63.1014649
  41.6075907  58.8004871  70.6491475  40.9774568  59.4821152  70.8826872
  41.5011995  58.6887952  69.7044613  36.9020880  58.4676667  61.5757399
  36.1119934  58.7234195  61.0997510  37.3932127  59.2825005  61.6809440
  38.8535625  58.8321246  58.5340876  38.0566789  58.9439940  59.0524372
  38.6261217  59.1707898  57.6681766  44.6841293  65.3565949  66.4823390
  44.7485725  65.8186357  67.3181562  43.9752217  64.7263314  66.6105700
  35.1858583  58.7207157  64.0072390  35.4366621  59.6054167  64.2729966
  35.7218131  58.5411759  63.2347482  44.3989311  67.0234057  56.3502371
  44.2634985  67.8685593  56.7787219  44.9399123  67.2253334  55.5868305
  37.8518708  64.5409495  56.9230296  38.3643229  65.3352745  57.0735861
  38.5041421  63.8435785  56.8563897  39.6613593  67.6575251  59.0053049
  39.8380221  68.5793216  58.8174033  40.4570426  67.3433670  59.4347429
  43.8024611  54.5183516  70.6036983  44.5434325  55.1190669  70.5241445
  44.0342534  53.7761154  70.0455025  38.9465949  59.7039883  68.8815212
  38.8319464  58.8025140  69.1822311  38.0910467  59.9503580  68.5300029
  46.0257787  67.6457623  70.4802713  45.5821641  66.8594002  70.1623617
  46.6875001  67.8336774  69.8146604  40.7844908  69.1753425  65.0063391
  41.3352333  69.0470488  64.2340385  39.9456384  69.4748314  64.6558284
  44.5812079  65.4404553  69.3507623  45.1140416  64.6792841  69.1206930
  44.0526160  65.1478205  70.0931777  35.8167625  62.8698149  57.6989866
  36.6542847  63.2795158  57.4823574  35.9945892  61.9297591  57.6690060
  47.7132057  60.5373230  53.3873699  47.1978680  61.3077834  53.6262087
  47.4409365  59.8638366  54.0106761  52.6866331  63.2905584  55.3226873
  51.9095774  62.9516744  54.8782035  53.3657812  63.2958208  54.6481838
  45.9464792  64.5690545  56.8626435  45.4186153  63.8343305  56.5499672
  45.4452295  65.3465222  56.6166403  44.0917392  62.3870756  49.8661408
  43.1844454  62.1560009  50.0652557  44.5888424  61.5908375  50.0535389
  46.9985471  71.0968263  52.7858094  46.3247170  71.3999959  53.3943052
  47.3851293  71.8997343  52.4363551  45.2705625  62.4883350  54.3885398
  44.3616845  62.2042383  54.4857867  45.3000709  62.9082429  53.5288705
  50.5024893  66.0989940  58.1576565  50.0487220  65.2580850  58.2141756
  49.8718860  66.7351338  58.4951345  48.9457832  67.9366437  59.0926383
  49.2380807  68.4971494  58.3738749  49.4556453  68.2294998  59.8479542
  35.8393796  60.2088864  58.3700600  35.6418196  59.6158225  57.6451666
  35.2840460  59.9041075  59.0876539  43.8190520  60.1011971  60.4895193
  43.8739129  59.1485807  60.4137670  43.0081722  60.2571410  60.9736491
  44.9681713  64.0292094  51.7273476  44.5301143  63.3127953  51.2679114
  45.7092154  64.2568209  51.1658568  43.9091457  68.7146788  60.1819837
  43.8667636  68.9407634  59.2528369  44.8254156  68.4810162  60.3305638
  41.2496954  56.2907386  63.8646807  41.8896334  56.1496145  63.1669770
  40.4174485  56.0041900  63.4885409  53.1124208  64.3725818  62.7961066
  53.5460714  64.2801107  63.6444120  53.8255788  64.3483319  62.1581082
  42.0257258  65.5909817  59.9781799  42.8197857  65.0960137  59.7764374
  41.3148950  65.0627680  59.6149505  46.8452103  67.9727912  64.3294167
  46.8989125  68.5418849  65.0971883  45.9766884  68.1429797  63.9648204
  38.3340022  59.7352898  56.0541552  37.4037610  59.6737354  56.2711514
  38.4297494  59.2128851  55.2578193  39.7250496  57.6745468  65.8118618
  40.3973549  57.4662831  65.1631267  38.8980282  57.4767554  65.3723850
  45.8040202  62.1388174  65.8881099  46.7332262  62.2899334  65.7150066
  45.3831232  62.2272195  65.0329745  44.6028534  66.1638839  63.6579636
  44.4639620  65.7957623  64.5305574  43.8143130  66.6786478  63.4863594
  45.1976686  71.2647935  55.0005173  45.3728442  70.7935978  55.8150796
  44.5109474  71.8913701  55.2286434  46.1533749  65.5420441  61.0468474
  45.8183582  65.5021211  61.9426124  45.6537695  64.8765157  60.5738884
  40.1277993  60.9488071  66.5721055  39.9897791  60.2168310  67.1732594
  41.0382917  60.8596971  66.2905243  49.0892941  62.8876476  51.3205534
  48.4722112  62.1623304  51.2238587  48.6209429  63.6485836  50.9772608
  42.7560294  60.6608031  66.0604735  43.4659912  60.0201223  66.0191353
  42.7129602  60.9120926  66.9830916  41.4689228  57.6473249  67.8800374
  40.9326585  57.1963987  68.5321971  40.8805936  57.7819157  67.1370839
  39.7637771  74.4137298  61.7745033  40.0034370  75.0455822  62.4524052
  38.9206968  74.0625338  62.0610392  32.3993627  61.8939060  60.5368345
  33.0864667  61.5800790  59.9489361  32.2441756  62.7980424  60.2635597
  37.2028349  56.7829256  64.9653369  37.1186538  56.1754926  64.2303779
  36.3811055  57.2738275  64.9662865  44.2765633  70.2216420  64.1786537
  44.2035805  71.0271392  64.6905842  43.8343026  70.4208386  63.3534558
  44.0655413  69.4588190  57.6889359  43.2822935  70.0009871  57.7827583
  44.7648158  69.9762170  58.0883600  46.7364317  70.1203254  66.3344696
  47.4492289  70.7550719  66.2620597  46.2454345  70.2167120  65.5184698
  48.4581844  64.0254507  57.9061987  47.5238122  64.1455969  57.7366692
  48.6358512  63.1226974  57.6421997  41.7876230  67.8697698  67.1550267
  42.4885690  68.5034181  67.3079661  41.3171345  68.2112429  66.3945906
  49.9130626  66.2115648  55.4398174  50.1890470  66.0972242  56.3492048
  49.0435125  65.8133132  55.4010347  46.5484690  70.4601998  59.0830987
  46.7307085  69.6423654  59.5458740  47.3717676  70.6769691  58.6455877
  46.8826856  69.3870184  56.3446036  47.4114622  68.8762638  55.7316198
  47.1455075  69.0712714  57.2091569  45.6365089  61.1662116  71.4668854
  44.9605726  61.0656246  72.1371229  46.4592723  61.0101330  71.9304851
  37.3843948  67.4034053  64.0881369  37.9697385  66.6577741  64.2209273
  37.1868787  67.7138010  64.9718033  40.2382604  70.4385300  59.1043812
  39.5692979  70.9231428  58.6207852  40.0995473  70.6854521  60.0187190
  31.9761603  59.9739653  62.8085812  32.0145703  59.4403244  63.6022930
  31.4701896  59.4474859  62.1896790  44.3787872  72.4729044  65.7026470
  44.9306180  72.6360665  66.4675555  44.7194066  73.0633482  65.0306495
  39.3552365  54.8204194  66.3048355  39.4193692  55.6819024  65.8925752
  39.2919486  54.2078195  65.5720713  38.8304638  56.8927326  69.9521389
  39.4576677  56.5104403  70.5658913  37.9732557  56.6741528  70.3177081
  35.6070181  58.7003755  55.8839744  35.9023622  57.7914434  55.8306797
  34.7058216  58.6791495  55.5620746  39.1364428  56.7759752  61.8667292
  38.4151013  57.3895720  61.7274766  39.9257683  57.3117517  61.7883938
  46.5837601  68.0172756  60.5174054  46.4362564  67.0889463  60.6981624
  47.4091095  68.0392846  60.0331130  41.3198337  58.8296306  62.0876916
  41.1742918  59.1436610  62.9801198  40.8423540  59.4481207  61.5347815
  49.9767039  69.3586982  56.9601019  50.1503917  68.7933404  56.2074871
  50.4695930  70.1587877  56.7780509  35.7943999  61.3701651  65.0264577
  35.2497467  62.1461459  65.1584852  36.6723349  61.7172455  64.8683699
  50.9642212  68.6753746  54.0597917  51.6593116  69.2960439  54.2785232
  51.3065362  67.8249097  54.3350295  36.5810021  60.4971547  67.9194734
  35.8391757  60.6454182  68.5059365  36.2602765  60.7579813  67.0561484
  52.8633635  66.1253452  55.5885248  53.3884959  66.4640724  54.8634568
  52.7755987  65.1900467  55.4048382  44.5253683  70.0387525  67.7175124
  44.8340810  69.7936672  68.5897824  45.3229165  70.2434164  67.2293995
  37.0266634  68.3836976  59.9505129  37.8524654  68.0840748  59.5703772
  36.6760686  67.6144598  60.3994918  41.9948168  67.7363444  62.0202803
  41.3728177  67.0734149  61.7205030  42.6653035  67.7624576  61.3376450
  35.2275240  66.3023302  60.9094063  34.3907148  65.8745477  60.7278064
  35.1998885  66.4955746  61.8464854  42.0672695  56.2145232  71.6135309
  42.1160851  57.0907355  71.2313078  42.6095209  55.6722625  71.0406952
  41.5561675  66.2867367  55.4961263  41.7049795  66.9702832  54.8427936
  42.3628118  66.2672457  56.0110719  52.4230801  61.1508378  66.9191254
  52.8984923  61.3436024  66.1110105  51.4996366  61.2067564  66.6734637
  39.3114308  62.3132545  56.5022332  39.0660349  61.4094875  56.7002542
  39.4810222  62.3149696  55.5601810  38.5809955  58.0460903  54.0008493
  37.8879200  58.1205258  53.3448529  38.3361707  57.2821246  54.5230010
  45.0557080  68.7815498  52.9673011  44.4831047  69.4005685  52.5143482
  45.6289874  69.3314860  53.5012932  48.2754340  69.0652648  54.0981593
  49.2085013  68.9998210  54.3014468  48.1877553  69.9008915  53.6396125
  50.9042357  68.3818518  51.0585540  50.8255988  68.0478382  51.9521298
  51.7252023  68.8740286  51.0577013  53.6020548  61.2480258  64.2661859
  53.5696868  60.3096258  64.4521543  54.2121171  61.3264294  63.5327684
  45.4403879  60.1176311  50.3089063  46.3862983  59.9882519  50.3777481
  45.0618124  59.3790973  50.7858491  45.3242571  64.1694057  71.7689720
  46.2445581  64.3472656  71.9629767  45.2892154  63.2250102  71.6169419
  43.6246796  58.0426287  50.2443948  42.7178251  57.7459400  50.3206662
  43.9022777  57.7456105  49.3778234  34.5424736  59.3632650  60.6942995
  34.2227520  58.5097959  60.4017369  33.9958164  59.5781229  61.4500962
  38.3204644  62.0795091  64.4112501  38.5390653  63.0112199  64.4300535
  38.7330418  61.7203066  65.1967305  43.1932509  57.6528297  73.8015250
  43.0929236  58.6022654  73.7327341  42.9754051  57.3246536  72.9291320
  34.4112996  62.9835562  62.6636116  33.7176468  62.5689515  62.1506071
  35.1585987  63.0256098  62.0669535  43.0563779  61.0825436  72.6180312
  42.5730861  61.8825796  72.8244201  43.1424718  61.0933381  71.6647756
  36.3249739  62.9153816  60.5402131  36.3020427  63.0141503  59.5884014
  36.6350375  63.7618966  60.8619297  38.9837117  64.9729971  64.6548746
  39.9380370  64.9413913  64.5878677  38.7849640  64.5120594  65.4698971
  39.5736499  63.5431087  67.2219543  40.3929388  64.0375165  67.2454380
  39.8473306  62.6263055  67.1937111  37.3387345  70.5149590  61.6718943
  37.2041813  69.7549991  61.1056941  36.9219408  71.2390490  61.2047732
  48.4746308  65.6986514  50.6795519  49.1782158  65.9036516  51.2953174
  47.7508957  66.2663276  50.9444602  40.4956471  71.4118907  61.8837386
  40.3788855  72.3564340  61.7816076  39.6748917  71.1092469  62.2723185
  50.3833006  66.1369043  52.7293979  51.2178610  65.7050241  52.5471454
  50.2217349  65.9651057  53.6570873  50.0378898  62.6401156  54.0950318
  49.9827702  62.4745428  53.1538762  49.4124953  63.3477189  54.2512508
  34.8271413  57.8769221  67.9211740  35.4730277  57.3668175  68.4098965
  34.6188564  58.6137902  68.4955166  47.3524805  64.9450068  73.4203881
  48.2215965  65.1190720  73.0590516  46.8731557  65.7644485  73.2979610
  41.5210985  72.0647169  65.0993314  42.4238232  72.0970779  65.4159809
  41.2948355  71.1347620  65.1139650  43.2764587  70.8178156  61.7603393
  42.3260218  70.8180017  61.6467765  43.5797073  70.0710890  61.2439428
  39.1668904  55.0236838  72.0186754  40.0300365  54.6673643  72.2290079
  38.5934315  54.6850733  72.7062159  57.2593362  82.1272566  54.0622036
  56.6081341  82.7126647  53.6756050  58.0537724  82.6578761  54.1217074
  51.1848989  79.2161703  54.4609170  51.9579865  78.6690691  54.3222046
  51.5374388  80.0805953  54.6723632  53.5215267  75.3754370  52.0927620
  53.7740787  74.8535891  51.3311083  52.5839826  75.2120515  52.1954304
  58.7368627  79.8162998  54.5991020  58.1014460  79.8897625  55.3111925
  58.4066033  80.4056597  53.9210100  53.2411555  77.2782476  54.2951995
  53.1247813  76.6027379  54.9633080  53.3513815  76.7914849  53.4784148
  55.2248583  71.7682522  52.9960033  55.3922986  72.6362759  53.3630504
  55.0345752  71.9309804  52.0721322  52.9644696  86.9943822  57.6296831
  52.8868726  87.9451647  57.7085312  52.3606340  86.6489694  58.2871757
  48.6912462  79.8701413  56.9230296  49.2036983  80.6644663  57.0735861
  49.3435175  79.1727703  56.8563897  50.5007347  82.9867169  59.0053049
  50.6773975  83.9085134  58.8174033  51.2964181  82.6725588  59.4347429
  46.6561379  78.1990067  57.6989866  47.4936601  78.6087075  57.4823574
  46.8339647  77.2589509  57.6690060  58.5525811  75.8665147  53.3873699
  58.0372435  76.6369752  53.6262087  58.2803120  75.1930284  54.0106761
  51.8446861  72.5906590  53.2428931  51.0084173  72.9281277  53.5638206
  51.7051631  72.4555570  52.3056068  54.9311147  77.7162673  49.8661408
  54.0238208  77.4851927  50.0652557  55.4282179  76.9200292  50.0535389
  57.8379225  86.4260180  52.7858094  57.1640924  86.7291877  53.3943052
  58.2245047  87.2289261  52.4363551  56.1099380  77.8175268  54.3885398
  55.2010599  77.5334301  54.4857867  56.1394464  78.2374347  53.5288705
  55.8075468  79.3584012  51.7273476  55.3694898  78.6419871  51.2679114
  56.5485909  79.5860127  51.1658568  49.1733776  75.0644816  56.0541552
  48.2431364  75.0029272  56.2711514  49.2691248  74.5420769  55.2578193
  56.0370441  86.5939853  55.0005173  56.2122196  86.1227896  55.8150796
  55.3503229  87.2205619  55.2286434  59.9286695  78.2168393  51.3205534
  59.3115866  77.4915222  51.2238587  59.4603184  78.9777754  50.9772608
  50.6031526  89.7429216  61.7745033  50.8428124  90.3747740  62.4524052
  49.7600722  89.3917256  62.0610392  51.7185241  72.4353818  50.4426838
  50.8414708  72.3142618  50.0789085  52.1942994  71.6439896  50.1905727
  43.2387381  77.2230977  60.5368345  43.9258421  76.9092707  59.9489361
  43.0835510  78.1272342  60.2635597  48.2237703  82.7325971  64.0881369
  48.8091140  81.9869658  64.2209273  48.0262541  83.0429927  64.9718033
  51.0776358  85.7677218  59.1043812  50.4086733  86.2523346  58.6207852
  50.9389228  86.0146438  60.0187190  42.8155358  75.3031571  62.8085812
  42.8539457  74.7695161  63.6022930  42.3095650  74.7766776  62.1896790
  46.4463935  74.0295673  55.8839744  46.7417376  73.1206351  55.8306797
  45.5451971  74.0083412  55.5620746  48.1751777  71.7109771  56.0079069
  47.8464483  70.8307149  55.8254175  48.5291147  71.6557439  56.8955458
  51.2893600  71.9982740  56.3754547  51.6289672  72.5268662  55.6533155
  51.7365720  72.3363146  57.1513113  53.2761747  70.4957362  54.5747839
  53.9970110  70.8738615  54.0711556  52.6527051  71.2146239  54.6782817
  47.4203775  75.8263465  67.9194734  46.6785511  75.9746100  68.5059365
  47.0996520  76.0871730  67.0561484  55.3868050  87.5217353  59.9480501
  54.9473040  87.0293731  60.6413358  56.1376167  86.9790320  59.7072576
  47.8660389  83.7128894  59.9505129  48.6918409  83.4132665  59.5703772
  47.5154441  82.9436516  60.3994918  46.0668994  81.6315220  60.9094063
  45.2300902  81.2037394  60.7278064  46.0392639  81.8247663  61.8464854
  50.1508062  77.6424463  56.5022332  49.9054104  76.7386793  56.7002542
  50.3203977  77.6441613  55.5601810  49.4203710  73.3752820  54.0008493
  48.7272955  73.4497175  53.3448529  49.1755461  72.6113164  54.5230010
  55.8950835  84.1107416  52.9673011  55.3224802  84.7297603  52.5143482
  56.4683628  84.6606777  53.5012932  56.2797633  75.4468228  50.3089063
  57.2256738  75.3174436  50.3777481  55.9011878  74.7082890  50.7858491
  54.4640550  73.3718205  50.2443948  53.5572006  73.0751317  50.3206662
  54.7416531  73.0748023  49.3778234  53.2339335  70.2305140  50.3855927
  54.0958499  70.5560038  50.6451745  53.4189679  69.4436636  49.8728993
  45.2506751  78.3127480  62.6636116  44.5570222  77.8981432  62.1506071
  45.9979742  78.3548016  62.0669535  49.8230871  80.3021888  64.6548746
  50.7774125  80.2705831  64.5878677  49.6243395  79.8412512  65.4698971
  48.1781100  85.8441508  61.6718943  48.0435568  85.0841909  61.1056941
  47.7613162  86.5682408  61.2047732  59.3140063  81.0278431  50.6795519
  60.0175913  81.2328434  51.2953174  58.5902712  81.5955193  50.9444602
  63.9542679  72.5678025  57.6247908  63.6979613  72.1674660  58.4556116
  63.3295547  73.2821818  57.4998048  45.6665167  73.2061138  67.9211740
  46.3124031  72.6960092  68.4098965  45.4582319  73.9429820  68.4955166
  54.1868778  67.4701183  53.6735636  54.1747448  68.4143023  53.8303907
  55.0792200  67.2871328  53.3795098  62.0242743  94.5453621  54.4609170
  62.7973619  93.9982608  54.3222046  62.3768142  95.4097870  54.6723632
  61.4425280 105.0721133  61.7745033  61.6821879 105.7039657  62.4524052
  60.5994477 104.7209173  62.0610392  62.5578996  87.7645735  50.4426838
  61.6808462  87.6434536  50.0789085  63.0336749  86.9731814  50.1905727
  57.2857690  89.3587591  55.8839744  57.5811131  88.4498269  55.8306797
  56.3845725  89.3375330  55.5620746  59.0145531  87.0401688  56.0079069
  58.6858237  86.1599067  55.8254175  59.3684902  86.9849357  56.8955458
  80.6904790 107.3122529  62.8249155  81.3283200 107.1929277  62.1212496
  80.5725633 108.2603373  62.8837108  77.4994496 107.2649958  62.7610680
  77.1613008 107.1491022  61.8731215  78.3684264 106.8641123  62.7411686
  73.3581312 109.1185434  58.7507571  72.7946177 109.0275371  57.9823859
  73.2433707 108.2985338  59.2310064  77.9814279 108.4184809  68.7196886
  77.9702920 108.0237608  67.8477389  78.1434919 107.6850882  69.3130657
  70.9045744 110.6136626  61.5891792  71.6967036 110.2727450  61.1738091
  71.1442394 110.7231601  62.5093945  78.9380871 112.7856402  54.0622036
  78.2868850 113.3710482  53.6756050  79.7325233 113.3162597  54.1217074
  72.8636498 109.8745539  54.4609170  73.6367374 109.3274526  54.3222046
  73.2161897 110.7389788  54.6723632  74.7021540 111.2021921  67.6676070
  74.4111406 112.1067552  67.5522736  75.3378525 111.2438449  68.3820139
  75.6277747 108.5798770  64.2577429  76.2241319 108.3554792  63.5434392
  75.6852719 107.8383515  64.8602877  75.2002775 106.0338205  52.0927620
  75.4528296 105.5119726  51.3311083  74.2627335 105.8704350  52.1954304
  80.2446058 105.0373983  59.9002364  81.0309148 104.6193406  59.5492781
  80.5084763 105.9420075  60.0684012  80.4156136 110.4746834  54.5991020
  79.7801969 110.5481460  55.3111925  80.0853542 111.0640432  53.9210100
  85.6454485 104.9749216  60.8035342  86.3779657 104.4048433  61.0373172
  84.8893841 104.5870817  61.2441848  74.9199064 107.9366311  54.2951995
  74.8035322 107.2611214  54.9633080  75.0301324 107.4498685  53.4784148
  77.2630605 107.3976458  57.9998685  76.8988812 106.8707079  58.7111606
  78.1197721 107.0074927  57.8265170  76.9036092 102.4266358  52.9960033
  77.0710494 103.2946594  53.3630504  76.7133261 102.5893639  52.0721322
  79.6611425 110.8883337  64.6625863  79.3612148 111.7908375  64.5541671
  79.3162485 110.6215520  65.5147016  73.1123907 107.3397133  60.6962568
  72.1874403 107.2073348  60.9040260  73.3608320 108.1191353  61.1932510
  76.8825313 104.8824015  53.9806700  76.7624938 105.3281066  54.8192180
  76.1877901 105.2309333  53.4220238  70.4732718 106.9830407  61.5306357
  70.6025099 107.2364886  62.4445769  69.7930169 107.5758115  61.2111012
  74.6432205 117.6527657  57.6296831  74.5656235 118.6035482  57.7085312
  74.0393849 117.3073529  58.2871757  82.5810379 105.3545488  54.8087034
  83.4928235 105.5872875  54.6334731  82.0720026 105.9382533  54.2462112
  75.3895807 107.6340976  69.8476165  76.1310492 108.1726020  69.5710989
  74.6832793 108.2607264  70.0047717  80.8651147 109.7770116  68.4448326
  81.2734503 109.3352527  67.7002959  80.1428408 109.2022744  68.6982519
  81.1879961 110.3371307  62.2000615  80.5588824 110.5017021  61.4976683
  80.8005624 110.7512916  62.9711579  85.0669193 111.2725745  59.5544979
  84.3820232 111.6524646  59.0042012  85.1513043 111.8821071  60.2876927
  82.3220125 108.9185704  66.1540323  82.5337020 109.5617464  65.4774704
  82.2749873 108.0848020  65.6862253  76.7407923 110.0745715  59.4650700
  77.2046269 110.3533418  58.6755323  76.4764721 109.1729159  59.2823791
  73.6332004 109.6217196  62.4030464  74.2033361 110.0504465  61.7647948
  74.2240116 109.3399781  63.1014649  75.6776809 106.1968867  56.2740266
  76.3800853 106.6489911  56.7414192  75.3457438 105.5552686  56.9020159
  83.4365953 111.7957659  64.3262680  84.2583397 111.3937846  64.0445362
  83.4328356 111.6925893  65.2778796  71.3716889 104.8196999  58.5340876
  70.5748052 104.9315693  59.0524372  71.1442481 105.1583651  57.6681766
  77.2022556 111.3441702  66.4823390  77.2666989 111.8062110  67.3181562
  76.4933480 110.7139067  66.6105700  91.5271946 108.1396408  60.6747651
  90.7735654 107.5703806  60.5191656  91.6619487 108.1059072  61.6218286
  76.9170574 113.0109810  56.3502371  76.7816249 113.8561346  56.7787219
  77.4580387 113.2129088  55.5868305  70.3699971 110.5285248  56.9230296
  70.8824492 111.3228498  57.0735861  71.0222684 109.8311538  56.8563897
  72.1794856 113.6451004  59.0053049  72.3561484 114.5668969  58.8174033
  72.9751690 113.3309423  59.4347429  78.5439050 113.6333376  70.4802713
  78.1002905 112.8469755  70.1623617  79.2056264 113.8212527  69.8146604
  73.3026172 115.1629178  65.0063391  73.8533597 115.0346241  64.2340385
  72.4637647 115.4624067  64.6558284  80.6420288 113.9136176  68.5084114
  80.6238764 114.7345057  68.0164383  81.5640209 113.7890252  68.7334255
  77.0993343 111.4280306  69.3507623  77.6321679 110.6668594  69.1206930
  76.5707424 111.1353958  70.0931777  68.3348888 108.8573902  57.6989866
  69.1724110 109.2670911  57.4823574  68.5127156 107.9173344  57.6690060
  80.2313320 106.5248983  53.3873699  79.7159944 107.2953587  53.6262087
  79.9590629 105.8514119  54.0106761  85.2047594 109.2781338  55.3226873
  84.4277037 108.9392497  54.8782035  85.8839075 109.2833961  54.6481838
  80.0199623 104.3976075  55.2133481  79.7149759 104.7122224  56.0643624
  80.9730066 104.4757495  55.2560814  78.4646055 110.5566298  56.8626435
  77.9367417 109.8219058  56.5499672  77.9633558 111.3340975  56.6166403
  83.4438901 108.7515319  61.9793481  82.7862576 109.4414580  62.0673609
  84.2479301 109.1411751  62.3227467  82.2544360 107.1059691  60.0297423
  82.7676242 107.7389683  60.5319132  82.9045584 106.5060887  59.6640783
  76.6098656 108.3746509  49.8661408  75.7025717 108.1435762  50.0652557
  77.1069687 107.5784128  50.0535389  79.5166734 117.0844016  52.7858094
  78.8428433 117.3875712  53.3943052  79.9032556 117.8873096  52.4363551
  79.5160239 105.9800563  57.4058443  80.2632058 106.4921960  57.0965565
  79.7851828 105.6584615  58.2662837  77.7886889 108.4759103  54.3885398
  76.8798108 108.1918136  54.4857867  77.8181973 108.8958182  53.5288705
  83.0206156 112.0865693  58.1576565  82.5668483 111.2456603  58.2141756
  82.3900123 112.7227091  58.4951345  81.4639096 113.9242190  59.0926383
  81.7562070 114.4847247  58.3738749  81.9737716 114.2170751  59.8479542
  68.3575059 106.1964618  58.3700600  68.1599459 105.6033978  57.6451666
  67.8021723 105.8916828  59.0876539  76.3371783 106.0887724  60.4895193
  76.3920393 105.1361560  60.4137670  75.5262985 106.2447163  60.9736491
  77.4862977 110.0167847  51.7273476  77.0482407 109.3003706  51.2679114
  78.2273418 110.2443962  51.1658568  74.2764143 104.7064784  58.2485572
  73.4632008 105.0058954  58.6550764  74.7723137 104.3120473  58.9660054
  76.4272721 114.7022541  60.1819837  76.3848900 114.9283387  59.2528369
  77.3435420 114.4685915  60.3305638  85.6036092 108.2925044  57.7849795
  85.4653990 108.4826640  56.8570984  85.2472310 109.0544427  58.2417846
  85.6305471 110.3601571  62.7961066  86.0641978 110.2676860  63.6444120
  86.3437052 110.3359072  62.1581082  74.5438522 111.5785570  59.9781799
  75.3379120 111.0835890  59.7764374  73.8330214 111.0503433  59.6149505
  79.3633366 113.9603665  64.3294167  79.4170388 114.5294602  65.0971883
  78.4948147 114.1305550  63.9648204  70.8521285 105.7228651  56.0541552
  69.9218873 105.6613107  56.2711514  70.9478757 105.2004604  55.2578193
  86.4921021 110.4025272  65.3293952  86.6856911 111.3071082  65.5753227
  86.3921639 109.9432691  66.1632537  81.5536129 110.5532015  70.9034832
  81.4021636 110.3242566  69.9864916  81.5440809 111.5102616  70.9166177
  78.3221466 108.1263927  65.8881099  79.2513526 108.2775087  65.7150066
  77.9012496 108.2147948  65.0329745  77.1209798 112.1514592  63.6579636
  76.9820883 111.7833376  64.5305574  76.3324394 112.6662231  63.4863594
  77.7157950 117.2523688  55.0005173  77.8909705 116.7811731  55.8150796
  77.0290738 117.8789454  55.2286434  78.6715013 111.5296194  61.0468474
  78.3364845 111.4896964  61.9426124  78.1718958 110.8640910  60.5738884
  72.6459257 106.9363824  66.5721055  72.5079055 106.2044063  67.1732594
  73.5564180 106.8472725  66.2905243  81.6074204 108.8752229  51.3205534
  80.9903375 108.1499057  51.2238587  81.1390693 109.6361589  50.9772608
  75.2741557 106.6483784  66.0604735  75.9841176 106.0076976  66.0191353
  75.2310866 106.8996679  66.9830916  83.2628336 113.5851137  68.9811314
  83.2040882 112.9010357  68.3141897  83.6647854 114.3270127  68.5291940
  72.2819035 120.4013051  61.7745033  72.5215633 121.0331575  62.4524052
  71.4388231 120.0501091  62.0610392  73.3972750 103.0937653  50.4426838
  72.5202217 102.9726454  50.0789085  73.8730503 102.3023731  50.1905727
  83.2645743 111.5490721  67.2125294  82.3772522 111.2116643  67.3351693
  83.8344294 110.8173752  67.4494059  64.9174890 107.8814813  60.5368345
  65.6045930 107.5676543  59.9489361  64.7623019 108.7856177  60.2635597
  76.7946897 116.2092173  64.1786537  76.7217068 117.0147145  64.6905842
  76.3524290 116.4084139  63.3534558  76.5836676 115.4463943  57.6889359
  75.8004198 115.9885624  57.7827583  77.2829421 115.9637923  58.0883600
  87.7463084 106.9598938  61.9741856  87.7352960 107.8423654  61.6035789
  86.8780463 106.6070489  61.7796393  79.2545580 116.1079007  66.3344696
  79.9673552 116.7426472  66.2620597  78.7635609 116.2042873  65.5184698
  80.9763107 110.0130260  57.9061987  80.0419386 110.1331723  57.7366692
  81.1539776 109.1102727  57.6421997  84.3635658 105.8547579  58.4412022
  84.8296111 106.6875571  58.3672324  84.8143159 105.3892561  59.1457280
  74.3057494 113.8573451  67.1550267  75.0066953 114.4909934  67.3079661
  73.8352609 114.1988182  66.3945906  82.4311890 112.1991401  55.4398174
  82.7071733 112.0847995  56.3492048  81.5616388 111.8008885  55.4010347
  82.1058780 106.4118058  64.9802817  81.4530230 106.6593966  64.3255270
  82.4839160 105.5982196  64.6465294  79.0665954 116.4477751  59.0830987
  79.2488348 115.6299407  59.5458740  79.8898940 116.6645444  58.6455877
  79.4008119 115.3745937  56.3446036  79.9295886 114.8638391  55.7316198
  79.6636339 115.0588467  57.2091569  78.1546353 107.1537869  71.4668854
  77.4786990 107.0531999  72.1371229  78.9773987 106.9977083  71.9304851
  69.9025212 113.3909806  64.0881369  70.4878649 112.6453494  64.2209273
  69.7050050 113.7013763  64.9718033  72.7563867 116.4261053  59.1043812
  72.0874242 116.9107181  58.6207852  72.6176737 116.6730274  60.0187190
  64.4942867 105.9615406  62.8085812  64.5326966 105.4278997  63.6022930
  63.9883159 105.4350612  62.1896790  76.8969136 118.4604797  65.7026470
  77.4487444 118.6236418  66.4675555  77.2375329 119.0509235  65.0306495
  81.7480010 113.2866054  71.5575124  82.2919914 113.8996013  71.0630079
  81.1666855 113.8445633  72.0742137  80.0337523 116.4086772  62.6890152
  79.9088662 115.6076512  62.1801098  80.6916614 116.9032966  62.2004122
  82.0972431 114.2095792  64.3169702  81.1502767 114.0901144  64.2448029
  82.4455204 113.3218290  64.3995964  79.1018865 114.0048509  60.5174054
  78.9543827 113.0765216  60.6981624  79.9272358 114.0268599  60.0331130
  82.7052986 114.8277067  61.6038927  83.6299534 114.6219929  61.4663378
  82.5368290 114.5793469  62.5128269  82.4948303 115.3462735  56.9601019
  82.6685180 114.7809157  56.2074871  82.9877194 116.1463630  56.7780509
  68.3125262 107.3577404  65.0264577  67.7678730 108.1337212  65.1584852
  69.1904612 107.7048208  64.8683699  88.3487694 108.1099158  58.5791318
  88.7918840 107.3606483  58.1810442  87.4714204 108.1009294  58.1965050
  83.4823475 114.6629499  54.0597917  84.1774380 115.2836192  54.2785232
  83.8246625 113.8124850  54.3350295  85.3814898 112.1129205  55.5885248
  85.9066222 112.4516478  54.8634568  85.2937251 111.1776220  55.4048382
  77.0434947 116.0263278  67.7175124  77.3522073 115.7812425  68.5897824
  77.8410429 116.2309917  67.2293995  77.0655559 118.1801188  59.9480501
  76.6260549 117.6877567  60.6413358  77.8163676 117.6374156  59.7072576
  69.5447898 114.3712729  59.9505129  70.3705918 114.0716501  59.5703772
  69.1941950 113.6020351  60.3994918  74.5129431 113.7239197  62.0202803
  73.8909440 113.0609902  61.7205030  75.1834298 113.7500329  61.3376450
  67.7456503 112.2899055  60.9094063  66.9088411 111.8621230  60.7278064
  67.7180148 112.4831499  61.8464854  85.0708804 112.7462108  70.8936446
  84.2804348 112.7286247  70.3540945  84.8342159 113.2850402  71.6485482
  85.1906679 109.5954575  68.2069174  85.2404684 109.4304582  69.1484697
  85.0820603 108.7281834  67.8167055  74.0742938 112.2743120  55.4961263
  74.2231058 112.9578585  54.8427936  74.8809381 112.2548211  56.0110719
  82.4810442 105.5785503  69.5228481  83.3820304 105.4391968  69.2312479
  82.5558416 105.7439958  70.4626658  86.6924876 112.0151516  68.4511196
  86.4009684 112.3781497  69.2874657  86.0797007 111.3018525  68.2724528
  87.8920558 109.5804396  60.9713766  88.7267450 110.0194200  61.1351326
  88.0279687 109.1043049  60.1522012  84.9412064 107.1384131  66.9191254
  85.4166186 107.3311777  66.1110105  84.0177630 107.1943317  66.6734637
  71.8295571 108.3008298  56.5022332  71.5841613 107.3970628  56.7002542
  71.9991486 108.3025449  55.5601810  77.5738344 114.7691251  52.9673011
  77.0012311 115.3881438  52.5143482  78.1471137 115.3190613  53.5012932
  80.7935603 115.0528401  54.0981593  81.7266277 114.9873963  54.3014468
  80.7058816 115.8884668  53.6396125  83.4223620 114.3694271  51.0585540
  83.3437252 114.0354135  51.9521298  84.2433287 114.8616039  51.0577013
  86.1201811 107.2356011  64.2661859  86.0878131 106.2972011  64.4521543
  86.7302435 107.3140047  63.5327684  77.9585142 106.1052064  50.3089063
  78.9044247 105.9758272  50.3777481  77.5799387 105.3666726  50.7858491
  86.2696300 104.0267054  64.3120142  85.7535348 103.2425511  64.1250071
  87.1536248 103.6985771  64.4766662  91.9378361 108.2972018  63.4067896
  92.6681750 108.0357306  63.9675599  91.3285307 107.5600739  63.4469964
  90.0193658 106.4379880  64.0042347  89.2926822 106.3035845  63.3958839
  89.6040945 106.7456709  64.8099065  77.8423835 110.1569810  71.7689720
  78.7626844 110.3348409  71.9629767  77.8073418 109.2125855  71.6169419
  76.1428059 104.0302040  50.2443948  75.2359515 103.7335153  50.3206662
  76.4204040 103.7331858  49.3778234  67.0606000 105.3508403  60.6942995
  66.7408784 104.4973712  60.4017369  66.5139428 105.5656982  61.4500962
  70.8385907 108.0670844  64.4112501  71.0571917 108.9987952  64.4300535
  71.2511681 107.7078819  65.1967305  66.9294260 108.9711315  62.6636116
  66.2357731 108.5565268  62.1506071  67.6767251 109.0131851  62.0669535
  83.0659480  99.7617502  57.5291150  82.4858149 100.4202306  57.1469203
  82.7995413  98.9394846  57.1178568  75.5745043 107.0701189  72.6180312
  75.0912124 107.8701549  72.8244201  75.6605982 107.0809134  71.6647756
  68.8431002 108.9029569  60.5402131  68.8201690 109.0017256  59.5884014
  69.1531639 109.7494720  60.8619297  71.5018380 110.9605724  64.6548746
  72.4561634 110.9289666  64.5878677  71.3030904 110.4996347  65.4698971
  72.0917762 109.5306840  67.2219543  72.9110651 110.0250918  67.2454380
  72.3654570 108.6138808  67.1937111  87.6371453 102.6591732  61.3575779
  88.2315944 102.4187468  60.6469087  87.7098037 101.9398863  61.9849315
  69.8568609 116.5025343  61.6718943  69.7223077 115.7425744  61.1056941
  69.4400671 117.2266243  61.2047732  80.9927572 111.6862267  50.6795519
  81.6963422 111.8912269  51.2953174  80.2690221 112.2539029  50.9444602
  81.8225382 107.4372128  56.7997789  81.7660583 107.8940679  55.9605421
  82.3753725 106.6762813  56.6220632  85.6330188 103.2261860  57.6247908
  85.3767122 102.8258496  58.4556116  85.0083056 103.9405654  57.4998048
  89.9442526 105.9657933  60.1319200  89.3842084 106.0351122  60.9050762
  89.3386029 105.7898918  59.4118696  73.0137735 117.3994660  61.8837386
  72.8970119 118.3440093  61.7816076  72.1930181 117.0968222  62.2723185
  82.9014269 112.1244796  52.7293979  83.7359873 111.6925994  52.5471454
  82.7398612 111.9526810  53.6570873  82.5560161 108.6276909  54.0950318
  82.5008965 108.4621181  53.1538762  81.9306217 109.3352942  54.2512508
  79.8706069 110.9325821  73.4203881  80.7397228 111.1066473  73.0590516
  79.3912820 111.7520238  73.2979610  74.0392249 118.0522922  65.0993314
  74.9419496 118.0846532  65.4159809  73.8129619 117.1223373  65.1139650
  75.7945851 116.8053909  61.7603393  74.8441482 116.8055770  61.6467765
  76.0978337 116.0586643  61.2439428  91.5298544 122.6414447  62.8249155
  92.1676954 122.5221194  62.1212496  91.4119387 123.5895291  62.8837108
  88.3388251 122.5941875  62.7610680  88.0006762 122.4782940  61.8731215
  89.2078019 122.1933040  62.7411686  84.1975066 124.4477352  58.7507571
  83.6339931 124.3567289  57.9823859  84.0827461 123.6277256  59.2310064
  88.8208034 123.7476727  68.7196886  88.8096674 123.3529525  67.8477389
  88.9828673 123.0142800  69.3130657  81.7439498 125.9428543  61.5891792
  82.5360790 125.6019368  61.1738091  81.9836148 126.0523518  62.5093945
  83.7030252 125.2037456  54.4609170  84.4761128 124.6566444  54.3222046
  84.0555651 126.0681706  54.6723632  85.5415295 126.5313839  67.6676070
  85.2505161 127.4359470  67.5522736  86.1772279 126.5730366  68.3820139
  86.4671502 123.9090687  64.2577429  87.0635074 123.6846710  63.5434392
  86.5246473 123.1675433  64.8602877  86.0396530 121.3630123  52.0927620
  86.2922051 120.8411644  51.3311083  85.1021089 121.1996268  52.1954304
  91.0839813 120.3665901  59.9002364  91.8702902 119.9485324  59.5492781
  91.3478517 121.2711993  60.0684012  91.2549890 125.8038751  54.5991020
  90.6195723 125.8773378  55.3111925  90.9247297 126.3932350  53.9210100
  96.4848240 120.3041134  60.8035342  97.2173412 119.7340351  61.0373172
  95.7287596 119.9162735  61.2441848  85.7592819 123.2658229  54.2951995
  85.6429077 122.5903132  54.9633080  85.8695079 122.7790602  53.4784148
  88.1024360 122.7268376  57.9998685  87.7382567 122.1998997  58.7111606
  88.9591476 122.3366845  57.8265170  94.0073660 114.0162708  65.2629951
  93.6756985 114.8858119  65.0391166  93.4119274 113.6998992  65.9423981
  87.7429847 117.7558275  52.9960033  87.9104249 118.6238512  53.3630504
  87.5527016 117.9185557  52.0721322  90.5005180 126.2175254  64.6625863
  90.2005903 127.1200293  64.5541671  90.1556239 125.9507437  65.5147016
  83.9517661 122.6689051  60.6962568  83.0268158 122.5365265  60.9040260
  84.2002074 123.4483270  61.1932510  93.9002324 118.7357794  62.3423301
  92.9919201 118.6673203  62.0482062  93.8489919 119.2129739  63.1705126
  87.7219067 120.2115933  53.9806700  87.6018693 120.6572984  54.8192180
  87.0271656 120.5601251  53.4220238  81.3126472 122.3122325  61.5306357
  81.4418853 122.5656804  62.4445769  80.6323924 122.9050033  61.2111012
  87.9743189 120.1547440  70.2858198  87.1976523 120.7141360  70.2761063
  88.6133752 120.6404223  70.8073068  95.7663970 116.9374233  64.1201175
  95.1238350 117.2306766  63.4740969  95.2618899 116.8227153  64.9254371
  93.4204134 120.6837406  54.8087034  94.3321990 120.9164793  54.6334731
  92.9113781 121.2674450  54.2462112  86.2289562 122.9632893  69.8476165
  86.9704246 123.5017937  69.5710989  85.5226547 123.5899182  70.0047717
  91.7044901 125.1062034  68.4448326  92.1128257 124.6644444  67.7002959
  90.9822163 124.5314661  68.6982519  88.0575971 120.0434641  65.8181883
  88.9037167 120.4674054  65.9616532  87.9974609 119.3868265  66.5120447
  92.0273716 125.6663224  62.2000615  91.3982578 125.8308939  61.4976683
  91.6399378 126.0804834  62.9711579  91.2075417 117.7039009  67.4763057
  90.9636349 118.4581069  66.9397333  91.4835347 118.0824357  68.3110304
  93.1613879 124.2477621  66.1540323  93.3730775 124.8909381  65.4774704
  93.1143628 123.4139938  65.6862253  90.7640108 116.8595442  63.0576895
  89.9024587 117.1576696  63.3493632  90.7902543 117.0765841  62.1257927
  87.5801678 125.4037633  59.4650700  88.0440023 125.6825336  58.6755323
  87.3158476 124.5021077  59.2823791  84.4725759 124.9509114  62.4030464
  85.0427116 125.3796382  61.7647948  85.0633871 124.6691699  63.1014649
  86.5170564 121.5260785  56.2740266  87.2194607 121.9781829  56.7414192
  86.1851192 120.8844604  56.9020159  84.9650925 120.1172542  70.6491475
  84.3349586 120.7988822  70.8826872  84.8587013 120.0055623  69.7044613
  80.2595898 119.7844338  61.5757399  79.4694952 120.0401866  61.0997510
  80.7507145 120.5992675  61.6809440  82.2110643 120.1488917  58.5340876
  81.4141807 120.2607611  59.0524372  81.9836235 120.4875569  57.6681766
  88.0416311 126.6733620  66.4823390  88.1060743 127.1354027  67.3181562
  87.3327235 126.0430985  66.6105700  78.5433601 120.0374828  64.0072390
  78.7941639 120.9221838  64.2729966  79.0793149 119.8579430  63.2347482
  87.7564329 128.3401728  56.3502371  87.6210003 129.1853263  56.7787219
  88.2974141 128.5421005  55.5868305  84.2431668 114.4193307  73.0116726
  83.8498614 113.8659506  73.6864370  85.0597808 114.7303886  73.4023244
  81.2093726 125.8577166  56.9230296  81.7218246 126.6520416  57.0735861
  81.8616439 125.1603456  56.8563897  83.0188611 128.9742922  59.0053049
  83.1955239 129.8960887  58.8174033  83.8145444 128.6601341  59.4347429
  87.1599629 115.8351186  70.6036983  87.9009343 116.4358340  70.5241445
  87.3917552 115.0928824  70.0455025  82.3040967 121.0207554  68.8815212
  82.1894482 120.1192811  69.1822311  81.4485485 121.2671251  68.5300029
  84.1419926 130.4921096  65.0063391  84.6927351 130.3638159  64.2340385
  83.3031402 130.7915985  64.6558284  87.9387097 126.7572223  69.3507623
  88.4715434 125.9960512  69.1206930  87.4101178 126.4645875  70.0931777
  91.1056792 111.8632289  64.8801264  90.7621061 112.7533931  64.8040375
  91.4735755 111.6733947  64.0170849  79.1742643 124.1865820  57.6989866
  80.0117865 124.5962828  57.4823574  79.3520910 123.2465262  57.6690060
  91.0707075 121.8540901  53.3873699  90.5553698 122.6245505  53.6262087
  90.7984383 121.1806037  54.0106761  88.6554186 116.6990601  58.4458938
  87.7995782 116.3097452  58.2664576  89.0681138 116.7782562  57.5858723
  90.1853332 114.2336945  62.8450498  89.6818128 114.1967080  62.0318303
  90.4783939 115.1429687  62.9047154  86.4296218 114.3175674  61.8516679
  87.2949215 114.1218483  61.4922569  86.4973727 114.0886026  62.7786036
  90.8593378 119.7267993  55.2133481  90.5543514 120.0414142  56.0643624
  91.8123820 119.8049413  55.2560814  89.3039810 125.8858216  56.8626435
  88.7761171 125.1510976  56.5499672  88.8027313 126.6632892  56.6166403
  84.0358537 116.5477882  59.2233046  84.6102289 116.3253064  58.4906239
  84.6229520 116.6166577  59.9761647  93.0938115 122.4351609  60.0297423
  93.6069996 123.0681601  60.5319132  93.7439339 121.8352805  59.6640783
  84.3628125 118.5782343  53.2428931  83.5265437 118.9157030  53.5638206
  84.2232894 118.4431323  52.3056068  86.3381205 113.4219131  57.9508115
  85.6845617 113.1068148  57.3264730  86.2961679 112.7994872  58.6767938
  87.4492410 123.7038426  49.8661408  86.5419472 123.4727680  50.0652557
  87.9463442 122.9076045  50.0535389  89.5718945 119.9101065  62.2755763
  88.6541507 120.1316012  62.1177451  89.9879089 119.9847375  61.4167470
  90.3553993 121.3092480  57.4058443  91.1025812 121.8213878  57.0965565
  90.6245583 120.9876533  58.2662837  88.6280643 123.8051021  54.3885398
  87.7191863 123.5210054  54.4857867  88.6575727 124.2250100  53.5288705
  92.8032830 118.3449597  59.3877233  92.0655587 117.8326983  59.7187475
  93.0559604 117.9049978  58.5760510  92.9044458 111.1225849  59.9819002
  93.2103335 110.2623212  59.6944917  93.6297063 111.7143469  59.7817996
  79.1968814 121.5256535  58.3700600  78.9993214 120.9325896  57.6451666
  78.6415478 121.2208745  59.0876539  87.1765537 121.4179642  60.4895193
  87.2314147 120.4653478  60.4137670  86.3656740 121.5739081  60.9736491
  88.3256731 125.3459765  51.7273476  87.8876161 124.6295624  51.2679114
  89.0667172 125.5735880  51.1658568  85.1157897 120.0356701  58.2485572
  84.3025763 120.3350872  58.6550764  85.6116892 119.6412390  58.9660054
  90.7132109 120.4998526  67.0800466  91.0681497 120.7269999  67.9394932
  91.3604240 120.8316903  66.4577721  84.6071972 117.6075057  63.8646807
  85.2471351 117.4663816  63.1669770  83.7749503 117.3209570  63.4885409
  85.3832276 126.9077487  59.9781799  86.1772875 126.4127808  59.7764374
  84.6723968 126.3795350  59.6149505  81.6915040 121.0520569  56.0541552
  80.7612628 120.9905025  56.2711514  81.7872512 120.5296522  55.2578193
  81.6100589 117.5775382  58.6419794  81.8707406 118.4920715  58.5328954
  82.4317761 117.1099824  58.7916406  83.0825514 118.9913139  65.8118618
  83.7548567 118.7830501  65.1631267  82.2555300 118.7935225  65.3723850
  88.9851086 115.6175080  67.8284279  88.3379001 116.3165030  67.7348755
  89.7552101 116.0511224  68.1960527  89.1615220 123.4555845  65.8881099
  90.0907280 123.6067005  65.7150066  88.7406250 123.5439866  65.0329745
  87.9603552 127.4806509  63.6579636  87.8214638 127.1125294  64.5305574
  87.1718148 127.9954149  63.4863594  89.5108767 126.8588112  61.0468474
  89.1758600 126.8188882  61.9426124  89.0112713 126.1932828  60.5738884
  83.4853011 122.2655742  66.5721055  83.3472809 121.5335981  67.1732594
  84.3957935 122.1764642  66.2905243  92.4467959 124.2044146  51.3205534
  91.8297129 123.4790975  51.2238587  91.9784447 124.9653507  50.9772608
  86.1135312 121.9775701  66.0604735  86.8234930 121.3368894  66.0191353
  86.0704620 122.2288596  66.9830916  84.8264246 118.9640919  67.8800374
  84.2901603 118.5131658  68.5321971  84.2380954 119.0986828  67.1370839
  84.2366505 118.4229571  50.4426838  83.3595971 118.3018371  50.0789085
  84.7124258 117.6315649  50.1905727  75.7568645 123.2106730  60.5368345
  76.4439685 122.8968460  59.9489361  75.6016774 124.1148095  60.2635597
  80.5603367 118.0996927  64.9653369  80.4761556 117.4922597  64.2303779
  79.7386073 118.5905945  64.9662865  90.7327081 116.5850491  60.3323564
  91.2295780 115.8320453  60.0124634  89.9614062 116.6214807  59.7666773
  91.8156862 125.3422178  57.9061987  90.8813140 125.4623640  57.7366692
  91.9933530 124.4394645  57.6421997  87.3162050 118.7267874  60.0595249
  86.9459837 118.1738914  60.7476154  87.8121142 118.1226007  59.5070249
  95.2029413 121.1839497  58.4412022  95.6689865 122.0167489  58.3672324
  95.6536913 120.7184479  59.1457280  85.1451248 129.1865369  67.1550267
  85.8460708 129.8201851  67.3079661  84.6746363 129.5280100  66.3945906
  93.1746076 113.5520084  62.4802923  92.2609155 113.7824311  62.6485130
  93.6039177 113.6358528  63.3316955  92.9452534 121.7409976  64.9802817
  92.2923984 121.9885883  64.3255270  93.3232914 120.9274114  64.6465294
  88.9940107 122.4829787  71.4668854  88.3180744 122.3823916  72.1371229
  89.8167741 122.3269001  71.9304851  80.7418966 128.7201724  64.0881369
  81.3272403 127.9745411  64.2209273  80.5443805 129.0305680  64.9718033
  83.5957622 131.7552971  59.1043812  82.9267997 132.2399099  58.6207852
  83.4570491 132.0022191  60.0187190  75.3336621 121.2907324  62.8085812
  75.3720721 120.7570914  63.6022930  74.8276914 120.7642529  62.1896790
  82.7127383 116.1371864  66.3048355  82.7768710 116.9986695  65.8925752
  82.6494504 115.5245866  65.5720713  82.1879656 118.2094997  69.9521389
  82.8151695 117.8272074  70.5658913  81.3307575 117.9909199  70.3177081
  78.9645199 120.0171426  55.8839744  79.2598640 119.1082104  55.8306797
  78.0633234 119.9959165  55.5620746  82.4939446 118.0927423  61.8667292
  81.7726031 118.7063390  61.7274766  83.2832701 118.6285187  61.7883938
  85.2965759 115.4281849  68.1407944  85.8200161 115.6744146  68.9034253
  85.0778092 116.2601884  67.7211081  80.6933040 117.6985524  56.0079069
  80.3645746 116.8182903  55.8254175  81.0472411 117.6433192  56.8955458
  83.8074863 117.9858493  56.3754547  84.1470936 118.5144415  55.6533155
  84.2546984 118.3238900  57.1513113  86.5018304 116.3695544  65.8257615
  86.1615125 115.5703357  66.2278295  85.7957310 116.6697255  65.2534448
  87.1534776 113.4544857  64.2784938  87.9760845 112.9805335  64.1563828
  87.3972840 114.2335340  64.7783624  85.7943010 116.4833115  54.5747839
  86.5151373 116.8614368  54.0711556  85.1708315 117.2021992  54.6782817
  89.9374133 117.1878264  55.5106172  90.1537748 118.0702902  55.2095000
  89.4568201 116.7964477  54.7811814  84.6773355 120.1463977  62.0876916
  84.5317935 120.4604280  62.9801198  84.1998558 120.7648878  61.5347815
  86.5369738 117.1366525  62.1357806  86.5231306 116.2407618  61.7990104
  87.2542166 117.1437189  62.7696092  88.3895868 117.5703865  64.1810933
  88.1313646 118.4920936  64.1795264  87.8580909 117.1734300  64.8711397
  79.1519017 122.6869322  65.0264577  78.6072485 123.4629130  65.1584852
  80.0298367 123.0340126  64.8683699  85.9406634 116.0180905  57.4045376
  86.0622545 115.0897552  57.6036263  85.6508676 116.0319591  56.4923691
  88.8097824 113.7035816  60.5412096  88.8319521 113.7675149  59.5864075
  89.2265883 112.8640325  60.7352602  79.9385039 121.8139218  67.9194734
  79.1966775 121.9621853  68.5059365  79.6177783 122.0747483  67.0561484
  80.3841652 129.7004647  59.9505129  81.2099672 129.4008418  59.5703772
  80.0335704 128.9312269  60.3994918  85.3523186 129.0531115  62.0202803
  84.7303195 128.3901820  61.7205030  86.0228053 129.0792247  61.3376450
  78.5850258 127.6190973  60.9094063  77.7482166 127.1913147  60.7278064
  78.5573903 127.8123416  61.8464854  85.4247713 117.5312903  71.6135309
  85.4735869 118.4075026  71.2313078  85.9670227 116.9890296  71.0406952
  84.9136693 127.6035038  55.4961263  85.0624813 128.2870503  54.8427936
  85.7203136 127.5840128  56.0110719  93.3204196 120.9077420  69.5228481
  94.2214059 120.7683885  69.2312479  93.3952171 121.0731875  70.4626658
  87.6547002 118.2844275  68.3681667  86.7850311 118.5777841  68.0964256
  87.8906482 118.8684720  69.0888931  95.7805819 122.4676049  66.9191254
  96.2559941 122.6603695  66.1110105  94.8571384 122.5235234  66.6734637
  82.6689326 123.6300216  56.5022332  82.4235367 122.7262546  56.7002542
  82.8385240 123.6317366  55.5601810  90.3586035 114.5023892  65.8847088
  90.8767979 115.2384919  65.5593576  90.0041168 114.8087885  66.7193847
  81.9384973 119.3628573  54.0008493  81.2454218 119.4372928  53.3448529
  81.6936725 118.5988917  54.5230010  90.6098630 110.9224175  61.4047984
  90.8900383 110.2547364  62.0308411  91.3949236 111.1153270  60.8922648
  94.4807488 119.3441809  65.1519559  95.4324911 119.4439906  65.1731783
  94.3110938 118.5520077  65.6617644  92.5021867 116.4297392  65.3378960
  91.9071799 116.7102405  64.6425449  92.2171564 116.9191293  66.1095701
  88.7978897 121.4343981  50.3089063  89.7438001 121.3050189  50.3777481
  88.4193142 120.6958643  50.7858491  97.1090054 119.3558972  64.3120142
  96.5929103 118.5717428  64.1250071  97.9930003 119.0277688  64.4766662
  94.7700781 113.0999987  60.2715955  94.5725602 112.7915076  61.1559287
  95.3800487 113.8261626  60.4013885  88.6817589 125.4861727  71.7689720
  89.6020599 125.6640326  71.9629767  88.6467172 124.5417773  71.6169419
  86.9821814 119.3593958  50.2443948  86.0753269 119.0627070  50.3206662
  87.2597795 119.0623776  49.3778234  77.8999754 120.6800321  60.6942995
  77.5802538 119.8265629  60.4017369  77.3533182 120.8948899  61.4500962
  81.6779662 123.3962762  64.4112501  81.8965671 124.3279870  64.4300535
  82.0905435 123.0370737  65.1967305  88.5983879 113.9030847  56.3988190
  87.7884608 113.5577932  56.7743436  89.2868296 113.5938391  56.9875801
  90.5274428 112.9808894  58.0212486  91.0805466 113.4004348  58.6802509
  90.7644514 112.0544642  58.0635442  86.5507527 118.9695968  73.8015250
  86.4504254 119.9190325  73.7327341  86.3329069 118.6414207  72.9291320
  85.7520598 116.2180893  50.3855927  86.6139762 116.5435791  50.6451745
  85.9370942 115.4312389  49.8728993  77.7688014 124.3003233  62.6636116
  77.0751486 123.8857185  62.1506071  78.5161005 124.3423769  62.0669535
  93.9053235 115.0909419  57.5291150  93.3251904 115.7494223  57.1469203
  93.6389167 114.2686764  57.1178568  92.3556801 114.4914477  59.7312471
  92.8556580 114.6031012  58.9226790  92.9992409 114.1875530  60.3713279
  86.4138797 122.3993107  72.6180312  85.9305879 123.1993467  72.8244201
  86.4999736 122.4101052  71.6647756  79.6824757 124.2321486  60.5402131
  79.6595445 124.3309174  59.5884014  79.9925393 125.0786637  60.8619297
  82.3412134 126.2897641  64.6548746  83.2955388 126.2581584  64.5878677
  82.1424658 125.8288265  65.4698971  82.9311517 124.8598757  67.2219543
  83.7504406 125.3542836  67.2454380  83.2048324 123.9430726  67.1937111
  92.6878113 117.2509510  56.5847499  91.8003968 117.5359160  56.3667693
  93.1032102 117.0903273  55.7374776  96.0392649 117.2756031  60.3001838
  96.8153039 117.7652483  60.5726455  95.3140783 117.7014085  60.7573707
  98.4765208 117.9883650  61.3575779  99.0709698 117.7479386  60.6469087
  98.5491791 117.2690781  61.9849315  80.6962363 131.8317261  61.6718943
  80.5616831 131.0717662  61.1056941  80.2794426 132.5558161  61.2047732
  92.6619137 122.7664046  56.7997789  92.6054338 123.2232597  55.9605421
  93.2147479 122.0054730  56.6220632  96.4723942 118.5553778  57.6247908
  96.2160877 118.1550413  58.4556116  95.8476811 119.2697572  57.4998048
  93.3953916 123.9568827  54.0950318  93.3402720 123.7913098  53.1538762
  92.7699971 124.6644860  54.2512508  78.1846431 119.1936891  67.9211740
  78.8305294 118.6835845  68.4098965  77.9763582 119.9305573  68.4955166
  86.7050041 113.4576936  53.6735636  86.6928711 114.4018776  53.8303907
  87.5973463 113.2747081  53.3795098  90.5202161 110.0519713  57.9281573
  89.7534557 109.4978199  58.0738256  90.9312866 110.1241581  58.7895725
  82.5243922 116.3404508  72.0186754  83.3875383 115.9841313  72.2290079
  81.9509333 116.0018403  72.7062159  26.4936019   7.6725064  49.5494462
  27.1314429   7.5531811  48.8457802  26.3756862   8.6205908  49.6082414
  23.3025725   7.6252492  49.4855987  22.9644236   7.5093556  48.5976522
  24.1715493   7.2243657  49.4656993  19.1612541   9.4787968  45.4752878
  18.5977406   9.3877905  44.7069166  19.0464936   8.6587873  45.9555370
  23.7845508   8.7787343  55.4442192  23.7734149   8.3840142  54.5722696
  23.9466147   8.0453416  56.0375964  16.7076973  10.9739160  48.3137098
  17.4998264  10.6329984  47.8983398  16.9473623  11.0834135  49.2339252
  24.7412099  13.1458936  40.7867343  24.0900079  13.7313016  40.4001356
  25.5356462  13.6765131  40.8462380  18.6667726  10.2348073  41.1854477
  19.4398602   9.6877060  41.0467353  19.0193125  11.0992322  41.3968938
  20.5052769  11.5624455  54.3921376  20.2142635  12.4670086  54.2768043
  21.1409753  11.6040983  55.1065446  21.4308976   8.9401304  50.9822736
  22.0272548   8.7157326  50.2679699  21.4883947   8.1986049  51.5848184
  21.0034004   6.3940739  38.8172927  21.2559525   5.8722260  38.0556390
  20.0658563   6.2306885  38.9199611  26.0477287   5.3976517  46.6247670
  26.8340376   4.9795941  46.2738087  26.3115991   6.3022610  46.7929319
  26.2187364  10.8349368  41.3236327  25.5833197  10.9083994  42.0357232
  25.8884771  11.4242967  40.6455406  31.4485714   5.3351751  47.5280649
  32.1810886   4.7650967  47.7618478  30.6925070   4.9473351  47.9687154
  20.7230293   8.2968845  41.0197302  20.6066551   7.6213748  41.6878386
  20.8332553   7.8101219  40.2029455  23.0661834   7.7578992  44.7243991
  22.7020041   7.2309613  45.4356913  23.9228950   7.3677461  44.5510477
  28.9711135  -0.9526675  51.9875257  28.6394459  -0.0831264  51.7636472
  28.3756748  -1.2690391  52.6669288  22.7067321   2.7868892  39.7205340
  22.8741723   3.6549128  40.0875811  22.5164490   2.9496174  38.7966629
  25.4642654  11.2485871  51.3871170  25.1643377  12.1510910  51.2786977
  25.1193714  10.9818054  52.2392323  18.9155136   7.6999668  47.4207874
  17.9905632   7.5675882  47.6285566  19.1639549   8.4793887  47.9177817
  28.8639798   3.7668411  49.0668607  27.9556675   3.6983819  48.7727368
  28.8127394   4.2440356  49.8950433  22.6856542   5.2426549  40.7052006
  22.5656167   5.6883600  41.5437487  21.9909130   5.5911867  40.1465545
  16.2763947   7.3432941  48.2551664  16.4056328   7.5967420  49.1691075
  15.5961398   7.9360649  47.9356319  20.4463434  18.0130191  44.3542138
  20.3687464  18.9638016  44.4330618  19.8425078  17.6676064  45.0117064
  22.9380664   5.1858057  57.0103505  22.1613998   5.7451977  57.0006369
  23.5771227   5.6714840  57.5318375  30.7301444   1.9684849  50.8446481
  30.0875825   2.2617383  50.1986276  30.2256373   1.8537770  51.6499678
  28.3841608   5.7148023  41.5332341  29.2959464   5.9475409  41.3580038
  27.8751255   6.2985067  40.9707419  21.1927036   7.9943510  56.5721472
  21.9341720   8.5328554  56.2956295  20.4864021   8.6209799  56.7293023
  26.6682376  10.1372650  55.1693633  27.0765732   9.6955061  54.4248265
  25.9459637   9.5625278  55.4227826  23.0213446   5.0745257  52.5427190
  23.8674641   5.4984671  52.6861839  22.9612083   4.4178881  53.2365753
  26.9911190  10.6973841  48.9245922  26.3620053  10.8619555  48.2221990
  26.6036852  11.1115451  49.6956886  30.8700422  11.6328279  46.2790286
  30.1851460  12.0127180  45.7287319  30.9544271  12.2423606  47.0122234
  26.1712891   2.7349626  54.2008364  25.9273823   3.4891686  53.6642639
  26.4472822   3.1134973  55.0355611  28.1251354   9.2788238  52.8785629
  28.3368249   9.9219998  52.2020010  28.0781102   8.4450554  52.4107559
  25.7277583   1.8906059  49.7822201  24.8662062   2.1887312  50.0738939
  25.7540017   2.1076457  48.8503234  22.5439152  10.4348249  46.1896007
  23.0077498  10.7135952  45.4000630  22.2795950   9.5331694  46.0069098
  19.4363233   9.9819731  49.1275770  20.0064590  10.4106999  48.4893255
  20.0271345   9.7002315  49.8259956  21.4808038   6.5571401  42.9985572
  22.1832082   7.0092445  43.4659499  21.1488667   5.9155220  43.6265465
  19.9288400   5.1483158  57.3736782  19.2987060   5.8299439  57.6072178
  19.8224488   5.0366240  56.4289920  29.2397182  12.1560193  51.0507987
  30.0614625  11.7540381  50.7690668  29.2359585  12.0528427  52.0024102
  23.0053785  11.7044237  53.2068697  23.0698218  12.1664644  54.0426869
  22.2964709  11.0741602  53.3351007  37.3303175   8.4998942  47.3992958
  36.5766883   7.9306340  47.2436963  37.4650716   8.4661606  48.3463593
  22.7201803  13.3712344  43.0747677  22.5847478  14.2163880  43.5032525
  23.2611615  13.5731622  42.3113611  16.1731200  10.8887782  43.6475603
  16.6855721  11.6831032  43.7981167  16.8253913  10.1914073  43.5809204
  17.9826085  14.0053538  45.7298356  18.1592713  14.9271503  45.5419340
  18.7782918  13.6911958  46.1592735  24.3470279  13.9935911  57.2048020
  23.9034133  13.2072289  56.8868924  25.0087493  14.1815061  56.5391910
  19.1057400  15.5231712  51.7308698  19.6564826  15.3948776  50.9585692
  18.2668876  15.8226601  51.3803591  26.4451517  14.2738711  55.2329421
  26.4269993  15.0947592  54.7409690  27.3671437  14.1492786  55.4579562
  22.9024571  11.7882840  56.0752929  23.4352908  11.0271128  55.8452237
  22.3738653  11.4956492  56.8177084  26.0344549   6.8851517  40.1119006
  25.5191173   7.6556122  40.3507393  25.7621858   6.2116653  40.7352067
  31.0078823   9.6383872  42.0472179  30.2308266   9.2995031  41.6027342
  31.6870304   9.6436495  41.3727145  25.8230852   4.7578609  41.9378787
  25.5180988   5.0724758  42.7888930  26.7761294   4.8360029  41.9806120
  24.2677284  10.9168832  43.5871741  23.7398646  10.1821592  43.2744979
  23.7664787  11.6943509  43.3411710  29.2470130   9.1117853  48.7038787
  28.5893805   9.8017114  48.7918916  30.0510529   9.5014285  49.0472774
  28.0575589   7.4662226  46.7542729  28.5707471   8.0992217  47.2564439
  28.7076813   6.8663421  46.3886089  22.4129884   8.7349043  36.5906714
  21.5056946   8.5038296  36.7897863  22.9100916   7.9386662  36.7780696
  25.3197963  17.4446550  39.5103400  24.6459662  17.7478247  40.1188358
  25.7063785  18.2475630  39.1608857  24.5356420   4.9411681  49.0001070
  23.6178981   5.1626628  48.8422758  24.9516563   5.0157992  48.1412777
  25.3191468   6.3403097  44.1303750  26.0663287   6.8524494  43.8210872
  25.5883057   6.0187150  44.9908144  23.5918118   8.8361638  41.1130704
  22.6829337   8.5520670  41.2103174  23.6213202   9.2560716  40.2534011
  28.8237385  12.4468227  44.8821872  28.3699712  11.6059137  44.9387062
  28.1931352  13.0829625  45.2196652  27.7670305   3.3760213  46.1122539
  27.0293062   2.8637599  46.4432782  28.0197078   2.9360595  45.3005816
  27.2670324  14.2844724  45.8171690  27.5593299  14.8449781  45.0984056
  27.7768945  14.5773285  46.5724849  22.1403012   6.4490258  47.2140500
  22.1951622   5.4964095  47.1382976  21.3294214   6.6049697  47.6981798
  23.2894206  10.3770381  38.4518783  22.8513635   9.6606240  37.9924420
  24.0304646  10.6046496  37.8903874  20.0795372   5.0667318  44.9730879
  19.2663237   5.3661489  45.3796071  20.5754366   4.6723007  45.6905361
  22.2303950  15.0625075  46.9065143  22.1880128  15.2885921  45.9773675
  23.1466648  14.8288449  47.0550944  25.6769583   5.5309142  53.8045772
  26.0318971   5.7580616  54.6640238  26.3241715   5.8627519  53.1823028
  31.4067320   8.6527578  44.5095101  31.2685219   8.8429174  43.5816291
  31.0503539   9.4146961  44.9663153  31.4336700  10.7204105  49.5206373
  31.8673207  10.6279394  50.3689427  32.1468281  10.6961606  48.8826389
  20.3469750  11.9388104  46.7027106  21.1410349  11.4438424  46.5009681
  19.6361443  11.4105967  46.3394811  25.1664595  14.3206199  51.0539474
  25.2201617  14.8897136  51.8217189  24.2979376  14.4908084  50.6893511
  32.2952250  10.7627806  52.0539258  32.4888140  11.6673616  52.2998533
  32.1952868  10.3035225  52.8877843  27.3567358  10.9134549  57.6280139
  27.2052865  10.6845100  56.7110223  27.3472038  11.8705150  57.6411484
  24.1252695   8.4866461  52.6126405  25.0544755   8.6377621  52.4395373
  23.7043725   8.5750482  51.7575052  22.9241026  12.5117126  50.3824943
  22.7852112  12.1435910  51.2550881  22.1355623  13.0264765  50.2108901
  23.5189178  17.6126222  41.7250480  23.6940934  17.1414266  42.5396102
  22.8321966  18.2391989  41.9531740  24.4746242  11.8898729  47.7713781
  24.1396074  11.8499499  48.6671431  23.9750187  11.2243445  47.2984191
  18.4490485   7.2966359  53.2966362  18.3110283   6.5646597  53.8977901
  19.3595409   7.2075259  53.0150550  27.4105433   9.2354763  38.0450840
  26.7934604   8.5101591  37.9483893  26.9421922   9.9964123  37.7017915
  21.0772786   7.0086318  52.7850042  21.7872405   6.3679510  52.7436660
  21.0342094   7.2599213  53.7076222  29.0659565  13.9453671  55.7056621
  29.0072111  13.2612891  55.0387204  29.4679083  14.6872661  55.2537247
  18.0850264  20.7615585  48.4990340  18.3246862  21.3934109  49.1769358
  17.2419460  20.4103625  48.7855699  29.0676972  11.9093255  53.9370600
  28.1803751  11.5719177  54.0596999  29.6375523  11.1776286  54.1739366
  22.5978126  16.5694708  50.9031844  22.5248297  17.3749679  51.4151148
  22.1555519  16.7686673  50.0779865  22.3867905  15.8066478  44.4134665
  21.6035427  16.3488158  44.5072890  23.0860650  16.3240457  44.8128906
  25.6964555   1.6161107  47.0568871  26.1933255   0.8631069  46.7369941
  24.9251537   1.6525424  46.4912080  33.5494313   7.3201473  48.6987162
  33.5384189   8.2026188  48.3281095  32.6811692   6.9673023  48.5041699
  25.0576809  16.4681542  53.0590002  25.7704781  17.1029006  52.9865904
  24.5666838  16.5645408  52.2430004  26.7794336  10.3732794  44.6307294
  25.8450615  10.4934257  44.4611998  26.9571004   9.4705261  44.3667304
  22.2799524   3.7578490  46.7840555  21.9097312   3.2049530  47.4721461
  22.7758616   3.1536624  46.2315555  30.1666887   6.2150114  45.1657328
  30.6327339   7.0478105  45.0917631  30.6174388   5.7495095  45.8702587
  20.1088723  14.2175985  53.8795573  20.8098182  14.8512468  54.0324967
  19.6383838  14.5590717  53.1191212  28.2343118  12.5593935  42.1643480
  28.5102962  12.4450529  43.0737354  27.3647617  12.1611420  42.1255653
  27.9090009   6.7720593  51.7048124  27.2561459   7.0196500  51.0500576
  28.2870388   5.9584731  51.3710601  24.8697182  16.8080286  45.8076294
  25.0519577  15.9901942  46.2704046  25.6930168  17.0247978  45.3701184
  25.2039348  15.7348471  43.0691342  25.7327114  15.2240925  42.4561504
  25.4667567  15.4191001  43.9336875  23.9577582   7.5140404  58.1914161
  23.2818219   7.4134533  58.8616536  24.7805215   7.3579617  58.6550158
  15.7056441  13.7512340  50.8126676  16.2909877  13.0056028  50.9454580
  15.5081279  14.0616297  51.6963340  18.5595096  16.7863587  45.8289118
  17.8905471  17.2709715  45.3453158  18.4207966  17.0332808  46.7432497
  22.7000364  18.8207331  52.4271777  23.2518672  18.9838953  53.1920862
  23.0406558  19.4111769  51.7551801  27.5511239  13.6468589  58.2820431
  28.0951143  14.2598547  57.7875386  26.9698084  14.2048167  58.7987444
  25.8368752  16.7689307  49.4135459  25.7119891  15.9679046  48.9046404
  26.4947843  17.2635500  48.9249429  27.9003660  14.5698327  51.0415009
  26.9533996  14.4503678  50.9693336  28.2486433  13.6820825  51.1241270
  24.9050093  14.3651043  47.2419361  24.7575056  13.4367750  47.4226931
  25.7303587  14.3871134  46.7576436  28.5084215  15.1879602  48.3284234
  29.4330763  14.9822463  48.1908685  28.3399519  14.9396003  49.2373575
  24.9011608   2.2188880  42.2351478  25.1175222   3.1013518  41.9340306
  24.4205675   1.8275094  41.5057120  19.6410829   5.1774594  48.8122223
  19.4955410   5.4914897  49.7046504  19.1636033   5.7959494  48.2593122
  28.2979531  15.7065269  43.6846325  28.4716409  15.1411692  42.9320178
  28.7908423  16.5066164  43.5025815  34.1518923   8.4701692  45.3036625
  34.5950069   7.7209017  44.9055748  33.2745433   8.4611828  44.9210357
  29.2854704  15.0232033  40.7843224  29.9805609  15.6438726  41.0030538
  29.6277854  14.1727385  41.0595601  31.1846127  12.4731739  42.3130554
  31.7097451  12.8119012  41.5879874  31.0968480  11.5378754  42.1293689
  22.8466176  16.3865813  54.4420431  23.1553302  16.1414959  55.3143131
  23.6441658  16.5912451  53.9539301  22.8686788  18.5403722  46.6725808
  22.4291778  18.0480101  47.3658664  23.6194905  17.9976690  46.4317883
  15.3479127  14.7315263  46.6750436  16.1737147  14.4319035  46.2949079
  14.9973179  13.9622886  47.1240224  20.3160660  14.0841731  48.7448109
  19.6940669  13.4212436  48.4450337  20.9865527  14.1102863  48.0621757
  13.5487732  12.6501590  47.6339369  12.7119640  12.2223764  47.4523370
  13.5211377  12.8434033  48.5710160  30.8740033  13.1064643  57.6181752
  30.0835577  13.0888781  57.0786252  30.6373388  13.6452936  58.3730789
  30.9937908   9.9557109  54.9314481  31.0435913   9.7907116  55.8730004
  30.8851832   9.0884368  54.5412362  19.8774167  12.6345655  42.2206570
  20.0262287  13.3181119  41.5673242  20.6840610  12.6150745  42.7356025
  28.2841671   5.9388037  56.2473788  29.1851533   5.7994502  55.9557785
  28.3589645   6.1042492  57.1871965  22.6184476   3.3154892  55.0926974
  21.7487785   3.6088458  54.8209562  22.8543956   3.8995337  55.8134237
  32.4956105  12.3754050  55.1756502  32.2040913  12.7384031  56.0119963
  31.8828236  11.6621059  54.9969834  33.6951787   9.9406930  47.6959073
  34.5298679  10.3796734  47.8596633  33.8310916   9.4645583  46.8767318
  30.7443293   7.4986665  53.6436560  31.2197415   7.6914311  52.8355412
  29.8208859   7.5545851  53.3979944  17.6326800   8.6610832  43.2267639
  17.3872842   7.7573162  43.4247849  17.8022714   8.6627983  42.2847117
  23.3769572  15.1293785  39.6918317  22.8043539  15.7483972  39.2388789
  23.9502366  15.6793147  40.2258239  29.4444962   4.3752425  51.8764866
  30.3962385   4.4750523  51.8977090  29.2748413   3.5830694  52.3862950
  27.4659342   1.4608008  52.0624267  26.8709274   1.7413021  51.3670756
  27.1809038   1.9501909  52.8341008  26.5966832  15.4130935  40.8226899
  27.5297505  15.3476497  41.0259775  26.5090045  16.2487202  40.3641432
  29.2254849  14.7296806  37.7830847  29.1468480  14.3956669  38.6766605
  30.0464516  15.2218573  37.7822319  31.9233040   7.5958545  50.9907166
  31.8909360   6.6574546  51.1766849  32.5333664   7.6742582  50.2572990
  23.7616371   6.4654598  37.0334370  24.7075476   6.3360806  37.1022788
  23.3830616   5.7269260  37.5103798  32.0727529   4.3869588  51.0365449
  31.5566577   3.6028045  50.8495378  32.9567477   4.0588305  51.2011968
  29.7338255  -1.8689396  46.9961261  29.5363077  -2.1774308  47.8804593
  30.3437961  -1.1427757  47.1259191  37.7409590   8.6574552  50.1313202
  38.4712978   8.3959840  50.6920906  37.1316535   7.9203274  50.1715270
  35.8224887   6.7982414  50.7287654  35.0958051   6.6638379  50.1204145
  35.4072174   7.1059243  51.5344372  23.6455063  10.5172344  58.4935027
  24.5658073  10.6950943  58.6875073  23.6104646   9.5728389  58.3414726
  21.9459288   4.3904574  36.9689255  21.0390743   4.0937687  37.0451968
  22.2235269   4.0934392  36.1023541  16.6417136   8.4273379  51.1357808
  16.8603146   9.3590486  51.1545842  17.0542910   8.0681353  51.9212612
  21.5145001   4.0006584  60.5260557  21.4141728   4.9500941  60.4572648
  21.2966543   3.6724823  59.6536627  28.8690709   0.1220036  44.2536457
  28.2889378   0.7804840  43.8714509  28.6026642  -0.7002619  43.8423875
  27.3194275  -0.4774906  46.4557777  27.8194054  -0.3658372  45.6472096
  27.9629883  -0.7813854  47.0958586  21.3776271   7.4303723  59.3425618
  20.8943353   8.2304083  59.5489507  21.4637210   7.4411668  58.3893062
  14.6462231   9.2632103  47.2647438  14.6232919   9.3619790  46.3129321
  14.9562867  10.1097254  47.5864604  17.3049609  11.3208258  51.3794052
  18.2592862  11.2892200  51.3123984  17.1062132  10.8598882  52.1944278
  17.8948991   9.8909374  53.9464850  18.7141880  10.3853453  53.9699687
  18.1685799   8.9741342  53.9182417  27.6515587   2.2820126  43.3092805
  26.7641442   2.5669777  43.0913000  28.0669576   2.1213890  42.4620082
  31.0030123   2.3066647  47.0247145  31.7790513   2.7963100  47.2971761
  30.2778257   2.7324701  47.4819014  33.4402682   3.0194267  48.0821085
  34.0347173   2.7790002  47.3714393  33.5129266   2.3001397  48.7094621
  15.6599838  16.8627877  48.3964250  15.5254306  16.1028278  47.8302248
  15.2431900  17.5868777  47.9293039  26.7958801  12.0464801  37.4040825
  27.4994651  12.2514803  38.0198481  26.0721449  12.6141563  37.6689909
  27.6256611   7.7974662  43.5243095  27.5691812   8.2543214  42.6850728
  28.1784953   7.0365347  43.3465938  31.4361417   3.5864394  44.3493215
  31.1798351   3.1861030  45.1801423  30.8114285   4.3008188  44.2243354
  35.7473755   6.3260467  46.8564506  35.1873313   6.3953657  47.6296068
  35.1417258   6.1501452  46.1364003  18.8168963  17.7597194  48.6082693
  18.7001348  18.7042627  48.5061383  17.9961410  17.4570756  48.9968492
  28.7045498  12.4847330  39.4539285  29.5391102  12.0528529  39.2716760
  28.5429841  12.3129344  40.3816180  28.3591390   8.9879443  40.8195625
  28.3040194   8.8223715  39.8784069  27.7337445   9.6955476  40.9757814
  25.6737297  11.2928355  60.1449187  26.5428457  11.4669008  59.7835822
  25.1944049  12.1122772  60.0224917  19.8423478  18.4125456  51.8238621
  20.7450724  18.4449067  52.1405116  19.6160848  17.4825907  51.8384957
  21.5977080  17.1656443  48.4848700  20.6472711  17.1658305  48.3713072
  21.9009566  16.4189177  47.9684734  34.1419479  22.9544409  49.4855987
  33.8037991  22.8385474  48.5976522  35.0109248  22.5535574  49.4656993
  30.0006295  24.8079886  45.4752878  29.4371160  24.7169823  44.7069166
  29.8858690  23.9879790  45.9555370  34.6239262  24.1079261  55.4442192
  34.6127903  23.7132059  54.5722696  34.7859902  23.3745334  56.0375964
  27.5470727  26.3031077  48.3137098  28.3392019  25.9621902  47.8983398
  27.7867377  26.4126052  49.2339252  29.5061481  25.5639991  41.1854477
  30.2792357  25.0168978  41.0467353  29.8586880  26.4284240  41.3968938
  31.3446524  26.8916373  54.3921376  31.0536390  27.7962004  54.2768043
  31.9803508  26.9332901  55.1065446  32.2702730  24.2693221  50.9822736
  32.8666303  24.0449244  50.2679699  32.3277702  23.5277967  51.5848184
  31.8427759  21.7232657  38.8172927  32.0953279  21.2014178  38.0556390
  30.9052318  21.5598802  38.9199611  36.8871042  20.7268435  46.6247670
  37.6734131  20.3087858  46.2738087  37.1509746  21.6314527  46.7929319
  42.2879469  20.6643668  47.5280649  43.0204641  20.0942885  47.7618478
  41.5318824  20.2765269  47.9687154  31.5624048  23.6260763  41.0197302
  31.4460306  22.9505666  41.6878386  31.6726307  23.1393137  40.2029455
  33.9055588  23.0870910  44.7243991  33.5413796  22.5601531  45.4356913
  34.7622704  22.6969379  44.5510477  39.8104889  14.3765242  51.9875257
  39.4788214  15.2460653  51.7636472  39.2150502  14.0601526  52.6669288
  33.5461075  18.1160810  39.7205340  33.7135478  18.9841046  40.0875811
  33.3558245  18.2788091  38.7966629  29.7548890  23.0291585  47.4207874
  28.8299387  22.8967799  47.6285566  30.0033303  23.8085805  47.9177817
  39.7033552  19.0960329  49.0668607  38.7950430  19.0275737  48.7727368
  39.6521148  19.5732274  49.8950433  33.5250296  20.5718467  40.7052006
  33.4049922  21.0175518  41.5437487  32.8302885  20.9203785  40.1465545
  27.1157701  22.6724859  48.2551664  27.2450082  22.9259338  49.1691075
  26.4355152  23.2652567  47.9356319  33.7774418  20.5149974  57.0103505
  33.0007752  21.0743894  57.0006369  34.4164981  21.0006757  57.5318375
  41.5695199  17.2976767  50.8446481  40.9269579  17.5909300  50.1986276
  41.0650127  17.1829687  51.6499678  39.2235362  21.0439940  41.5332341
  40.1353219  21.2767327  41.3580038  38.7145010  21.6276984  40.9707419
  32.0320790  23.3235428  56.5721472  32.7735475  23.8620472  56.2956295
  31.3257776  23.9501716  56.7293023  33.8607200  20.4037175  52.5427190
  34.7068395  20.8276588  52.6861839  33.8005838  19.7470799  53.2365753
  37.0106646  18.0641543  54.2008364  36.7667577  18.8183604  53.6642639
  37.2866576  18.4426891  55.0355611  36.5671337  17.2197976  49.7822201
  35.7055816  17.5179230  50.0738939  36.5933772  17.4368375  48.8503234
  33.3832907  25.7640167  46.1896007  33.8471252  26.0427870  45.4000630
  33.1189705  24.8623611  46.0069098  30.2756988  25.3111648  49.1275770
  30.8458345  25.7398917  48.4893255  30.8665100  25.0294233  49.8259956
  32.3201793  21.8863319  42.9985572  33.0225836  22.3384363  43.4659499
  31.9882421  21.2447138  43.6265465  30.7682154  20.4775076  57.3736782
  30.1380815  21.1591357  57.6072178  30.6618242  20.3658157  56.4289920
  26.0627127  20.1446872  48.3002706  25.2726181  20.4004400  47.8242816
  26.5538374  20.9595210  48.4054746  28.0141872  20.5091451  45.2586182
  27.2173035  20.6210145  45.7769678  27.7867464  20.8478103  44.3927073
  33.8447540  27.0336154  53.2068697  33.9091972  27.4956562  54.0426869
  33.1358464  26.4033519  53.3351007  24.3464830  20.3977362  50.7317697
  24.5972868  21.2824372  50.9975273  24.8824378  20.2181964  49.9592788
  48.1696929  23.8290859  47.3992958  47.4160638  23.2598258  47.2436963
  48.3044470  23.7953524  48.3463593  30.0462897  14.7795842  59.7362033
  29.6529843  14.2262040  60.4109677  30.8629037  15.0906420  60.1268550
  27.0124955  26.2179700  43.6475603  27.5249475  27.0122950  43.7981167
  27.6647668  25.5205990  43.5809204  28.8219839  29.3345456  45.7298356
  28.9986468  30.2563421  45.5419340  29.6176673  29.0203875  46.1592735
  32.9630858  16.1953721  57.3282289  33.7040571  16.7960874  57.2486752
  33.1948781  15.4531358  56.7700332  28.1072196  21.3810088  55.6060519
  27.9925711  20.4795345  55.9067618  27.2516714  21.6273785  55.2545335
  29.9451155  30.8523630  51.7308698  30.4958580  30.7240693  50.9585692
  29.1062631  31.1518519  51.3803591  36.9088021  12.2234824  51.6046571
  36.5652290  13.1136465  51.5285681  37.2766983  12.0336481  50.7416156
  24.9773871  24.5468354  44.4235173  25.8149094  24.9565362  44.2068881
  25.1552139  23.6067796  44.3935367  36.8738304  22.2143435  40.1119006
  36.3584927  22.9848039  40.3507393  36.6015612  21.5408571  40.7352067
  34.4585415  17.0593136  45.1704244  33.6027011  16.6699986  44.9909883
  34.8712366  17.1385096  44.3104030  35.9884561  14.5939479  49.5695804
  35.4849357  14.5569614  48.7563609  36.2815168  15.5032222  49.6292461
  32.2327447  14.6778209  48.5761986  33.0980444  14.4821017  48.2167875
  32.3004956  14.4488560  49.5031343  36.6624607  20.0870527  41.9378787
  36.3574742  20.4016676  42.7888930  37.6155049  20.1651947  41.9806120
  29.8389766  16.9080416  45.9478353  30.4133518  16.6855598  45.2151546
  30.4260749  16.9769111  46.7006954  38.8969343  22.7954143  46.7542729
  39.4101225  23.4284135  47.2564439  39.5470567  22.1955339  46.3886089
  30.1659353  18.9384877  39.9674238  29.3296666  19.2759564  40.2883513
  30.0264123  18.8033857  39.0301375  32.1412434  13.7821665  44.6753422
  31.4876846  13.4670683  44.0510037  32.0992908  13.1597406  45.4013245
  33.2523639  24.0640960  36.5906714  32.3450701  23.8330214  36.7897863
  33.7494671  23.2678580  36.7780696  36.1591718  32.7738468  39.5103400
  35.4853416  33.0770164  40.1188358  36.5457540  33.5767548  39.1608857
  35.3750174  20.2703599  49.0001070  34.4572736  20.4918546  48.8422758
  35.7910318  20.3449909  48.1412777  36.1585222  21.6695015  44.1303750
  36.9057041  22.1816412  43.8210872  36.4276812  21.3479067  44.9908144
  34.4311872  24.1653555  41.1130704  33.5223092  23.8812588  41.2103174
  34.4606956  24.5852634  40.2534011  38.6064059  18.7052131  46.1122539
  37.8686816  18.1929517  46.4432782  38.8590833  18.2652512  45.3005816
  38.7075687  11.4828383  46.7064309  39.0134563  10.6225746  46.4190224
  39.4328291  12.0746003  46.5063302  25.0000043  21.8859069  45.0945907
  24.8024442  21.2928430  44.3696973  24.4446707  21.5811280  45.8121845
  32.9796766  21.7782176  47.2140500  33.0345376  20.8256012  47.1382976
  32.1687968  21.9341615  47.6981798  34.1287960  25.7062299  38.4518783
  33.6907390  24.9898158  37.9924420  34.8698401  25.9338414  37.8903874
  30.9189126  20.3959236  44.9730879  30.1056992  20.6953406  45.3796071
  31.4148120  20.0014924  45.6905361  42.2461075  23.9819496  44.5095101
  42.1078973  24.1721092  43.5816291  41.8897294  24.7438879  44.9663153
  30.4103201  17.9677591  50.5892113  31.0502580  17.8266350  49.8915077
  29.5780732  17.6812105  50.2130715  31.1863505  27.2680022  46.7027106
  31.9804103  26.7730342  46.5009681  30.4755197  26.7397885  46.3394811
  27.4946268  21.4123103  42.7786859  26.5643856  21.3507559  42.9956821
  27.5903740  20.8899056  41.9823500  27.4131817  17.9377916  45.3665100
  27.6738635  18.8523249  45.2574261  28.2348990  17.4702359  45.5161713
  28.8856743  19.3515673  52.5363925  29.5579796  19.1433035  51.8876574
  28.0586529  19.1537759  52.0969157  34.7882315  15.9777614  54.5529586
  34.1410230  16.6767564  54.4594062  35.5583330  16.4113758  54.9205834
  34.9646449  23.8158379  52.6126405  35.8938509  23.9669539  52.4395373
  34.5437479  23.9042400  51.7575052  33.7634781  27.8409044  50.3824943
  33.6245867  27.4727828  51.2550881  32.9749377  28.3556683  50.2108901
  29.2884240  22.6258276  53.2966362  29.1504038  21.8938515  53.8977901
  30.1989163  22.5367176  53.0150550  38.2499188  24.5646681  38.0450840
  37.6328358  23.8393509  37.9483893  37.7815676  25.3256041  37.7017915
  31.9166541  22.3378236  52.7850042  32.6266159  21.6971428  52.7436660
  31.8735849  22.5891130  53.7076222  30.6295475  19.3243453  54.6045681
  30.0932832  18.8734192  55.2567277  30.0412183  19.4589362  53.8616145
  28.9244018  36.0907503  48.4990340  29.1640616  36.7226027  49.1769358
  28.0813215  35.7395543  48.7855699  30.0397734  18.7832105  37.1672145
  29.1627200  18.6620906  36.8034391  30.5155487  17.9918183  36.9151033
  21.5599874  23.5709265  47.2613652  22.2470914  23.2570995  46.6734667
  21.4048002  24.4750629  46.9880903  26.3634596  18.4599461  51.6898676
  26.2792785  17.8525131  50.9549086  25.5417302  18.9508480  51.6908172
  33.4371880  31.8986625  50.9031844  33.3642051  32.7041597  51.4151148
  32.9949273  32.0978591  50.0779865  36.5358310  16.9453025  47.0568871
  37.0327009  16.1922987  46.7369941  35.7645291  16.9817341  46.4912080
  44.3888067  22.6493390  48.6987162  44.3777943  23.5318106  48.3281095
  43.5205447  22.2964941  48.5041699  33.1193278  19.0870408  46.7840555
  32.7491066  18.5341448  47.4721461  33.6152371  18.4828541  46.2315555
  41.0060642  21.5442031  45.1657328  41.4721094  22.3770023  45.0917631
  41.4568142  21.0787013  45.8702587  30.9482477  29.5467903  53.8795573
  31.6491937  30.1804386  54.0324967  30.4777592  29.8882634  53.1191212
  38.9777305  13.9122618  49.2048230  38.0640384  14.1426845  49.3730436
  39.4070406  13.9961062  50.0562262  34.7971336  22.8432321  58.1914161
  34.1211973  22.7426451  58.8616536  35.6198970  22.6871535  58.6550158
  26.5450195  29.0804258  50.8126676  27.1303632  28.3347946  50.9454580
  26.3475034  29.3908214  51.6963340  29.3988850  32.1155505  45.8289118
  28.7299226  32.6001633  45.3453158  29.2601720  32.3624726  46.7432497
  21.1367850  21.6509858  49.5331119  21.1751949  21.1173449  50.3268237
  20.6308143  21.1245064  48.9142096  28.5158612  16.4974398  53.0293661
  28.5799939  17.3589229  52.6171059  28.4525732  15.8848400  52.2966020
  27.9910885  18.5697531  56.6766696  28.6182923  18.1874608  57.2904220
  27.1338804  18.3511733  57.0422388  24.7676427  20.3773960  42.6085050
  25.0629869  19.4684639  42.5552104  23.8664463  20.3561700  42.2866053
  28.2970674  18.4529957  48.5912599  27.5757260  19.0665924  48.4520072
  29.0863930  18.9887722  48.5129245  31.0996988  15.7884383  54.8653251
  31.6231390  16.0346680  55.6279560  30.8809321  16.6204418  54.4456388
  26.4964269  18.0588058  42.7324376  26.1676975  17.1785437  42.5499481
  26.8503640  18.0035726  43.6200765  29.6106092  18.3461028  43.0999853
  29.9502165  18.8746949  42.3778462  30.0578213  18.6841434  43.8758420
  32.3049533  16.7298078  52.5502921  31.9646353  15.9305891  52.9523601
  31.5988539  17.0299789  51.9779754  32.9566005  13.8147391  51.0030244
  33.7792074  13.3407869  50.8809135  33.2004068  14.5937875  51.5028931
  31.5974239  16.8435649  41.2993146  32.3182602  17.2216902  40.7956863
  30.9739543  17.5624526  41.4028124  35.7405362  17.5480798  42.2351478
  35.9568977  18.4305436  41.9340306  35.2599429  17.1567012  41.5057120
  30.4804584  20.5066511  48.8122223  30.3349164  20.8206814  49.7046504
  30.0029787  21.1251412  48.2593122  32.3400966  17.4969059  48.8603112
  32.3262535  16.6010153  48.5235410  33.0573395  17.5039723  49.4941399
  34.1927097  17.9306400  50.9056240  33.9344875  18.8523470  50.9040570
  33.6612138  17.5336834  51.5956704  24.9550246  23.0471856  51.7509884
  24.4103714  23.8231664  51.8830158  25.8329596  23.3942660  51.5929006
  31.7437862  16.3783440  44.1290683  31.8653774  15.4500086  44.3281570
  31.4539905  16.3922126  43.2168998  34.6129053  14.0638350  47.2657402
  34.6350750  14.1277683  46.3109382  35.0297112  13.2242859  47.4597909
  44.9912677  23.7993610  45.3036625  45.4343823  23.0500935  44.9055748
  44.1139187  23.7903746  44.9210357  25.7416268  22.1741752  54.6440041
  24.9998004  22.3224387  55.2304671  25.4209012  22.4350018  53.7806790
  26.1872881  30.0607181  46.6750436  27.0130901  29.7610953  46.2949079
  25.8366933  29.2914803  47.1240224  31.1554414  29.4133649  48.7448109
  30.5334424  28.7504354  48.4450337  31.8259281  29.4394781  48.0621757
  24.3881486  27.9793507  47.6339369  23.5513395  27.5515682  47.4523370
  24.3605132  28.1725951  48.5710160  31.2278942  17.8915437  58.3380615
  31.2767097  18.7677560  57.9558385  31.7701456  17.3492830  57.7652258
  30.7167921  27.9637572  42.2206570  30.8656042  28.6473037  41.5673242
  31.5234365  27.9442662  42.7356025  33.4578230  18.6446809  55.0926974
  32.5881540  18.9380375  54.8209562  33.6937711  19.2287254  55.8134237
  44.5345542  25.2698848  47.6959073  45.3692433  25.7088652  47.8596633
  44.6704671  24.7937501  46.8767318  28.4720554  23.9902750  43.2267639
  28.2266596  23.0865080  43.4247849  28.6416469  23.9919900  42.2847117
  36.1617264  14.8626426  52.6092394  36.6799208  15.5987453  52.2838883
  35.8072397  15.1690420  53.4439153  27.7416202  19.7231108  40.7253800
  27.0485447  19.7975463  40.0693836  27.4967954  18.9591451  41.2475317
  36.4129858  11.2826709  48.1293291  36.6931612  10.6149898  48.7553717
  37.1980465  11.4755805  47.6167955  34.2163327  30.4585703  39.6918317
  33.6437294  31.0775890  39.2388789  34.7896121  31.0085064  40.2258239
  38.3053096  16.7899926  52.0624267  37.7103028  17.0704939  51.3670756
  38.0202793  17.2793827  52.8341008  40.0648603  30.0588723  37.7830847
  39.9862235  29.7248587  38.6766605  40.8858270  30.5510491  37.7822319
  34.6010125  21.7946516  37.0334370  35.5469230  21.6652724  37.1022788
  34.2224370  21.0561177  37.5103798  40.5732010  13.4602522  46.9961261
  40.3756831  13.1517610  47.8804593  41.1831715  14.1864160  47.1259191
  46.6618641  22.1274332  50.7287654  45.9351805  21.9930297  50.1204145
  46.2465928  22.4351161  51.5344372  34.4848818  25.8464262  58.4935027
  35.4051827  26.0242861  58.6875073  34.4498401  24.9020307  58.3414726
  32.7853043  19.7196492  36.9689255  31.8784498  19.4229605  37.0451968
  33.0629024  19.4226310  36.1023541  23.7030983  21.0402855  47.4188301
  23.3833767  20.1868164  47.1262675  23.1564411  21.2551433  48.1746269
  27.4810890  23.7565296  51.1357808  27.6996900  24.6882404  51.1545842
  27.8936664  23.3973271  51.9212612  34.4015108  14.2633382  43.1233496
  33.5915837  13.9180467  43.4988742  35.0899525  13.9540925  43.7121108
  36.3305657  13.3411428  44.7457793  36.8836695  13.7606882  45.4047816
  36.5675743  12.4147177  44.7880749  31.5551827  16.5783427  37.1101234
  32.4170991  16.9038325  37.3697051  31.7402171  15.7914923  36.5974300
  23.5719243  24.6605767  49.3881423  22.8782714  24.2459720  48.8751377
  24.3192234  24.7026303  48.7914842  39.7084464  15.4511954  44.2536457
  39.1283133  16.1096758  43.8714509  39.4420396  14.6289298  43.8423875
  38.1588030  14.8517011  46.4557777  38.6587808  14.9633546  45.6472096
  38.8023638  14.5478064  47.0958586  25.4855985  24.5924021  47.2647438
  25.4626674  24.6911708  46.3129321  25.7956622  25.4389171  47.5864604
  28.1443363  26.6500176  51.3794052  29.0986617  26.6184118  51.3123984
  27.9455887  26.1890799  52.1944278  28.7342745  25.2201292  53.9464850
  29.5535634  25.7145370  53.9699687  29.0079553  24.3033260  53.9182417
  38.4909342  17.6112044  43.3092805  37.6035197  17.8961695  43.0913000
  38.9063331  17.4505807  42.4620082  41.8423878  17.6358565  47.0247145
  42.6184268  18.1255017  47.2971761  41.1172012  18.0616619  47.4819014
  44.2796436  18.3486184  48.0821085  44.8740927  18.1081920  47.3714393
  44.3523020  17.6293315  48.7094621  26.4993592  32.1919795  48.3964250
  26.3648060  31.4320196  47.8302248  26.0825654  32.9160695  47.9293039
  37.6352555  27.3756719  37.4040825  38.3388405  27.5806721  38.0198481
  36.9115204  27.9433481  37.6689909  38.4650365  23.1266580  43.5243095
  38.4085567  23.5835131  42.6850728  39.0178708  22.3657265  43.3465938
  42.2755171  18.9156312  44.3493215  42.0192106  18.5152947  45.1801423
  41.6508039  19.6300106  44.2243354  46.5867509  21.6552385  46.8564506
  46.0267067  21.7245574  47.6296068  45.9811013  21.4793370  46.1364003
  29.6562718  33.0889112  48.6082693  29.5395102  34.0334545  48.5061383
  28.8355164  32.7862674  48.9968492  23.9877660  19.5539426  54.6457047
  24.6336523  19.0438380  55.1344272  23.7794811  20.2908107  55.2200472
  32.5081270  13.8179470  40.3980943  32.4959940  14.7621310  40.5549214
  33.4004692  13.6349616  40.1040404  36.3233390  10.4122247  44.6526880
  35.5565785   9.8580734  44.7983562  36.7344095  10.4844116  45.5141031
  28.3275151  16.7007043  58.7432061  29.1906612  16.3443847  58.9535386
  27.7540561  16.3620937  59.4307465  46.4199608  43.8042771  40.7867343
  45.7687588  44.3896852  40.4001356  47.2143971  44.3348966  40.8462380
  44.3854830  33.4452727  39.7205340  44.5529232  34.3132964  40.0875811
  44.1951999  33.6080009  38.7966629  52.5487931  42.2912114  46.2790286
  51.8638969  42.6711016  45.7287319  52.6331780  42.9007441  47.0122234
  47.7132058  37.5435352  40.1119006  47.1978682  38.3139957  40.3507393
  47.4409367  36.8700489  40.7352067  52.6866332  40.2967707  42.0472179
  51.9095775  39.9578867  41.6027342  53.3657813  40.3020330  41.3727145
  47.5018361  35.4162445  41.9378787  47.1968497  35.7308594  42.7888930
  48.4548803  35.4943864  41.9806120  46.9985472  48.1030385  39.5103400
  46.3247171  48.4062082  40.1188358  47.3851294  48.9059466  39.1608857
  45.2705627  39.4945473  41.1130704  44.3616846  39.2104506  41.2103174
  45.3000711  39.9144552  40.2534011  50.5024894  43.1052062  44.8821872
  50.0487221  42.2642972  44.9387062  49.8718861  43.7413461  45.2196652
  44.9681715  41.0354217  38.4518783  44.5301144  40.3190076  37.9924420
  45.7092155  41.2630331  37.8903874  53.0854829  39.3111414  44.5095101
  52.9472728  39.5013010  43.5816291  52.7291048  40.0730796  44.9663153
  45.1976687  48.2710058  41.7250480  45.3728443  47.7998101  42.5396102
  44.5109475  48.8975824  41.9531740  49.0892942  39.8938598  38.0450840
  48.4722113  39.1685426  37.9483893  48.6209431  40.6547959  37.7017915
  51.8454396  36.8733949  45.1657328  52.3114848  37.7061940  45.0917631
  52.2961897  36.4078930  45.8702587  49.9130627  43.2177770  42.1643480
  50.1890471  43.1034365  43.0737354  49.0435126  42.8195255  42.1255653
  46.8826857  46.3932306  43.0691342  47.4114623  45.8824761  42.4561504
  47.1455076  46.0774836  43.9336875  49.9767040  46.3649104  43.6846325
  50.1503918  45.7995527  42.9320178  50.4695932  47.1649999  43.5025815
  50.9642213  45.6815869  40.7843224  51.6593118  46.3022561  41.0030538
  51.3065363  44.8311220  41.0595601  52.8633636  43.1315574  42.3130554
  53.3884960  43.4702847  41.5879874  52.7755989  42.1962590  42.1293689
  45.0557081  45.7877620  39.6918317  44.4831048  46.4067808  39.2388789
  45.6289875  46.3376982  40.2258239  48.2754341  46.0714771  40.8226899
  49.2085014  46.0060332  41.0259775  48.1877554  46.9071037  40.3641432
  50.9042358  45.3880641  37.7830847  50.8255989  45.0540505  38.6766605
  51.7252025  45.8802409  37.7822319  45.4403880  37.1238433  37.0334370
  46.3862985  36.9944641  37.1022788  45.0618125  36.3853095  37.5103798
  43.6246797  35.0488410  36.9689255  42.7178252  34.7521522  37.0451968
  43.9022778  34.7518228  36.1023541  42.3945582  31.9075345  37.1101234
  43.2564746  32.2330243  37.3697051  42.5795926  31.1206841  36.5974300
  55.1190191  33.6778102  48.0821085  55.7134682  33.4373838  47.3714393
  55.1916775  32.9585232  48.7094621  48.4746310  42.7048636  37.4040825
  49.1782160  42.9098639  38.0198481  47.7508958  43.2725398  37.6689909
  49.3044120  38.4558498  43.5243095  49.2479321  38.9127049  42.6850728
  49.8572462  37.6949182  43.3465938  53.1148926  34.2448229  44.3493215
  52.8585860  33.8444865  45.1801423  52.4901794  34.9592023  44.2243354
  50.3833007  43.1431166  39.4539285  51.2178611  42.7112364  39.2716760
  50.2217350  42.9713179  40.3816180  50.0378899  39.6463279  40.8195625
  49.9827703  39.4807550  39.8784069  49.4124954  40.3539312  40.9757814
  47.1627144  25.7414164  44.6526880  46.3959540  25.1872651  44.7983562
  47.5737849  25.8136033  45.5141031  57.2593363  59.1334689  40.7867343
  56.6081343  59.7188769  40.4001356  58.0537726  59.6640884  40.8462380
  51.1848990  56.2223826  41.1854477  51.9579866  55.6752813  41.0467353
  51.5374389  57.0868075  41.3968938  53.5215268  52.3816492  38.8172927
  53.7740788  51.8598013  38.0556390  52.5839827  52.2182638  38.9199611
  58.7368628  56.8225121  41.3236327  58.1014461  56.8959747  42.0357232
  58.4066034  57.4118720  40.6455406  53.2411557  54.2844598  41.0197302
  53.1247815  53.6089501  41.6878386  53.3513816  53.7976972  40.2029455
  55.2248584  48.7744645  39.7205340  55.3922987  49.6424881  40.0875811
  55.0345753  48.9371927  38.7966629  55.2037805  51.2302302  40.7052006
  55.0837430  51.6759353  41.5437487  54.5090394  51.5787620  40.1465545
  52.9644697  64.0005944  44.3542138  52.8868727  64.9513769  44.4330618
  52.3606341  63.6551817  45.0117064  60.9022871  51.7023776  41.5332341
  61.8140728  51.9351162  41.3580038  60.3932519  52.2860820  40.9707419
  63.3881686  57.6204032  46.2790286  62.7032724  58.0002933  45.7287319
  63.4725535  58.2299359  47.0122234  49.6929381  51.1675286  45.2586182
  48.8960544  51.2793981  45.7769678  49.4654973  51.5061939  44.3927073
  55.2383066  59.3588097  43.0747677  55.1028741  60.2039633  43.5032525
  55.7792879  59.5607375  42.3113611  48.6912464  56.8763535  43.6475603
  49.2036984  57.6706785  43.7981167  49.3435177  56.1789826  43.5809204
  50.5007348  59.9929291  45.7298356  50.6773977  60.9147256  45.5419340
  51.2964182  59.6787711  46.1592735  51.6238664  61.5107465  51.7308698
  52.1746089  61.3824529  50.9585692  50.7850140  61.8102354  51.3803591
  58.5525813  52.8727270  40.1119006  58.0372436  53.6431875  40.3507393
  58.2803121  52.1992406  40.7352067  63.5260087  55.6259625  42.0472179
  62.7489529  55.2870784  41.6027342  64.2051568  55.6312248  41.3727145
  56.7858548  56.9044586  43.5871741  56.2579909  56.1697345  43.2744979
  56.2846050  57.6819262  43.3411710  51.8446862  49.5968713  39.9674238
  51.0084175  49.9343399  40.2883513  51.7051632  49.4617693  39.0301375
  54.9311148  54.7224796  36.5906714  54.0238210  54.4914049  36.7897863
  55.4282180  53.9262415  36.7780696  57.8379227  63.4322303  39.5103400
  57.1640925  63.7354000  40.1188358  58.2245049  64.2351383  39.1608857
  56.1099381  54.8237391  41.1130704  55.2010600  54.5396423  41.2103174
  56.1394465  55.2436469  40.2534011  61.3418649  58.4343980  44.8821872
  60.8880976  57.5934890  44.9387062  60.7112615  59.0705379  45.2196652
  59.7851588  60.2720477  45.8171690  60.0774562  60.8325534  45.0984056
  60.2950208  60.5649038  46.5724849  55.8075469  56.3646134  38.4518783
  55.3694899  55.6481993  37.9924420  56.5485910  56.5922249  37.8903874
  54.7485213  61.0500828  46.9065143  54.7061392  61.2761674  45.9773675
  55.6647912  60.8164203  47.0550944  63.9248584  54.6403331  44.5095101
  63.7866482  54.8304927  43.5816291  63.5684803  55.4022714  44.9663153
  52.8651014  57.9263857  46.7027106  53.6591612  57.4314177  46.5009681
  52.1542706  57.3981720  46.3394811  49.1733777  52.0706939  42.7786859
  48.2431365  52.0091394  42.9956821  49.2691249  51.5482891  41.9823500
  49.0919326  48.5961751  45.3665100  49.3526144  49.5107085  45.2574261
  49.9136499  48.1286194  45.5161713  56.0370442  63.6001975  41.7250480
  56.2122198  63.1290019  42.5396102  55.3503230  64.2267742  41.9531740
  59.9286697  55.2230516  38.0450840  59.3115867  54.4977344  37.9483893
  59.4603185  55.9839876  37.7017915  50.6031527  66.7491338  48.4990340
  50.8428125  67.3809862  49.1769358  49.7600724  66.3979378  48.7855699
  51.7185243  49.4415940  37.1672145  50.8414709  49.3204741  36.8034391
  52.1942996  48.6502019  36.9151033  54.9049169  61.7942231  44.4134665
  54.1216690  62.3363911  44.5072890  55.6041914  62.3116210  44.8128906
  59.2975599  56.3608547  44.6307294  58.3631878  56.4810010  44.4611998
  59.4752268  55.4581014  44.3667304  60.7524382  58.5469688  42.1643480
  61.0284226  58.4326282  43.0737354  59.8828881  58.1487173  42.1255653
  57.3878446  62.7956039  45.8076294  57.5700840  61.9777695  46.2704046
  58.2111432  63.0123731  45.3701184  57.7220611  61.7224224  43.0691342
  58.2508378  61.2116678  42.4561504  57.9848831  61.4066754  43.9336875
  48.2237704  59.7388093  50.8126676  48.8091141  58.9931781  50.9454580
  48.0262543  60.0492050  51.6963340  51.0776359  62.7739341  45.8289118
  50.4086735  63.2585468  45.3453158  50.9389229  63.0208561  46.7432497
  55.2181628  64.8083084  52.4271777  55.7699936  64.9714706  53.1920862
  55.5587821  65.3987522  51.7551801  46.4463936  51.0357796  42.6085050
  46.7417377  50.1268474  42.5552104  45.5451972  51.0145535  42.2866053
  60.4184924  60.5574080  51.0415009  59.4715259  60.4379431  50.9693336
  60.7667697  59.6696578  51.1241270  51.2893601  49.0044863  43.0999853
  51.6289674  49.5330784  42.3778462  51.7365722  49.3425269  43.8758420
  61.0265479  61.1755355  48.3284234  61.9512026  60.9698216  48.1908685
  60.8580782  60.9271756  49.2373575  53.2761748  47.5019485  41.2993146
  53.9970111  47.8800737  40.7956863  52.6527052  48.2208361  41.4028124
  60.8160795  61.6941022  43.6846325  60.9897672  61.1287445  42.9320178
  61.3089686  62.4941917  43.5025815  61.8035967  61.0107786  40.7843224
  62.4986872  61.6314479  41.0030538  62.1459118  60.1603138  41.0595601
  63.7027391  58.4607492  42.3130554  64.2278715  58.7994765  41.5879874
  63.6149743  57.5254507  42.1293689  55.3868051  64.5279475  46.6725808
  54.9473042  64.0355854  47.3658664  56.1376168  63.9852443  46.4317883
  47.8660390  60.7191016  46.6750436  48.6918410  60.4194788  46.2949079
  47.5154442  59.9498639  47.1240224  52.8341923  60.0717484  48.7448109
  52.2121933  59.4088189  48.4450337  53.5046790  60.0978616  48.0621757
  46.0668995  58.6377343  47.6339369  45.2300904  58.2099517  47.4523370
  46.0392641  58.8309786  48.5710160  52.3955430  58.6221408  42.2206570
  52.5443551  59.3056872  41.5673242  53.2021874  58.6026498  42.7356025
  50.1508063  54.6486585  43.2267639  49.9054105  53.7448915  43.4247849
  50.3203978  54.6503736  42.2847117  49.4203711  50.3814943  40.7253800
  48.7272956  50.4559298  40.0693836  49.1755463  49.6175287  41.2475317
  55.8950836  61.1169538  39.6918317  55.3224803  61.7359725  39.2388789
  56.4683630  61.6668900  40.2258239  59.1148096  61.4006688  40.8226899
  60.0478769  61.3352250  41.0259775  59.0271308  62.2362955  40.3641432
  61.7436112  60.7172559  37.7830847  61.6649744  60.3832422  38.6766605
  62.5645779  61.2094327  37.7822319  56.2797634  52.4530351  37.0334370
  57.2256739  52.3236559  37.1022788  55.9011879  51.7145013  37.5103798
  54.4640551  50.3780327  36.9689255  53.5572007  50.0813440  37.0451968
  54.7416533  50.0810145  36.1023541  53.2339336  47.2367263  37.1101234
  54.0958500  47.5622161  37.3697051  53.4189680  46.4498758  36.5974300
  45.2506752  55.3189602  49.3881423  44.5570223  54.9043555  48.8751377
  45.9979743  55.3610139  48.7914842  48.1781101  62.8503630  48.3964250
  48.0435569  62.0904031  47.8302248  47.7613163  63.5744530  47.9293039
  59.3140064  58.0340554  37.4040825  60.0175914  58.2390557  38.0198481
  58.5902713  58.6017316  37.6689909  60.1437874  53.7850415  43.5243095
  60.0873076  54.2418967  42.6850728  60.6966217  53.0241100  43.3465938
  51.3350227  63.7472948  48.6082693  51.2182611  64.6918380  48.5061383
  50.5142673  63.4446509  48.9968492  61.2226761  58.4723083  39.4539285
  62.0572365  58.0404282  39.2716760  61.0611104  58.3005097  40.3816180
  60.8772654  54.9755197  40.8195625  60.8221457  54.8099468  39.8784069
  60.2518709  55.6831229  40.9757814  54.1868779  44.4763306  40.3980943
  54.1747449  45.4205145  40.5549214  55.0792201  44.2933451  40.1040404
  52.3604741  64.4001209  51.8238621  53.2631988  64.4324820  52.1405116
  52.1342111  63.4701660  51.8384957  54.1158343  63.1532196  48.4848700
  53.1653974  63.1534058  48.3713072  54.4190829  62.4064931  47.9684734
  62.5187559  70.7955639  45.4752878  61.9552424  70.7045576  44.7069166
  62.4039954  69.9755543  45.9555370  60.0651990  72.2906830  48.3137098
  60.8573282  71.9497655  47.8983398  60.3048641  72.4001805  49.2339252
  68.0987117  74.4626607  40.7867343  67.4475097  75.0480687  40.4001356
  68.8931480  74.9932801  40.8462380  62.0242744  71.5515744  41.1854477
  62.7973620  71.0044731  41.0467353  62.3768143  72.4159993  41.3968938
  64.3609022  67.7108410  38.8172927  64.6134543  67.1889931  38.0556390
  63.4233581  67.5474555  38.9199611  69.4052305  66.7144188  46.6247670
  70.1915394  66.2963611  46.2738087  69.6691009  67.6190280  46.7929319
  69.5762382  72.1517038  41.3236327  68.9408215  72.2251665  42.0357232
  69.2459789  72.7410637  40.6455406  74.8060732  66.6519421  47.5280649
  75.5385904  66.0818638  47.7618478  74.0500088  66.2641022  47.9687154
  64.0805311  69.6136516  41.0197302  63.9641569  68.9381419  41.6878386
  64.1907571  69.1268890  40.2029455  66.4236852  69.0746663  44.7243991
  66.0595059  68.5477284  45.4356913  67.2803968  68.6845132  44.5510477
  66.0642339  64.1036563  39.7205340  66.2316741  64.9716799  40.0875811
  65.8739508  64.2663844  38.7966629  72.2214816  65.0836082  49.0668607
  71.3131693  65.0151490  48.7727368  72.1702412  65.5608027  49.8950433
  66.0431560  66.5594220  40.7052006  65.9231185  67.0051271  41.5437487
  65.3484148  66.9079538  40.1465545  59.6338965  68.6600612  48.2551664
  59.7631346  68.9135091  49.1691075  58.9536416  69.2528320  47.9356319
  63.8038452  79.3297862  44.3542138  63.7262482  80.2805687  44.4330618
  63.2000095  78.9843734  45.0117064  74.0876462  63.2852520  50.8446481
  73.4450843  63.5785053  50.1986276  73.5831391  63.1705440  51.6499678
  71.7416626  67.0315693  41.5332341  72.6534482  67.2643080  41.3580038
  71.2326273  67.6152737  40.9707419  69.0852601  63.2073729  49.7822201
  68.2237080  63.5054983  50.0738939  69.1115035  63.4244128  48.8503234
  64.8383056  67.8739072  42.9985572  65.5407100  68.3260116  43.4659499
  64.5063685  67.2322891  43.6265465  63.2863418  66.4650829  57.3736782
  62.6562078  67.1467110  57.6072178  63.1799506  66.3533910  56.4289920
  58.5808390  66.1322625  48.3002706  57.7907444  66.3880153  47.8242816
  59.0719638  66.9470963  48.4054746  60.5323136  66.4967204  45.2586182
  59.7354299  66.6085898  45.7769678  60.3048728  66.8353856  44.3927073
  56.8646093  66.3853115  50.7317697  57.1154132  67.2700125  50.9975273
  57.4005642  66.2057717  49.9592788  66.0776821  74.6880015  43.0747677
  65.9422496  75.5331551  43.5032525  66.6186633  74.8899292  42.3113611
  59.5306218  72.2055453  43.6475603  60.0430739  72.9998703  43.7981167
  60.1828931  71.5081743  43.5809204  61.3401103  75.3221209  45.7298356
  61.5167731  76.2439174  45.5419340  62.1357936  75.0079628  46.1592735
  60.6253459  67.3685841  55.6060519  60.5106975  66.4671098  55.9067618
  59.7697977  67.6149538  55.2545335  62.4632418  76.8399383  51.7308698
  63.0139843  76.7116446  50.9585692  61.6243894  77.1394272  51.3803591
  57.4955135  70.5344107  44.4235173  58.3330357  70.9441115  44.2068881
  57.6733403  69.5943549  44.3935367  69.3919567  68.2019188  40.1119006
  68.8766191  68.9723792  40.3507393  69.1196876  67.5284324  40.7352067
  66.9766678  63.0468889  45.1704244  66.1208274  62.6575739  44.9909883
  67.3893630  63.1260849  44.3104030  64.7508711  60.6653962  48.5761986
  65.6161707  60.4696770  48.2167875  64.8186220  60.4364313  49.5031343
  74.3653841  70.9551542  42.0472179  73.5883284  70.6162702  41.6027342
  75.0445322  70.9604166  41.3727145  69.1805870  66.0746280  41.9378787
  68.8756006  66.3892429  42.7888930  70.1336312  66.1527700  41.9806120
  67.6252302  72.2336503  43.5871741  67.0973664  71.4989263  43.2744979
  67.1239805  73.0111180  43.3411710  62.3571030  62.8956169  45.9478353
  62.9314782  62.6731351  45.2151546  62.9442012  62.9644864  46.7006954
  62.6840617  64.9260630  39.9674238  61.8477929  65.2635317  40.2883513
  62.5445386  64.7909610  39.0301375  64.6593697  59.7697418  44.6753422
  64.0058110  59.4546436  44.0510037  64.6174172  59.1473159  45.4013245
  65.7704902  70.0516713  36.5906714  64.8631964  69.8205967  36.7897863
  66.2675934  69.2554333  36.7780696  68.6772981  78.7614221  39.5103400
  68.0034680  79.0645917  40.1188358  69.0638803  79.5643301  39.1608857
  67.8931438  66.2579352  49.0001070  66.9753999  66.4794299  48.8422758
  68.3091581  66.3325662  48.1412777  68.6766486  67.6570768  44.1303750
  69.4238304  68.1692165  43.8210872  68.9458075  67.3354820  44.9908144
  66.9493136  70.1529308  41.1130704  66.0404355  69.8688341  41.2103174
  66.9788220  70.5728387  40.2534011  71.1245323  64.6927884  46.1122539
  70.3868079  64.1805270  46.4432782  71.3772096  64.2528265  45.3005816
  71.2256950  57.4704136  46.7064309  71.5315827  56.6101499  46.4190224
  71.9509555  58.0621756  46.5063302  57.5181306  67.8734822  45.0945907
  57.3205706  67.2804183  44.3696973  56.9627970  67.5687033  45.8121845
  66.6469224  71.6938052  38.4518783  66.2088653  70.9773911  37.9924420
  67.3879664  71.9214167  37.8903874  63.4370390  66.3834989  44.9730879
  62.6238255  66.6829159  45.3796071  63.9329384  65.9890677  45.6905361
  65.5878968  76.3792746  46.9065143  65.5455146  76.6053592  45.9773675
  66.5041666  76.1456120  47.0550944  74.7642338  69.9695249  44.5095101
  74.6260237  70.1596845  43.5816291  74.4078557  70.7314632  44.9663153
  62.9284464  63.9553344  50.5892113  63.5683844  63.8142103  49.8915077
  62.0961995  63.6687858  50.2130715  60.0127532  67.3998856  42.7786859
  59.0825120  67.3383312  42.9956821  60.1085004  66.8774809  41.9823500
  59.9313081  63.9253669  45.3665100  60.1919898  64.8399002  45.2574261
  60.7530253  63.4578112  45.5161713  61.4038006  65.3391426  52.5363925
  62.0761060  65.1308788  51.8876574  60.5767793  65.1413512  52.0969157
  66.8764196  78.9293893  41.7250480  67.0515952  78.4581936  42.5396102
  66.1896984  79.5559659  41.9531740  61.8065503  68.6134029  53.2966362
  61.6685301  67.8814268  53.8977901  62.7170427  68.5242929  53.0150550
  70.7680451  70.5522434  38.0450840  70.1509622  69.8269262  37.9483893
  70.2996940  71.3131794  37.7017915  63.1476738  65.3119207  54.6045681
  62.6114095  64.8609945  55.2567277  62.5593447  65.4465115  53.8616145
  61.4425282  82.0783256  48.4990340  61.6821880  82.7101780  49.1769358
  60.5994478  81.7271296  48.7855699  62.5578997  64.7707858  37.1672145
  61.6808463  64.6496659  36.8034391  63.0336750  63.9793936  36.9151033
  54.0781137  69.5585018  47.2613652  54.7652177  69.2446748  46.6734667
  53.9229266  70.4626382  46.9880903  58.8815859  64.4475214  51.6898676
  58.7974048  63.8400884  50.9549086  58.0598566  64.9384233  51.6908172
  65.7442923  77.1234148  44.4134665  64.9610445  77.6655828  44.5072890
  66.4435668  77.6408128  44.8128906  69.0539573  62.9328778  47.0568871
  69.5508273  62.1798740  46.7369941  68.2826555  62.9693094  46.4912080
  65.6374542  65.0746161  46.7840555  65.2672329  64.5217201  47.4721461
  66.1333634  64.4704294  46.2315555  73.5241905  67.5317784  45.1657328
  73.9902357  68.3645776  45.0917631  73.9749406  67.0662766  45.8702587
  71.4958568  59.8998371  49.2048230  70.5821648  60.1302598  49.3730436
  71.9251669  59.9836815  50.0562262  59.0631459  75.0680011  50.8126676
  59.6484895  74.3223699  50.9454580  58.8656297  75.3783968  51.6963340
  61.9170114  78.1031258  45.8289118  61.2480489  78.5877386  45.3453158
  61.7782983  78.3500479  46.7432497  53.6549113  67.6385611  49.5331119
  53.6933213  67.1049202  50.3268237  53.1489406  67.1120817  48.9142096
  61.0339876  62.4850152  53.0293661  61.0981202  63.3464982  52.6171059
  60.9706996  61.8724153  52.2966020  60.5092148  64.5573284  56.6766696
  61.1364187  64.1750361  57.2904220  59.6520067  64.3387486  57.0422388
  57.2857691  66.3649713  42.6085050  57.5811132  65.4560392  42.5552104
  56.3845727  66.3437453  42.2866053  60.8151938  64.4405710  48.5912599
  60.0938524  65.0541677  48.4520072  61.6045194  64.9763475  48.5129245
  59.0145532  64.0463811  42.7324376  58.6858239  63.1661190  42.5499481
  59.3684903  63.9911480  43.6200765  62.1287356  64.3336781  43.0999853
  62.4683428  64.8622702  42.3778462  62.5759476  64.6717187  43.8758420
  64.8230796  62.7173831  52.5502921  64.4827617  61.9181644  52.9523601
  64.1169803  63.0175542  51.9779754  64.1155503  62.8311402  41.2993146
  64.8363865  63.2092655  40.7956863  63.4920807  63.5500279  41.4028124
  68.2586626  63.5356551  42.2351478  68.4750240  64.4181189  41.9340306
  67.7780693  63.1442765  41.5057120  62.9985847  66.4942264  48.8122223
  62.8530428  66.8082567  49.7046504  62.5211051  67.1127165  48.2593122
  64.8582230  63.4844812  48.8603112  64.8443799  62.5885906  48.5235410
  65.5754658  63.4915476  49.4941399  66.7108361  63.9182153  50.9056240
  66.4526138  64.8399223  50.9040570  66.1793401  63.5212587  51.5956704
  57.4731509  69.0347609  51.7509884  56.9284977  69.8107417  51.8830158
  58.3510859  69.3818413  51.5929006  64.2619126  62.3659193  44.1290683
  64.3835037  61.4375839  44.3281570  63.9721168  62.3797879  43.2168998
  67.1310316  60.0514103  47.2657402  67.1532013  60.1153436  46.3109382
  67.5478375  59.2118612  47.4597909  77.5093941  69.7869363  45.3036625
  77.9525087  69.0376688  44.9055748  76.6320451  69.7779499  44.9210357
  74.5421145  73.7899410  42.3130554  75.0672469  74.1286682  41.5879874
  74.4543498  72.8546425  42.1293689  66.2261806  79.8571393  46.6725808
  65.7866796  79.3647772  47.3658664  66.9769923  79.3144361  46.4317883
  58.7054145  76.0482934  46.6750436  59.5312165  75.7486706  46.2949079
  58.3548197  75.2790556  47.1240224  63.6735678  75.4009402  48.7448109
  63.0515687  74.7380107  48.4450337  64.3440545  75.4270534  48.0621757
  56.9062750  73.9669260  47.6339369  56.0694658  73.5391435  47.4523370
  56.8786395  74.1601704  48.5710160  63.7460205  63.8791190  58.3380615
  63.7948361  64.7553313  57.9558385  64.2882720  63.3368583  57.7652258
  63.2349185  73.9513325  42.2206570  63.3837305  74.6348790  41.5673242
  64.0415628  73.9318415  42.7356025  65.9759494  64.6322562  55.0926974
  65.1062803  64.9256129  54.8209562  66.2118974  65.2163007  55.8134237
  60.9901818  69.9778503  43.2267639  60.7447860  69.0740833  43.4247849
  61.1597732  69.9795653  42.2847117  60.2597465  65.7106861  40.7253800
  59.5666710  65.7851216  40.0693836  60.0149217  64.9467204  41.2475317
  66.7344590  76.4461456  39.6918317  66.1618557  77.0651643  39.2388789
  67.3077384  76.9960818  40.2258239  72.8019980  65.6920096  51.8764866
  73.7537403  65.7918194  51.8977090  72.6323431  64.8998364  52.3862950
  70.8234360  62.7775679  52.0624267  70.2284292  63.0580692  51.3670756
  70.5384056  63.2669580  52.8341008  72.5829867  76.0464476  37.7830847
  72.5043498  75.7124340  38.6766605  73.4039534  76.5386244  37.7822319
  67.1191389  67.7822269  37.0334370  68.0650494  67.6528477  37.1022788
  66.7405634  67.0436930  37.5103798  73.0913273  59.4478275  46.9961261
  72.8938095  59.1393363  47.8804593  73.7012979  60.1739914  47.1259191
  65.3034306  65.7072245  36.9689255  64.3965761  65.4105358  37.0451968
  65.5810287  65.4102063  36.1023541  56.2212246  67.0278608  47.4188301
  55.9015031  66.1743917  47.1262675  55.6745675  67.2427187  48.1746269
  59.9992154  69.7441049  51.1357808  60.2178164  70.6758157  51.1545842
  60.4117928  69.3849024  51.9212612  66.9196372  60.2509135  43.1233496
  66.1097100  59.9056220  43.4988742  67.6080789  59.9416678  43.7121108
  68.8486920  59.3287181  44.7457793  69.4017959  59.7482635  45.4047816
  69.0857006  58.4022930  44.7880749  64.0733091  62.5659180  37.1101234
  64.9352255  62.8914078  37.3697051  64.2583435  61.7790676  36.5974300
  56.0900506  70.6481520  49.3881423  55.3963978  70.2335473  48.8751377
  56.8373497  70.6902056  48.7914842  72.2265727  61.4387707  44.2536457
  71.6464396  62.0972511  43.8714509  71.9601660  60.6165051  43.8423875
  70.6769293  60.8392764  46.4557777  71.1769072  60.9509299  45.6472096
  71.3204901  60.5353817  47.0958586  64.7351289  68.7471394  59.3425618
  64.2518371  69.5471754  59.5489507  64.8212228  68.7579339  58.3893062
  58.0037249  70.5799774  47.2647438  57.9807937  70.6787461  46.3129321
  58.3137885  71.4264924  47.5864604  60.6624627  72.6375929  51.3794052
  61.6167880  72.6059871  51.3123984  60.4637150  72.1766552  52.1944278
  71.0090605  63.5987797  43.3092805  70.1216460  63.8837448  43.0913000
  71.4244594  63.4381560  42.4620082  74.3605141  63.6234318  47.0247145
  75.1365531  64.1130770  47.2971761  73.6353275  64.0492372  47.4819014
  76.7977700  64.3361937  48.0821085  77.3922191  64.0957673  47.3714393
  76.8704284  63.6169068  48.7094621  59.0174856  78.1795548  48.3964250
  58.8829323  77.4195949  47.8302248  58.6006918  78.9036448  47.9293039
  70.1533819  73.3632472  37.4040825  70.8569669  73.5682474  38.0198481
  69.4296467  73.9309234  37.6689909  70.9831629  69.1142333  43.5243095
  70.9266830  69.5710884  42.6850728  71.5359971  68.3533018  43.3465938
  74.7936435  64.9032065  44.3493215  74.5373369  64.5028700  45.1801423
  74.1689303  65.6175859  44.2243354  79.1048773  67.6428138  46.8564506
  78.5448331  67.7121327  47.6296068  78.4992276  67.4669123  46.1364003
  62.1743981  79.0764865  48.6082693  62.0576366  80.0210298  48.5061383
  61.3536428  78.7738427  48.9968492  72.0620516  73.8015001  39.4539285
  72.8966120  73.3696199  39.2716760  71.9004859  73.6297015  40.3816180
  71.7166408  70.3047114  40.8195625  71.6615212  70.1391386  39.8784069
  71.0912463  71.0123147  40.9757814  56.5058923  65.5415179  54.6457047
  57.1517787  65.0314133  55.1344272  56.2976074  66.2783860  55.2200472
  69.0312315  72.6096026  60.1449187  69.9003475  72.7836678  59.7835822
  68.5519067  73.4290443  60.0224917  65.0262534  59.8055223  40.3980943
  65.0141203  60.7497063  40.5549214  65.9185955  59.6225369  40.1040404
  63.1998496  79.7293127  51.8238621  64.1025742  79.7616737  52.1405116
  62.9735866  78.7993578  51.8384957  68.8414653  56.3998000  44.6526880
  68.0747049  55.8456487  44.7983562  69.2525358  56.4719869  45.5141031
  75.2002777  83.0400327  38.8172927  75.4528297  82.5181849  38.0556390
  74.2627336  82.8766473  38.9199611  76.9036093  79.4328480  39.7205340
  77.0710496  80.3008717  40.0875811  76.7133262  79.5955762  38.7966629
  74.6432206  94.6589780  44.3542138  74.5656236  95.6097605  44.4330618
  74.0393850  94.3135652  45.0117064  68.3348889  85.8636025  44.4235173
  69.1724111  86.2733033  44.2068881  68.5127157  84.9235467  44.3935367
  73.5234371  80.2552548  39.9674238  72.6871684  80.5927235  40.2883513
  73.3839141  80.1201528  39.0301375  76.6098657  85.3808631  36.5906714
  75.7025719  85.1497885  36.7897863  77.1069689  84.5846250  36.7780696
  79.5166736  94.0906138  39.5103400  78.8428434  94.3937835  40.1188358
  79.9032558  94.8935219  39.1608857  68.3575061  83.2026740  45.0945907
  68.1599460  82.6096101  44.3696973  67.8021725  82.8978950  45.8121845
  77.7157951  94.2585811  41.7250480  77.8909706  93.7873854  42.5396102
  77.0290739  94.8851577  41.9531740  73.3972752  80.0999776  37.1672145
  72.5202218  79.9788576  36.8034391  73.8730505  79.3085854  36.9151033
  64.9174892  84.8876935  47.2613652  65.6045932  84.5738665  46.6734667
  64.7623020  85.7918300  46.9880903  64.4942868  82.9677529  49.5331119
  64.5326967  82.4341119  50.3268237  63.9883161  82.4412734  48.9142096
  68.1251445  81.6941631  42.6085050  68.4204886  80.7852309  42.5552104
  67.2239481  81.6729370  42.2866053  74.9549257  78.1603320  41.2993146
  75.6757620  78.5384573  40.7956863  74.3314561  78.8792197  41.4028124
  77.5738345  91.7753373  39.6918317  77.0012312  92.3943561  39.2388789
  78.1471138  92.3252735  40.2258239  76.1428060  81.0364163  36.9689255
  75.2359516  80.7397275  37.0451968  76.4204041  80.7393981  36.1023541
  67.0606001  82.3570526  47.4188301  66.7408785  81.5035834  47.1262675
  66.5139429  82.5719104  48.1746269  74.9126845  77.8951098  37.1101234
  75.7746009  78.2205996  37.3697051  75.0977189  77.1082594  36.5974300
  75.8656288  75.1347141  40.3980943  75.8534958  76.0788981  40.5549214
  76.7579710  74.9517286  40.1040404  84.1975068 101.4539474  45.4752878
  83.6339933 101.3629411  44.7069166  84.0827463 100.6339379  45.9555370
  88.8208035 100.7538850  55.4442192  88.8096676 100.3591648  54.5722696
  88.9828674 100.0204922  56.0375964  81.7439499 102.9490666  48.3137098
  82.5360791 102.6081490  47.8983398  81.9836150 103.0585641  49.2339252
  89.7774626 105.1210442  40.7867343  89.1262606 105.7064522  40.4001356
  90.5718989 105.6516637  40.8462380  83.7030253 102.2099579  41.1854477
  84.4761129 101.6628566  41.0467353  84.0555652 103.0743828  41.3968938
  85.5415296 103.5375961  54.3921376  85.2505162 104.4421592  54.2768043
  86.1772280 103.5792489  55.1065446  86.0396531  98.3692245  38.8172927
  86.2922052  97.8473766  38.0556390  85.1021090  98.2058391  38.9199611
  91.2549891 102.8100874  41.3236327  90.6195724 102.8835500  42.0357232
  90.9247298 103.3994473  40.6455406  96.4848241  97.3103257  47.5280649
  97.2173413  96.7402474  47.7618478  95.7287597  96.9224857  47.9687154
  85.7592820 100.2720351  41.0197302  85.6429078  99.5965255  41.6878386
  85.8695080  99.7852725  40.2029455  88.1024361  99.7330498  44.7243991
  87.7382568  99.2061119  45.4356913  88.9591477  99.3428967  44.5510477
  87.7429848  94.7620398  39.7205340  87.9104250  95.6300634  40.0875811
  87.5527017  94.9247680  38.7966629  90.5005181 103.2237377  51.3871170
  90.2005904 104.1262416  51.2786977  90.1556241 102.9569560  52.2392323
  87.7219069  97.2178055  40.7052006  87.6018694  97.6635106  41.5437487
  87.0271657  97.5663373  40.1465545  85.4825961 109.9881697  44.3542138
  85.4049991 110.9389522  44.4330618  84.8787604 109.6427570  45.0117064
  95.7663971  93.9436355  50.8446481  95.1238351  94.2368889  50.1986276
  95.2618900  93.8289276  51.6499678  93.4204135  97.6899529  41.5332341
  94.3321991  97.9226915  41.3580038  92.9113782  98.2736573  40.9707419
  86.2289563  99.9695016  56.5721472  86.9704247 100.5080060  56.2956295
  85.5226548 100.5961305  56.7293023  91.7044903 102.1124156  55.1693633
  92.1128259 101.6706567  54.4248265  90.9822164 101.5376784  55.4227826
  92.0273717 102.6725347  48.9245922  91.3982580 102.8371061  48.2221990
  91.6399379 103.0866957  49.6956886  95.9062949 103.6079785  46.2790286
  95.2213987 103.9878686  45.7287319  95.9906798 104.2175112  47.0122234
  93.1613881 101.2539744  52.8785629  93.3730776 101.8971504  52.2020010
  93.1143629 100.4202060  52.4107559  87.5801679 102.4099755  46.1896007
  88.0440025 102.6887458  45.4000630  87.3158477 101.5083200  46.0069098
  84.9650927  97.1234664  57.3736782  84.3349587  97.8050945  57.6072178
  84.8587015  97.0117746  56.4289920  94.2759709 104.1311699  51.0507987
  95.0977152 103.7291887  50.7690668  94.2722112 104.0279934  52.0024102
  88.0416312 103.6795743  53.2068697  88.1060745 104.1416150  54.0426869
  87.3327236 103.0493108  53.3351007 102.3665702 100.4750448  47.3992958
 101.6129410  99.9057846  47.2436963 102.5013243 100.4413112  48.3463593
  87.7564330 105.3463850  43.0747677  87.6210005 106.1915386  43.5032525
  88.2974142 105.5483128  42.3113611  81.2093727 102.8639288  43.6475603
  81.7218248 103.6582538  43.7981167  81.8616440 102.1665579  43.5809204
  83.0188612 105.9805044  45.7298356  83.1955240 106.9023009  45.5419340
  83.8145445 105.6663464  46.1592735  89.3832806 105.9687417  57.2048020
  88.9396660 105.1823795  56.8868924  90.0450020 106.1566567  56.5391910
  84.1419927 107.4983218  51.7308698  84.6927352 107.3700282  50.9585692
  83.3031403 107.7978107  51.3803591  91.4814044 106.2490217  55.2329421
  91.4632520 107.0699098  54.7409690  92.4033964 106.1244292  55.4579562
  87.9387098 103.7634346  56.0752929  88.4715435 103.0022634  55.8452237
  87.4101179 103.4707998  56.8177084  79.1742644 101.1927942  44.4235173
  80.0117866 101.6024951  44.2068881  79.3520912 100.2527385  44.3935367
  91.0707076  98.8603023  40.1119006  90.5553699  99.6307628  40.3507393
  90.7984385  98.1868159  40.7352067  96.0441350 101.6135378  42.0472179
  95.2670793 101.2746537  41.6027342  96.7232831 101.6188001  41.3727145
  90.8593379  96.7330115  41.9378787  90.5543515  97.0476264  42.7888930
  91.8123821  96.8111535  41.9806120  89.3039811 102.8920339  43.5871741
  88.7761173 102.1573098  43.2744979  88.8027314 103.6695015  43.3411710
  94.2832657 101.0869359  48.7038787  93.6256332 101.7768620  48.7918916
  95.0873056 101.4765791  49.0472774  87.4492411 100.7100549  36.5906714
  86.5419473 100.4789802  36.7897863  87.9463443  99.9138168  36.7780696
  90.3560490 109.4198056  39.5103400  89.6822189 109.7229753  40.1188358
  90.7426312 110.2227136  39.1608857  88.6280645 100.8113144  41.1130704
  87.7191864 100.5272176  41.2103174  88.6575729 101.2312222  40.2534011
  93.8599912 104.4219733  44.8821872  93.4062239 103.5810643  44.9387062
  93.2293879 105.0581132  45.2196652  92.3032851 106.2596230  45.8171690
  92.5955826 106.8201287  45.0984056  92.8131472 106.5524791  46.5724849
  88.3256732 102.3521887  38.4518783  87.8876162 101.6357746  37.9924420
  89.0667173 102.5798002  37.8903874  87.2666477 107.0376581  46.9065143
  87.2242655 107.2637427  45.9773675  88.1829175 106.8039956  47.0550944
  96.4429847 100.6279084  44.5095101  96.3047746 100.8180680  43.5816291
  96.0866066 101.3898467  44.9663153  96.4699227 102.6955611  49.5206373
  96.9035734 102.6030900  50.3689427  97.1830808 102.6713112  48.8826389
  85.3832277 103.9139610  46.7027106  86.1772876 103.4189930  46.5009681
  84.6723970 103.3857473  46.3394811  90.2027122 106.2957705  51.0539474
  90.2564144 106.8648642  51.8217189  89.3341903 106.4659591  50.6893511
  97.3314776 102.7379312  52.0539258  97.5250667 103.6425123  52.2998533
  97.2315395 102.2786731  52.8877843  92.3929885 102.8886055  57.6280139
  92.2415392 102.6596606  56.7110223  92.3834565 103.8456656  57.6411484
  89.1615222 100.4617968  52.6126405  90.0907282 100.6129127  52.4395373
  88.7406252 100.5501988  51.7575052  87.9603553 104.4868632  50.3824943
  87.8214639 104.1187416  51.2550881  87.1718150 105.0016271  50.2108901
  88.5551705 109.5877728  41.7250480  88.7303461 109.1165772  42.5396102
  87.8684493 110.2143495  41.9531740  89.5108768 103.8650235  47.7713781
  89.1758601 103.8251005  48.6671431  89.0112714 103.1994951  47.2984191
  83.4853012  99.2717865  53.2966362  83.3472810  98.5398104  53.8977901
  84.3957936  99.1826765  53.0150550  92.4467960 101.2106269  38.0450840
  91.8297131 100.4853097  37.9483893  91.9784449 101.9715629  37.7017915
  94.1022092 105.9205177  55.7056621  94.0434638 105.2364397  55.0387204
  94.5041610 106.6624167  55.2537247  83.1212791 112.7367091  48.4990340
  83.3609389 113.3685615  49.1769358  82.2781987 112.3855131  48.7855699
  84.2366506  95.4291693  37.1672145  83.3595972  95.3080494  36.8034391
  84.7124259  94.6377772  36.9151033  94.1039499 103.8844761  53.9370600
  93.2166278 103.5470683  54.0596999  94.6738050 103.1527793  54.1739366
  87.6340652 108.5446214  50.9031844  87.5610824 109.3501185  51.4151148
  87.1918046 108.7438179  50.0779865  87.4230432 107.7817984  44.4134665
  86.6397954 108.3239664  44.5072890  88.1223177 108.2991963  44.8128906
  98.5856840  99.2952979  48.6987162  98.5746716 100.1777694  48.3281095
  97.7174219  98.9424529  48.5041699  90.0939336 108.4433048  53.0590002
  90.8067308 109.0780512  52.9865904  89.6029365 108.5396914  52.2430004
  91.8156863 102.3484300  44.6307294  90.8813142 102.4685763  44.4611998
  91.9933531 101.4456767  44.3667304  95.2029414  98.1901620  45.1657328
  95.6689866  99.0229611  45.0917631  95.6536915  97.7246601  45.8702587
  85.1451249 106.1927491  53.8795573  85.8460709 106.8263974  54.0324967
  84.6746364 106.5342223  53.1191212  93.2705645 104.5345441  42.1643480
  93.5465489 104.4202035  43.0737354  92.4010144 104.1362926  42.1255653
  92.9452535  98.7472099  51.7048124  92.2923986  98.9948006  51.0500576
  93.3232915  97.9336237  51.3710601  89.9059709 108.7831792  45.8076294
  90.0882104 107.9653448  46.2704046  90.7292695 108.9999484  45.3701184
  90.2401875 107.7099977  43.0691342  90.7689641 107.1992431  42.4561504
  90.5030094 107.3942507  43.9336875  88.9940108  99.4891910  58.1914161
  88.3180745  99.3886039  58.8616536  89.8167742  99.3331123  58.6550158
  80.7418968 105.7263846  50.8126676  81.3272404 104.9807534  50.9454580
  80.5443806 106.0367803  51.6963340  83.5957623 108.7615094  45.8289118
  82.9267998 109.2461221  45.3453158  83.4570492 109.0084314  46.7432497
  87.7362891 110.7958837  52.4271777  88.2881199 110.9590459  53.1920862
  88.0769085 111.3863275  51.7551801  92.5873766 105.6220095  58.2820431
  93.1313670 106.2350053  57.7875386  92.0060611 106.1799673  58.7987444
  78.9645200  97.0233549  42.6085050  79.2598641  96.1144227  42.5552104
  78.0633236  97.0021288  42.2866053  90.8731279 108.7440813  49.4135459
  90.7482418 107.9430552  48.9046404  91.5310370 109.2387006  48.9249429
  92.9366187 106.5449833  51.0415009  91.9896523 106.4255184  50.9693336
  93.2848960 105.6572331  51.1241270  89.9412620 106.3402549  47.2419361
  89.7937583 105.4119256  47.4226931  90.7666114 106.3622640  46.7576436
  93.5446742 107.1631108  48.3284234  94.4693290 106.9573969  48.1908685
  93.3762046 106.9147509  49.2373575  89.9374135  94.1940387  42.2351478
  90.1537749  95.0765024  41.9340306  89.4568202  93.8026600  41.5057120
  93.3342058 107.6816775  43.6846325  93.5078936 107.1163198  42.9320178
  93.8270950 108.4817670  43.5025815  99.1881450 100.4453198  45.3036625
  99.6312596  99.6960523  44.9055748  98.3107960 100.4363334  44.9210357
  94.3217231 106.9983539  40.7843224  95.0168135 107.6190232  41.0030538
  94.6640381 106.1478891  41.0595601  96.2208654 104.4483245  42.3130554
  96.7459978 104.7870518  41.5879874  96.1331007 103.5130260  42.1293689
  87.8828703 108.3617319  54.4420431  88.1915829 108.1166465  55.3143131
  88.6804185 108.5663957  53.9539301  87.9049315 110.5155228  46.6725808
  87.4654305 110.0231607  47.3658664  88.6557432 109.9728196  46.4317883
  80.3841654 106.7066769  46.6750436  81.2099674 106.4070541  46.2949079
  80.0335706 105.9374392  47.1240224  85.3523187 106.0593237  48.7448109
  84.7303196 105.3963942  48.4450337  86.0228054 106.0854369  48.0621757
  78.5850259 104.6253096  47.6339369  77.7482167 104.1975270  47.4523370
  78.5573904 104.8185539  48.5710160  85.4247714  94.5375025  58.3380615
  85.4735870  95.4137148  57.9558385  85.9670229  93.9952418  57.7652258
  95.9102560 105.0816149  57.6181752  95.1198104 105.0640288  57.0786252
  95.6735915 105.6204442  58.3730789  96.0300435 101.9308615  54.9314481
  96.0798440 101.7658622  55.8730004  95.9214358 101.0635874  54.5412362
  84.9136694 104.6097161  42.2206570  85.0624814 105.2932625  41.5673242
  85.7203137 104.5902251  42.7356025  97.5318632 104.3505557  55.1756502
  97.2403440 104.7135537  56.0119963  96.9190763 103.6372565  54.9969834
  98.7314314 101.9158436  47.6959073  99.5661206 102.3548240  47.8596633
  98.8673443 101.4397090  46.8767318  95.7805820  99.4738171  53.6436560
  96.2559942  99.6665817  52.8355412  94.8571386  99.5297357  53.3979944
  88.4132099 107.1045291  39.6918317  87.8406066 107.7235478  39.2388789
  88.9864893 107.6544653  40.2258239  94.4807489  96.3503931  51.8764866
  95.4324912  96.4502029  51.8977090  94.3110940  95.5582200  52.3862950
  91.6329359 107.3882441  40.8226899  92.5660032 107.3228003  41.0259775
  91.5452572 108.2238708  40.3641432  94.2617376 106.7048312  37.7830847
  94.1831007 106.3708175  38.6766605  95.0827043 107.1970080  37.7822319
  96.9595567  99.5710051  50.9907166  96.9271887  98.6326052  51.1766849
  97.5696191  99.6494088  50.2572990  88.7978898  98.4406104  37.0334370
  89.7438003  98.3112312  37.1022788  88.4193143  97.7020766  37.5103798
  97.1090055  96.3621094  51.0365449  96.5929104  95.5779551  50.8495378
  97.9930004  96.0339811  51.2011968  94.7700782  90.1062110  46.9961261
  94.5725603  89.7977198  47.8804593  95.3800488  90.8323749  47.1259191
 102.7772117 100.6326058  50.1313202 103.5075505 100.3711346  50.6920906
 102.1679062  99.8954780  50.1715270 100.8587414  98.7733920  50.7287654
 100.1320578  98.6389885  50.1204145 100.4434701  99.0810749  51.5344372
  88.6817590 102.4923850  58.4935027  89.6020600 102.6702449  58.6875073
  88.6467173 101.5479895  58.3414726  86.9821815  96.3656080  36.9689255
  86.0753270  96.0689193  37.0451968  87.2597796  96.0685898  36.1023541
  85.7520600  93.2243016  37.1101234  86.6139764  93.5497914  37.3697051
  85.9370944  92.4374511  36.5974300  77.7688015 101.3065355  49.3881423
  77.0751487 100.8919308  48.8751377  78.5161006 101.3485892  48.7914842
  93.9053236  92.0971542  44.2536457  93.3251905  92.7556346  43.8714509
  93.6389169  91.2748887  43.8423875  86.4138798  99.4055229  59.3425618
  85.9305880 100.2055589  59.5489507  86.4999737  99.4163174  58.3893062
  79.6824758 101.2383609  47.2647438  79.6595446 101.3371296  46.3129321
  79.9925394 102.0848760  47.5864604  82.3412136 103.2959764  51.3794052
  83.2955389 103.2643706  51.3123984  82.1424659 102.8350388  52.1944278
  82.9311518 101.8660880  53.9464850  83.7504407 102.3604959  53.9699687
  83.2048326 100.9492848  53.9182417  92.6878114  94.2571632  43.3092805
  91.8003969  94.5421283  43.0913000  93.1032103  94.0965396  42.4620082
  96.0392650  94.2818153  47.0247145  96.8153040  94.7714606  47.2971761
  95.3140784  94.7076208  47.4819014  98.4765209  94.9945773  48.0821085
  99.0709700  94.7541509  47.3714393  98.5491793  94.2752903  48.7094621
  80.6962365 108.8379384  48.3964250  80.5616832 108.0779784  47.8302248
  80.2794427 109.5620283  47.9293039  91.8321328 104.0216307  37.4040825
  92.5357178 104.2266310  38.0198481  91.1083976 104.5893069  37.6689909
  92.6619138  99.7726168  43.5243095  92.6054339 100.2294720  42.6850728
  93.2147480  99.0116853  43.3465938  96.4723944  95.5615900  44.3493215
  96.2160878  95.1612536  45.1801423  95.8476812  96.2759694  44.2243354
 100.7836282  98.3011973  46.8564506 100.2235840  98.3705163  47.6296068
 100.1779785  98.1252958  46.1364003  83.8531490 109.7348701  48.6082693
  83.7363875 110.6794133  48.5061383  83.0323937 109.4322262  48.9968492
  93.7408025 104.4598836  39.4539285  94.5753629 104.0280035  39.2716760
  93.5792368 104.2880850  40.3816180  93.3953917 100.9630950  40.8195625
  93.3402721 100.7975221  39.8784069  92.7699972 101.6706982  40.9757814
  90.7099824 103.2679861  60.1449187  91.5790984 103.4420514  59.7835822
  90.2306576 104.0874278  60.0224917  84.8786005 110.3876962  51.8238621
  85.7813251 110.4200573  52.1405116  84.6523375 109.4577413  51.8384957
  86.6339607 109.1407949  48.4848700  85.6835238 109.1409811  48.3713072
  86.9372093 108.3940684  47.9684734 102.3692300 114.9768487  49.5494462
 103.0070710 114.8575235  48.8457802 102.2513143 115.9249331  49.6082414
  99.1782006 114.9295915  49.4855987  98.8400518 114.8136980  48.5976522
 100.0471775 114.5287081  49.4656993  95.0368822 116.7831392  45.4752878
  94.4733687 116.6921329  44.7069166  94.9221217 115.9631296  45.9555370
  99.6601789 116.0830767  55.4442192  99.6490430 115.6883565  54.5722696
  99.8222429 115.3496840  56.0375964  92.5833254 118.2782583  48.3137098
  93.3754546 117.9373408  47.8983398  92.8229904 118.3877559  49.2339252
  94.5424008 117.5391497  41.1854477  95.3154884 116.9920484  41.0467353
  94.8949407 118.4035746  41.3968938  96.3809050 118.8667879  54.3921376
  96.0898916 119.7713510  54.2768043  97.0166035 118.9084407  55.1065446
  97.3065257 116.2444728  50.9822736  97.9028830 116.0200750  50.2679699
  97.3640229 115.5029473  51.5848184  96.8790286 113.6984163  38.8172927
  97.1315806 113.1765684  38.0556390  95.9414845 113.5350308  38.9199611
 101.9233569 112.7019941  46.6247670 102.7096658 112.2839364  46.2738087
 102.1872273 113.6066033  46.7929319 102.0943646 118.1392792  41.3236327
 101.4589479 118.2127418  42.0357232 101.7641052 118.7286390  40.6455406
 107.3241996 112.6395174  47.5280649 108.0567168 112.0694391  47.7618478
 106.5681351 112.2516775  47.9687154  96.5986574 115.6012269  41.0197302
  96.4822833 114.9257172  41.6878386  96.7088834 115.1144643  40.2029455
  98.9418115 115.0622416  44.7243991  98.5776323 114.5353037  45.4356913
  99.7985231 114.6720885  44.5510477 104.8467416 106.3516749  51.9875257
 104.5150741 107.2212159  51.7636472 104.2513029 106.0353033  52.6669288
  98.5823602 110.0912316  39.7205340  98.7498005 110.9592552  40.0875811
  98.3920771 110.2539597  38.7966629 101.3398936 118.5529295  51.3871170
 101.0399659 119.4554333  51.2786977 100.9949995 118.2861478  52.2392323
  94.7911417 115.0043091  47.4207874  93.8661913 114.8719305  47.6285566
  95.0395830 115.7837311  47.9177817 104.7396079 111.0711835  49.0668607
 103.8312957 111.0027243  48.7727368 104.6883675 111.5483780  49.8950433
  98.5612823 112.5469973  40.7052006  98.4412448 112.9927024  41.5437487
  97.8665412 112.8955291  40.1465545  92.1520228 114.6476365  48.2551664
  92.2812609 114.9010844  49.1691075  91.4717679 115.2404073  47.9356319
  98.8136945 112.4901480  57.0103505  98.0370279 113.0495400  57.0006369
  99.4527508 112.9758263  57.5318375 106.6057726 109.2728273  50.8446481
 105.9632106 109.5660806  50.1986276 106.1012654 109.1581193  51.6499678
 104.2597889 113.0191446  41.5332341 105.1715746 113.2518833  41.3580038
 103.7507536 113.6028490  40.9707419  97.0683317 115.2986934  56.5721472
  97.8098002 115.8371978  56.2956295  96.3620303 115.9253222  56.7293023
 102.5438657 117.4416074  55.1693633 102.9522013 116.9998485  54.4248265
 101.8215919 116.8668702  55.4227826  98.8969727 112.3788681  52.5427190
  99.7430922 112.8028094  52.6861839  98.8368365 111.7222305  53.2365753
 102.8667472 118.0017265  48.9245922 102.2376334 118.1662979  48.2221990
 102.4793134 118.4158874  49.6956886 102.0469172 110.0393049  54.2008364
 101.8030104 110.7935110  53.6642639 102.3229103 110.4178397  55.0355611
 104.0007635 116.5831662  52.8785629 104.2124530 117.2263421  52.2020010
 103.9537383 115.7493978  52.4107559 101.6033864 109.1949482  49.7822201
 100.7418343 109.4930736  50.0738939 101.6296299 109.4119881  48.8503234
  98.4195434 117.7391673  46.1896007  98.8833779 118.0179376  45.4000630
  98.1552232 116.8375117  46.0069098  95.3119515 117.2863154  49.1275770
  95.8820872 117.7150423  48.4893255  95.9027626 117.0045739  49.8259956
  97.3564320 113.8614825  42.9985572  98.0588363 114.3135869  43.4659499
  97.0244948 113.2198644  43.6265465  95.8044681 112.4526582  57.3736782
  95.1743342 113.1342863  57.6072178  95.6980769 112.3409663  56.4289920
  91.0989654 112.1198378  48.3002706  90.3088708 112.3755906  47.8242816
  91.5900901 112.9346716  48.4054746  93.0504399 112.4842957  45.2586182
  92.2535562 112.5961651  45.7769678  92.8229991 112.8229609  44.3927073
  98.8810067 119.0087660  53.2068697  98.9454499 119.4708068  54.0426869
  98.1720990 118.3785025  53.3351007  89.3827357 112.3728868  50.7317697
  89.6335395 113.2575878  50.9975273  89.9186905 112.1933470  49.9592788
  98.5958084 120.6755768  43.0747677  98.4603759 121.5207304  43.5032525
  99.1367897 120.8775045  42.3113611  95.0825424 106.7547348  59.7362033
  94.6892369 106.2013546  60.4109677  95.8991564 107.0657926  60.1268550
  92.0487482 118.1931206  43.6475603  92.5612002 118.9874456  43.7981167
  92.7010194 117.4957496  43.5809204  93.8582366 121.3096962  45.7298356
  94.0348995 122.2314927  45.5419340  94.6539200 120.9955381  46.1592735
  97.9993385 108.1705227  57.3282289  98.7403098 108.7712380  57.2486752
  98.2311308 107.4282865  56.7700332  93.1434723 113.3561594  55.6060519
  93.0288238 112.4546851  55.9067618  92.2879241 113.6025291  55.2545335
  94.9813682 122.8275136  51.7308698  95.5321107 122.6992199  50.9585692
  94.1425158 123.1270025  51.3803591  98.7780853 119.0926264  56.0752929
  99.3109190 118.3314552  55.8452237  98.2494934 118.7999916  56.8177084
 101.9450548 104.1986330  51.6046571 101.6014817 105.0887971  51.5285681
 102.3129510 104.0087987  50.7416156  90.0136398 116.5219860  44.4235173
  90.8511620 116.9316869  44.2068881  90.1914666 115.5819302  44.3935367
 101.9100831 114.1894941  40.1119006 101.3947454 114.9599545  40.3507393
 101.6378139 113.5160077  40.7352067  99.4947942 109.0344642  45.1704244
  98.6389538 108.6451492  44.9909883  99.9074893 109.1136602  44.3104030
 101.0247088 106.5690985  49.5695804 100.5211884 106.5321120  48.7563609
 101.3177695 107.4783728  49.6292461  97.2689974 106.6529715  48.5761986
  98.1342971 106.4572523  48.2167875  97.3367483 106.4240066  49.5031343
 101.6987134 112.0622033  41.9378787 101.3937269 112.3768182  42.7888930
 102.6517576 112.1403453  41.9806120 100.1433566 118.2212256  43.5871741
  99.6154927 117.4865016  43.2744979  99.6421068 118.9986933  43.3411710
  94.8752293 108.8831922  45.9478353  95.4496045 108.6607104  45.2151546
  95.4623276 108.9520617  46.7006954 103.9331870 114.7705649  46.7542729
 104.4463752 115.4035641  47.2564439 104.5833094 114.1706845  46.3886089
  95.2021880 110.9136384  39.9674238  94.3659193 111.2511070  40.2883513
  95.0626650 110.7785363  39.0301375  97.1774961 105.7573171  44.6753422
  96.5239373 105.4422189  44.0510037  97.1355435 105.1348912  45.4013245
  98.2886166 116.0392466  36.5906714  97.3813227 115.8081720  36.7897863
  98.7857198 115.2430086  36.7780696 100.4112701 112.2455105  49.0001070
  99.4935263 112.4670052  48.8422758 100.8272845 112.3201415  48.1412777
 101.1947749 113.6446521  44.1303750 101.9419568 114.1567918  43.8210872
 101.4639339 113.3230573  44.9908144  99.4674399 116.1405061  41.1130704
  98.5585618 115.8564094  41.2103174  99.4969483 116.5604140  40.2534011
 103.6426586 110.6803637  46.1122539 102.9049343 110.1681023  46.4432782
 103.8953360 110.2404018  45.3005816 103.7438213 103.4579889  46.7064309
 104.0497090 102.5977252  46.4190224 104.4690818 104.0497509  46.5063302
  90.0362570 113.8610575  45.0945907  89.8386969 113.2679936  44.3696973
  89.4809234 113.5562786  45.8121845  98.0159293 113.7533682  47.2140500
  98.0707903 112.8007518  47.1382976  97.2050495 113.9093121  47.6981798
  99.1650487 117.6813805  38.4518783  98.7269917 116.9649664  37.9924420
  99.9060928 117.9089920  37.8903874  95.9551653 112.3710742  44.9730879
  95.1419519 112.6704912  45.3796071  96.4510647 111.9766430  45.6905361
 101.5525865 112.8352566  53.8045772 101.9075253 113.0624039  54.6640238
 102.1997996 113.1670943  53.1823028  95.4465728 109.9429097  50.5892113
  96.0865107 109.8017856  49.8915077  94.6143258 109.6563611  50.2130715
  96.2226032 119.2431528  46.7027106  97.0166630 118.7481848  46.5009681
  95.5117724 118.7149391  46.3394811  92.5308795 113.3874609  42.7786859
  91.6006383 113.3259065  42.9956821  92.6266267 112.8650562  41.9823500
  92.4494344 109.9129422  45.3665100  92.7101162 110.8274755  45.2574261
  93.2711517 109.4453865  45.5161713  93.9219270 111.3267179  52.5363925
  94.5942323 111.1184542  51.8876574  93.0949056 111.1289265  52.0969157
  99.8244842 107.9529120  54.5529586  99.1772757 108.6519070  54.4594062
 100.5945857 108.3865264  54.9205834 100.0008976 115.7909885  52.6126405
 100.9301036 115.9421045  52.4395373  99.5800006 115.8793906  51.7575052
  98.7997308 119.8160550  50.3824943  98.6608393 119.4479334  51.2550881
  98.0111904 120.3308189  50.2108901 100.3502523 119.1942152  47.7713781
 100.0152356 119.1542922  48.6671431  99.8506469 118.5286868  47.2984191
  94.3246767 114.6009782  53.2966362  94.1866565 113.8690021  53.8977901
  95.2351690 114.5118682  53.0150550 103.2861715 116.5398187  38.0450840
 102.6690885 115.8145015  37.9483893 102.8178203 117.3007547  37.7017915
  96.9529068 114.3129742  52.7850042  97.6628686 113.6722934  52.7436660
  96.9098376 114.5642637  53.7076222  95.6658002 111.2994960  54.6045681
  95.1295359 110.8485698  55.2567277  95.0774710 111.4340868  53.8616145
  95.0760261 110.7583611  37.1672145  94.1989727 110.6372412  36.8034391
  95.5518014 109.9669689  36.9151033  86.5962401 115.5460771  47.2613652
  87.2833440 115.2322501  46.6734667  86.4410529 116.4502135  46.9880903
  91.3997123 110.4350967  51.6898676  91.3155312 109.8276637  50.9549086
  90.5779829 110.9259986  51.6908172 101.5720837 108.9204531  47.0568871
 102.0689536 108.1674493  46.7369941 100.8007818 108.9568847  46.4912080
 102.6550617 117.6776218  44.6307294 101.7206896 117.7977680  44.4611998
 102.8327286 116.7748685  44.3667304  98.1555805 111.0621914  46.7840555
  97.7853593 110.5092954  47.4721461  98.6514898 110.4580047  46.2315555
 106.0423169 113.5193537  45.1657328 106.5083621 114.3521529  45.0917631
 106.4930669 113.0538519  45.8702587  95.9845004 121.5219409  53.8795573
  96.6854463 122.1555892  54.0324967  95.5140119 121.8634140  53.1191212
 104.0139831 105.8874124  49.2048230 103.1002911 106.1178351  49.3730436
 104.4432933 105.9712568  50.0562262 103.7846290 114.0764016  51.7048124
 103.1317740 114.3239924  51.0500576 104.1626670 113.2628154  51.3710601
  99.8333863 114.8183827  58.1914161  99.1574500 114.7177957  58.8616536
 100.6561497 114.6623041  58.6550158  91.5812722 121.0555764  50.8126676
  92.1666159 120.3099452  50.9454580  91.3837560 121.3659721  51.6963340
  94.4351377 124.0907011  45.8289118  93.7661753 124.5753139  45.3453158
  94.2964247 124.3376232  46.7432497  86.1730377 113.6261364  49.5331119
  86.2114476 113.0924955  50.3268237  85.6670670 113.0996570  48.9142096
  93.5521139 108.4725905  53.0293661  93.6162466 109.3340735  52.6171059
  93.4888259 107.8599906  52.2966020  93.0273412 110.5449037  56.6766696
  93.6545450 110.1626114  57.2904220  92.1701330 110.3263239  57.0422388
  89.8038954 112.3525466  42.6085050  90.0992395 111.4436145  42.5552104
  88.9026990 112.3313206  42.2866053  93.3333201 110.4281463  48.5912599
  92.6119787 111.0417430  48.4520072  94.1226457 110.9639228  48.5129245
  96.1359515 107.7635889  54.8653251  96.6593917 108.0098186  55.6279560
  95.9171848 108.5955924  54.4456388  91.5326796 110.0339564  42.7324376
  91.2039502 109.1536943  42.5499481  91.8866167 109.9787233  43.6200765
  94.6468619 110.3212534  43.0999853  94.9864692 110.8498455  42.3778462
  95.0940740 110.6592940  43.8758420  97.3412060 108.7049584  52.5502921
  97.0008880 107.9057397  52.9523601  96.6351066 109.0051295  51.9779754
  97.9928532 105.7898897  51.0030244  98.8154601 105.3159375  50.8809135
  98.2366595 106.5689381  51.5028931  96.6336766 108.8187155  41.2993146
  97.3545129 109.1968408  40.7956863  96.0102070 109.5376032  41.4028124
 100.7767889 109.5232304  42.2351478 100.9931504 110.4056942  41.9340306
 100.2961956 109.1318518  41.5057120  95.5167111 112.4818017  48.8122223
  95.3711691 112.7958321  49.7046504  95.0392314 113.1002918  48.2593122
  97.3763493 109.4720565  48.8603112  97.3625062 108.5761659  48.5235410
  98.0935921 109.4791229  49.4941399  99.2289624 109.9057906  50.9056240
  98.9707402 110.8274976  50.9040570  98.6974664 109.5088340  51.5956704
  89.9912773 115.0223362  51.7509884  89.4466241 115.7983170  51.8830158
  90.8692123 115.3694166  51.5929006  96.7800389 108.3534946  44.1290683
  96.9016301 107.4251592  44.3281570  96.4902432 108.3673632  43.2168998
  99.6491580 106.0389856  47.2657402  99.6713277 106.1029189  46.3109382
 100.0659639 105.1994365  47.4597909  90.7778795 114.1493258  54.6440041
  90.0360531 114.2975893  55.2304671  90.4571539 114.4101524  53.7806790
  91.2235408 122.0358687  46.6750436  92.0493428 121.7362459  46.2949079
  90.8729460 121.2666309  47.1240224  96.1916941 121.3885155  48.7448109
  95.5696951 120.7255860  48.4450337  96.8621808 121.4146287  48.0621757
  89.4244013 119.9545013  47.6339369  88.5875922 119.5267188  47.4523370
  89.3967659 120.1477457  48.5710160  96.2641469 109.8666943  58.3380615
  96.3129624 110.7429066  57.9558385  96.8063983 109.3244336  57.7652258
  95.7530448 119.9389078  42.2206570  95.9018569 120.6224543  41.5673242
  96.5596892 119.9194168  42.7356025 104.1597952 113.2431461  56.2473788
 105.0607815 113.1037926  55.9557785 104.2345926 113.4085916  57.1871965
  98.4940757 110.6198315  55.0926974  97.6244067 110.9131882  54.8209562
  98.7300238 111.2038760  55.8134237 106.6199575 114.8030089  53.6436560
 107.0953696 114.9957735  52.8355412 105.6965140 114.8589275  53.3979944
  93.5083081 115.9654256  43.2267639  93.2629123 115.0616586  43.4247849
  93.6778996 115.9671406  42.2847117 101.1979791 106.8377932  52.6092394
 101.7161735 107.5738959  52.2838883 100.8434924 107.1441926  53.4439153
  92.7778729 111.6982614  40.7253800  92.0847974 111.7726969  40.0693836
  92.5330481 110.9342957  41.2475317 101.4492385 103.2578215  48.1293291
 101.7294139 102.5901404  48.7553717 102.2342992 103.4507311  47.6167955
 105.3201244 111.6795849  51.8764866 106.2718667 111.7793947  51.8977090
 105.1504694 110.8874117  52.3862950 103.3415623 108.7651432  52.0624267
 102.7465555 109.0456445  51.3670756 103.0565320 109.2545333  52.8341008
  99.6372652 113.7698022  37.0334370 100.5831757 113.6404230  37.1022788
  99.2586897 113.0312684  37.5103798 107.9483810 111.6913012  51.0365449
 107.4322859 110.9071469  50.8495378 108.8323758 111.3631729  51.2011968
 105.6094537 105.4354028  46.9961261 105.4119358 105.1269116  47.8804593
 106.2194242 106.1615667  47.1259191  99.5211345 117.8215768  58.4935027
 100.4414354 117.9994367  58.6875073  99.4860928 116.8771813  58.3414726
  97.8215569 111.6947998  36.9689255  96.9147025 111.3981111  37.0451968
  98.0991550 111.3977816  36.1023541  88.7393510 113.0154361  47.4188301
  88.4196294 112.1619670  47.1262675  88.1926938 113.2302940  48.1746269
  92.5173417 115.7316802  51.1357808  92.7359427 116.6633910  51.1545842
  92.9299191 115.3724777  51.9212612  99.4377635 106.2384888  43.1233496
  98.6278364 105.8931973  43.4988742 100.1262052 105.9292431  43.7121108
 101.3668183 105.3162935  44.7457793 101.9199222 105.7358388  45.4047816
 101.6038270 104.3898683  44.7880749  97.3901283 111.3050008  60.5260557
  97.2898010 112.2544365  60.4572648  97.1722825 110.9768247  59.6536627
  96.5914354 108.5534933  37.1101234  97.4533518 108.8789832  37.3697051
  96.7764698 107.7666429  36.5974300  88.6081770 116.6357273  49.3881423
  87.9145241 116.2211226  48.8751377  89.3554761 116.6777809  48.7914842
 104.7446991 107.4263460  44.2536457 104.1645660 108.0848264  43.8714509
 104.4782923 106.6040804  43.8423875 103.1950557 106.8268517  46.4557777
 103.6950335 106.9385052  45.6472096 103.8386165 106.5229570  47.0958586
  97.2532553 114.7347147  59.3425618  96.7699634 115.5347507  59.5489507
  97.3393492 114.7455092  58.3893062  90.5218512 116.5675527  47.2647438
  90.4989200 116.6663214  46.3129321  90.8319149 117.4140677  47.5864604
  93.1805890 118.6251682  51.3794052  94.1349144 118.5935624  51.3123984
  92.9818414 118.1642305  52.1944278  93.7705272 117.1952798  53.9464850
  94.5898161 117.6896876  53.9699687  94.0442080 116.2784766  53.9182417
 103.5271869 109.5863550  43.3092805 102.6397724 109.8713201  43.0913000
 103.9425858 109.4257313  42.4620082 106.8786405 109.6110071  47.0247145
 107.6546795 110.1006523  47.2971761 106.1534539 110.0368125  47.4819014
 109.3158963 110.3237690  48.0821085 109.9103454 110.0833426  47.3714393
 109.3885547 109.6044821  48.7094621  91.5356119 124.1671301  48.3964250
  91.4010587 123.4071702  47.8302248  91.1188181 124.8912201  47.9293039
 103.5012892 115.1018086  43.5243095 103.4448094 115.5586637  42.6850728
 104.0541235 114.3408771  43.3465938 107.3117698 110.8907818  44.3493215
 107.0554632 110.4904454  45.1801423 106.6870566 111.6051612  44.2243354
 104.2347672 116.2922867  40.8195625 104.1796475 116.1267139  39.8784069
 103.6093727 116.9998900  40.9757814  89.0240187 111.5290932  54.6457047
  89.6699050 111.0189886  55.1344272  88.8157338 112.2659613  55.2200472
  97.5443797 105.7930976  40.3980943  97.5322467 106.7372816  40.5549214
  98.4367219 105.6101122  40.1040404 101.3595917 102.3873753  44.6526880
 100.5928312 101.8332240  44.7983562 101.7706622 102.4595622  45.5141031
  93.3637678 108.6758549  58.7432061  94.2269139 108.3195354  58.9535386
  92.7903088 108.3372444  59.4307465  37.3329774   0.0079104  36.2739769
  37.9708184  -0.1114149  35.5703109  37.2150617   0.9559948  36.3327721
  34.1419481  -0.0393468  36.2101293  33.8037992  -0.1552403  35.3221828
  35.0109249  -0.4402303  36.1902300  34.6239264   1.1141384  42.1687499
  34.6127904   0.7194182  41.2968003  34.7859903   0.3807456  42.7621270
  27.5470728   3.3093200  35.0382405  28.3392020   2.9684025  34.6228704
  27.7867378   3.4188175  35.9584558  31.3446525   3.8978496  41.1166683
  31.0536391   4.8024126  41.0013349  31.9803509   3.9395023  41.8310753
  32.2702732   1.2755344  37.7068043  32.8666304   1.0511366  36.9925006
  32.3277703   0.5340090  38.3093490  42.2879470  -2.3294209  34.2525955
  43.0204642  -2.8994992  34.4863785  41.5318826  -2.7172609  34.6932461
  39.8104890  -8.6172635  38.7120564  39.4788215  -7.7477224  38.4881779
  39.2150504  -8.9336351  39.3914594  36.3036410   3.5839911  38.1116477
  36.0037133   4.4864950  38.0032284  35.9587469   3.3172094  38.9637630
  39.7033554  -3.8977549  35.7913914  38.7950431  -3.9662140  35.4972675
  39.6521149  -3.4205604  36.6195739  31.2857190  10.3484231  31.0787444
  31.2081219  11.2992056  31.1575925  30.6818833  10.0030104  31.7362371
  33.7774419  -2.4787903  43.7348811  33.0007753  -1.9193983  43.7251676
  34.4164982  -1.9931120  44.2563681  41.5695200  -5.6961110  37.5691788
  40.9269580  -5.4028577  36.9231582  41.0650129  -5.8108190  38.3744985
  32.0320792   0.3297550  43.2966778  32.7735476   0.8682594  43.0201602
  31.3257777   0.9563839  43.4538330  37.5076131   2.4726691  41.8938940
  37.9159487   2.0309101  41.1493572  36.7853393   1.8979318  42.1473133
  33.8607201  -2.5900703  39.2672497  34.7068397  -2.1661289  39.4107146
  33.8005839  -3.2467078  39.9611060  37.8304946   3.0327881  35.6491229
  37.2013808   3.1973595  34.9467296  37.4430608   3.4469491  36.4202193
  41.7094178   3.9682319  33.0035592  41.0245216   4.3481220  32.4532626
  41.7938027   4.5777646  33.7367540  37.0106647  -4.9296334  40.9253670
  36.7667579  -4.1754274  40.3887946  37.2866577  -4.5510987  41.7600917
  38.9645110   1.6142278  39.6030936  39.1762005   2.2574038  38.9265317
  38.9174858   0.7804595  39.1352866  30.2756989   2.3173771  35.8521077
  30.8458346   2.7461039  35.2138561  30.8665101   2.0356356  36.5505263
  30.7682155  -2.5162802  44.0982088  30.1380816  -1.8346521  44.3317485
  30.6618243  -2.6279720  43.1535227  40.0790937   4.4914234  37.7753293
  40.9008381   4.0894421  37.4935975  40.0753340   4.3882468  38.7269409
  33.8447541   4.0398277  39.9314004  33.9091973   4.5018684  40.7672176
  33.1358465   3.4095642  40.0596314  48.1696931   0.8352982  34.1238265
  47.4160639   0.2660380  33.9682269  48.3044472   0.8015647  35.0708899
  28.8219841   6.3407579  32.4543662  28.9986469   7.2625543  32.2664646
  29.6176674   6.0265998  32.8838042  35.1864035   6.3289951  43.9293326
  34.7427889   5.5426329  43.6114231  35.8481249   6.5169101  43.2637217
  29.9451156   7.8585752  38.4554005  30.4958581   7.7302816  37.6830999
  29.1062632   8.1580641  38.1048897  37.2845273   6.6092751  41.9574727
  37.2663748   7.4301632  41.4654997  38.2065193   6.4846826  42.1824869
  33.7418327   4.1236880  42.7998236  34.2746664   3.3625168  42.5697544
  33.2132408   3.8310532  43.5422390  40.0863886   1.4471893  35.4284094
  39.4287560   2.1371155  35.5164223  40.8904285   1.8368325  35.7718080
  38.8969345  -0.1983734  33.4788036  39.4101226   0.4346258  33.9809746
  39.5470569  -0.7982539  33.1131396  35.3750176  -2.7234279  35.7246376
  34.4572737  -2.5019332  35.5668064  35.7910319  -2.6487968  34.8658084
  39.6631141   4.7822267  31.6067179  39.2093468   3.9413177  31.6632369
  39.0325108   5.4183666  31.9441959  38.1064080   6.6198764  32.5416997
  38.3987055   7.1803821  31.8229362  38.6162701   6.9127325  33.2970156
  33.0697705   7.3979115  33.6310450  33.0273884   7.6239961  32.7018982
  33.9860404   7.1642490  33.7796251  36.5163339  -2.1336817  40.5291079
  36.8712727  -1.9065344  41.3885545  37.1635470  -1.8018441  39.9068334
  42.2461076   0.9881619  31.2340408  42.1078975   1.1783215  30.3061597
  41.8897295   1.7501001  31.6908459  42.2730456   3.0558146  36.2451680
  42.7066962   2.9633435  37.0934734  42.9862036   3.0315646  35.6071696
  31.1863506   4.2742144  33.4272413  31.9804105   3.7792464  33.2254988
  30.4755199   3.7460007  33.0640118  36.0058351   6.6560240  37.7784780
  36.0595373   7.2251176  38.5462496  35.1373132   6.8262125  37.4138817
  43.1346005   3.0981846  38.7784565  43.3281895   4.0027657  39.0243840
  43.0346623   2.6389265  39.6123150  38.1961114   3.2488589  44.3525446
  38.0446620   3.0199141  43.4355529  38.1865793   4.2059190  44.3656791
  34.9646450   0.8220502  39.3371712  35.8938510   0.9731661  39.1640679
  34.5437480   0.9104523  38.4820359  33.7634782   4.8471166  37.1070250
  33.6245868   4.4789951  37.9796188  32.9749378   5.3618806  36.9354207
  34.3582934   9.9480263  28.4495786  34.5334690   9.4768306  29.2641409
  33.6715722  10.5746029  28.6777047  35.3139997   4.2252769  34.4959087
  34.9789830   4.1853539  35.3916737  34.8143943   3.5597485  34.0229498
  29.2884241  -0.3679601  40.0211669  29.1504039  -1.0999362  40.6223208
  30.1989165  -0.4570701  39.7395856  31.9166542  -0.6559642  39.5095348
  32.6266160  -1.2966450  39.4681967  31.8735850  -0.4046747  40.4321529
  39.9053321   6.2807712  42.4301927  39.8465867   5.5966932  41.7632510
  40.3072839   7.0226702  41.9782553  28.9244019  13.0969625  35.2235646
  29.1640618  13.7288150  35.9014665  28.0813216  12.7457665  35.5101006
  39.9070728   4.2447295  40.6615907  39.0197507   3.9073217  40.7842306
  40.4769279   3.5130327  40.8984673  33.4371881   8.9048748  37.6277150
  33.3642053   9.7103719  38.1396455  32.9949274   9.1040714  36.8025172
  33.2261661   8.1420518  31.1379972  32.4429183   8.6842198  31.2318196
  33.9254406   8.6594498  31.5374213  44.3888068  -0.3444487  35.4232469
  44.3777945   0.5380228  35.0526402  43.5205448  -0.6972936  35.2287006
  35.8970565   8.8035582  39.7835309  36.6098537   9.4383047  39.7111210
  35.4060593   8.8999448  38.9675311  37.6188092   2.7086835  31.3552601
  36.6844370   2.8288297  31.1857305  37.7964760   1.8059301  31.0912611
  41.0060643  -1.4495846  31.8902635  41.4721095  -0.6167855  31.8162937
  41.4568144  -1.9150865  32.5947893  30.9482478   6.5530025  40.6040880
  31.6491938   7.1866508  40.7570274  30.4777593   6.8944757  39.8436519
  38.7483764  -0.8925367  38.4293430  38.0955215  -0.6449460  37.7745883
  39.1264144  -1.7061229  38.0955907  35.7090938   9.1434326  32.5321600
  35.8913333   8.3255982  32.9949353  36.5323924   9.3602018  32.0946490
  36.0433104   8.0702511  29.7936649  36.5720870   7.5594966  29.1806811
  36.3061323   7.7545041  30.6582182  34.7971337  -0.1505556  44.9159467
  34.1211974  -0.2511427  45.5861842  35.6198971  -0.3066342  45.3795464
  26.5450196   6.0866380  37.5371982  27.1303633   5.3410068  37.6699887
  26.3475035   6.3970337  38.4208646  29.3988852   9.1217628  32.5534425
  28.7299227   9.6063755  32.0698465  29.2601721   9.3686848  33.4677803
  33.5394120  11.1561371  39.1517083  34.0912428  11.3192993  39.9166168
  33.8800314  11.7465809  38.4797108  38.3904994   5.9822629  45.0065738
  38.9344898   6.5952587  44.5120692  37.8091839   6.5402207  45.5232751
  36.6762507   9.1043347  36.1380765  36.5513647   8.3033087  35.6291711
  37.3341599   9.5989540  35.6494735  38.7397416   6.9052367  37.7660315
  37.7927751   6.7857718  37.6938642  39.0880189   6.0174865  37.8486577
  35.7443849   6.7005083  33.9664668  35.5968812   5.7721791  34.1472238
  36.5697343   6.7225174  33.4821743  39.3477971   7.5233642  35.0529540
  40.2724518   7.3176503  34.9153992  39.1793274   7.2750043  35.9618882
  39.1373287   8.0419309  30.4091632  39.3110165   7.4765732  29.6565484
  39.6302178   8.8420204  30.2271122  44.9912678   0.8055732  32.0281932
  45.4343824   0.0563057  31.6301055  44.1139189   0.7965869  31.6455664
  40.1248460   7.3586074  27.5088530  40.8199364   7.9792766  27.7275845
  40.4671610   6.5081425  27.7840908  42.0239883   4.8085779  29.0375861
  42.5491207   5.1473052  28.3125181  41.9362235   3.8732795  28.8538996
  33.6859931   8.7219853  41.1665738  33.9947058   8.4769000  42.0388437
  34.4835414   8.9266491  40.6784608  33.7080544  10.8757763  33.3971114
  33.2685534  10.3834141  34.0903971  34.4588660  10.3330730  33.1563189
  26.1872883   7.0669303  33.3995742  27.0130902   6.7673075  33.0194386
  25.8366935   6.2976926  33.8485531  31.1554416   6.4195772  35.4693416
  30.5334425   5.7566477  35.1695644  31.8259283   6.4456903  34.7867064
  41.7133789   5.4418683  44.3427059  40.9229333   5.4242822  43.8031558
  41.4767143   5.9806977  45.0976096  41.8331664   2.2911149  41.6559787
  41.8829669   2.1261157  42.5975310  41.7245587   1.4238408  41.2657668
  39.1235426  -1.7257923  42.9719094  40.0245289  -1.8651458  42.6803092
  39.1983401  -1.5603468  43.9117272  33.4578232  -4.3491068  41.8172281
  32.5881541  -4.0557502  41.5454869  33.6937712  -3.7650623  42.5379544
  43.3349861   4.7108091  41.9001809  43.0434669   5.0738071  42.7365270
  42.7221992   3.9975099  41.7215141  44.5345543   2.2760971  34.4204379
  45.3692434   2.7150775  34.5841940  44.6704672   1.7999624  33.6012625
  41.5837049  -0.1659295  40.3681867  42.0591171   0.0268352  39.5600718
  40.6602614  -0.1100109  40.1225251  40.2838718  -3.2893535  38.6010173
  41.2356141  -3.1895437  38.6222397  40.1142168  -4.0815266  39.1108257
  38.3053097  -6.2037951  38.7869574  37.7103030  -5.9232939  38.0916062
  38.0202794  -5.7144050  39.5586315  42.7626796  -0.0687415  37.7152472
  42.7303116  -1.0071414  37.9012156  43.3727419   0.0096622  36.9818297
  42.9121284  -3.2776371  37.7610755  42.3960333  -4.0617915  37.5740684
  43.7961233  -3.6057655  37.9257275  48.5803346   0.9928592  36.8558509
  49.3106734   0.7313880  37.4166212  47.9710291   0.2557314  36.8960577
  46.6618643  -0.8663545  37.4532960  45.9351806  -1.0007580  36.8449452
  46.2465930  -0.5586717  38.2589678  34.4848819   2.8526384  45.2180333
  35.4051829   3.0304983  45.4120380  34.4498402   1.9082430  45.0660033
  27.4810892   0.7627419  37.8603114  27.6996901   1.6944527  37.8791148
  27.8936666   0.4035393  38.6457918  32.3538757  -3.6639375  47.2505863
  32.2535484  -2.7145018  47.1817954  32.1360299  -3.9921136  46.3781933
  32.2170027  -0.2342236  46.0670925  31.7337109   0.5658124  46.2734814
  32.3030966  -0.2234292  45.1138369  28.1443365   3.6562298  38.1039359
  29.0986618   3.6246241  38.0369290  27.9455888   3.1952922  38.9189585
  28.7342747   2.2263414  40.6710156  29.5535636   2.7207493  40.6944994
  29.0079554   1.3095382  40.6427724  41.8423879  -5.3579312  33.7492451
  42.6184269  -4.8682860  34.0217068  41.1172013  -4.9321258  34.2064321
  44.2796438  -4.6451693  34.8066392  44.8740928  -4.8855957  34.0959700
  44.3523021  -5.3644563  35.4339928  26.4993593   9.1981918  35.1209557
  26.3648061   8.4382319  34.5547555  26.0825656   9.9222818  34.6538346
  46.5867510  -1.3385492  33.5809813  46.0267068  -1.2692303  34.3541375
  45.9811014  -1.5144508  32.8609309  29.6562719  10.0951235  35.3327999
  29.5395103  11.0396667  35.2306690  28.8355165   9.7924796  35.7213799
  36.5131053   3.6282396  46.8694494  37.3822213   3.8023048  46.5081129
  36.0337805   4.4476812  46.7470223  30.6817233  10.7479497  38.5483928
  31.5844480  10.7803107  38.8650423  30.4554603   9.8179948  38.5630264
  32.4370835   9.5010483  35.2094006  31.4866466   9.5012345  35.0958379
  32.7403322   8.7543218  34.6930041  48.1723529  15.3371022  36.2739769
  48.8101939  15.2177769  35.5703109  48.0544372  16.2851866  36.3327721
  44.9813235  15.2898450  36.2101293  44.6431747  15.1739514  35.3221828
  45.8503003  14.8889615  36.1902300  40.8400051  17.1433926  32.1998184
  40.2764916  17.0523863  31.4314472  40.7252446  16.3233831  32.6800677
  45.4633018  16.4433301  42.1687499  45.4521659  16.0486100  41.2968003
  45.6253658  15.7099374  42.7621270  38.3864483  18.6385118  35.0382405
  39.1785775  18.2975942  34.6228704  38.6261133  18.7480093  35.9584558
  46.4199610  20.8104894  27.5112649  45.7687589  21.3958974  27.1246663
  47.2143972  21.3411089  27.5707687  40.3455237  17.8994031  27.9099784
  41.1186113  17.3523018  27.7712659  40.6980636  18.7638280  28.1214245
  42.1840279  19.2270413  41.1166683  41.8930145  20.1316044  41.0013349
  42.8197264  19.2686941  41.8310753  43.1096486  16.6047262  37.7068043
  43.7060058  16.3803284  36.9925006  43.1671458  15.8632007  38.3093490
  42.6821515  14.0586697  25.5418234  42.9347035  13.5368218  24.7801697
  41.7446074  13.8952843  25.6444917  47.7264797  13.0622475  33.3492977
  48.5127887  12.6441899  32.9983394  47.9903502  13.9668568  33.5174625
  47.8974875  18.4995326  28.0481634  47.2620708  18.5729952  28.7602538
  47.5672281  19.0888925  27.3700713  53.1273224  12.9997709  34.2525955
  53.8598396  12.4296925  34.4863785  52.3712580  12.6119309  34.6932461
  42.4017803  15.9614803  27.7442609  42.2854061  15.2859706  28.4123693
  42.5120063  15.4747177  26.9274762  44.7449344  15.4224950  31.4489298
  44.3807551  14.8955571  32.1602219  45.6016460  15.0323419  31.2755783
  50.6498645   6.7119283  38.7120564  50.3181970   7.5814694  38.4881779
  50.0544258   6.3955567  39.3914594  44.3854831  10.4514850  26.4450646
  44.5529234  11.3195086  26.8121117  44.1952000  10.6142132  25.5211936
  47.1430164  18.9131829  38.1116477  46.8430887  19.8156868  38.0032284
  46.7981224  18.6464012  38.9637630  40.5942646  15.3645626  34.1453181
  39.6693142  15.2321840  34.3530873  40.8427059  16.1439845  34.6423123
  50.5427308  11.4314369  35.7913914  49.6344185  11.3629777  35.4972675
  50.4914904  11.9086314  36.6195739  44.3644052  12.9072507  27.4297313
  44.2443677  13.3529558  28.2682793  43.6696640  13.2557825  26.8710851
  37.9551457  15.0078899  34.9796970  38.0843838  15.2613378  35.8936382
  37.2748908  15.6006607  34.6601625  42.1250944  25.6776149  31.0787444
  42.0474974  26.6283974  31.1575925  41.5212588  25.3322022  31.7362371
  44.6168174  12.8504014  43.7348811  43.8401508  13.4097935  43.7251676
  45.2558737  13.3360797  44.2563681  52.4088955   9.6330807  37.5691788
  51.7663335   9.9263340  36.9231582  51.9043883   9.5183728  38.3744985
  50.0629118  13.3793980  28.2577647  50.9746974  13.6121367  28.0825345
  49.5538765  13.9631025  27.6952726  42.8714546  15.6589468  43.2966778
  43.6129231  16.1974512  43.0201602  42.1651532  16.2855757  43.4538330
  48.3469886  17.8018608  41.8938940  48.7553242  17.3601019  41.1493572
  47.6247147  17.2271236  42.1473133  44.7000956  12.7391215  39.2672497
  45.5462151  13.1630629  39.4107146  44.6399594  12.0824839  39.9611060
  48.6698701  18.3619799  35.6491229  48.0407563  18.5265513  34.9467296
  48.2824363  18.7761409  36.4202193  52.5487932  19.2974237  33.0035592
  51.8638971  19.6773138  32.4532626  52.6331782  19.9069563  33.7367540
  47.8500401  10.3995583  40.9253670  47.6061333  11.1537644  40.3887946
  48.1260332  10.7780931  41.7600917  49.8038864  16.9434196  39.6030936
  50.0155759  17.5865956  38.9265317  49.7568612  16.1096512  39.1352866
  47.4065093   9.5552016  36.5067508  46.5449572   9.8533270  36.7984246
  47.4327528   9.7722415  35.5748541  44.2226662  18.0994207  32.9141314
  44.6865008  18.3781910  32.1245936  43.9583461  17.1977652  32.7314404
  41.1150743  17.6465689  35.8521077  41.6852101  18.0752957  35.2138561
  41.7058855  17.3648273  36.5505263  43.1595548  14.2217359  29.7230879
  43.8619592  14.6738403  30.1904805  42.8276177  13.5801178  30.3510772
  41.6075910  12.8129116  44.0982088  40.9774571  13.4945397  44.3317485
  41.5011998  12.7012198  43.1535227  36.9020882  12.4800912  35.0248012
  36.1119936  12.7358441  34.5488123  37.3932130  13.2949250  35.1300053
  50.9184692  19.8206151  37.7753293  51.7402136  19.4186339  37.4935975
  50.9147095  19.7174385  38.7269409  38.8535628  12.8445491  31.9831489
  38.0566791  12.9564186  32.5014985  38.6261220  13.1832144  31.1172380
  44.6841295  19.3690195  39.9314004  44.7485728  19.8310602  40.7672176
  43.9752219  18.7387559  40.0596314  35.1858585  12.7331403  37.4563003
  35.4366624  13.6178412  37.7220579  35.7218134  12.5536004  36.6838095
  59.0090685  16.1644900  34.1238265  58.2554393  15.5952298  33.9682269
  59.1438226  16.1307564  35.0708899  44.3989313  21.0358302  29.7992984
  44.2634988  21.8809838  30.2277832  44.9399126  21.2377580  29.0358918
  40.8856653   7.1149882  46.4607339  40.4923598   6.5616080  47.1354984
  41.7022793   7.4260460  46.8513857  37.8518710  18.5533740  30.3720909
  38.3643231  19.3476990  30.5226474  38.5041423  17.8560031  30.3054511
  39.6613595  21.6699496  32.4543662  39.8380223  22.5917461  32.2664646
  40.4570429  21.3557916  32.8838042  43.8024614   8.5307761  44.0527596
  44.5434327   9.1314914  43.9732058  44.0342537   7.7885399  43.4945638
  38.9465952  13.7164128  42.3305826  38.8319467  12.8149385  42.6312924
  38.0910469  13.9627825  41.9790642  46.0257789  21.6581869  43.9293326
  45.5821644  20.8718247  43.6114231  46.6875003  21.8461019  43.2637217
  40.7844911  23.1877670  38.4554005  41.3352336  23.0594733  37.6830999
  39.9456387  23.4872559  38.1048897  48.1239028  21.9384668  41.9574727
  48.1057503  22.7593550  41.4654997  49.0458948  21.8138744  42.1824869
  44.5812082  19.4528798  42.7998236  45.1140418  18.6917086  42.5697544
  44.0526163  19.1602450  43.5422390  47.7481777   4.5588864  38.3291878
  47.4046046   5.4490506  38.2530988  48.1160739   4.3690522  37.4661463
  35.8167627  16.8822394  31.1480480  36.6542849  17.2919403  30.9314187
  35.9945895  15.9421837  31.1180674  47.7132059  14.5497475  26.8364313
  47.1978683  15.3202080  27.0752700  47.4409368  13.8762611  27.4597374
  45.2979170   9.3947176  31.8949551  44.4420767   9.0054026  31.7155190
  45.7106122   9.4739137  31.0349337  46.8278317   6.9293519  36.2941111
  46.3243113   6.8923654  35.4808916  47.1208924   7.8386262  36.3537767
  43.0721203   7.0132249  35.3007293  43.9374200   6.8175057  34.9413182
  43.1398712   6.7842601  36.2276649  52.6866333  17.3029830  28.7717486
  51.9095776  16.9640989  28.3272648  53.3657814  17.3082453  28.0972451
  47.5018363  12.4224567  28.6624094  47.1968498  12.7370716  29.5134237
  48.4548805  12.5005987  28.7051427  45.9464794  18.5814790  30.3117048
  45.4186156  17.8467550  29.9990285  45.4452297  19.3589467  30.0657016
  50.9257640  16.7763811  35.4284094  50.2681315  17.4663072  35.5164223
  51.7298040  17.1660243  35.7718080  40.6783522   9.2434457  32.6723659
  41.2527274   9.0209638  31.9396852  41.2654504   9.3123151  33.4252261
  49.7363099  15.1308184  33.4788036  50.2494981  15.7638175  33.9809746
  50.3864323  14.5309379  33.1131396  41.0053109  11.2738918  26.6919545
  40.1690421  11.6113604  27.0128819  40.8657879  11.1387898  25.7546682
  42.9806190   6.1175706  31.3998729  42.3270602   5.8024723  30.7755344
  42.9386664   5.4951446  32.1258552  44.0917395  16.3995001  23.3152021
  43.1844456  16.1684254  23.5143170  44.5888427  15.6032620  23.5026002
  46.9985473  25.1092508  26.2348707  46.3247172  25.4124205  26.8433665
  47.3851295  25.9121588  25.8854164  46.2143930  12.6057639  35.7246376
  45.2966491  12.8272586  35.5668064  46.6304074  12.6803950  34.8658084
  46.9978978  14.0049055  30.8549057  47.7450797  14.5170452  30.5456179
  47.2670567  13.6833108  31.7153450  45.2705628  16.5007596  27.8376011
  44.3616847  16.2166628  27.9348481  45.3000712  16.9206674  26.9779318
  50.5024895  20.1114185  31.6067179  50.0487223  19.2705095  31.6632369
  49.8718862  20.7475583  31.9441959  49.4457815  11.0406171  32.8367846
  48.7080572  10.5283557  33.1678089  49.6984589  10.6006553  32.0251123
  48.9457835  21.9490682  32.5416997  49.2380809  22.5095739  31.8229362
  49.4556455  22.2419243  33.2970156  49.5469442   3.8182423  33.4309615
  49.8528319   2.9579787  33.1435530  50.2722047   4.4100043  33.2308609
  35.8393798  14.2213110  31.8191213  35.6418198  13.6282470  31.0942280
  35.2840462  13.9165320  32.5367152  43.8190522  14.1136216  33.9385806
  43.8739132  13.1610053  33.8628283  43.0081724  14.2695655  34.4227105
  44.9681716  18.0416339  25.1764090  44.5301146  17.3252198  24.7169727
  45.7092157  18.2692454  24.6149181  41.7582882  12.7313276  31.6976185
  40.9450747  13.0307446  32.1041377  42.2541876  12.3368965  32.4150667
  43.9091460  22.7271033  33.6310450  43.8667639  22.9531879  32.7018982
  44.8254159  22.4934407  33.7796251  47.3557094  13.1955100  40.5291079
  47.7106481  13.4226574  41.3885545  48.0029225  13.5273477  39.9068334
  53.0854831  16.3173536  31.2340408  52.9472729  16.5075132  30.3061597
  52.7291049  17.0792919  31.6908459  41.2496957  10.3031631  37.3137420
  41.8896336  10.1620391  36.6160383  40.4174487  10.0166145  36.9376022
  53.1124210  18.3850063  36.2451680  53.5460717  18.2925352  37.0934734
  53.8255791  18.3607564  35.6071696  42.0257261  19.6034062  33.4272413
  42.8197859  19.1084382  33.2254988  41.3148953  19.0751925  33.0640118
  46.8452105  21.9852157  37.7784780  46.8989127  22.5543094  38.5462496
  45.9766886  22.1554042  37.4138817  38.3340024  13.7477144  29.5032165
  37.4037612  13.6861599  29.7202127  38.4297496  13.2253096  28.7068807
  38.2525573  10.2731956  32.0910407  38.5132390  11.1877290  31.9819567
  39.0742745   9.8056399  32.2407020  39.7250498  11.6869714  39.2609231
  40.3973552  11.4787076  38.6121880  38.8980285  11.4891800  38.8214464
  53.9739760  18.4273764  38.7784565  54.1675650  19.3319574  39.0243840
  53.8740378  17.9681183  39.6123150  45.6276070   8.3131655  41.2774892
  44.9803986   9.0121604  41.1839369  46.3977086   8.7467798  41.6451141
  49.0354868  18.5780507  44.3525446  48.8840375  18.3491058  43.4355529
  49.0259548  19.5351108  44.3656791  45.8040205  16.1512419  39.3371712
  46.7332265  16.3023579  39.1640679  45.3831235  16.2396440  38.4820359
  44.6028537  20.1763084  37.1070250  44.4639622  19.8081868  37.9796188
  43.8143133  20.6910723  36.9354207  45.1976689  25.2772180  28.4495786
  45.3728444  24.8060223  29.2641409  44.5109477  25.9037947  28.6777047
  46.1533752  19.5544687  34.4959087  45.8183584  19.5145456  35.3916737
  45.6537697  18.8889402  34.0229498  40.1277996  14.9612317  40.0211669
  39.9897794  14.2292555  40.6223208  41.0382919  14.8721217  39.7395856
  49.0892943  16.9000721  24.7696147  48.4722114  16.1747549  24.6729200
  48.6209432  17.6610081  24.4263221  42.7560296  14.6732276  39.5095348
  43.4659915  14.0325468  39.4681967  42.7129605  14.9245171  40.4321529
  50.7447075  21.6099629  42.4301927  50.6859621  20.9258849  41.7632510
  51.1466593  22.3518619  41.9782553  41.4689230  11.6597494  41.3290988
  40.9326587  11.2088232  41.9812584  40.8805939  11.7943403  40.5861452
  39.7637774  28.4261543  35.2235646  40.0034372  29.0580067  35.9014665
  38.9206970  28.0749583  35.5101006  50.7464482  19.5739213  40.6615907
  49.8591261  19.2365135  40.7842306  51.3163033  18.8422244  40.8984673
  32.3993629  15.9063305  33.9858959  33.0864669  15.5925035  33.3979974
  32.2441758  16.8104670  33.7126210  37.2028352  10.7953501  38.4143982
  37.1186540  10.1879171  37.6794392  36.3811058  11.2862520  38.4153479
  44.2765636  24.2340666  37.6277150  44.2035807  25.0395637  38.1396455
  43.8343029  24.4332631  36.8025172  44.0655415  23.4712436  31.1379972
  43.2822937  24.0134116  31.2318196  44.7648161  23.9886415  31.5374213
  47.3752065   9.2807065  33.7814177  47.8720765   8.5277027  33.4615248
  46.6039047   9.3171382  33.2157387  55.2281823  14.9847431  35.4232469
  55.2171699  15.8672146  35.0526402  54.3599202  14.6318981  35.2287006
  46.7364319  24.1327500  39.7835309  47.4492291  24.7674964  39.7111210
  46.2454348  24.2291366  38.9675311  48.4581846  18.0378752  31.3552601
  47.5238125  18.1580215  31.1857305  48.6358515  17.1351219  31.0912611
  43.9587034  11.4224448  33.5085862  43.5884822  10.8695488  34.1966767
  44.4546127  10.8182581  32.9560862  51.8454398  13.8796071  31.8902635
  52.3114850  14.7124063  31.8162937  52.2961898  13.4141053  32.5947893
  41.7876233  21.8821943  40.6040880  42.4885692  22.5158426  40.7570274
  41.3171348  22.2236675  39.8436519  49.9130629  20.2239893  28.8888787
  50.1890473  20.1096487  29.7982661  49.0435127  19.8257378  28.8500960
  49.8171060   6.2476658  35.9293536  48.9034140   6.4780885  36.0975743
  50.2464162   6.3315103  36.7807569  49.5877519  14.4366550  38.4293430
  48.9348969  14.6842458  37.7745883  49.9657899  13.6230689  38.0955907
  46.5484693  24.4726244  32.5321600  46.7307087  23.6547900  32.9949353
  47.3717679  24.6893936  32.0946490  46.8826858  23.3994429  29.7936649
  47.4114625  22.8886883  29.1806811  47.1455078  23.0836959  30.6582182
  45.6365092  15.1786362  44.9159467  44.9605729  15.0780491  45.5861842
  46.4592726  15.0225575  45.3795464  37.3843951  21.4158298  37.5371982
  37.9697388  20.6701986  37.6699887  37.1868789  21.7262255  38.4208646
  40.2382606  24.4509545  32.5534425  39.5692981  24.9355673  32.0698465
  40.0995476  24.6978766  33.4677803  31.9761606  13.9863898  36.2576426
  32.0145705  13.4527489  37.0513544  31.4701898  13.4599104  35.6387403
  39.3552368   8.8328439  39.7538968  39.4193694   9.6943270  39.3416366
  39.2919488   8.2202440  39.0211326  38.8304640  10.9051571  43.4012002
  39.4576679  10.5228649  44.0149527  37.9732559  10.6865773  43.7667695
  49.2298749  21.3114546  45.0065738  49.7738653  21.9244505  44.5120692
  48.6485594  21.8694125  45.5232751  35.6070183  12.7128000  29.3330357
  35.9023624  11.8038679  29.2797411  34.7058219  12.6915740  29.0111359
  47.5156262  24.4335264  36.1380765  47.3907401  23.6325004  35.6291711
  48.1735353  24.9281458  35.6494735  39.1364430  10.7883997  35.3157906
  38.4151016  11.4019965  35.1765379  39.9257686  11.3241762  35.2374552
  49.5791170  22.2344285  37.7660315  48.6321506  22.1149636  37.6938642
  49.9273943  21.3466783  37.8486577  41.9390744   8.1238423  41.5898557
  42.4625145   8.3700720  42.3524867  41.7203077   8.9558458  41.1701695
  37.3358025  10.3942098  29.4569682  37.0070731   9.5139477  29.2744788
  37.6897395  10.3389767  30.3446071  46.5837604  22.0297001  33.9664668
  46.4362566  21.1013708  34.1472238  47.4091097  22.0517091  33.4821743
  40.4499848  10.6815068  29.8245160  40.7895920  11.2100989  29.1023768
  40.8971968  11.0195474  30.6003726  50.1871725  22.8525560  35.0529540
  51.1118273  22.6468421  34.9153992  50.0187029  22.6041961  35.9618882
  43.1443289   9.0652119  39.2748228  42.8040109   8.2659932  39.6768908
  42.4382295   9.3653829  38.7025061  43.7959761   6.1501431  37.7275551
  44.6185830   5.6761909  37.6054441  44.0397824   6.9291915  38.2274237
  42.4367995   9.1789689  28.0238453  43.1576358   9.5570942  27.5202169
  41.8133299   9.8978566  28.1273431  46.5799118   9.8834838  28.9596785
  46.7962732  10.7659476  28.6585613  46.0993185   9.4921052  28.2302427
  41.3198339  12.8420552  35.5367530  41.1742920  13.1560855  36.4291811
  40.8423543  13.4605452  34.9838428  43.1794722   9.8323100  35.5848419
  43.1656291   8.9364193  35.2480717  43.8967150   9.8393763  36.2186705
  45.0320853  10.2660440  37.6301547  44.7738631  11.1877510  37.6285877
  44.5005893   9.8690874  38.3202011  49.9767042  23.3711227  30.4091632
  50.1503919  22.8057649  29.6565484  50.4695933  24.1712122  30.2271122
  35.7944001  15.3825896  38.4755191  35.2497470  16.1585704  38.6075465
  36.6723351  15.7296701  38.3174312  42.5831618   8.7137480  30.8535989
  42.7047529   7.7854126  31.0526877  42.2933660   8.7276166  29.9414305
  45.4522809   6.3992390  33.9902709  45.4744505   6.4631723  33.0354689
  45.8690868   5.5596899  34.1843215  55.8306433  16.1347650  32.0281932
  56.2737579  15.3854975  31.6301055  54.9532943  16.1257786  31.6455664
  50.9642214  22.6877991  27.5088530  51.6593119  23.3084684  27.7275845
  51.3065364  21.8373343  27.7840908  36.5810023  14.5095792  41.3685348
  35.8391759  14.6578428  41.9549978  36.2602768  14.7704058  40.5052097
  52.8633637  20.1377697  29.0375861  53.3884961  20.4764970  28.3125181
  52.7755990  19.2024712  28.8538996  44.5474298  26.2049680  33.3971114
  44.1079288  25.7126059  34.0903971  45.2982415  25.6622648  33.1563189
  37.0266637  22.3961221  33.3995742  37.8524657  22.0964993  33.0194386
  36.6760689  21.6268843  33.8485531  41.9948170  21.7487689  35.4693416
  41.3728179  21.0858394  35.1695644  42.6653037  21.7748821  34.7867064
  35.2275242  20.3147548  34.3584676  34.3907150  19.8869722  34.1768677
  35.1998887  20.5079991  35.2955467  42.0672698  10.2269477  45.0625922
  42.1160853  11.1031600  44.6803691  42.6095212   9.6846870  44.4897565
  52.5527543  20.7710601  44.3427059  51.7623087  20.7534739  43.8031558
  52.3160898  21.3098894  45.0976096  52.6725418  17.6203067  41.6559787
  52.7223423  17.4553074  42.5975310  52.5639342  16.7530326  41.2657668
  41.5561677  20.2991613  28.9451876  41.7049797  20.9827077  28.2918549
  42.3628121  20.2796703  29.4601332  49.9629181  13.6033995  42.9719094
  50.8639044  13.4640460  42.6803092  50.0377155  13.7688450  43.9117272
  44.2971986  10.9800850  41.8172281  43.4275296  11.2734416  41.5454869
  44.5331466  11.5641295  42.5379544  54.1743615  20.0400008  41.9001809
  53.8828424  20.4029989  42.7365270  53.5615747  19.3267017  41.7215141
  55.3739298  17.6052888  34.4204379  56.2086189  18.0442692  34.5841940
  55.5098426  17.1291541  33.6012625  52.4230803  15.1632623  40.3681867
  52.8984925  15.3560269  39.5600718  51.4996369  15.2191809  40.1225251
  39.3114310  16.3256790  29.9512945  39.0660352  15.4219120  30.1493155
  39.4810225  16.3273941  29.0092423  47.0011020   7.1980467  39.3337701
  47.5192964   7.9341494  39.0084189  46.6466153   7.5044460  40.1684460
  38.5809958  12.0585148  27.4499107  37.8879203  12.1329503  26.7939143
  38.3361710  11.2945491  27.9720624  47.2523614   3.6180749  34.8538597
  47.5325368   2.9503938  35.4799024  48.0374221   3.8109845  34.3413261
  45.0557083  22.7939743  26.4163624  44.4831050  23.4129930  25.9634096
  45.6289876  23.3439105  26.9503546  51.1232472  12.0398383  38.6010173
  52.0749895  12.1396481  38.6222397  50.9535923  11.2476652  39.1108257
  49.1446852   9.1253966  38.7869574  48.5496784   9.4058979  38.0916062
  48.8596549   9.6147867  39.5586315  48.2754342  23.0776893  27.5472206
  49.2085016  23.0122455  27.7505082  48.1877555  23.9133160  27.0886739
  50.9042359  22.3942764  24.5076154  50.8255991  22.0602627  25.4011912
  51.7252026  22.8864531  24.5067626  53.6020550  15.2604503  37.7152472
  53.5696870  14.3220504  37.9012156  54.2121174  15.3388540  36.9818297
  45.4403881  14.1300556  23.7579676  46.3862986  14.0006764  23.8268094
  45.0618126  13.3915218  24.2349104  53.7515039  12.0515546  37.7610755
  53.2354087  11.2674003  37.5740684  54.6354987  11.7234263  37.9257275
  51.4125766   5.7956562  33.7206568  51.2150587   5.4871650  34.6049900
  52.0225471   6.5218201  33.8504498  59.4197100  16.3220510  36.8558509
  60.1500489  16.0605798  37.4166212  58.8104046  15.5849232  36.8960577
  57.5012397  14.4628372  37.4532960  56.7745561  14.3284337  36.8449452
  57.0859684  14.7705201  38.2589678  45.3242574  18.1818302  45.2180333
  46.2445583  18.3596901  45.4120380  45.2892157  17.2374347  45.0660033
  43.6246798  12.0550532  23.6934562  42.7178254  11.7583645  23.7697275
  43.9022779  11.7580350  22.8268848  34.5424739  13.3756896  34.1433608
  34.2227523  12.5222204  33.8507982  33.9958167  13.5905474  34.8991575
  38.3204646  16.0919337  37.8603114  38.5390656  17.0236444  37.8791148
  38.7330420  15.7327311  38.6457918  45.2408864   6.5987422  29.8478803
  44.4309592   6.2534507  30.2234049  45.9293281   6.2894966  30.4366414
  47.1699412   5.6765469  31.4703099  47.7230451   6.0960922  32.1293123
  47.4069499   4.7501217  31.5126055  43.1932512  11.6652542  47.2505863
  43.0929238  12.6146899  47.1817954  42.9754054  11.3370781  46.3781933
  34.4112999  16.9959807  36.1126730  33.7176470  16.5813760  35.5996684
  35.1585990  17.0380344  35.5160148  50.5478219   7.7865994  30.9781764
  49.9676888   8.4450798  30.5959816  50.2814152   6.9643338  30.5669181
  48.9981786   7.1871052  33.1803084  49.4981564   7.2987586  32.3717403
  49.6417394   6.8832104  33.8203892  43.0563782  15.0949681  46.0670925
  42.5730863  15.8950041  46.2734814  43.1424721  15.1057626  45.1138369
  36.3249741  16.9278061  33.9892744  36.3020429  17.0265748  33.0374627
  36.6350378  17.7743212  34.3109911  38.9837119  18.9854216  38.1039359
  39.9380373  18.9538158  38.0369290  38.7849643  18.5244840  38.9189585
  39.5736501  17.5555332  40.6710156  40.3929390  18.0499411  40.6944994
  39.8473309  16.6387300  40.6427724  49.3303097   9.9466084  30.0338112
  48.4428952  10.2315735  29.8158307  49.7457086   9.7859848  29.1865389
  52.6817634   9.9712605  33.7492451  53.4578024  10.4609058  34.0217068
  51.9565768  10.3970659  34.2064321  55.1190192  10.6840224  34.8066392
  55.7134683  10.4435960  34.0959700  55.1916776   9.9647355  35.4339928
  37.3387348  24.5273835  35.1209557  37.2041816  23.7674236  34.5547555
  36.9219410  25.2514735  34.6538346  48.4746311  19.7110759  24.1286132
  49.1782161  19.9160761  24.7443788  47.7508960  20.2787521  24.3935215
  49.3044121  15.4620620  30.2488402  49.2479323  15.9189172  29.4096035
  49.8572464  14.7011305  30.0711245  53.1148927  11.2510352  31.0738522
  52.8585861  10.8506988  31.9046729  52.4901795  11.9654146  30.9488661
  57.4261265  13.9906425  33.5809813  56.8660823  14.0599615  34.3541375
  56.8204768  13.8147410  32.8609309  40.4956474  25.4243152  35.3327999
  40.3788858  26.3688585  35.2306690  39.6748920  25.1216714  35.7213799
  50.3833008  20.1493288  26.1784592  51.2178612  19.7174487  25.9962067
  50.2217351  19.9775302  27.1061486  50.0378900  16.6525401  27.5440931
  49.9827704  16.4869673  26.6029375  49.4124956  17.3601434  27.7003121
  34.8271415  11.8893466  41.3702354  35.4730279  11.3792420  41.8589579
  34.6188567  12.6262147  41.9445779  47.3524808  18.9574313  46.8694494
  48.2215967  19.1314966  46.5081129  46.8731559  19.7768730  46.7470223
  43.3475026   6.1533510  27.1226250  43.3353696   7.0975350  27.2794521
  44.2398448   5.9703656  26.8285711  43.2764590  24.8302401  35.2094006
  42.3260221  24.8304262  35.0958379  43.5797076  24.0835135  34.6930041
  47.1627145   2.7476287  31.3772187  46.3959541   2.1934774  31.5228869
  47.5737850   2.8198156  32.2386338  39.1668906   9.0361083  45.4677368
  40.0300368   8.6797888  45.6780692  38.5934317   8.6974978  46.1552772
  59.0117283  30.6662939  36.2739769  59.6495693  30.5469687  35.5703109
  58.8938126  31.6143783  36.3327721  55.8206990  30.6190367  36.2101293
  55.4825501  30.5031432  35.3221828  56.6896758  30.2181532  36.1902300
  51.6793805  32.4725844  32.1998184  51.1158670  32.3815781  31.4314472
  51.5646200  31.6525748  32.6800677  56.3026773  31.7725219  42.1687499
  56.2915413  31.3778017  41.2968003  56.4647412  31.0391292  42.7621270
  49.2258237  33.9677035  35.0382405  50.0179529  33.6267860  34.6228704
  49.4654887  34.0772010  35.9584558  57.2593364  36.1396811  27.5112649
  56.6081344  36.7250892  27.1246663  58.0537727  36.6703006  27.5707687
  51.1848991  33.2285949  27.9099784  51.9579867  32.6814936  27.7712659
  51.5374390  34.0930198  28.1214245  53.0234034  34.5562331  41.1166683
  52.7323900  35.4607962  41.0013349  53.6591018  34.5978858  41.8310753
  53.9490241  31.9339179  37.7068043  54.5453813  31.7095202  36.9925006
  54.0065212  31.1923925  38.3093490  53.5215269  29.3878615  25.5418234
  53.7740790  28.8660136  24.7801697  52.5839828  29.2244760  25.6444917
  58.5658552  28.3914393  33.3492977  59.3521641  27.9733816  32.9983394
  58.8297256  29.2960485  33.5174625  58.7368629  33.8287243  28.0481634
  58.1014462  33.9021870  28.7602538  58.4066036  34.4180842  27.3700713
  63.9666979  28.3289626  34.2525955  64.6992151  27.7588843  34.4863785
  63.2106335  27.9411227  34.6932461  53.2411558  31.2906721  27.7442609
  53.1247816  30.6151624  28.4123693  53.3513818  30.8039095  26.9274762
  55.5843099  30.7516868  31.4489298  55.2201306  30.2247489  32.1602219
  56.4410215  30.3615337  31.2755783  61.4892399  22.0411200  38.7120564
  61.1575724  22.9106611  38.4881779  60.8938013  21.7247484  39.3914594
  55.2248586  25.7806767  26.4450646  55.3922988  26.6487004  26.8121117
  55.0345755  25.9434049  25.5211936  57.9823919  34.2423746  38.1116477
  57.6824642  35.1448785  38.0032284  57.6374978  33.9755930  38.9637630
  51.4336400  30.6937543  34.1453181  50.5086897  30.5613757  34.3530873
  51.6820814  31.4731762  34.6423123  61.3821063  26.7606287  35.7913914
  60.4737940  26.6921695  35.4972675  61.3308658  27.2378232  36.6195739
  55.2037807  28.2364425  27.4297313  55.0837432  28.6821476  28.2682793
  54.5090395  28.5849743  26.8710851  48.7945211  30.3370817  34.9796970
  48.9237593  30.5905296  35.8936382  48.1142663  30.9298525  34.6601625
  52.9644699  41.0068067  31.0787444  52.8868728  41.9575892  31.1575925
  52.3606342  40.6613939  31.7362371  55.4561928  28.1795932  43.7348811
  54.6795262  28.7389852  43.7251676  56.0952491  28.6652715  44.2563681
  63.2482709  24.9622725  37.5691788  62.6057089  25.2555258  36.9231582
  62.7437638  24.8475645  38.3744985  60.9022873  28.7085898  28.2577647
  61.8140729  28.9413285  28.0825345  60.3932520  29.2922942  27.6952726
  55.5394710  28.0683133  39.2672497  56.3855906  28.4922546  39.4107146
  55.4793348  27.4116757  39.9611060  59.5092455  33.6911717  35.6491229
  58.8801317  33.8557431  34.9467296  59.1218117  34.1053326  36.4202193
  63.3881687  34.6266154  33.0035592  62.7032725  35.0065056  32.4532626
  63.4725536  35.2361481  33.7367540  58.6894156  25.7287501  40.9253670
  58.4455088  26.4829562  40.3887946  58.9654086  26.1072849  41.7600917
  58.2458847  24.8843934  36.5067508  57.3843327  25.1825188  36.7984246
  58.2721282  25.1014333  35.5748541  55.0620417  33.4286125  32.9141314
  55.5258762  33.7073828  32.1245936  54.7977215  32.5269569  32.7314404
  51.9544498  32.9757606  35.8521077  52.5245855  33.4044875  35.2138561
  52.5452610  32.6940191  36.5505263  53.9989303  29.5509277  29.7230879
  54.7013346  30.0030321  30.1904805  53.6669931  28.9093096  30.3510772
  47.7414637  27.8092830  35.0248012  46.9513691  28.0650358  34.5488123
  48.2325884  28.6241168  35.1300053  61.7578446  35.1498069  37.7753293
  62.5795890  34.7478256  37.4935975  61.7540849  35.0466303  38.7269409
  49.6929382  28.1737409  31.9831489  48.8960546  28.2856103  32.5014985
  49.4654974  28.5124061  31.1172380  55.5235050  34.6982112  39.9314004
  55.5879482  35.1602519  40.7672176  54.8145974  34.0679477  40.0596314
  46.0252340  28.0623320  37.4563003  46.2760378  28.9470330  37.7220579
  46.5611888  27.8827922  36.6838095  69.8484440  31.4936817  34.1238265
  69.0948148  30.9244215  33.9682269  69.9831981  31.4599482  35.0708899
  55.2383068  36.3650220  29.7992984  55.1028742  37.2101755  30.2277832
  55.7792880  36.5669497  29.0358918  51.7250407  22.4441800  46.4607339
  51.3317353  21.8907998  47.1354984  52.5416548  22.7552378  46.8513857
  48.6912465  33.8825658  30.3720909  49.2036986  34.6768908  30.5226474
  49.3435178  33.1851948  30.3054511  50.5007350  36.9991414  32.4543662
  50.6773978  37.9209379  32.2664646  51.2964183  36.6849833  32.8838042
  54.6418368  23.8599679  44.0527596  55.3828082  24.4606832  43.9732058
  54.8736291  23.1177316  43.4945638  51.6238665  38.5169588  38.4554005
  52.1746090  38.3886651  37.6830999  50.7850141  38.8164477  38.1048897
  55.4205836  34.7820716  42.7998236  55.9534173  34.0209004  42.5697544
  54.8919917  34.4894367  43.5422390  58.5875531  19.8880782  38.3291878
  58.2439801  20.7782423  38.2530988  58.9554494  19.6982439  37.4661463
  46.6561382  32.2114312  31.1480480  47.4936604  32.6211320  30.9314187
  46.8339649  31.2713754  31.1180674  58.5525814  29.8789393  26.8364313
  58.0372437  30.6493997  27.0752700  58.2803122  29.2054529  27.4597374
  56.1372925  24.7239093  31.8949551  55.2814521  24.3345944  31.7155190
  56.5499877  24.8031054  31.0349337  57.6672072  22.2585437  36.2941111
  57.1636867  22.2215572  35.4808916  57.9602678  23.1678179  36.3537767
  53.9114957  22.3424166  35.3007293  54.7767954  22.1466975  34.9413182
  53.9792466  22.1134518  36.2276649  63.5260088  32.6321747  28.7717486
  62.7489531  32.2932907  28.3272648  64.2051569  32.6374371  28.0972451
  58.3412117  27.7516485  28.6624094  58.0362253  28.0662634  29.5134237
  59.2942559  27.8297905  28.7051427  56.7858549  33.9106708  30.3117048
  56.2579910  33.1759468  29.9990285  56.2846052  34.6881384  30.0657016
  61.7651395  32.1055729  35.4284094  61.1075069  32.7954990  35.5164223
  62.5691794  32.4952161  35.7718080  51.5177276  24.5726374  32.6723659
  52.0921028  24.3501556  31.9396852  52.1048259  24.6415069  33.4252261
  60.5756854  30.4600101  33.4788036  61.0888735  31.0930093  33.9809746
  61.2258078  29.8601297  33.1131396  51.8446864  26.6030835  26.6919545
  51.0084176  26.9405522  27.0128819  51.7051633  26.4679815  25.7546682
  53.8199944  21.4467623  31.3998729  53.1664357  21.1316640  30.7755344
  53.7780418  20.8243364  32.1258552  54.9311149  31.7286918  23.3152021
  54.0238211  31.4976172  23.5143170  55.4282181  30.9324538  23.5026002
  57.8379228  40.4384426  26.2348707  57.1640927  40.7416122  26.8433665
  58.2245050  41.2413506  25.8854164  57.0537685  27.9349557  35.7246376
  56.1360246  28.1564504  35.5668064  57.4697828  28.0095867  34.8658084
  57.8372732  29.3340973  30.8549057  58.5844551  29.8462370  30.5456179
  58.1064322  29.0125025  31.7153450  56.1099382  31.8299513  27.8376011
  55.2010602  31.5458546  27.9348481  56.1394466  32.2498592  26.9779318
  61.3418650  35.4406103  31.6067179  60.8880977  34.5997013  31.6632369
  60.7112617  36.0767501  31.9441959  60.2851569  26.3698089  32.8367846
  59.5474326  25.8575475  33.1678089  60.5378343  25.9298470  32.0251123
  59.7851589  37.2782599  32.5416997  60.0774564  37.8387657  31.8229362
  60.2950210  37.5711160  33.2970156  60.3863197  19.1474341  33.4309615
  60.6922074  18.2871704  33.1435530  61.1115802  19.7391961  33.2308609
  46.6787553  29.5505027  31.8191213  46.4811953  28.9574388  31.0942280
  46.1234217  29.2457238  32.5367152  54.6584277  29.4428134  33.9385806
  54.7132886  28.4901970  33.8628283  53.8475479  29.5987573  34.4227105
  55.8075470  33.3708257  25.1764090  55.3694900  32.6544116  24.7169727
  56.5485911  33.5984372  24.6149181  52.5976636  28.0605194  31.6976185
  51.7844502  28.3599364  32.1041377  53.0935631  27.6660882  32.4150667
  54.7485214  38.0562951  33.6310450  54.7061393  38.2823797  32.7018982
  55.6647913  37.8226325  33.7796251  58.1950848  28.5247018  40.5291079
  58.5500236  28.7518491  41.3885545  58.8422979  28.8565395  39.9068334
  63.9248585  31.6465454  31.2340408  63.7866484  31.8367050  30.3061597
  63.5684804  32.4084837  31.6908459  52.0890711  25.6323549  37.3137420
  52.7290091  25.4912308  36.6160383  51.2568242  25.3458062  36.9376022
  63.9517965  33.7141981  36.2451680  64.3854471  33.6217270  37.0934734
  64.6649545  33.6899481  35.6071696  52.8651015  34.9325980  33.4272413
  53.6591614  34.4376300  33.2254988  52.1542707  34.4043843  33.0640118
  57.6845860  37.3144075  37.7784780  57.7382882  37.8835011  38.5462496
  56.8160641  37.4845960  37.4138817  49.1733779  29.0769061  29.5032165
  48.2431367  29.0153517  29.7202127  49.2691251  28.5545014  28.7068807
  49.0919328  25.6023874  32.0910407  49.3526145  26.5169207  31.9819567
  49.9136500  25.1348317  32.2407020  50.5644253  27.0161631  39.2609231
  51.2367306  26.8078993  38.6121880  49.7374039  26.8183717  38.8214464
  64.8133514  33.7565682  38.7784565  65.0069404  34.6611492  39.0243840
  64.7134132  33.2973101  39.6123150  56.4669825  23.6423572  41.2774892
  55.8197740  24.3413522  41.1839369  57.2370840  24.0759716  41.6451141
  56.6433959  31.4804337  39.3371712  57.5726019  31.6315497  39.1640679
  56.2224989  31.5688358  38.4820359  55.4422291  35.5055002  37.1070250
  55.3033377  35.1373786  37.9796188  54.6536887  36.0202641  36.9354207
  56.0370443  40.6064098  28.4495786  56.2122199  40.1352141  29.2641409
  55.3503231  41.2329864  28.6777047  56.9927506  34.8836604  34.4959087
  56.6577339  34.8437374  35.3916737  56.4931452  34.2181320  34.0229498
  50.9671750  30.2904234  40.0211669  50.8291548  29.5584473  40.6223208
  51.8776674  30.2013134  39.7395856  59.9286698  32.2292639  24.7696147
  59.3115869  31.5039467  24.6729200  59.4603186  32.9901999  24.4263221
  53.5954051  30.0024194  39.5095348  54.3053669  29.3617386  39.4681967
  53.5523359  30.2537088  40.4321529  52.3082985  26.9889411  41.3290988
  51.7720342  26.5380150  41.9812584  51.7199693  27.1235320  40.5861452
  50.6031528  43.7553461  35.2235646  50.8428127  44.3871985  35.9014665
  49.7600725  43.4041501  35.5101006  51.7185244  26.4478063  23.8917451
  50.8414710  26.3266864  23.5279698  52.1942997  25.6564141  23.6396340
  43.2387384  31.2355223  33.9858959  43.9258424  30.9216953  33.3979974
  43.0835513  32.1396587  33.7126210  48.0422106  26.1245419  38.4143982
  47.9580295  25.5171089  37.6794392  47.2204812  26.6154437  38.4153479
  55.1159390  39.5632583  37.6277150  55.0429562  40.3687555  38.1396455
  54.6736783  39.7624549  36.8025172  54.9049170  38.8004353  31.1379972
  54.1216692  39.3426033  31.2318196  55.6041915  39.3178333  31.5374213
  58.2145820  24.6098983  33.7814177  58.7114519  23.8568945  33.4615248
  57.4432801  24.6463299  33.2157387  66.0675577  30.3139348  35.4232469
  66.0565454  31.1964064  35.0526402  65.1992957  29.9610899  35.2287006
  59.2975601  33.3670670  31.3552601  58.3631879  33.4872132  31.1857305
  59.4752269  32.4643137  31.0912611  54.7980789  26.7516366  33.5085862
  54.4278576  26.1987406  34.1966767  55.2939881  26.1474499  32.9560862
  62.6848152  29.2087989  31.8902635  63.1508604  30.0415981  31.8162937
  63.1355653  28.7432971  32.5947893  52.6269987  37.2113861  40.6040880
  53.3279447  37.8450344  40.7570274  52.1565102  37.5528592  39.8436519
  60.7524383  35.5531810  28.8888787  61.0284227  35.4388405  29.7982661
  59.8828882  35.1549295  28.8500960  60.6564815  21.5768576  35.9293536
  59.7427895  21.8072803  36.0975743  61.0857916  21.6607020  36.7807569
  60.4271273  29.7658468  38.4293430  59.7742723  30.0134376  37.7745883
  60.8051653  28.9522606  38.0955907  57.3878447  39.8018161  32.5321600
  57.5700842  38.9839817  32.9949353  58.2111433  40.0185854  32.0946490
  57.7220613  38.7286346  29.7936649  58.2508379  38.2178801  29.1806811
  57.9848832  38.4128877  30.6582182  56.4758846  30.5078279  44.9159467
  55.7999483  30.4072409  45.5861842  57.2986480  30.3517493  45.3795464
  48.2237705  36.7450216  37.5371982  48.8091142  35.9993904  37.6699887
  48.0262544  37.0554172  38.4208646  51.0776361  39.7801463  32.5534425
  50.4086736  40.2647591  32.0698465  50.9389230  40.0270684  33.4677803
  42.8155360  29.3155816  36.2576426  42.8539460  28.7819407  37.0513544
  42.3095653  28.7891021  35.6387403  50.1946122  24.1620356  39.7538968
  50.2587449  25.0235187  39.3416366  50.1313243  23.5494358  39.0211326
  49.6698395  26.2343489  43.4012002  50.2970434  25.8520566  44.0149527
  48.8126314  26.0157691  43.7667695  46.4463938  28.0419918  29.3330357
  46.7417379  27.1330597  29.2797411  45.5451973  28.0207658  29.0111359
  58.3550016  39.7627182  36.1380765  58.2301156  38.9616922  35.6291711
  59.0129108  40.2573376  35.6494735  49.9758185  26.1175915  35.3157906
  49.2544770  26.7311882  35.1765379  50.7651440  26.6533679  35.2374552
  60.4184925  37.5636202  37.7660315  59.4715260  37.4441553  37.6938642
  60.7667698  36.6758700  37.8486577  52.7784498  23.4530341  41.5898557
  53.3018900  23.6992638  42.3524867  52.5596831  24.2850376  41.1701695
  48.1751779  25.7234016  29.4569682  47.8464485  24.8431395  29.2744788
  48.5291150  25.6681684  30.3446071  57.4231358  37.3588918  33.9664668
  57.2756321  36.4305626  34.1472238  58.2484852  37.3809009  33.4821743
  51.2893602  26.0106986  29.8245160  51.6289675  26.5392907  29.1023768
  51.7365723  26.3487392  30.6003726  61.0265480  38.1817477  35.0529540
  61.9512027  37.9760339  34.9153992  60.8580783  37.9333878  35.9618882
  53.9837043  24.3944036  39.2748228  53.6433864  23.5951849  39.6768908
  53.2776049  24.6945747  38.7025061  54.6353515  21.4793349  37.7275551
  55.4579584  21.0053827  37.6054441  54.8791579  22.2583832  38.2274237
  53.2761750  24.5081607  28.0238453  53.9970112  24.8862860  27.5202169
  52.6527054  25.2270484  28.1273431  57.4192872  25.2126756  28.9596785
  57.6356487  26.0951394  28.6585613  56.9386940  24.8212970  28.2302427
  52.1592094  28.1712469  35.5367530  52.0136675  28.4852772  36.4291811
  51.6817297  28.7897370  34.9838428  54.0188477  25.1615017  35.5848419
  54.0050045  24.2656111  35.2480717  54.7360905  25.1685681  36.2186705
  55.8714607  25.5952358  37.6301547  55.6132385  26.5169428  37.6285877
  55.3399648  25.1982792  38.3202011  60.8160796  38.7003145  30.4091632
  60.9897674  38.1349567  29.6565484  61.3089687  39.5004040  30.2271122
  46.6337756  30.7117814  38.4755191  46.0891224  31.4877622  38.6075465
  47.5117106  31.0588618  38.3174312  53.4225373  24.0429398  30.8535989
  53.5441284  23.1146044  31.0526877  53.1327415  24.0568084  29.9414305
  56.2916563  21.7284308  33.9902709  56.3138260  21.7923641  33.0354689
  56.7084622  20.8888817  34.1843215  66.6700187  31.4639568  32.0281932
  67.1131333  30.7146893  31.6301055  65.7926698  31.4549704  31.6455664
  61.8035969  38.0169909  27.5088530  62.4986873  38.6376602  27.7275845
  62.1459119  37.1665260  27.7840908  63.7027392  35.4669615  29.0375861
  64.2278716  35.8056887  28.3125181  63.6149744  34.5316630  28.8538996
  55.3868053  41.5341598  33.3971114  54.9473043  41.0417977  34.0903971
  56.1376169  40.9914566  33.1563189  47.8660391  37.7253139  33.3995742
  48.6918411  37.4256911  33.0194386  47.5154443  36.9560761  33.8485531
  52.8341925  37.0779607  35.4693416  52.2121934  36.4150312  35.1695644
  53.5046792  37.1040739  34.7867064  46.0668997  35.6439465  34.3584676
  45.2300905  35.2161640  34.1768677  46.0392642  35.8371909  35.2955467
  52.9066452  25.5561395  45.0625922  52.9554608  26.4323518  44.6803691
  53.4488966  25.0138788  44.4897565  52.3955432  35.6283530  28.9451876
  52.5443552  36.3118995  28.2918549  53.2021875  35.6088620  29.4601332
  55.1365741  26.3092767  41.8172281  54.2669050  26.6026333  41.5454869
  55.3725221  26.8933212  42.5379544  66.2133052  32.9344806  34.4204379
  67.0479943  33.3734610  34.5841940  66.3492181  32.4583459  33.6012625
  50.1508065  31.6548708  29.9512945  49.9054106  30.7511038  30.1493155
  50.3203979  31.6565858  29.0092423  57.8404774  22.5272384  39.3337701
  58.3586718  23.2633411  39.0084189  57.4859907  22.8336378  40.1684460
  49.4203712  27.3877066  27.4499107  48.7272957  27.4621420  26.7939143
  49.1755464  26.6237409  27.9720624  58.0917369  18.9472667  34.8538597
  58.3719122  18.2795856  35.4799024  58.8767976  19.1401762  34.3413261
  55.8950837  38.1231661  26.4163624  55.3224804  38.7421848  25.9634096
  56.4683631  38.6731022  26.9503546  61.9626227  27.3690301  38.6010173
  62.9143650  27.4688398  38.6222397  61.7929677  26.5768569  39.1108257
  59.9840606  24.4545884  38.7869574  59.3890539  24.7350897  38.0916062
  59.6990303  24.9439785  39.5586315  59.1148097  38.4068811  27.5472206
  60.0478770  38.3414373  27.7505082  59.0271310  39.2425078  27.0886739
  61.7436114  37.7234681  24.5076154  61.6649745  37.3894545  25.4011912
  62.5645780  38.2156449  24.5067626  64.4414305  30.5896421  37.7152472
  64.4090625  29.6512421  37.9012156  65.0514928  30.6680457  36.9818297
  56.2797636  29.4592473  23.7579676  57.2256740  29.3298682  23.8268094
  55.9011881  28.7207135  24.2349104  64.5908793  27.3807464  37.7610755
  64.0747842  26.5965921  37.5740684  65.4748742  27.0526181  37.9257275
  62.2519520  21.1248480  33.7206568  62.0544341  20.8163568  34.6049900
  62.8619226  21.8510118  33.8504498  70.2590855  31.6512427  36.8558509
  70.9894243  31.3897715  37.4166212  69.6497800  30.9141149  36.8960577
  68.3406152  29.7920290  37.4532960  67.6139315  29.6576255  36.8449452
  67.9253439  30.0997119  38.2589678  56.1636328  33.5110220  45.2180333
  57.0839338  33.6888819  45.4120380  56.1285911  32.5666265  45.0660033
  54.4640553  27.3842450  23.6934562  53.5572008  27.0875563  23.7697275
  54.7416534  27.0872268  22.8268848  45.3818493  28.7048813  34.1433608
  45.0621277  27.8514121  33.8507982  44.8351921  28.9197391  34.8991575
  49.1598401  31.4211254  37.8603114  49.3784410  32.3528362  37.8791148
  49.5724175  31.0619229  38.6457918  56.0802618  21.9279340  29.8478803
  55.2703347  21.5826425  30.2234049  56.7687035  21.6186883  30.4366414
  58.0093167  21.0057386  31.4703099  58.5624205  21.4252840  32.1293123
  58.2463253  20.0793135  31.5126055  53.2339337  24.2429385  23.8346541
  54.0958501  24.5684283  24.0942358  53.4189682  23.4560881  23.3219607
  45.2506753  32.3251725  36.1126730  44.5570225  31.9105678  35.5996684
  45.9979744  32.3672261  35.5160148  61.3871974  23.1157912  30.9781764
  60.8070643  23.7742716  30.5959816  61.1207907  22.2935256  30.5669181
  59.8375540  22.5162969  33.1803084  60.3375319  22.6279504  32.3717403
  60.4811148  22.2124022  33.8203892  47.1643496  32.2569979  33.9892744
  47.1414184  32.3557666  33.0374627  47.4744132  33.1035129  34.3109911
  49.8230874  34.3146134  38.1039359  50.7774127  34.2830076  38.0369290
  49.6243397  33.8536757  38.9189585  50.4130256  32.8847250  40.6710156
  51.2323145  33.3791328  40.6944994  50.6867063  31.9679218  40.6427724
  60.1696852  25.2758002  30.0338112  59.2822707  25.5607653  29.8158307
  60.5850841  25.1151765  29.1865389  63.5211388  25.3004523  33.7492451
  64.2971778  25.7900975  34.0217068  62.7959522  25.7262577  34.2064321
  65.9583947  26.0132142  34.8066392  66.5528437  25.7727878  34.0959700
  66.0310530  25.2939273  35.4339928  48.1781102  39.8565753  35.1209557
  48.0435570  39.0966154  34.5547555  47.7613165  40.5806653  34.6538346
  59.3140065  35.0402677  24.1286132  60.0175915  35.2452679  24.7443788
  58.5902714  35.6079439  24.3935215  60.1437876  30.7912538  30.2488402
  60.0873077  31.2481089  29.4096035  60.6966218  30.0303222  30.0711245
  63.9542682  26.5802270  31.0738522  63.6979616  26.1798905  31.9046729
  63.3295550  27.2946064  30.9488661  68.2655019  29.3198343  33.5809813
  67.7054577  29.3891532  34.3541375  67.6598523  29.1439328  32.8609309
  51.3350228  40.7535070  35.3327999  51.2182612  41.6980503  35.2306690
  50.5142674  40.4508632  35.7213799  61.2226763  35.4785206  26.1784592
  62.0572367  35.0466404  25.9962067  61.0611106  35.3067220  27.1061486
  60.8772655  31.9817319  27.5440931  60.8221459  31.8161591  26.6029375
  60.2518710  32.6893352  27.7003121  58.1918562  34.2866231  46.8694494
  59.0609722  34.4606883  46.5081129  57.7125314  35.1060648  46.7470223
  54.1868780  21.4825428  27.1226250  54.1747450  22.4267268  27.2794521
  55.0792202  21.2995574  26.8285711  52.3604742  41.4063332  38.5483928
  53.2631989  41.4386942  38.8650423  52.1342112  40.4763783  38.5630264
  54.1158344  40.1594319  35.2094006  53.1653975  40.1596180  35.0958379
  54.4190830  39.4127053  34.6930041  58.0020900  18.0768205  31.3772187
  57.2353296  17.5226691  31.5228869  58.4131605  18.1490074  32.2386338
  50.0062661  24.3653001  45.4677368  50.8694122  24.0089805  45.6780692
  49.4328072  24.0266895  46.1552772  69.8511038  45.9954857  36.2739769
  70.4889448  45.8761604  35.5703109  69.7331881  46.9435701  36.3327721
  66.6600744  45.9482285  36.2101293  66.3219256  45.8323350  35.3221828
  67.5290512  45.5473450  36.1902300  62.5187560  47.8017761  32.1998184
  61.9552425  47.7107698  31.4314472  62.4039955  46.9817666  32.6800677
  60.0651992  49.2968953  35.0382405  60.8573284  48.9559778  34.6228704
  60.3048642  49.4063928  35.9584558  68.0987119  51.4688729  27.5112649
  67.4475098  52.0542810  27.1246663  68.8931481  51.9994924  27.5707687
  62.0242746  48.5577866  27.9099784  62.7973622  48.0106853  27.7712659
  62.3768145  49.4222116  28.1214245  63.8627788  49.8854249  41.1166683
  63.5717654  50.7899879  41.0013349  64.4984773  49.9270776  41.8310753
  64.7883995  47.2631097  37.7068043  65.3847567  47.0387119  36.9925006
  64.8458967  46.5215843  38.3093490  64.3609024  44.7170532  25.5418234
  64.6134544  44.1952054  24.7801697  63.4233583  44.5536678  25.6444917
  69.4052306  43.7206311  33.3492977  70.1915396  43.3025734  32.9983394
  69.6691011  44.6252403  33.5174625  69.5762384  49.1579161  28.0481634
  68.9408217  49.2313788  28.7602538  69.2459790  49.7472760  27.3700713
  74.8060733  43.6581544  34.2525955  75.5385905  43.0880761  34.4863785
  74.0500089  43.2703144  34.6932461  64.0805312  46.6198638  27.7442609
  63.9641570  45.9443542  28.4123693  64.1907572  46.1331012  26.9274762
  66.4236853  46.0808785  31.4489298  66.0595060  45.5539406  32.1602219
  67.2803969  45.6907255  31.2755783  72.3286154  37.3703118  38.7120564
  71.9969479  38.2398529  38.4881779  71.7331767  37.0539402  39.3914594
  66.0642340  41.1098685  26.4450646  66.2316743  41.9778922  26.8121117
  65.8739509  41.2725967  25.5211936  68.8217673  49.5715664  38.1116477
  68.5218396  50.4740703  38.0032284  68.4768733  49.3047847  38.9637630
  62.2730155  46.0229461  34.1453181  61.3480651  45.8905675  34.3530873
  62.5214568  46.8023680  34.6423123  72.2214817  42.0898204  35.7913914
  71.3131694  42.0213613  35.4972675  72.1702413  42.5670149  36.6195739
  66.0431561  43.5656343  27.4297313  65.9231186  44.0113393  28.2682793
  65.3484149  43.9141660  26.8710851  59.6338966  45.6662734  34.9796970
  59.7631347  45.9197213  35.8936382  58.9536417  46.2590442  34.6601625
  63.8038453  56.3359984  31.0787444  63.7262483  57.2867810  31.1575925
  63.2000097  55.9905857  31.7362371  74.0876464  40.2914643  37.5691788
  73.4450844  40.5847176  36.9231582  73.5831392  40.1767563  38.3744985
  71.7416627  44.0377816  28.2577647  72.6534483  44.2705203  28.0825345
  71.2326274  44.6214860  27.6952726  66.3788465  43.3975050  39.2672497
  67.2249660  43.8214464  39.4107146  66.3187103  42.7408675  39.9611060
  70.3486209  49.0203634  35.6491229  69.7195072  49.1849348  34.9467296
  69.9611872  49.4345244  36.4202193  74.2275441  49.9558072  33.0035592
  73.5426480  50.3356974  32.4532626  74.3119291  50.5653399  33.7367540
  71.4826373  47.6018031  39.6030936  71.6943268  48.2449791  38.9265317
  71.4356121  46.7680348  39.1352866  69.0852602  40.2135852  36.5067508
  68.2237081  40.5117105  36.7984246  69.1115037  40.4306251  35.5748541
  65.9014171  48.7578042  32.9141314  66.3652517  49.0365745  32.1245936
  65.6370969  47.8561487  32.7314404  62.7938252  48.3049524  35.8521077
  63.3639610  48.7336792  35.2138561  63.3846364  48.0232109  36.5505263
  64.8383057  44.8801195  29.7230879  65.5407101  45.3322238  30.1904805
  64.5063686  44.2385014  30.3510772  58.5808391  43.1384747  35.0248012
  57.7907445  43.3942276  34.5488123  59.0719639  43.9533085  35.1300053
  72.5972201  50.4789987  37.7753293  73.4189645  50.0770174  37.4935975
  72.5934604  50.3758221  38.7269409  60.5323137  43.5029327  31.9831489
  59.7354300  43.6148021  32.5014985  60.3048729  43.8415979  31.1172380
  56.8646094  43.3915238  37.4563003  57.1154133  44.2762248  37.7220579
  57.4005643  43.2119839  36.6838095  80.6878194  46.8228735  34.1238265
  79.9341902  46.2536133  33.9682269  80.8225735  46.7891400  35.0708899
  66.0776822  51.6942137  29.7992984  65.9422497  52.5393673  30.2277832
  66.6186635  51.8961415  29.0358918  59.5306219  49.2117575  30.3720909
  60.0430740  50.0060826  30.5226474  60.1828932  48.5143866  30.3054511
  61.3401104  52.3283332  32.4543662  61.5167732  53.2501296  32.2664646
  62.1357938  52.0141751  32.8838042  62.4632420  53.8461505  38.4554005
  63.0139845  53.7178569  37.6830999  61.6243896  54.1456394  38.1048897
  69.4269286  35.2172699  38.3291878  69.0833555  36.1074341  38.2530988
  69.7948248  35.0274357  37.4661463  57.4955136  47.5406230  31.1480480
  58.3330358  47.9503238  30.9314187  57.6733404  46.6005672  31.1180674
  69.3919568  45.2081310  26.8364313  68.8766192  45.9785915  27.0752700
  69.1196877  44.5346447  27.4597374  66.9766679  40.0531011  31.8949551
  66.1208276  39.6637862  31.7155190  67.3893631  40.1322972  31.0349337
  68.5065826  37.5877354  36.2941111  68.0030622  37.5507490  35.4808916
  68.7996433  38.4970097  36.3537767  64.7508712  37.6716084  35.3007293
  65.6161709  37.4758893  34.9413182  64.8186221  37.4426436  36.2276649
  74.3653842  47.9613665  28.7717486  73.5883285  47.6224825  28.3272648
  75.0445323  47.9666288  28.0972451  69.1805872  43.0808402  28.6624094
  68.8756007  43.3954552  29.5134237  70.1336314  43.1589822  28.7051427
  67.6252303  49.2398626  30.3117048  67.0973665  48.5051385  29.9990285
  67.1239806  50.0173302  30.0657016  72.6045149  47.4347646  35.4284094
  71.9468824  48.1246908  35.5164223  73.4085549  47.8244078  35.7718080
  62.3571031  39.9018292  32.6723659  62.9314783  39.6793474  31.9396852
  62.9442013  39.9706987  33.4252261  71.4150608  45.7892019  33.4788036
  71.9282490  46.4222011  33.9809746  72.0651832  45.1893214  33.1131396
  62.6840618  41.9322753  26.6919545  61.8477930  42.2697440  27.0128819
  62.5445388  41.7971733  25.7546682  64.6593699  36.7759541  31.3998729
  64.0058111  36.4608558  30.7755344  64.6174173  36.1535281  32.1258552
  65.7704904  47.0578836  23.3152021  64.8631965  46.8268089  23.5143170
  66.2675936  46.2616455  23.5026002  68.6772982  55.7676343  26.2348707
  68.0034681  56.0708040  26.8433665  69.0638804  56.5705424  25.8854164
  67.8931439  43.2641475  35.7246376  66.9754000  43.4856422  35.5668064
  68.3091583  43.3387785  34.8658084  68.6766487  44.6632890  30.8549057
  69.4238306  45.1754287  30.5456179  68.9458076  44.3416943  31.7153450
  66.9493137  47.1591431  27.8376011  66.0404356  46.8750464  27.9348481
  66.9788221  47.5790509  26.9779318  72.1812404  50.7698020  31.6067179
  71.7274731  49.9288930  31.6632369  71.5506371  51.4059419  31.9441959
  71.1245324  41.6990006  32.8367846  70.3868081  41.1867393  33.1678089
  71.3772097  41.2590388  32.0251123  70.6245344  52.6074517  32.5416997
  70.9168318  53.1679574  31.8229362  71.1343964  52.9003078  33.2970156
  71.2256951  34.4766258  33.4309615  71.5315828  33.6163622  33.1435530
  71.9509556  35.0683879  33.2308609  57.5181307  44.8796945  31.8191213
  57.3205707  44.2866306  31.0942280  56.9627971  44.5749155  32.5367152
  65.4978031  44.7720052  33.9385806  65.5526641  43.8193888  33.8628283
  64.6869233  44.9279491  34.4227105  66.6469225  48.7000175  25.1764090
  66.2088655  47.9836034  24.7169727  67.3879666  48.9276289  24.6149181
  63.4370391  43.3897111  31.6976185  62.6238256  43.6891282  32.1041377
  63.9329385  42.9952800  32.4150667  65.5878969  53.3854868  33.6310450
  65.5455148  53.6115714  32.7018982  66.5041668  53.1518243  33.7796251
  69.0344603  43.8538936  40.5291079  69.3893990  44.0810409  41.3885545
  69.6816734  44.1857313  39.9068334  74.7642340  46.9757372  31.2340408
  74.6260238  47.1658968  30.3061597  74.4078558  47.7376754  31.6908459
  62.9284466  40.9615467  37.3137420  63.5683845  40.8204226  36.6160383
  62.0961996  40.6749980  36.9376022  74.7911719  49.0433899  36.2451680
  75.2248226  48.9509188  37.0934734  75.5043300  49.0191399  35.6071696
  63.7044770  50.2617897  33.4272413  64.4985368  49.7668217  33.2254988
  62.9936462  49.7335760  33.0640118  68.5239614  52.6435993  37.7784780
  68.5776636  53.2126929  38.5462496  67.6554395  52.8137878  37.4138817
  60.0127533  44.4060979  29.5032165  59.0825121  44.3445434  29.7202127
  60.1085005  43.8836932  28.7068807  59.9313082  40.9315792  32.0910407
  60.1919899  41.8461125  31.9819567  60.7530254  40.4640234  32.2407020
  61.4038007  42.3453549  39.2609231  62.0761061  42.1370911  38.6121880
  60.5767794  42.1475635  38.8214464  75.6527269  49.0857599  38.7784565
  75.8463159  49.9903410  39.0243840  75.5527887  48.6265018  39.6123150
  67.4827714  46.8096255  39.3371712  68.4119774  46.9607414  39.1640679
  67.0618744  46.8980276  38.4820359  66.2816046  50.8346919  37.1070250
  66.1427131  50.4665704  37.9796188  65.4930642  51.3494559  36.9354207
  66.8764198  55.9356016  28.4495786  67.0515953  55.4644059  29.2641409
  66.1896986  56.5621782  28.6777047  67.8321261  50.2128522  34.4959087
  67.4971093  50.1729292  35.3916737  67.3325206  49.5473238  34.0229498
  61.8065505  45.6196152  40.0211669  61.6685303  44.8876391  40.6223208
  62.7170428  45.5305052  39.7395856  70.7680452  47.5584556  24.7696147
  70.1509623  46.8331384  24.6729200  70.2996941  48.3193917  24.4263221
  64.4347805  45.3316111  39.5095348  65.1447424  44.6909303  39.4681967
  64.3917114  45.5829006  40.4321529  61.4425283  59.0845378  35.2235646
  61.6821881  59.7163903  35.9014665  60.5994479  58.7333418  35.5101006
  62.5578998  41.7769981  23.8917451  61.6808465  41.6558781  23.5279698
  63.0336751  40.9856059  23.6396340  54.0781138  46.5647140  33.9858959
  54.7652178  46.2508870  33.3979974  53.9229267  47.4688505  33.7126210
  58.8815861  41.4537337  38.4143982  58.7974049  40.8463006  37.6794392
  58.0598567  41.9446355  38.4153479  65.9553145  54.8924501  37.6277150
  65.8823316  55.6979472  38.1396455  65.5130538  55.0916467  36.8025172
  65.7442924  54.1296271  31.1379972  64.9610446  54.6717951  31.2318196
  66.4435670  54.6470251  31.5374213  69.0539574  39.9390900  33.7814177
  69.5508274  39.1860863  33.4615248  68.2826556  39.9755217  33.2157387
  76.9069332  45.6431266  35.4232469  76.8959208  46.5255981  35.0526402
  76.0386711  45.2902817  35.2287006  68.4151828  54.7911335  39.7835309
  69.1279800  55.4258800  39.7111210  67.9241857  54.8875201  38.9675311
  70.1369355  48.6962588  31.3552601  69.2025634  48.8164050  31.1857305
  70.3146024  47.7935054  31.0912611  65.6374543  42.0808283  33.5085862
  65.2672331  41.5279324  34.1966767  66.1333636  41.4766417  32.9560862
  73.5241906  44.5379907  31.8902635  73.9902359  45.3707898  31.8162937
  73.9749407  44.0724888  32.5947893  63.4663742  52.5405778  40.6040880
  64.1673201  53.1742261  40.7570274  62.9958857  52.8820510  39.8436519
  71.5918138  50.8823728  28.8888787  71.8677981  50.7680323  29.7982661
  70.7222636  50.4841213  28.8500960  71.4958569  36.9060494  35.9293536
  70.5821649  37.1364721  36.0975743  71.9251671  36.9898938  36.7807569
  71.2665028  45.0950386  38.4293430  70.6136478  45.3426293  37.7745883
  71.6445408  44.2814524  38.0955907  68.2272202  55.1310079  32.5321600
  68.4094596  54.3131735  32.9949353  69.0505188  55.3477771  32.0946490
  68.5614367  54.0578264  29.7936649  69.0902134  53.5470719  29.1806811
  68.8242587  53.7420794  30.6582182  59.0631460  52.0742133  37.5371982
  59.6484897  51.3285821  37.6699887  58.8656298  52.3846090  38.4208646
  61.9170115  55.1093381  32.5534425  61.2480490  55.5939508  32.0698465
  61.7782985  55.3562601  33.4677803  53.6549115  44.6447734  36.2576426
  53.6933214  44.1111324  37.0513544  53.1489407  44.1182939  35.6387403
  66.0575384  57.1437124  39.1517083  66.6093692  57.3068746  39.9166168
  66.3981577  57.7341562  38.4797108  61.0339877  39.4912274  39.7538968
  61.0981203  40.3527105  39.3416366  60.9706997  38.8786276  39.0211326
  57.2857692  43.3711836  29.3330357  57.5811133  42.4622514  29.2797411
  56.3845728  43.3499575  29.0111359  69.1943771  55.0919100  36.1380765
  69.0694910  54.2908840  35.6291711  69.8522862  55.5865293  35.6494735
  60.8151939  41.4467832  35.3157906  60.0938525  42.0603800  35.1765379
  61.6045195  41.9825597  35.2374552  71.2578679  52.8928120  37.7660315
  70.3109015  52.7733471  37.6938642  71.6061452  52.0050618  37.8486577
  59.0145534  41.0525933  29.4569682  58.6858240  40.1723312  29.2744788
  59.3684904  40.9973602  30.3446071  68.2625113  52.6880836  33.9664668
  68.1150075  51.7597544  34.1472238  69.0878606  52.7100927  33.4821743
  62.1287357  41.3398903  29.8245160  62.4683429  41.8684824  29.1023768
  62.5759477  41.6779309  30.6003726  71.8659234  53.5109395  35.0529540
  72.7905782  53.3052256  34.9153992  71.6974538  53.2625796  35.9618882
  64.8230798  39.7235954  39.2748228  64.4827618  38.9243767  39.6768908
  64.1169804  40.0237665  38.7025061  65.4747270  36.8085266  37.7275551
  66.2973339  36.3345745  37.6054441  65.7185333  37.5875750  38.2274237
  64.1155504  39.8373525  28.0238453  64.8363867  40.2154778  27.5202169
  63.4920808  40.5562402  28.1273431  68.2586627  40.5418674  28.9596785
  68.4750241  41.4243312  28.6585613  67.7780694  40.1504887  28.2302427
  62.9985848  43.5004387  35.5367530  62.8530429  43.8144690  36.4291811
  62.5211052  44.1189287  34.9838428  64.8582231  40.4906935  35.5848419
  64.8443800  39.5948028  35.2480717  65.5754659  40.4977599  36.2186705
  66.7108362  40.9244275  37.6301547  66.4526140  41.8461346  37.6285877
  66.1793402  40.5274710  38.3202011  71.6554551  54.0295062  30.4091632
  71.8291428  53.4641485  29.6565484  72.1483442  54.8295957  30.2271122
  57.4731510  46.0409731  38.4755191  56.9284979  46.8169539  38.6075465
  58.3510860  46.3880536  38.3174312  64.2619127  39.3721315  30.8535989
  64.3835038  38.4437961  31.0526877  63.9721169  39.3860001  29.9414305
  67.1310317  37.0576226  33.9902709  67.1532014  37.1215559  33.0354689
  67.5478377  36.2180734  34.1843215  77.5093942  46.7931485  32.0281932
  77.9525088  46.0438810  31.6301055  76.6320452  46.7841622  31.6455664
  72.6429723  53.3461827  27.5088530  73.3380628  53.9668519  27.7275845
  72.9852873  52.4957178  27.7840908  74.5421146  50.7961532  29.0375861
  75.0672470  51.1348805  28.3125181  74.4543499  49.8608548  28.8538996
  66.2041195  54.7095606  41.1665738  66.5128321  54.4644753  42.0388437
  67.0016677  54.9142244  40.6784608  66.2261807  56.8633516  33.3971114
  65.7866797  56.3709894  34.0903971  66.9769924  56.3206483  33.1563189
  58.7054146  53.0545056  33.3995742  59.5312166  52.7548828  33.0194386
  58.3548198  52.2852679  33.8485531  63.6735679  52.4071525  35.4693416
  63.0515688  51.7442230  35.1695644  64.3440546  52.4332657  34.7867064
  56.9062751  50.9731383  34.3584676  56.0694659  50.5453557  34.1768677
  56.8786396  51.1663826  35.2955467  63.2349186  50.9575448  28.9451876
  63.3837306  51.6410912  28.2918549  64.0415630  50.9380538  29.4601332
  77.0526807  48.2636724  34.4204379  77.8873698  48.7026528  34.5841940
  77.1885935  47.7875377  33.6012625  60.9901819  46.9840626  29.9512945
  60.7447861  46.0802956  30.1493155  61.1597734  46.9857776  29.0092423
  68.6798529  37.8564302  39.3337701  69.1980473  38.5925329  39.0084189
  68.3253662  38.1628295  40.1684460  60.2597467  42.7168983  27.4499107
  59.5666712  42.7913338  26.7939143  60.0149218  41.9529327  27.9720624
  68.9311123  34.2764585  34.8538597  69.2112877  33.6087774  35.4799024
  69.7161730  34.4693680  34.3413261  66.7344592  53.4523578  26.4163624
  66.1618559  54.0713766  25.9634096  67.3077385  54.0022940  26.9503546
  72.8019981  42.6982219  38.6010173  73.7537404  42.7980316  38.6222397
  72.6323432  41.9060487  39.1108257  70.8234361  39.7837802  38.7869574
  70.2284293  40.0642814  38.0916062  70.5384058  40.2731703  39.5586315
  69.9541851  53.7360729  27.5472206  70.8872525  53.6706290  27.7505082
  69.8665064  54.5716995  27.0886739  72.5829868  53.0526599  24.5076154
  72.5043500  52.7186462  25.4011912  73.4039535  53.5448367  24.5067626
  75.2808059  45.9188338  37.7152472  75.2484379  44.9804339  37.9012156
  75.8908683  45.9972375  36.9818297  67.1191390  44.7884391  23.7579676
  68.0650495  44.6590599  23.8268094  66.7405635  44.0499053  24.2349104
  75.4302548  42.7099382  37.7610755  74.9141596  41.9257838  37.5740684
  76.3142496  42.3818098  37.9257275  73.0913275  36.4540397  33.7206568
  72.8938096  36.1455485  34.6049900  73.7012980  37.1802036  33.8504498
  81.0984609  46.9804345  36.8558509  81.8287998  46.7189633  37.4166212
  80.4891555  46.2433067  36.8960577  79.1799906  45.1212208  37.4532960
  78.4533070  44.9868173  36.8449452  78.7647193  45.4289036  38.2589678
  65.3034307  42.7134368  23.6934562  64.3965763  42.4167480  23.7697275
  65.5810288  42.4164186  22.8268848  56.2212248  44.0340731  34.1433608
  55.9015032  43.1806039  33.8507982  55.6745676  44.2489309  34.8991575
  59.9992155  46.7503172  37.8603114  60.2178165  47.6820280  37.8791148
  60.4117929  46.3911146  38.6457918  66.9196373  37.2571257  29.8478803
  66.1097101  36.9118342  30.2234049  67.6080790  36.9478801  30.4366414
  68.8486921  36.3349304  31.4703099  69.4017960  36.7544758  32.1293123
  69.0857008  35.4085052  31.5126055  64.0733092  39.5721303  23.8346541
  64.9352256  39.8976201  24.0942358  64.2583436  38.7852799  23.3219607
  56.0900508  47.6543642  36.1126730  55.3963979  47.2397595  35.5996684
  56.8373499  47.6964179  35.5160148  72.2265728  38.4449829  30.9781764
  71.6464397  39.1034633  30.5959816  71.9601661  37.6227174  30.5669181
  70.6769295  37.8454887  33.1803084  71.1769073  37.9571421  32.3717403
  71.3204903  37.5415940  33.8203892  58.0037250  47.5861896  33.9892744
  57.9807938  47.6849584  33.0374627  58.3137887  48.4327047  34.3109911
  60.6624628  49.6438051  38.1039359  61.6167882  49.6121994  38.0369290
  60.4637152  49.1828675  38.9189585  61.2524010  48.2139167  40.6710156
  62.0716899  48.7083246  40.6944994  61.5260818  47.2971135  40.6427724
  71.0090606  40.6049920  30.0338112  70.1216461  40.8899570  29.8158307
  71.4244595  40.4443683  29.1865389  74.3605143  40.6296441  33.7492451
  75.1365533  41.1192893  34.0217068  73.6353277  41.0554495  34.2064321
  76.7977701  41.3424060  34.8066392  77.3922192  41.1019796  34.0959700
  76.8704285  40.6231190  35.4339928  59.0174857  55.1857671  35.1209557
  58.8829325  54.4258072  34.5547555  58.6006919  55.9098571  34.6538346
  70.1533820  50.3694594  24.1286132  70.8569670  50.5744597  24.7443788
  69.4296469  50.9371356  24.3935215  70.9831630  46.1204456  30.2488402
  70.9266832  46.5773007  29.4096035  71.5359973  45.3595140  30.0711245
  74.7936436  41.9094187  31.0738522  74.5373370  41.5090823  31.9046729
  74.1689304  42.6237981  30.9488661  79.1048774  44.6490261  33.5809813
  78.5448332  44.7183450  34.3541375  78.4992277  44.4731245  32.8609309
  62.1743983  56.0826988  35.3327999  62.0576367  57.0272420  35.2306690
  61.3536429  55.7800549  35.7213799  72.0620517  50.8077123  26.1784592
  72.8966121  50.3758322  25.9962067  71.9004860  50.6359137  27.1061486
  71.7166409  47.3109237  27.5440931  71.6615213  47.1453508  26.6029375
  71.0912465  48.0185270  27.7003121  65.0262535  36.8117346  27.1226250
  65.0141205  37.7559186  27.2794521  65.9185957  36.6287491  26.8285711
  63.1998497  56.7355250  38.5483928  64.1025744  56.7678860  38.8650423
  62.9735867  55.8055701  38.5630264  64.9552099  55.4886236  35.2094006
  64.0047730  55.4888098  35.0958379  65.2584585  54.7418971  34.6930041
  68.8414654  33.4060122  31.3772187  68.0747050  32.8518609  31.5228869
  69.2525359  33.4781991  32.2386338  80.6904792  61.3246775  36.2739769
  81.3283202  61.2053522  35.5703109  80.5725635  62.2727619  36.3327721
  77.4994499  61.2774203  36.2101293  77.1613010  61.1615267  35.3221828
  78.3684267  60.8765368  36.1902300  73.3581314  63.1309679  32.1998184
  72.7946179  63.0399616  31.4314472  73.2433709  62.3109584  32.6800677
  77.9814282  62.4309054  42.1687499  77.9702922  62.0361853  41.2968003
  78.1434921  61.6975127  42.7621270  70.9045746  64.6260871  35.0382405
  71.6967038  64.2851695  34.6228704  71.1442396  64.7355846  35.9584558
  78.9380873  66.7980647  27.5112649  78.2868853  67.3834727  27.1246663
  79.7325236  67.3286842  27.5707687  72.8636500  63.8869784  27.9099784
  73.6367376  63.3398771  27.7712659  73.2161899  64.7514033  28.1214245
  74.7021543  65.2146166  41.1166683  74.4111409  66.1191797  41.0013349
  75.3378527  65.2562694  41.8310753  75.6277750  62.5923015  37.7068043
  76.2241322  62.3679037  36.9925006  75.6852721  61.8507760  38.3093490
  75.2002778  60.0462450  25.5418234  75.4528299  59.5243971  24.7801697
  74.2627337  59.8828596  25.6444917  80.2446061  59.0498228  33.3492977
  81.0309150  58.6317652  32.9983394  80.5084765  59.9544321  33.5174625
  80.4156138  64.4871079  28.0481634  79.7801971  64.5605705  28.7602538
  80.0853545  65.0764678  27.3700713  85.6454488  58.9873462  34.2525955
  86.3779660  58.4172678  34.4863785  84.8893844  58.5995062  34.6932461
  74.9199067  61.9490556  27.7442609  74.8035325  61.2735459  28.4123693
  75.0301327  61.4622930  26.9274762  77.2630608  61.4100703  31.4489298
  76.8988815  60.8831324  32.1602219  78.1197724  61.0199172  31.2755783
  83.1679908  52.6995036  38.7120564  82.8363233  53.5690447  38.4881779
  82.5725522  52.3831320  39.3914594  76.9036095  56.4390603  26.4450646
  77.0710497  57.3070839  26.8121117  76.7133264  56.6017885  25.5211936
  79.6611428  64.9007582  38.1116477  79.3612151  65.8032621  38.0032284
  79.3162487  64.6339765  38.9637630  73.1123909  61.3521379  34.1453181
  72.1874406  61.2197593  34.3530873  73.3608323  62.1315598  34.6423123
  83.0608572  57.4190122  35.7913914  82.1525449  57.3505530  35.4972675
  83.0096167  57.8962067  36.6195739  76.8825316  58.8948260  27.4297313
  76.7624941  59.3405311  28.2682793  76.1877904  59.2433578  26.8710851
  70.4732720  60.9954652  34.9796970  70.6025102  61.2489131  35.8936382
  69.7930172  61.5882360  34.6601625  74.6432208  71.6651902  31.0787444
  74.5656237  72.6159727  31.1575925  74.0393851  71.3197775  31.7362371
  77.1349437  58.8379768  43.7348811  76.3582771  59.3973688  43.7251676
  77.7740000  59.3236551  44.2563681  84.9270218  55.6206560  37.5691788
  84.2844598  55.9139093  36.9231582  84.4225147  55.5059481  38.3744985
  82.5810382  59.3669734  28.2577647  83.4928238  59.5997120  28.0825345
  82.0720029  59.9506778  27.6952726  75.3895810  61.6465221  43.2966778
  76.1310494  62.1850265  43.0201602  74.6832795  62.2731510  43.4538330
  80.8651149  63.7894361  41.8938940  81.2734505  63.3476772  41.1493572
  80.1428411  63.2146989  42.1473133  77.2182219  58.7266968  39.2672497
  78.0643415  59.1506382  39.4107146  77.1580857  58.0700592  39.9611060
  81.1879964  64.3495552  35.6491229  80.5588826  64.5141266  34.9467296
  80.8005626  64.7637162  36.4202193  85.0669196  65.2849990  33.0035592
  84.3820234  65.6648891  32.4532626  85.1513045  65.8945316  33.7367540
  80.3681665  56.3871336  40.9253670  80.1242597  57.1413397  40.3887946
  80.6441595  56.7656684  41.7600917  82.3220127  62.9309949  39.6030936
  82.5337023  63.5741709  38.9265317  82.2749876  62.0972265  39.1352866
  79.9246356  55.5427769  36.5067508  79.0630835  55.8409023  36.7984246
  79.9508791  55.7598168  35.5748541  76.7407926  64.0869960  32.9141314
  77.2046271  64.3657663  32.1245936  76.4764724  63.1853405  32.7314404
  73.6332007  63.6341442  35.8521077  74.2033364  64.0628710  35.2138561
  74.2240119  63.3524026  36.5505263  75.6776812  60.2093112  29.7230879
  76.3800855  60.6614156  30.1904805  75.3457440  59.5676931  30.3510772
  74.1257173  58.8004869  44.0982088  73.4955834  59.4821150  44.3317485
  74.0193261  58.6887951  43.1535227  69.4202146  58.4676665  35.0248012
  68.6301200  58.7234194  34.5488123  69.9113393  59.2825003  35.1300053
  83.4365955  65.8081904  37.7753293  84.2583399  65.4062092  37.4935975
  83.4328358  65.7050138  38.7269409  71.3716891  58.8321244  31.9831489
  70.5748055  58.9439939  32.5014985  71.1442483  59.1707897  31.1172380
  77.2022559  65.3565948  39.9314004  77.2666991  65.8186355  40.7672176
  76.4933483  64.7263312  40.0596314  67.7039849  58.7207156  37.4563003
  67.9547887  59.6054165  37.7220579  68.2399397  58.5411757  36.6838095
  91.5271948  62.1520653  34.1238265  90.7735657  61.5828051  33.9682269
  91.6619490  62.1183317  35.0708899  76.9170577  67.0234055  29.7992984
  76.7816251  67.8685591  30.2277832  77.4580389  67.2253333  29.0358918
  70.3699974  64.5409493  30.3720909  70.8824494  65.3352743  30.5226474
  71.0222687  63.8435784  30.3054511  72.1794859  67.6575249  32.4543662
  72.3561487  68.5793214  32.2664646  72.9751692  67.3433669  32.8838042
  76.3205877  54.5183514  44.0527596  77.0615591  55.1190667  43.9732058
  76.5523800  53.7761152  43.4945638  71.4647215  59.7039881  42.3305826
  71.3500730  58.8025138  42.6312924  70.6091733  59.9503578  41.9790642
  78.5439053  67.6457622  43.9293326  78.1002907  66.8594000  43.6114231
  79.2056266  67.8336772  43.2637217  73.3026174  69.1753423  38.4554005
  73.8533599  69.0470487  37.6830999  72.4637650  69.4748312  38.1048897
  80.6420291  67.9260421  41.9574727  80.6238766  68.7469303  41.4654997
  81.5640211  67.8014497  42.1824869  77.0993345  65.4404551  42.7998236
  77.6321682  64.6792839  42.5697544  76.5707426  65.1478203  43.5422390
  80.2663040  50.5464617  38.3291878  79.9227309  51.4366259  38.2530988
  80.6342003  50.3566275  37.4661463  68.3348891  62.8698147  31.1480480
  69.1724113  63.2795156  30.9314187  68.5127158  61.9297590  31.1180674
  80.2313323  60.5373228  26.8364313  79.7159946  61.3077833  27.0752700
  79.9590631  59.8638364  27.4597374  77.8160434  55.3822929  31.8949551
  76.9602030  54.9929779  31.7155190  78.2287386  55.4614890  31.0349337
  79.3459580  52.9169272  36.2941111  78.8424376  52.8799407  35.4808916
  79.6390187  53.8262015  36.3537767  75.5902466  53.0008002  35.3007293
  76.4555463  52.8050810  34.9413182  75.6579975  52.7718354  36.2276649
  85.2047597  63.2905583  28.7717486  84.4277040  62.9516742  28.3272648
  85.8839078  63.2958206  28.0972451  80.0199626  58.4100320  28.6624094
  79.7149762  58.7246469  29.5134237  80.9730068  58.4881740  28.7051427
  78.4646058  64.5690543  30.3117048  77.9367419  63.8343303  29.9990285
  77.9633561  65.3465220  30.0657016  83.4438904  62.7639564  35.4284094
  82.7862578  63.4538825  35.5164223  84.2479303  63.1535996  35.7718080
  73.1964785  55.2310210  32.6723659  73.7708537  55.0085391  31.9396852
  73.7835768  55.2998904  33.4252261  82.2544363  61.1183937  33.4788036
  82.7676244  61.7513928  33.9809746  82.9045587  60.5185132  33.1131396
  73.5234373  57.2614671  26.6919545  72.6871685  57.5989357  27.0128819
  73.3839142  57.1263651  25.7546682  75.4987453  52.1051459  31.3998729
  74.8451866  51.7900476  30.7755344  75.4567927  51.4827199  32.1258552
  76.6098658  62.3870754  23.3152021  75.7025720  62.1560007  23.5143170
  77.1069690  61.5908373  23.5026002  79.5166737  71.0968261  26.2348707
  78.8428436  71.3999958  26.8433665  79.9032559  71.8997341  25.8854164
  78.7325194  58.5933392  35.7246376  77.8147755  58.8148339  35.5668064
  79.1485337  58.6679703  34.8658084  79.5160241  59.9924808  30.8549057
  80.2632060  60.5046205  30.5456179  79.7851831  59.6708861  31.7153450
  77.7886891  62.4883349  27.8376011  76.8798111  62.2042381  27.9348481
  77.8181975  62.9082427  26.9779318  83.0206159  66.0989938  31.6067179
  82.5668486  65.2580848  31.6632369  82.3900126  66.7351336  31.9441959
  81.9639078  57.0281924  32.8367846  81.2261835  56.5159310  33.1678089
  82.2165852  56.5882306  32.0251123  81.4639098  67.9366435  32.5416997
  81.7562072  68.4971492  31.8229362  81.9737719  68.2294996  33.2970156
  82.0650706  49.8058176  33.4309615  82.3709583  48.9455540  33.1435530
  82.7903311  50.3975796  33.2308609  68.3575062  60.2088863  31.8191213
  68.1599462  59.6158223  31.0942280  67.8021726  59.9041073  32.5367152
  76.3371786  60.1011969  33.9385806  76.3920395  59.1485806  33.8628283
  75.5262988  60.2571408  34.4227105  77.4862979  64.0292092  25.1764090
  77.0482409  63.3127951  24.7169727  78.2273420  64.2568207  24.6149181
  74.2764145  58.7189029  31.6976185  73.4632011  59.0183199  32.1041377
  74.7723140  58.3244718  32.4150667  76.4272723  68.7146786  33.6310450
  76.3848902  68.9407632  32.7018982  77.3435422  68.4810160  33.7796251
  79.8738357  59.1830853  40.5291079  80.2287745  59.4102327  41.3885545
  80.5210488  59.5149230  39.9068334  85.6036094  62.3049289  31.2340408
  85.4653993  62.4950885  30.3061597  85.2472313  63.0668672  31.6908459
  73.7678220  56.2907384  37.3137420  74.4077600  56.1496144  36.6160383
  72.9355751  56.0041898  36.9376022  85.6305474  64.3725816  36.2451680
  86.0641980  64.2801105  37.0934734  86.3437054  64.3483317  35.6071696
  74.5438524  65.5909815  33.4272413  75.3379123  65.0960135  33.2254988
  73.8330216  65.0627678  33.0640118  79.3633369  67.9727910  37.7784780
  79.4170391  68.5418847  38.5462496  78.4948150  68.1429795  37.4138817
  70.8521288  59.7352897  29.5032165  69.9218876  59.6737352  29.7202127
  70.9478760  59.2128849  28.7068807  70.7706837  56.2607709  32.0910407
  71.0313654  57.1753043  31.9819567  71.5924009  55.7932152  32.2407020
  72.2431762  57.6745467  39.2609231  72.9154815  57.4662829  38.6121880
  71.4161548  57.4767553  38.8214464  86.4921023  64.4149517  38.7784565
  86.6856913  65.3195327  39.0243840  86.3921641  63.9556936  39.6123150
  78.1457334  54.3007408  41.2774892  77.4985249  54.9997357  41.1839369
  78.9158349  54.7343551  41.6451141  81.5536132  64.5656260  44.3525446
  81.4021638  64.3366811  43.4355529  81.5440811  65.5226861  44.3656791
  78.3221468  62.1388172  39.3371712  79.2513528  62.2899332  39.1640679
  77.9012498  62.2272193  38.4820359  77.1209800  66.1638837  37.1070250
  76.9820886  65.7957621  37.9796188  76.3324396  66.6786476  36.9354207
  77.7157952  71.2647933  28.4495786  77.8909708  70.7935977  29.2641409
  77.0290740  71.8913700  28.6777047  78.6715015  65.5420440  34.4959087
  78.3364848  65.5021210  35.3916737  78.1718961  64.8765155  34.0229498
  72.6459259  60.9488070  40.0211669  72.5079057  60.2168308  40.6223208
  73.5564183  60.8596970  39.7395856  81.6074207  62.8876474  24.7696147
  80.9903378  62.1623302  24.6729200  81.1390695  63.6485834  24.4263221
  75.2741560  60.6608029  39.5095348  75.9841178  60.0201221  39.4681967
  75.2310868  60.9120924  40.4321529  73.9870494  57.6473247  41.3290988
  73.4507851  57.1963985  41.9812584  73.3987202  57.7819156  40.5861452
  72.2819037  74.4137296  35.2235646  72.5215636  75.0455820  35.9014665
  71.4388234  74.0625336  35.5101006  73.3972753  57.1061898  23.8917451
  72.5202219  56.9850699  23.5279698  73.8730506  56.3147977  23.6396340
  64.9174893  61.8939058  33.9858959  65.6045933  61.5800788  33.3979974
  64.7623022  62.7980423  33.7126210  69.7209615  56.7829254  38.4143982
  69.6367804  56.1754924  37.6794392  68.8992321  57.2738273  38.4153479
  76.7946899  70.2216419  37.6277150  76.7217071  71.0271390  38.1396455
  76.3524292  70.4208384  36.8025172  76.5836679  69.4588189  31.1379972
  75.8004201  70.0009869  31.2318196  77.2829424  69.9762168  31.5374213
  79.8933329  55.2682818  33.7814177  80.3902028  54.5152780  33.4615248
  79.1220310  55.3047135  33.2157387  87.7463086  60.9723184  35.4232469
  87.7352963  61.8547899  35.0526402  86.8780466  60.6194734  35.2287006
  79.2545583  70.1203253  39.7835309  79.9673555  70.7550717  39.7111210
  78.7635611  70.2167119  38.9675311  80.9763110  64.0254505  31.3552601
  80.0419388  64.1455968  31.1857305  81.1539778  63.1226972  31.0912611
  76.4768298  57.4100201  33.5085862  76.1066085  56.8571241  34.1966767
  76.9727390  56.8058334  32.9560862  84.3635661  59.8671825  31.8902635
  84.8296113  60.6999816  31.8162937  84.8143161  59.4016806  32.5947893
  74.3057496  67.8697696  40.6040880  75.0066956  68.5034179  40.7570274
  73.8352611  68.2112428  39.8436519  82.4311892  66.2115646  28.8888787
  82.7071736  66.0972240  29.7982661  81.5616391  65.8133131  28.8500960
  82.3352324  52.2352412  35.9293536  81.4215404  52.4656638  36.0975743
  82.7645425  52.3190856  36.7807569  82.1058782  60.4242303  38.4293430
  81.4530232  60.6718211  37.7745883  82.4839162  59.6106442  38.0955907
  79.0665956  70.4601997  32.5321600  79.2488351  69.6423653  32.9949353
  79.8898942  70.6769689  32.0946490  79.4008122  69.3870182  29.7936649
  79.9295888  68.8762636  29.1806811  79.6636341  69.0712712  30.6582182
  78.1546355  61.1662115  44.9159467  77.4786992  61.0656244  45.5861842
  78.9773989  61.0101328  45.3795464  69.9025214  67.4034051  37.5371982
  70.4878651  66.6577739  37.6699887  69.7050053  67.7138008  38.4208646
  72.7563870  70.4385298  32.5534425  72.0874245  70.9231426  32.0698465
  72.6176739  70.6854519  33.4677803  64.4942869  59.9739651  36.2576426
  64.5326969  59.4403242  37.0513544  63.9883162  59.4474857  35.6387403
  76.8969138  72.4729042  39.1517083  77.4487446  72.6360663  39.9166168
  77.2375332  73.0633480  38.4797108  71.8733631  54.8204192  39.7538968
  71.9374958  55.6819023  39.3416366  71.8100752  54.2078193  39.0211326
  71.3485904  56.8927324  43.4012002  71.9757943  56.5104402  44.0149527
  70.4913823  56.6741526  43.7667695  68.1251447  58.7003753  29.3330357
  68.4204888  57.7914432  29.2797411  67.2239482  58.6791493  29.0111359
  80.0337525  70.4211018  36.1380765  79.9088665  69.6200757  35.6291711
  80.6916617  70.9157211  35.6494735  71.6545694  56.7759750  35.3157906
  70.9332279  57.3895718  35.1765379  72.4438949  57.3117515  35.2374552
  82.0972434  68.2220038  37.7660315  81.1502769  68.1025389  37.6938642
  82.4455207  67.3342536  37.8486577  74.4572007  54.1114177  41.5898557
  74.9806409  54.3576473  42.3524867  74.2384340  54.9434211  41.1701695
  69.8539288  56.3817851  29.4569682  69.5251994  55.5015230  29.2744788
  70.2078659  56.3265520  30.3446071  79.1018867  68.0172754  33.9664668
  78.9543830  67.0889461  34.1472238  79.9272361  68.0392845  33.4821743
  72.9681111  56.6690821  29.8245160  73.3077184  57.1976742  29.1023768
  73.4153232  57.0071227  30.6003726  82.7052989  68.8401313  35.0529540
  83.6299536  68.6344174  34.9153992  82.5368292  68.5917714  35.9618882
  75.6624552  55.0527872  39.2748228  75.3221373  54.2535685  39.6768908
  74.9563558  55.3529582  38.7025061  76.3141024  52.1377184  37.7275551
  77.1367093  51.6637662  37.6054441  76.5579088  52.9167668  38.2274237
  74.9549259  55.1665442  28.0238453  75.6757621  55.5446695  27.5202169
  74.3314563  55.8854319  28.1273431  79.0980381  55.8710591  28.9596785
  79.3143996  56.7535229  28.6585613  78.6174449  55.4796805  28.2302427
  73.8379603  58.8296305  35.5367530  73.6924183  59.1436608  36.4291811
  73.3604806  59.4481205  34.9838428  75.6975986  55.8198853  35.5848419
  75.6837554  54.9239946  35.2480717  76.4148414  55.8269516  36.2186705
  77.5502116  56.2536193  37.6301547  77.2919894  57.1753264  37.6285877
  77.0187157  55.8566627  38.3202011  82.4948305  69.3586980  30.4091632
  82.6685183  68.7933402  29.6565484  82.9877196  70.1587875  30.2271122
  68.3125265  61.3701649  38.4755191  67.7678733  62.1461457  38.6075465
  69.1904615  61.7172454  38.3174312  75.1012882  54.7013233  30.8535989
  75.2228793  53.7729879  31.0526877  74.8114924  54.7151919  29.9414305
  77.9704072  52.3868143  33.9902709  77.9925769  52.4507476  33.0354689
  78.3872131  51.5472652  34.1843215  88.3487696  62.1223403  32.0281932
  88.7918842  61.3730728  31.6301055  87.4714207  62.1133539  31.6455664
  83.4823478  68.6753744  27.5088530  84.1774382  69.2960437  27.7275845
  83.8246628  67.8249096  27.7840908  69.0991287  60.4971545  41.3685348
  68.3573023  60.6454181  41.9549978  68.7784031  60.7579811  40.5052097
  85.3814901  66.1253450  29.0375861  85.9066225  66.4640723  28.3125181
  85.2937253  65.1900465  28.8538996  77.0434949  70.0387524  41.1665738
  77.3522076  69.7936670  42.0388437  77.8410431  70.2434162  40.6784608
  77.0655561  72.1925433  33.3971114  76.6260552  71.7001812  34.0903971
  77.8163678  71.6498401  33.1563189  69.5447900  68.3836974  33.3995742
  70.3705920  68.0840746  33.0194386  69.1941952  67.6144597  33.8485531
  74.5129434  67.7363442  35.4693416  73.8909443  67.0734147  35.1695644
  75.1834301  67.7624574  34.7867064  67.7456506  66.3023301  34.3584676
  66.9088414  65.8745475  34.1768677  67.7180151  66.4955744  35.2955467
  74.5853961  56.2145230  45.0625922  74.6342117  57.0907353  44.6803691
  75.1276475  55.6722623  44.4897565  85.1906682  63.6078820  41.6559787
  85.2404687  63.4428827  42.5975310  85.0820605  62.7406079  41.2657668
  74.0742941  66.2867366  28.9451876  74.2231061  66.9702830  28.2918549
  74.8809384  66.2672456  29.4601332  82.4810444  59.5909748  42.9719094
  83.3820307  59.4516213  42.6803092  82.5558419  59.7564203  43.9117272
  76.8153250  56.9676603  41.8172281  75.9456559  57.2610169  41.5454869
  77.0512730  57.5517048  42.5379544  87.8920561  63.5928641  34.4204379
  88.7267452  64.0318445  34.5841940  88.0279690  63.1167294  33.6012625
  84.9412067  61.1508376  40.3681867  85.4166189  61.3436022  39.5600718
  84.0177632  61.2067562  40.1225251  71.8295574  62.3132543  29.9512945
  71.5841615  61.4094873  30.1493155  71.9991488  62.3149694  29.0092423
  79.5192283  53.1856220  39.3337701  80.0374227  53.9217247  39.0084189
  79.1647416  53.4920213  40.1684460  71.0991221  58.0460901  27.4499107
  70.4060466  58.1205256  26.7939143  70.8542973  57.2821244  27.9720624
  79.7704878  49.6056502  34.8538597  80.0506631  48.9379691  35.4799024
  80.5555485  49.7985598  34.3413261  77.5738346  68.7815496  26.4163624
  77.0012313  69.4005683  25.9634096  78.1471140  69.3314858  26.9503546
  83.6413736  58.0274136  38.6010173  84.5931159  58.1272234  38.6222397
  83.4717186  57.2352405  39.1108257  81.6628115  55.1129719  38.7869574
  81.0678048  55.3934732  38.0916062  81.3777812  55.6023620  39.5586315
  80.7935606  69.0652646  27.5472206  81.7266279  68.9998208  27.7505082
  80.7058819  69.9008913  27.0886739  83.4223623  68.3818517  24.5076154
  83.3437254  68.0478380  25.4011912  84.2433289  68.8740284  24.5067626
  86.1201814  61.2480256  37.7152472  86.0878134  60.3096257  37.9012156
  86.7302437  61.3264293  36.9818297  77.9585145  60.1176309  23.7579676
  78.9044249  59.9882517  23.8268094  77.5799390  59.3790971  24.2349104
  86.2696302  58.0391299  37.7610755  85.7535351  57.2549756  37.5740684
  87.1536251  57.7110016  37.9257275  83.9307029  51.7832315  33.7206568
  83.7331850  51.4747403  34.6049900  84.5406735  52.5093954  33.8504498
  91.9378364  62.3096263  36.8558509  92.6681752  62.0481551  37.4166212
  91.3285309  61.5724985  36.8960577  90.0193661  60.4504125  37.4532960
  89.2926824  60.3160090  36.8449452  89.6040948  60.7580954  38.2589678
  77.8423837  64.1694055  45.2180333  78.7626847  64.3472654  45.4120380
  77.8073420  63.2250100  45.0660033  76.1428062  58.0426285  23.6934562
  75.2359517  57.7459398  23.7697275  76.4204043  57.7456103  22.8268848
  67.0606002  59.3632649  34.1433608  66.7408786  58.5097957  33.8507982
  66.5139430  59.5781227  34.8991575  70.8385910  62.0795090  37.8603114
  71.0571919  63.0112197  37.8791148  71.2511683  61.7203064  38.6457918
  77.7590127  52.5863175  29.8478803  76.9490856  52.2410260  30.2234049
  78.4474544  52.2770719  30.4366414  79.6880676  51.6641222  31.4703099
  80.2411714  52.0836675  32.1293123  79.9250762  50.7376970  31.5126055
  75.7113775  57.6528295  47.2505863  75.6110502  58.6022652  47.1817954
  75.4935317  57.3246534  46.3781933  74.9126846  54.9013220  23.8346541
  75.7746010  55.2268119  24.0942358  75.0977191  54.1144716  23.3219607
  66.9294262  62.9835560  36.1126730  66.2357734  62.5689513  35.5996684
  67.6767253  63.0256097  35.5160148  83.0659483  53.7741747  30.9781764
  82.4858152  54.4326551  30.5959816  82.7995416  52.9519092  30.5669181
  81.5163049  53.1746805  33.1803084  82.0162828  53.2863339  32.3717403
  82.1598657  52.8707857  33.8203892  75.5745045  61.0825434  46.0670925
  75.0912127  61.8825794  46.2734814  75.6605984  61.0933379  45.1138369
  68.8431005  62.9153814  33.9892744  68.8201693  63.0141501  33.0374627
  69.1531641  63.7618965  34.3109911  71.5018383  64.9729969  38.1039359
  72.4561636  64.9413911  38.0369290  71.3030906  64.5120593  38.9189585
  72.0917765  63.5431085  40.6710156  72.9110654  64.0375164  40.6944994
  72.3654572  62.6263053  40.6427724  81.8484361  55.9341837  30.0338112
  80.9610216  56.2191488  29.8158307  82.2638350  55.7735601  29.1865389
  85.1998897  55.9588358  33.7492451  85.9759287  56.4484811  34.0217068
  84.4747031  56.3846412  34.2064321  87.6371456  56.6715977  34.8066392
  88.2315946  56.4311713  34.0959700  87.7098039  55.9523108  35.4339928
  69.8568611  70.5149588  35.1209557  69.7223079  69.7549989  34.5547555
  69.4400674  71.2390488  34.6538346  80.9927574  65.6986512  24.1286132
  81.6963424  65.9036514  24.7443788  80.2690223  66.2663274  24.3935215
  81.8225385  61.4496373  30.2488402  81.7660586  61.9064925  29.4096035
  82.3753727  60.6887058  30.0711245  85.6330191  57.2386105  31.0738522
  85.3767125  56.8382741  31.9046729  85.0083059  57.9529899  30.9488661
  89.9442528  59.9782178  33.5809813  89.3842086  60.0475368  34.3541375
  89.3386032  59.8023163  32.8609309  73.0137737  71.4118905  35.3327999
  72.8970121  72.3564338  35.2306690  72.1930183  71.1092467  35.7213799
  82.9014272  66.1369041  26.1784592  83.7359876  65.7050240  25.9962067
  82.7398615  65.9651055  27.1061486  82.5560164  62.6401154  27.5440931
  82.5008968  62.4745426  26.6029375  81.9306219  63.3477187  27.7003121
  67.3452679  57.8769219  41.3702354  67.9911542  57.3668173  41.8589579
  67.1369830  58.6137900  41.9445779  79.8706071  64.9450066  46.8694494
  80.7397231  65.1190719  46.5081129  79.3912823  65.7644483  46.7470223
  75.8656289  52.1409263  27.1226250  75.8534959  53.0851103  27.2794521
  76.7579711  51.9579409  26.8285711  74.0392251  72.0647167  38.5483928
  74.9419498  72.0970778  38.8650423  73.8129621  71.1347618  38.5630264
  75.7945853  70.8178154  35.2094006  74.8441484  70.8180015  35.0958379
  76.0978339  70.0710888  34.6930041  79.6808409  48.7352040  31.3772187
  78.9140805  48.1810527  31.5228869  80.0919114  48.8073909  32.2386338
  91.5298547  76.6538692  36.2739769  92.1676957  76.5345440  35.5703109
  91.4119390  77.6019536  36.3327721  84.1975069  78.4601597  32.1998184
  83.6339934  78.3691534  31.4314472  84.0827464  77.6401501  32.6800677
  89.7774628  82.1272564  27.5112649  89.1262607  82.7126645  27.1246663
  90.5718990  82.6578759  27.5707687  83.7030255  79.2161702  27.9099784
  84.4761131  78.6690689  27.7712659  84.0555654  80.0805951  28.1214245
  86.0396532  75.3754368  25.5418234  86.2922053  74.8535889  24.7801697
  85.1021092  75.2120513  25.6444917  91.0839815  74.3790146  33.3492977
  91.8702905  73.9609569  32.9983394  91.3478520  75.2836238  33.5174625
  91.2549893  79.8162996  28.0481634  90.6195726  79.8897623  28.7602538
  90.9247299  80.4056595  27.3700713  96.4848242  74.3165379  34.2525955
  97.2173414  73.7464596  34.4863785  95.7287598  73.9286980  34.6932461
  85.7592821  77.2782474  27.7442609  85.6429079  76.6027377  28.4123693
  85.8695081  76.7914848  26.9274762  88.1024362  76.7392621  31.4489298
  87.7382569  76.2123242  32.1602219  88.9591478  76.3491090  31.2755783
  94.0073663  68.0286953  38.7120564  93.6756988  68.8982364  38.4881779
  93.4119276  67.7123237  39.3914594  87.7429849  71.7682521  26.4450646
  87.9104251  72.6362757  26.8121117  87.5527018  71.9309802  25.5211936
  93.9002326  72.7482040  35.7913914  92.9919203  72.6797448  35.4972675
  93.8489922  73.2253985  36.6195739  87.7219070  74.2240178  27.4297313
  87.6018695  74.6697229  28.2682793  87.0271658  74.5725496  26.8710851
  85.4825962  86.9943820  31.0787444  85.4049992  87.9451645  31.1575925
  84.8787606  86.6489692  31.7362371  95.7663973  70.9498478  37.5691788
  95.1238353  71.2431011  36.9231582  95.2618901  70.8351398  38.3744985
  93.4204136  74.6961651  28.2577647  94.3321992  74.9289038  28.0825345
  92.9113783  75.2798695  27.6952726  92.0273718  79.6787470  35.6491229
  91.3982581  79.8433184  34.9467296  91.6399381  80.0929079  36.4202193
  95.9062950  80.6141908  33.0035592  95.2213989  80.9940809  32.4532626
  95.9906800  81.2237234  33.7367540  91.2075419  71.7163254  40.9253670
  90.9636351  72.4705315  40.3887946  91.4835350  72.0948602  41.7600917
  93.1613882  78.2601867  39.6030936  93.3730777  78.9033626  38.9265317
  93.1143630  77.4264183  39.1352866  90.7640111  70.8719687  36.5067508
  89.9024590  71.1700941  36.7984246  90.7902546  71.0890086  35.5748541
  87.5801680  79.4161878  32.9141314  88.0440026  79.6949581  32.1245936
  87.3158478  78.5145322  32.7314404  86.5170566  75.5385030  29.7230879
  87.2194610  75.9906074  30.1904805  86.1851195  74.8968849  30.3510772
  80.2595900  73.7968583  35.0248012  79.4694954  74.0526111  34.5488123
  80.7507148  74.6116921  35.1300053  94.2759710  81.1373822  37.7753293
  95.0977154  80.7354009  37.4935975  94.2722113  81.0342056  38.7269409
  82.2110646  74.1613162  31.9831489  81.4141809  74.2731856  32.5014985
  81.9836238  74.4999814  31.1172380  78.5433603  74.0499073  37.4563003
  78.7941642  74.9346083  37.7220579  79.0793152  73.8703675  36.6838095
 102.3665703  77.4812570  34.1238265 101.6129411  76.9119969  33.9682269
 102.5013244  77.4475235  35.0708899  87.7564331  82.3525973  29.7992984
  87.6210006  83.1977508  30.2277832  88.2974144  82.5545250  29.0358918
  81.2093728  79.8701411  30.3720909  81.7218249  80.6644661  30.5226474
  81.8616441  79.1727701  30.3054511  83.0188613  82.9867167  32.4543662
  83.1955241  83.9085132  32.2664646  83.8145447  82.6725586  32.8838042
  91.1056795  65.8756535  38.3291878  90.7621064  66.7658176  38.2530988
  91.4735757  65.6858192  37.4661463  79.1742645  78.1990065  31.1480480
  80.0117867  78.6087073  30.9314187  79.3520913  77.2589507  31.1180674
  91.0707077  75.8665146  26.8364313  90.5553701  76.6369750  27.0752700
  90.7984386  75.1930282  27.4597374  88.6554188  70.7114847  31.8949551
  87.7995785  70.3221697  31.7155190  89.0681140  70.7906807  31.0349337
  90.1853335  68.2461190  36.2941111  89.6818131  68.2091325  35.4808916
  90.4783942  69.1553932  36.3537767  86.4296221  68.3299919  35.3007293
  87.2949218  68.1342728  34.9413182  86.4973730  68.1010271  36.2276649
  96.0441351  78.6197500  28.7717486  95.2670794  78.2808660  28.3272648
  96.7232832  78.6250124  28.0972451  90.8593380  73.7392238  28.6624094
  90.5543516  74.0538387  29.5134237  91.8123823  73.8173658  28.7051427
  89.3039812  79.8982461  30.3117048  88.7761174  79.1635221  29.9990285
  88.8027315  80.6757137  30.0657016  94.2832658  78.0931482  35.4284094
  93.6256333  78.7830743  35.5164223  95.0873058  78.4827914  35.7718080
  84.0358540  70.5602127  32.6723659  84.6102292  70.3377309  31.9396852
  84.6229522  70.6290822  33.4252261  93.0938117  76.4475854  33.4788036
  93.6069999  77.0805846  33.9809746  93.7439341  75.8477050  33.1131396
  84.3628127  72.5906588  26.6919545  83.5265439  72.9281275  27.0128819
  84.2232897  72.4555568  25.7546682  86.3381208  67.4343376  31.3998729
  85.6845620  67.1192393  30.7755344  86.2961682  66.8119117  32.1258552
  87.4492413  77.7162671  23.3152021  86.5419474  77.4851925  23.5143170
  87.9463444  76.9200291  23.5026002  90.3560491  86.4260179  26.2348707
  89.6822190  86.7291875  26.8433665  90.7426313  87.2289259  25.8854164
  89.5718948  73.9225310  35.7246376  88.6541509  74.1440257  35.5668064
  89.9879092  73.9971620  34.8658084  90.3553996  75.3216726  30.8549057
  91.1025815  75.8338123  30.5456179  90.6245585  75.0000778  31.7153450
  88.6280646  77.8175266  27.8376011  87.7191865  77.5334299  27.9348481
  88.6575730  78.2374345  26.9779318  93.8599913  81.4281856  31.6067179
  93.4062240  80.5872766  31.6632369  93.2293880  82.0643254  31.9441959
  92.8032833  72.3573842  32.8367846  92.0655590  71.8451228  33.1678089
  93.0559606  71.9174223  32.0251123  92.3032853  83.2658352  32.5416997
  92.5955827  83.8263410  31.8229362  92.8131473  83.5586913  33.2970156
  92.9044460  65.1350094  33.4309615  93.2103337  64.2747457  33.1435530
  93.6297065  65.7267714  33.2308609  79.1968816  75.5380780  31.8191213
  78.9993216  74.9450141  31.0942280  78.6415480  75.2332991  32.5367152
  87.1765540  75.4303887  33.9385806  87.2314150  74.4777723  33.8628283
  86.3656742  75.5863326  34.4227105  88.3256734  79.3584010  25.1764090
  87.8876164  78.6419869  24.7169727  89.0667175  79.5860125  24.6149181
  85.1157900  74.0480947  31.6976185  84.3025765  74.3475117  32.1041377
  85.6116894  73.6536635  32.4150667  96.4429849  77.6341207  31.2340408
  96.3047747  77.8242803  30.3061597  96.0866067  78.3960590  31.6908459
  84.6071975  71.6199302  37.3137420  85.2471354  71.4788061  36.6160383
  83.7749505  71.3333816  36.9376022  96.4699228  79.7017734  36.2451680
  96.9035735  79.6093023  37.0934734  97.1830809  79.6775234  35.6071696
  85.3832279  80.9201733  33.4272413  86.1772877  80.4252053  33.2254988
  84.6723971  80.3919596  33.0640118  90.2027123  83.3019828  37.7784780
  90.2564145  83.8710764  38.5462496  89.3341904  83.4721713  37.4138817
  81.6915042  75.0644814  29.5032165  80.7612630  75.0029270  29.7202127
  81.7872514  74.5420767  28.7068807  81.6100591  71.5899627  32.0910407
  81.8707408  72.5044960  31.9819567  82.4317763  71.1224070  32.2407020
  97.3314778  79.7441435  38.7784565  97.5250668  80.6487245  39.0243840
  97.2315396  79.2848854  39.6123150  88.5551707  86.5939851  28.4495786
  88.7303462  86.1227894  29.2641409  87.8684495  87.2205617  28.6777047
  89.5108770  80.8712357  34.4959087  89.1758602  80.8313127  35.3916737
  89.0112715  80.2057073  34.0229498  92.4467961  78.2168392  24.7696147
  91.8297132  77.4915220  24.6729200  91.9784450  78.9777752  24.4263221
  94.1022093  82.9267300  42.4301927  94.0434639  82.2426520  41.7632510
  94.5041611  83.6686290  41.9782553  83.1212792  89.7429214  35.2235646
  83.3609390  90.3747738  35.9014665  82.2781988  89.3917254  35.5101006
  84.2366507  72.4353816  23.8917451  83.3595974  72.3142617  23.5279698
  84.7124260  71.6439894  23.6396340  94.1039500  80.8906884  40.6615907
  93.2166279  80.5532806  40.7842306  94.6738051  80.1589915  40.8984673
  75.7568647  77.2230976  33.9858959  76.4439687  76.9092706  33.3979974
  75.6016776  78.1272340  33.7126210  80.5603370  72.1121172  38.4143982
  80.4761558  71.5046842  37.6794392  79.7386076  72.6030190  38.4153479
  87.4230433  84.7880106  31.1379972  86.6397955  85.3301786  31.2318196
  88.1223178  85.3054086  31.5374213  90.7327083  70.5974736  33.7814177
  91.2295783  69.8444698  33.4615248  89.9614065  70.6339052  33.2157387
  98.5856841  76.3015101  35.4232469  98.5746717  77.1839817  35.0526402
  97.7174220  75.9486652  35.2287006  91.8156864  79.3546423  31.3552601
  90.8813143  79.4747885  31.1857305  91.9933533  78.4518890  31.0912611
  87.3162052  72.7392119  33.5085862  86.9459840  72.1863159  34.1966767
  87.8121145  72.1350252  32.9560862  95.2029415  75.1963742  31.8902635
  95.6689868  76.0291734  31.8162937  95.6536916  74.7308724  32.5947893
  93.2705647  81.5407563  28.8888787  93.5465490  81.4264158  29.7982661
  92.4010145  81.1425048  28.8500960  93.1746078  67.5644329  35.9293536
  92.2609158  67.7948556  36.0975743  93.6039180  67.6482773  36.7807569
  92.9452537  75.7534221  38.4293430  92.2923987  76.0010129  37.7745883
  93.3232917  74.9398359  38.0955907  89.9059711  85.7893914  32.5321600
  90.0882105  84.9715570  32.9949353  90.7292697  86.0061607  32.0946490
  90.2401876  84.7162099  29.7936649  90.7689643  84.2054554  29.1806811
  90.5030096  84.4004630  30.6582182  83.5957624  85.7677216  32.5534425
  82.9267999  86.2523344  32.0698465  83.4570494  86.0146437  33.4677803
  75.3336624  75.3031569  36.2576426  75.3720723  74.7695160  37.0513544
  74.8276916  74.7766774  35.6387403  78.9645201  74.0295671  29.3330357
  79.2598642  73.1206350  29.2797411  78.0633237  74.0083411  29.0111359
  90.8731280  85.7502935  36.1380765  90.7482419  84.9492675  35.6291711
  91.5310371  86.2449129  35.6494735  82.4939448  72.1051668  35.3157906
  81.7726034  72.7187635  35.1765379  83.2832704  72.6409433  35.2374552
  92.9366188  83.5511955  37.7660315  91.9896524  83.4317306  37.6938642
  93.2848961  82.6634453  37.8486577  80.6933043  71.7109769  29.4569682
  80.3645749  70.8307148  29.2744788  81.0472413  71.6557437  30.3446071
  89.9412622  83.3464672  33.9664668  89.7937584  82.4181379  34.1472238
  90.7666115  83.3684762  33.4821743  83.8074866  71.9982739  29.8245160
  84.1470938  72.5268660  29.1023768  84.2546986  72.3363145  30.6003726
  93.5446743  84.1693230  35.0529540  94.4693291  83.9636092  34.9153992
  93.3762047  83.9209631  35.9618882  87.1534779  67.4669102  37.7275551
  87.9760848  66.9929580  37.6054441  87.3972842  68.2459585  38.2274237
  85.7943013  70.4957360  28.0238453  86.5151376  70.8738613  27.5202169
  85.1708317  71.2146237  28.1273431  89.9374136  71.2002509  28.9596785
  90.1537750  72.0827147  28.6585613  89.4568203  70.8088723  28.2302427
  84.6773357  74.1588222  35.5367530  84.5317938  74.4728525  36.4291811
  84.1998561  74.7773123  34.9838428  86.5369740  71.1490770  35.5848419
  86.5231309  70.2531864  35.2480717  87.2542168  71.1561434  36.2186705
  88.3895871  71.5828111  37.6301547  88.1313649  72.5045181  37.6285877
  87.8580911  71.1858545  38.3202011  93.3342060  84.6878898  30.4091632
  93.5078937  84.1225320  29.6565484  93.8270951  85.4879793  30.2271122
  85.9406636  70.0305151  30.8535989  86.0622547  69.1021797  31.0526877
  85.6508678  70.0443837  29.9414305  88.8097826  67.7160061  33.9902709
  88.8319523  67.7799394  33.0354689  89.2265885  66.8764570  34.1843215
  99.1881451  77.4515321  32.0281932  99.6312597  76.7022646  31.6301055
  98.3107961  77.4425457  31.6455664  94.3217232  84.0045662  27.5088530
  95.0168137  84.6252355  27.7275845  94.6640382  83.1541013  27.7840908
  96.2208655  81.4545368  29.0375861  96.7459979  81.7932640  28.3125181
  96.1331008  80.5192383  28.8538996  87.9049316  87.5217351  33.3971114
  87.4654306  87.0293730  34.0903971  88.6557433  86.9790319  33.1563189
  80.3841655  83.7128892  33.3995742  81.2099675  83.4132664  33.0194386
  80.0335707  82.9436514  33.8485531  78.5850260  81.6315218  34.3584676
  77.7482168  81.2037393  34.1768677  78.5573905  81.8247662  35.2955467
  95.9102561  82.0878271  44.3427059  95.1198105  82.0702410  43.8031558
  95.6735916  82.6266565  45.0976096  96.0300436  78.9370738  41.6559787
  96.0798441  78.7720745  42.5975310  95.9214360  78.0697997  41.2657668
  84.9136695  81.6159283  28.9451876  85.0624815  82.2994748  28.2918549
  85.7203139  81.5964373  29.4601332  93.3204199  74.9201666  42.9719094
  94.2214061  74.7808131  42.6803092  93.3952173  75.0856120  43.9117272
  97.5318633  81.3567679  41.9001809  97.2403441  81.7197660  42.7365270
  96.9190764  80.6434687  41.7215141  98.7314315  78.9220559  34.4204379
  99.5661207  79.3610363  34.5841940  98.8673444  78.4459212  33.6012625
  95.7805821  76.4800294  40.3681867  96.2559943  76.6727940  39.5600718
  94.8571387  76.5359480  40.1225251  82.6689328  77.6424461  29.9512945
  82.4235370  76.7386791  30.1493155  82.8385243  77.6441611  29.0092423
  90.3586038  68.5148137  39.3337701  90.8767982  69.2509164  39.0084189
  90.0041171  68.8212131  40.1684460  81.9384976  73.3752819  27.4499107
  81.2454220  73.4497174  26.7939143  81.6936727  72.6113162  27.9720624
  90.6098632  64.9348420  34.8538597  90.8900386  64.2671609  35.4799024
  91.3949239  65.1277515  34.3413261  88.4132101  84.1107414  26.4163624
  87.8406068  84.7297601  25.9634096  88.9864894  84.6606775  26.9503546
  94.4807490  73.3566054  38.6010173  95.4324913  73.4564152  38.6222397
  94.3110941  72.5644322  39.1108257  92.5021870  70.4421637  38.7869574
  91.9071802  70.7226650  38.0916062  92.2171567  70.9315538  39.5586315
  91.6329360  84.3944564  27.5472206  92.5660034  84.3290126  27.7505082
  91.5452573  85.2300831  27.0886739  94.2617377  83.7110434  24.5076154
  94.1831009  83.3770298  25.4011912  95.0827044  84.2032202  24.5067626
  96.9595568  76.5772174  37.7152472  96.9271888  75.6388174  37.9012156
  97.5696192  76.6556210  36.9818297  88.7978899  75.4468227  23.7579676
  89.7438004  75.3174435  23.8268094  88.4193144  74.7082888  24.2349104
  97.1090057  73.3683217  37.7610755  96.5929105  72.5841674  37.5740684
  97.9930005  73.0401934  37.9257275  94.7700784  67.1124233  33.7206568
  94.5725605  66.8039321  34.6049900  95.3800489  67.8385871  33.8504498
 102.7772118  77.6388180  36.8558509 103.5075507  77.3773469  37.4166212
 102.1679064  76.9016902  36.8960577 100.8587415  75.7796043  37.4532960
 100.1320579  75.6452008  36.8449452 100.4434702  76.0872872  38.2589678
  86.9821816  73.3718203  23.6934562  86.0753272  73.0751316  23.7697275
  87.2597797  73.0748021  22.8268848  77.8999757  74.6924566  34.1433608
  77.5802541  73.8389875  33.8507982  77.3533185  74.9073144  34.8991575
  88.5983882  67.9155093  29.8478803  87.7884610  67.5702178  30.2234049
  89.2868299  67.6062636  30.4366414  90.5274430  66.9933139  31.4703099
  91.0805469  67.4128593  32.1293123  90.7644517  66.0668888  31.5126055
  85.7520601  70.2305138  23.8346541  86.6139765  70.5560036  24.0942358
  85.9370945  69.4436634  23.3219607  77.7688017  78.3127478  36.1126730
  77.0751488  77.8981431  35.5996684  78.5161008  78.3548014  35.5160148
  93.9053237  69.1033665  30.9781764  93.3251906  69.7618469  30.5959816
  93.6389170  68.2811009  30.5669181  92.3556804  68.5038722  33.1803084
  92.8556582  68.6155257  32.3717403  92.9992412  68.1999775  33.8203892
  79.6824759  78.2445732  33.9892744  79.6595447  78.3433419  33.0374627
  79.9925396  79.0910882  34.3109911  92.6878115  71.2633755  30.0338112
  91.8003970  71.5483406  29.8158307  93.1032104  71.1027518  29.1865389
  96.0392651  71.2880276  33.7492451  96.8153042  71.7776728  34.0217068
  95.3140786  71.7138330  34.2064321  98.4765210  72.0007895  34.8066392
  99.0709701  71.7603631  34.0959700  98.5491794  71.2815026  35.4339928
  80.6962366  85.8441506  35.1209557  80.5616834  85.0841907  34.5547555
  80.2794428  86.5682406  34.6538346  91.8321329  81.0278430  24.1286132
  92.5357179  81.2328432  24.7443788  91.1083978  81.5955192  24.3935215
  92.6619139  76.7788291  30.2488402  92.6054340  77.2356842  29.4096035
  93.2147482  76.0178976  30.0711245  96.4723945  72.5678023  31.0738522
  96.2160879  72.1674658  31.9046729  95.8476813  73.2821817  30.9488661
 100.7836283  75.3074096  33.5809813 100.2235841  75.3767285  34.3541375
 100.1779786  75.1315081  32.8609309  83.8531492  86.7410823  35.3327999
  83.7363876  87.6856256  35.2306690  83.0323938  86.4384385  35.7213799
  93.7408026  81.4660959  26.1784592  94.5753630  81.0342157  25.9962067
  93.5792369  81.2942973  27.1061486  93.3953918  77.9693072  27.5440931
  93.3402722  77.8037344  26.6029375  92.7699974  78.6769105  27.7003121
  86.7050044  67.4701181  27.1226250  86.6928714  68.4143021  27.2794521
  87.5973466  67.2871327  26.8285711  90.5202163  64.0643958  31.3772187
  89.7534559  63.5102444  31.5228869  90.9312868  64.1365827  32.2386338
 102.3692301  91.9830610  36.2739769 103.0070711  91.8637357  35.5703109
 102.2513144  92.9311454  36.3327721  99.1782008  91.9358038  36.2101293
  98.8400519  91.8199103  35.3221828 100.0471776  91.5349203  36.1902300
  95.0368823  93.7893514  32.1998184  94.4733688  93.6983451  31.4314472
  94.9221218  92.9693419  32.6800677  99.6601791  93.0892890  42.1687499
  99.6490431  92.6945688  41.2968003  99.8222430  92.3558962  42.7621270
  92.5833255  95.2844706  35.0382405  93.3754547  94.9435531  34.6228704
  92.8229905  95.3939681  35.9584558 100.6168382  97.4564482  27.5112649
  99.9656362  98.0418563  27.1246663 101.4112745  97.9870677  27.5707687
  94.5424009  94.5453619  27.9099784  95.3154885  93.9982606  27.7712659
  94.8949408  95.4097869  28.1214245  96.3809052  95.8730002  41.1166683
  96.0898918  96.7775632  41.0013349  97.0166036  95.9146529  41.8310753
  97.3065259  93.2506850  37.7068043  97.9028831  93.0262873  36.9925006
  97.3640230  92.5091596  38.3093490  96.8790287  90.7046285  25.5418234
  97.1315808  90.1827807  24.7801697  95.9414846  90.5412431  25.6444917
 101.9233570  89.7082064  33.3492977 102.7096659  89.2901487  32.9983394
 102.1872274  90.6128156  33.5174625 102.0943647  95.1454914  28.0481634
 101.4589480  95.2189541  28.7602538 101.7641054  95.7348513  27.3700713
 107.3241997  89.6457297  34.2525955 108.0567169  89.0756514  34.4863785
 106.5681353  89.2578897  34.6932461  96.5986576  92.6074391  27.7442609
  96.4822834  91.9319295  28.4123693  96.7088836  92.1206765  26.9274762
  98.9418117  92.0684539  31.4489298  98.5776324  91.5415159  32.1602219
  99.7985233  91.6783008  31.2755783 104.8467417  83.3578871  38.7120564
 104.5150742  84.2274282  38.4881779 104.2513031  83.0415155  39.3914594
  98.5823604  87.0974438  26.4450646  98.7498006  87.9654675  26.8121117
  98.3920773  87.2601720  25.5211936 101.3398937  95.5591417  38.1116477
 101.0399660  96.4616456  38.0032284 100.9949996  95.2923600  38.9637630
  94.7911418  92.0105214  34.1453181  93.8661915  91.8781428  34.3530873
  95.0395831  92.7899433  34.6423123 104.7396081  88.0773957  35.7913914
 103.8312958  88.0089366  35.4972675 104.6883676  88.5545902  36.6195739
  98.5612824  89.5532096  27.4297313  98.4412450  89.9989146  28.2682793
  97.8665413  89.9017413  26.8710851  92.1520229  91.6538487  34.9796970
  92.2812610  91.9072966  35.8936382  91.4717681  92.2466195  34.6601625
  96.3219717 102.3235737  31.0787444  96.2443746 103.2743563  31.1575925
  95.7181360 101.9781610  31.7362371  98.8136946  89.4963603  43.7348811
  98.0370280  90.0557523  43.7251676  99.4527509  89.9820386  44.2563681
 106.6057727  86.2790396  37.5691788 105.9632107  86.5722929  36.9231582
 106.1012656  86.1643316  38.3744985 104.2597891  90.0253569  28.2577647
 105.1715747  90.2580956  28.0825345 103.7507538  90.6090613  27.6952726
  97.0683319  92.3049056  43.2966778  97.8098003  92.8434100  43.0201602
  96.3620304  92.9315345  43.4538330 102.5438658  94.4478197  41.8938940
 102.9522014  94.0060607  41.1493572 101.8215920  93.8730824  42.1473133
  98.8969728  89.3850803  39.2672497  99.7430924  89.8090217  39.4107146
  98.8368366  88.7284428  39.9611060 102.8667473  95.0079387  35.6491229
 102.2376335  95.1725101  34.9467296 102.4793135  95.4220997  36.4202193
 106.7456705  95.9433825  33.0035592 106.0607743  96.3232727  32.4532626
 106.8300554  96.5529152  33.7367540 102.0469174  87.0455172  40.9253670
 101.8030106  87.7997232  40.3887946 102.3229104  87.4240519  41.7600917
 104.0007636  93.5893784  39.6030936 104.2124532  94.2325544  38.9265317
 103.9537385  92.7556101  39.1352866 101.6033865  86.2011605  36.5067508
 100.7418344  86.4992858  36.7984246 101.6296300  86.4182004  35.5748541
  98.4195435  94.7453795  32.9141314  98.8833780  95.0241498  32.1245936
  98.1552233  93.8437240  32.7314404  95.3119516  94.2925277  35.8521077
  95.8820873  94.7212545  35.2138561  95.9027628  94.0107862  36.5505263
  97.3564321  90.8676948  29.7230879  98.0588364  91.3197991  30.1904805
  97.0244949  90.2260767  30.3510772  95.8044682  89.4588704  44.0982088
  95.1743343  90.1404985  44.3317485  95.6980770  89.3471786  43.1535227
  91.0989655  89.1260500  35.0248012  90.3088709  89.3818029  34.5488123
  91.5900902  89.9408838  35.1300053 105.1153464  96.4665740  37.7753293
 105.9370908  96.0645927  37.4935975 105.1115867  96.3633974  38.7269409
  93.0504400  89.4905080  31.9831489  92.2535564  89.6023774  32.5014985
  92.8229992  89.8291732  31.1172380  98.8810068  96.0149783  39.9314004
  98.9454500  96.4770190  40.7672176  98.1720992  95.3847148  40.0596314
  89.3827358  89.3790991  37.4563003  89.6335396  90.2638001  37.7220579
  89.9186906  89.1995592  36.6838095 113.2059457  92.8104488  34.1238265
 112.4523166  92.2411886  33.9682269 113.3406999  92.7767153  35.0708899
  98.5958086  97.6817890  29.7992984  98.4603760  98.5269426  30.2277832
  99.1367898  97.8837168  29.0358918  95.0825425  83.7609470  46.4607339
  94.6892371  83.2075669  47.1354984  95.8991565  84.0720049  46.8513857
  92.0487483  95.1993328  30.3720909  92.5612003  95.9936579  30.5226474
  92.7010196  94.5019619  30.3054511  93.8582368  98.3159085  32.4543662
  94.0348996  99.2377049  32.2664646  94.6539201  98.0017504  32.8838042
  97.9993386  85.1767349  44.0527596  98.7403100  85.7774502  43.9732058
  98.2311309  84.4344987  43.4945638  93.1434724  90.3623717  42.3305826
  93.0288239  89.4608974  42.6312924  92.2879242  90.6087413  41.9790642
 100.2226562  98.3041457  43.9293326  99.7790416  97.5177835  43.6114231
 100.8843775  98.4920607  43.2637217  94.9813683  99.8337259  38.4554005
  95.5321108  99.7054322  37.6830999  94.1425159 100.1332148  38.1048897
 102.3207800  98.5844257  41.9574727 102.3026275  99.4053138  41.4654997
 103.2427720  98.4598332  42.1824869  98.7780854  96.0988386  42.7998236
  99.3109191  95.3376675  42.5697544  98.2494935  95.8062038  43.5422390
 101.9450549  81.2048452  38.3291878 101.6014818  82.0950094  38.2530988
 102.3129512  81.0150110  37.4661463  90.0136400  93.5281983  31.1480480
  90.8511622  93.9378991  30.9314187  90.1914667  92.5881425  31.1180674
 101.9100832  91.1957063  26.8364313 101.3947455  91.9661668  27.0752700
 101.6378140  90.5222200  27.4597374  99.4947943  86.0406764  31.8949551
  98.6389539  85.6513615  31.7155190  99.9074895  86.1198725  31.0349337
 101.0247089  83.5753107  36.2941111 100.5211885  83.5383243  35.4808916
 101.3177696  84.4845850  36.3537767  97.2689975  83.6591837  35.3007293
  98.1342972  83.4634646  34.9413182  97.3367484  83.4302189  36.2276649
 106.8835106  93.9489418  28.7717486 106.1064549  93.6100578  28.3272648
 107.5626587  93.9542041  28.0972451 101.6987135  89.0684155  28.6624094
 101.3937271  89.3830305  29.5134237 102.6517577  89.1465575  28.7051427
 100.1433567  95.2274379  30.3117048  99.6154928  94.4927138  29.9990285
  99.6421070  96.0049055  30.0657016 105.1226413  93.4223399  35.4284094
 104.4650087  94.1122661  35.5164223 105.9266812  93.8119831  35.7718080
  94.8752294  85.8894045  32.6723659  95.4496046  85.6669227  31.9396852
  95.4623277  85.9582740  33.4252261 103.9331872  91.7767772  33.4788036
 104.4463753  92.4097764  33.9809746 104.5833096  91.1768967  33.1131396
  95.2021882  87.9198506  26.6919545  94.3659194  88.2573193  27.0128819
  95.0626651  87.7847486  25.7546682  97.1774962  82.7635294  31.3998729
  96.5239374  82.4484311  30.7755344  97.1355436  82.1411034  32.1258552
  98.2886167  93.0454589  23.3152021  97.3813229  92.8143843  23.5143170
  98.7857199  92.2492208  23.5026002 100.4112703  89.2517228  35.7246376
  99.4935264  89.4732175  35.5668064 100.8272846  89.3263538  34.8658084
 101.1947750  90.6508643  30.8549057 101.9419569  91.1630040  30.5456179
 101.4639340  90.3292696  31.7153450  99.4674400  93.1467184  27.8376011
  98.5585620  92.8626217  27.9348481  99.4969484  93.5666263  26.9779318
 104.6993668  96.7573773  31.6067179 104.2455995  95.9164683  31.6632369
 104.0687635  97.3935172  31.9441959 103.6426587  87.6865759  32.8367846
 102.9049344  87.1743146  33.1678089 103.8953361  87.2466141  32.0251123
 103.1426607  98.5950270  32.5416997 103.4349581  99.1555327  31.8229362
 103.6525228  98.8878831  33.2970156 103.7438215  80.4642011  33.4309615
 104.0497092  79.6039375  33.1435530 104.4690820  81.0559632  33.2308609
  90.0362571  90.8672698  31.8191213  89.8386971  90.2742059  31.0942280
  89.4809235  90.5624908  32.5367152  98.0159294  90.7595805  33.9385806
  98.0707904  89.8069641  33.8628283  97.2050497  90.9155244  34.4227105
  99.1650488  94.6875928  25.1764090  98.7269918  93.9711787  24.7169727
  99.9060929  94.9152042  24.6149181  95.9551654  89.3772864  31.6976185
  95.1419520  89.6767035  32.1041377  96.4510649  88.9828553  32.4150667
  98.1060232  99.3730621  33.6310450  98.0636411  99.5991468  32.7018982
  99.0222931  99.1393996  33.7796251 101.5525866  89.8414689  40.5291079
 101.9075254  90.0686162  41.3885545 102.1997997  90.1733066  39.9068334
 107.2823603  92.9633125  31.2340408 107.1441502  93.1534721  30.3061597
 106.9259822  93.7252507  31.6908459  95.4465729  86.9491220  37.3137420
  96.0865108  86.8079979  36.6160383  94.6143260  86.6625733  36.9376022
 107.3092983  95.0309652  36.2451680 107.7429489  94.9384941  37.0934734
 108.0224563  95.0067152  35.6071696  96.2226033  96.2493650  33.4272413
  97.0166632  95.7543970  33.2254988  95.5117725  95.7211513  33.0640118
 101.0420878  98.6311746  37.7784780 101.0957900  99.2002682  38.5462496
 100.1735659  98.8013631  37.4138817  92.5308797  90.3936732  29.5032165
  91.6006385  90.3321187  29.7202127  92.6266269  89.8712685  28.7068807
  92.4494346  86.9191545  32.0910407  92.7101163  87.8336878  31.9819567
  93.2711518  86.4515987  32.2407020  93.9219271  88.3329302  39.2609231
  94.5942324  88.1246664  38.6121880  93.0949057  88.1351388  38.8214464
 108.1708532  95.0733352  38.7784565 108.3644422  95.9779163  39.0243840
 108.0709150  94.6140771  39.6123150  99.8244843  84.9591243  41.2774892
  99.1772758  85.6581193  41.1839369 100.5945858  85.3927387  41.6451141
 103.2323641  95.2240095  44.3525446 103.0809147  94.9950647  43.4355529
 103.2228320  96.1810696  44.3656791 100.0008977  92.7972008  39.3371712
 100.9301037  92.9483167  39.1640679  99.5800007  92.8856029  38.4820359
  98.7997309  96.8222672  37.1070250  98.6608395  96.4541457  37.9796188
  98.0111905  97.3370312  36.9354207  99.3945461 101.9231769  28.4495786
  99.5697217 101.4519812  29.2641409  98.7078249 102.5497535  28.6777047
 100.3502524  96.2004275  34.4959087 100.0152357  96.1605045  35.3916737
  99.8506470  95.5348991  34.0229498  94.3246768  91.6071905  40.0211669
  94.1866566  90.8752144  40.6223208  95.2351692  91.5180805  39.7395856
 103.2861716  93.5460309  24.7696147 102.6690886  92.8207137  24.6729200
 102.8178204  94.3069670  24.4263221  96.9529069  91.3191864  39.5095348
  97.6628687  90.6785056  39.4681967  96.9098377  91.5704759  40.4321529
 104.9415848  98.2559218  42.4301927 104.8828394  97.5718438  41.7632510
 105.3435366  98.9978208  41.9782553  95.6658003  88.3057082  41.3290988
  95.1295360  87.8547821  41.9812584  95.0774711  88.4402991  40.5861452
  93.9606546 105.0721131  35.2235646  94.2003145 105.7039656  35.9014665
  93.1175743 104.7209171  35.5101006  95.0760262  87.7645734  23.8917451
  94.1989728  87.6434534  23.5279698  95.5518015  86.9731812  23.6396340
 104.9433255  96.2198802  40.6615907 104.0560034  95.8824723  40.7842306
 105.5131806  95.4881833  40.8984673  86.5962402  92.5522893  33.9858959
  87.2833442  92.2384623  33.3979974  86.4410531  93.4564258  33.7126210
  91.3997124  87.4413090  38.4143982  91.3155313  86.8338759  37.6794392
  90.5779830  87.9322108  38.4153479  98.4734408 100.8800254  37.6277150
  98.4004580 101.6855225  38.1396455  98.0311801 101.0792220  36.8025172
  98.2624188 100.1172024  31.1379972  97.4791710 100.6593704  31.2318196
  98.9616933 100.6346004  31.5374213 101.5720838  85.9266653  33.7814177
 102.0689537  85.1736616  33.4615248 100.8007819  85.9630970  33.2157387
 109.4250595  91.6307019  35.4232469 109.4140472  92.5131734  35.0526402
 108.5567975  91.2778570  35.2287006 100.9333092 100.7787088  39.7835309
 101.6461064 101.4134553  39.7111210 100.4423120 100.8750954  38.9675311
 102.6550619  94.6838341  31.3552601 101.7206897  94.8039803  31.1857305
 102.8327287  93.7810807  31.0912611  98.1555807  88.0684036  33.5085862
  97.7853594  87.5155077  34.1966767  98.6514899  87.4642170  32.9560862
 106.0423170  90.5255660  31.8902635 106.5083622  91.3583651  31.8162937
 106.4930670  90.0600641  32.5947893  95.9845005  98.5281531  40.6040880
  96.6854465  99.1618014  40.7570274  95.5140120  98.8696263  39.8436519
 104.1099401  96.8699481  28.8888787 104.3859245  96.7556076  29.7982661
 103.2403900  96.4716966  28.8500960 104.0139833  82.8936247  35.9293536
 103.1002913  83.1240474  36.0975743 104.4432934  82.9774691  36.7807569
 103.7846291  91.0826139  38.4293430 103.1317741  91.3302046  37.7745883
 104.1626671  90.2690277  38.0955907 100.7453465 101.1185832  32.5321600
 100.9275860 100.3007488  32.9949353 101.5686451 101.3353524  32.0946490
 101.0795631 100.0454017  29.7936649 101.6083397  99.5346472  29.1806811
 101.3423850  99.7296547  30.6582182  99.8333864  91.8245950  44.9159467
  99.1574501  91.7240079  45.5861842 100.6561498  91.6685164  45.3795464
  91.5812723  98.0617886  37.5371982  92.1666160  97.3161574  37.6699887
  91.3837562  98.3721843  38.4208646  94.4351379 101.0969134  32.5534425
  93.7661754 101.5815261  32.0698465  94.2964248 101.3438354  33.4677803
  86.1730378  90.6323487  36.2576426  86.2114478  90.0987077  37.0513544
  85.6670671  90.1058692  35.6387403  98.5756647 103.1312877  39.1517083
  99.1274955 103.2944499  39.9166168  98.9162841 103.7217315  38.4797108
  93.5521140  85.4788027  39.7538968  93.6162467  86.3402858  39.3416366
  93.4888261  84.8662029  39.0211326 103.4267521  97.9574135  45.0065738
 103.9707425  98.5704093  44.5120692 102.8454366  98.5153713  45.5232751
  89.8038956  89.3587589  29.3330357  90.0992397  88.4498267  29.2797411
  88.9026991  89.3375328  29.0111359 101.7125034 101.0794853  36.1380765
 101.5876174 100.2784593  35.6291711 102.3704125 101.5741046  35.6494735
  93.3333203  87.4343585  35.3157906  92.6119788  88.0479553  35.1765379
  94.1226458  87.9701350  35.2374552 103.7759943  98.8803873  37.7660315
 102.8290278  98.7609224  37.6938642 104.1242716  97.9926371  37.8486577
  96.1359516  84.7698012  41.5898557  96.6593918  85.0160308  42.3524867
  95.9171849  85.6018047  41.1701695  91.5326797  87.0401686  29.4569682
  91.2039503  86.1599065  29.2744788  91.8866168  86.9849355  30.3446071
 100.7806376  98.6756589  33.9664668 100.6331338  97.7473297  34.1472238
 101.6059870  98.6976680  33.4821743  94.6468620  87.3274656  29.8245160
  94.9864693  87.8560578  29.1023768  95.0940741  87.6655062  30.6003726
 104.3840498  99.4985148  35.0529540 105.3087045  99.2928009  34.9153992
 104.2155801  99.2501549  35.9618882  97.3412061  85.7111707  39.2748228
  97.0008882  84.9119520  39.6768908  96.6351067  86.0113418  38.7025061
  97.9928533  82.7961019  37.7275551  98.8154602  82.3221498  37.6054441
  98.2366597  83.5751503  38.2274237  96.6336767  85.8249278  28.0238453
  97.3545130  86.2030531  27.5202169  96.0102072  86.5438155  28.1273431
 100.7767890  86.5294427  28.9596785 100.9931505  87.4119065  28.6585613
 100.2961958  86.1380640  28.2302427  95.5167112  89.4880140  35.5367530
  95.3711692  89.8020443  36.4291811  95.0392315  90.1065040  34.9838428
  97.3763495  86.4782688  35.5848419  97.3625063  85.5823781  35.2480717
  98.0935923  86.4853352  36.2186705  99.2289625  86.9120028  37.6301547
  98.9707403  87.8337099  37.6285877  98.6974666  86.5150463  38.3202011
 104.1735814 100.0170815  30.4091632 104.3472692  99.4517238  29.6565484
 104.6664705 100.8171710  30.2271122  89.9912774  92.0285484  38.4755191
  89.4466242  92.8045292  38.6075465  90.8692124  92.3756289  38.3174312
  96.7800391  85.3597068  30.8535989  96.9016302  84.4313714  31.0526877
  96.4902433  85.3735754  29.9414305  99.6491581  83.0451979  33.9902709
  99.6713278  83.1091312  33.0354689 100.0659640  82.2056487  34.1843215
 110.0275205  92.7807238  32.0281932 110.4706351  92.0314564  31.6301055
 109.1501716  92.7717375  31.6455664 105.1610987  99.3337580  27.5088530
 105.8561891  99.9544272  27.7275845 105.5034137  98.4832931  27.7840908
  90.7778796  91.1555381  41.3685348  90.0360532  91.3038016  41.9549978
  90.4571540  91.4163646  40.5052097 107.0602410  96.7837285  29.0375861
 107.5853734  97.1224558  28.3125181 106.9724762  95.8484301  28.8538996
  98.7222458 100.6971359  41.1665738  99.0309585 100.4520506  42.0388437
  99.5197940 100.9017997  40.6784608  98.7443070 102.8509269  33.3971114
  98.3048061 102.3585647  34.0903971  99.4951187 102.3082236  33.1563189
  91.2235409  99.0420809  33.3995742  92.0493429  98.7424581  33.0194386
  90.8729461  98.2728432  33.8485531  96.1916943  98.3947278  35.4693416
  95.5696952  97.7317983  35.1695644  96.8621810  98.4208410  34.7867064
  89.4244015  96.9607136  34.3584676  88.5875923  96.5329310  34.1768677
  89.3967660  97.1539579  35.2955467  96.2641470  86.8729066  45.0625922
  96.3129626  87.7491188  44.6803691  96.8063984  86.3306459  44.4897565
 106.7496316  97.4170189  44.3427059 105.9591859  97.3994328  43.8031558
 106.5129670  97.9558483  45.0976096 106.8694191  94.2662655  41.6559787
 106.9192196  94.1012663  42.5975310 106.7608114  93.3989914  41.2657668
  95.7530450  96.9451201  28.9451876  95.9018570  97.6286665  28.2918549
  96.5596893  96.9256291  29.4601332 104.1597953  90.2493583  42.9719094
 105.0607816  90.1100048  42.6803092 104.2345928  90.4148038  43.9117272
  98.4940759  87.6260438  41.8172281  97.6244068  87.9194004  41.5454869
  98.7300239  88.2100883  42.5379544 108.3712388  96.6859597  41.9001809
 108.0797196  97.0489577  42.7365270 107.7584519  95.9726605  41.7215141
 109.5708070  94.2512477  34.4204379 110.4054961  94.6902281  34.5841940
 109.7067199  93.7751130  33.6012625 106.6199576  91.8092211  40.3681867
 107.0953698  92.0019858  39.5600718 105.6965141  91.8651397  40.1225251
  93.5083083  92.9716379  29.9512945  93.2629124  92.0678709  30.1493155
  93.6778997  92.9733529  29.0092423 101.1979792  83.8440055  39.3337701
 101.7161736  84.5801082  39.0084189 100.8434925  84.1504048  40.1684460
  92.7778730  88.7044736  27.4499107  92.0847975  88.7789091  26.7939143
  92.5330482  87.9405080  27.9720624 101.4492387  80.2640338  34.8538597
 101.7294140  79.5963527  35.4799024 102.2342993  80.4569433  34.3413261
  99.2525855  99.4399331  26.4163624  98.6799822 100.0589519  25.9634096
  99.8258649  99.9898693  26.9503546 105.3201245  88.6857972  38.6010173
 106.2718668  88.7856069  38.6222397 105.1504695  87.8936240  39.1108257
 103.3415624  85.7713555  38.7869574 102.7465556  86.0518567  38.0916062
 103.0565321  86.2607456  39.5586315 102.4723115  99.7236482  27.5472206
 103.4053788  99.6582043  27.7505082 102.3846328 100.5592748  27.0886739
 107.7989323  91.9064091  37.7152472 107.7665643  90.9680092  37.9012156
 108.4089946  91.9848128  36.9818297  99.6372654  90.7760144  23.7579676
 100.5831758  90.6466352  23.8268094  99.2586899  90.0374806  24.2349104
 107.9483811  88.6975135  37.7610755 107.4322860  87.9133591  37.5740684
 108.8323760  88.3693851  37.9257275 105.6094538  82.4416150  33.7206568
 105.4119359  82.1331238  34.6049900 106.2194244  83.1677789  33.8504498
 113.6165873  92.9680098  36.8558509 114.3469261  92.7065386  37.4166212
 113.0072818  92.2308820  36.8960577 111.6981170  91.1087961  37.4532960
 110.9714333  90.9743926  36.8449452 111.2828457  91.4164789  38.2589678
  99.5211346  94.8277890  45.2180333 100.4414356  95.0056489  45.4120380
  99.4860929  93.8833936  45.0660033  97.8215571  88.7010121  23.6934562
  96.9147026  88.4043233  23.7697275  98.0991552  88.4039939  22.8268848
  88.7393511  90.0216484  34.1433608  88.4196295  89.1681792  33.8507982
  88.1926939  90.2365062  34.8991575  92.5173419  92.7378925  37.8603114
  92.7359428  93.6696033  37.8791148  92.9299192  92.3786899  38.6457918
  99.4377636  83.2447010  29.8478803  98.6278365  82.8994095  30.2234049
 100.1262053  82.9354554  30.4366414 101.3668185  82.3225057  31.4703099
 101.9199223  82.7420511  32.1293123 101.6038271  81.3960805  31.5126055
  97.3901284  88.3112131  47.2505863  97.2898011  89.2606488  47.1817954
  97.1722826  87.9830370  46.3781933  96.5914355  85.5597056  23.8346541
  97.4533519  85.8851954  24.0942358  96.7764699  84.7728552  23.3219607
  88.6081771  93.6419395  36.1126730  87.9145243  93.2273348  35.5996684
  89.3554762  93.6839932  35.5160148 104.7446992  84.4325582  30.9781764
 104.1645661  85.0910386  30.5959816 104.4782924  83.6102927  30.5669181
 103.1950558  83.8330640  33.1803084 103.6950337  83.9447175  32.3717403
 103.8386166  83.5291693  33.8203892  97.2532554  91.7409270  46.0670925
  96.7699636  92.5409630  46.2734814  97.3393493  91.7517214  45.1138369
  90.5218514  93.5737649  33.9892744  90.4989202  93.6725337  33.0374627
  90.8319150  94.4202800  34.3109911  93.1805892  95.6313804  38.1039359
  94.1349145  95.5997747  38.0369290  92.9818415  95.1704428  38.9189585
  93.7705274  94.2014920  40.6710156  94.5898163  94.6958999  40.6944994
  94.0442081  93.2846888  40.6427724 103.5271870  86.5925673  30.0338112
 102.6397725  86.8775323  29.8158307 103.9425859  86.4319436  29.1865389
 106.8786406  86.6172194  33.7492451 107.6546796  87.1068646  34.0217068
 106.1534540  87.0430248  34.2064321 109.3158965  87.3299813  34.8066392
 109.9103455  87.0895549  34.0959700 109.3885548  86.6106943  35.4339928
  91.5356120 101.1733424  35.1209557  91.4010588 100.4133825  34.5547555
  91.1188183 101.8974324  34.6538346 102.6715083  96.3570347  24.1286132
 103.3750933  96.5620350  24.7443788 101.9477732  96.9247109  24.3935215
 103.5012894  92.1080209  30.2488402 103.4448095  92.5648760  29.4096035
 104.0541236  91.3470893  30.0711245 107.3117699  87.8969940  31.0738522
 107.0554634  87.4966576  31.9046729 106.6870568  88.6113734  30.9488661
 111.6230037  90.6366014  33.5809813 111.0629595  90.7059203  34.3541375
 111.0173541  90.4606998  32.8609309  94.6925246 102.0702741  35.3327999
  94.5757630 103.0148173  35.2306690  93.8717692 101.7676302  35.7213799
 104.5801781  96.7952877  26.1784592 105.4147385  96.3634075  25.9962067
 104.4186124  96.6234890  27.1061486 104.2347673  93.2984990  27.5440931
 104.1796477  93.1329261  26.6029375 103.6093728  94.0061023  27.7003121
 101.5493580  95.6033902  46.8694494 102.4184740  95.7774554  46.5081129
 101.0700332  96.4228319  46.7470223  97.5443798  82.7993099  27.1226250
  97.5322468  83.7434939  27.2794521  98.4367220  82.6163244  26.8285711
  95.7179760 102.7231003  38.5483928  96.6207007 102.7554613  38.8650423
  95.4917130 101.7931454  38.5630264  97.4733362 101.4761989  35.2094006
  96.5228993 101.4763851  35.0958379  97.7765848 100.7294724  34.6930041
 101.3595918  79.3935875  31.3772187 100.5928314  78.8394362  31.5228869
 101.7706623  79.4657744  32.2386338 113.2086056 107.3122528  36.2739769
 113.8464466 107.1929275  35.5703109 113.0906899 108.2603372  36.3327721
 110.0175762 107.2649956  36.2101293 109.6794274 107.1491020  35.3221828
 110.8865530 106.8641121  36.1902300 110.4995545 108.4184807  42.1687499
 110.4884186 108.0237606  41.2968003 110.6616185 107.6850880  42.7621270
 103.4227010 110.6136624  35.0382405 104.2148302 110.2727448  34.6228704
 103.6623660 110.7231599  35.9584558 107.2202806 111.2021919  41.1166683
 106.9292672 112.1067550  41.0013349 107.8559791 111.2438447  41.8310753
 108.1459013 108.5798768  37.7068043 108.7422585 108.3554790  36.9925006
 108.2033985 107.8383513  38.3093490 112.7627324 105.0373981  33.3492977
 113.5490414 104.6193405  32.9983394 113.0266029 105.9420074  33.5174625
 115.6861172  98.6870789  38.7120564 115.3544497  99.5566200  38.4881779
 115.0906785  98.3707073  39.3914594 112.1792691 110.8883335  38.1116477
 111.8793414 111.7908374  38.0032284 111.8343751 110.6215518  38.9637630
 105.6305173 107.3397132  34.1453181 104.7055669 107.2073346  34.3530873
 105.8789586 108.1191351  34.6423123 115.5789835 103.4065875  35.7913914
 114.6706712 103.3381283  35.4972675 115.5277431 103.8837820  36.6195739
 102.9913984 106.9830405  34.9796970 103.1206365 107.2364884  35.8936382
 102.3111435 107.5758113  34.6601625 109.6530701 104.8255521  43.7348811
 108.8764035 105.3849441  43.7251676 110.2921264 105.3112304  44.2563681
 117.4451481 101.6082313  37.5691788 116.8025862 101.9014847  36.9231582
 116.9406410 101.4935234  38.3744985 107.9077073 107.6340974  43.2966778
 108.6491758 108.1726018  43.0201602 107.2014059 108.2607263  43.4538330
 113.3832413 109.7770114  41.8938940 113.7915769 109.3352525  41.1493572
 112.6609674 109.2022742  42.1473133 109.7363483 104.7142721  39.2672497
 110.5824678 105.1382135  39.4107146 109.6762121 104.0576345  39.9611060
 112.8862928 102.3747090  40.9253670 112.6423860 103.1289150  40.3887946
 113.1622859 102.7532437  41.7600917 114.8401391 108.9185702  39.6030936
 115.0518286 109.5617462  38.9265317 114.7931139 108.0848018  39.1352866
 112.4427620 101.5303523  36.5067508 111.5812099 101.8284776  36.7984246
 112.4690055 101.7473921  35.5748541 106.1513270 109.6217195  35.8521077
 106.7214627 110.0504463  35.2138561 106.7421382 109.3399779  36.5505263
 106.6438437 104.7880622  44.0982088 106.0137097 105.4696903  44.3317485
 106.5374525 104.6763704  43.1535227 101.9383409 104.4552418  35.0248012
 101.1482463 104.7109947  34.5488123 102.4294657 105.2700756  35.1300053
 103.8898155 104.8196997  31.9831489 103.0929318 104.9315692  32.5014985
 103.6623747 105.1583650  31.1172380 109.7203822 111.3441701  39.9314004
 109.7848255 111.8062108  40.7672176 109.0114746 110.7139066  40.0596314
 100.2221112 104.7082909  37.4563003 100.4729151 105.5929918  37.7220579
 100.7580661 104.5287510  36.6838095 105.9219180  99.0901388  46.4607339
 105.5286125  98.5367586  47.1354984 106.7385320  99.4011966  46.8513857
 108.8387141 100.5059267  44.0527596 109.5796854 101.1066420  43.9732058
 109.0705063  99.7636905  43.4945638 103.9828479 105.6915634  42.3305826
 103.8681994 104.7900892  42.6312924 103.1272996 105.9379331  41.9790642
 105.8207438 115.1629176  38.4554005 106.3714863 115.0346240  37.6830999
 104.9818913 115.4624065  38.1048897 109.6174609 111.4280304  42.7998236
 110.1502945 110.6668592  42.5697544 109.0888690 111.1353956  43.5422390
 112.7844304  96.5340370  38.3291878 112.4408573  97.4242012  38.2530988
 113.1523266  96.3442028  37.4661463 100.8530154 108.8573900  31.1480480
 101.6905376 109.2670909  30.9314187 101.0308422 107.9173343  31.1180674
 110.3341697 101.3698682  31.8949551 109.4783294 100.9805532  31.7155190
 110.7468649 101.4490643  31.0349337 111.8640844  98.9045025  36.2941111
 111.3605640  98.8675160  35.4808916 112.1571451  99.8137768  36.3537767
 108.1083730  98.9883755  35.3007293 108.9736727  98.7926564  34.9413182
 108.1761239  98.7594107  36.2276649 105.7146049 101.2185963  32.6723659
 106.2889801 100.9961144  31.9396852 106.3017031 101.2874657  33.4252261
 108.0168717  98.0927212  31.3998729 107.3633129  97.7776229  30.7755344
 107.9749191  97.4702952  32.1258552 111.2506457 104.5809145  35.7246376
 110.3329018 104.8024092  35.5668064 111.6666601 104.6555456  34.8658084
 114.5831969  95.7933929  33.4309615 114.8890846  94.9331293  33.1435530
 115.3084574  96.3851549  33.2308609 100.8756325 106.1964616  31.8191213
 100.6780725 105.6033976  31.0942280 100.3202989 105.8916826  32.5367152
 108.8553049 106.0887722  33.9385806 108.9101659 105.1361559  33.8628283
 108.0444251 106.2447161  34.4227105 106.7945409 104.7064782  31.6976185
 105.9813274 105.0058953  32.1041377 107.2904403 104.3120471  32.4150667
 112.3919621 105.1706606  40.5291079 112.7469008 105.3978080  41.3885545
 113.0391752 105.5024983  39.9068334 106.2859484 102.2783137  37.3137420
 106.9258863 102.1371897  36.6160383 105.4537014 101.9917651  36.9376022
 103.2888100 102.2483462  32.0910407 103.5494917 103.1628796  31.9819567
 104.1105272 101.7807905  32.2407020 104.7613025 103.6621220  39.2609231
 105.4336079 103.4538582  38.6121880 103.9342812 103.4643306  38.8214464
 110.6638597 100.2883161  41.2774892 110.0166512 100.9873110  41.1839369
 111.4339613 100.7219304  41.6451141 110.8402732 108.1263925  39.3371712
 111.7694792 108.2775085  39.1640679 110.4193762 108.2147946  38.4820359
 109.6391064 112.1514590  37.1070250 109.5002149 111.7833374  37.9796188
 108.8505660 112.6662229  36.9354207 105.1640523 106.9363823  40.0211669
 105.0260321 106.2044061  40.6223208 106.0745446 106.8472723  39.7395856
 107.7922823 106.6483782  39.5095348 108.5022442 106.0076974  39.4681967
 107.7492131 106.8996677  40.4321529 106.5051757 103.6349000  41.3290988
 105.9689114 103.1839738  41.9812584 105.9168466 103.7694909  40.5861452
  97.4356156 107.8814811  33.9858959  98.1227196 107.5676541  33.3979974
  97.2804285 108.7856176  33.7126210 102.2390879 102.7705008  38.4143982
 102.1549067 102.1630677  37.6794392 101.4173585 103.2614026  38.4153479
 112.4114592 101.2558571  33.7814177 112.9083292 100.5028533  33.4615248
 111.6401574 101.2922888  33.2157387 108.9949561 103.3975954  33.5085862
 108.6247349 102.8446994  34.1966767 109.4908654 102.7934088  32.9560862
 106.8238760 113.8573449  40.6040880 107.5248219 114.4909932  40.7570274
 106.3533875 114.1988181  39.8436519 114.8533587  98.2228165  35.9293536
 113.9396667  98.4532391  36.0975743 115.2826689  98.3066609  36.7807569
 114.6240046 106.4118057  38.4293430 113.9711496 106.6593964  37.7745883
 115.0020426 105.5982195  38.0955907 110.6727619 107.1537868  44.9159467
 109.9968256 107.0531997  45.5861842 111.4955253 106.9977081  45.3795464
 102.4206478 113.3909804  37.5371982 103.0059915 112.6453492  37.6699887
 102.2231316 113.7013761  38.4208646  97.0124133 105.9615404  36.2576426
  97.0508232 105.4278995  37.0513544  96.5064425 105.4350610  35.6387403
 104.3914895 100.8079945  39.7538968 104.4556221 101.6694776  39.3416366
 104.3282015 100.1953946  39.0211326 103.8667167 102.8803077  43.4012002
 104.4939206 102.4980155  44.0149527 103.0095086 102.6617279  43.7667695
 100.6432710 104.6879506  29.3330357 100.9386151 103.7790185  29.2797411
  99.7420746 104.6667246  29.0111359 104.1726957 102.7635503  35.3157906
 103.4513543 103.3771471  35.1765379 104.9620213 103.2993268  35.2374552
 106.9753271 100.0989930  41.5898557 107.4987672 100.3452226  42.3524867
 106.7565604 100.9309964  41.1701695 102.3720552 102.3693604  29.4569682
 102.0433258 101.4890983  29.2744788 102.7259922 102.3141273  30.3446071
 105.4862375 102.6566574  29.8245160 105.8258447 103.1852495  29.1023768
 105.9334495 102.9946980  30.6003726 108.1805816 101.0403625  39.2748228
 107.8402636 100.2411438  39.6768908 107.4744822 101.3405335  38.7025061
 108.8322287  98.1252937  37.7275551 109.6548357  97.6513415  37.6054441
 109.0760351  98.9043421  38.2274237 106.3560866 104.8172058  35.5367530
 106.2105447 105.1312361  36.4291811 105.8786070 105.4356958  34.9838428
 108.2157249 101.8074606  35.5848419 108.2018818 100.9115699  35.2480717
 108.9329677 101.8145269  36.2186705 110.0683380 102.2411946  37.6301547
 109.8101158 103.1629017  37.6285877 109.5368420 101.8442380  38.3202011
 100.8306528 107.3577402  38.4755191 100.2859996 108.1337210  38.6075465
 101.7085878 107.7048207  38.3174312 107.6194145 100.6888986  30.8535989
 107.7410056  99.7605632  31.0526877 107.3296187 100.7027672  29.9414305
 110.4885335  98.3743896  33.9902709 110.5107032  98.4383230  33.0354689
 110.9053394  97.5348405  34.1843215 101.6172550 106.4847298  41.3685348
 100.8754286 106.6329934  41.9549978 101.2965295 106.7455564  40.5052097
 100.2637769 112.2899054  34.3584676  99.4269677 111.8621228  34.1768677
 100.2361414 112.4831497  35.2955467 107.1035225 102.2020983  45.0625922
 107.1523380 103.0783106  44.6803691 107.6457739 101.6598376  44.4897565
 114.9991708 105.5785501  42.9719094 115.9001570 105.4391966  42.6803092
 115.0739682 105.7439956  43.9117272 109.3334513 102.9552356  41.8172281
 108.4637822 103.2485922  41.5454869 109.5693993 103.5392801  42.5379544
 117.4593330 107.1384129  40.3681867 117.9347452 107.3311775  39.5600718
 116.5358896 107.1943315  40.1225251 112.0373547  99.1731973  39.3337701
 112.5555491  99.9093000  39.0084189 111.6828680  99.4795966  40.1684460
 112.2886141  95.5932255  34.8538597 112.5687895  94.9255444  35.4799024
 113.0736748  95.7861351  34.3413261 116.1594999 104.0149889  38.6010173
 117.1112422 104.1147987  38.6222397 115.9898450 103.2228158  39.1108257
 114.1809379 101.1005472  38.7869574 113.5859311 101.3810485  38.0916062
 113.8959076 101.5899373  39.5586315 118.7877566 104.0267052  37.7610755
 118.2716614 103.2425509  37.5740684 119.6717514 103.6985769  37.9257275
 116.4488293  97.7708068  33.7206568 116.2513114  97.4623156  34.6049900
 117.0587998  98.4969707  33.8504498 110.3605101 110.1569808  45.2180333
 111.2808110 110.3348407  45.4120380 110.3254684 109.2125853  45.0660033
  99.5787266 105.3508402  34.1433608  99.2590050 104.4973710  33.8507982
  99.0320694 105.5656980  34.8991575 103.3567173 108.0670843  37.8603114
 103.5753183 108.9987950  37.8791148 103.7692947 107.7078817  38.6457918
 110.2771391  98.5738928  29.8478803 109.4672119  98.2286013  30.2234049
 110.9655808  98.2646472  30.4366414 112.2061939  97.6516975  31.4703099
 112.7592978  98.0712428  32.1293123 112.4432026  96.7252723  31.5126055
 108.2295038 103.6404048  47.2505863 108.1291765 104.5898405  47.1817954
 108.0116580 103.3122287  46.3781933  99.4475526 108.9711313  36.1126730
  98.7538997 108.5565266  35.5996684 100.1948517 109.0131850  35.5160148
 114.0344313  99.1622558  33.1803084 114.5344091  99.2739092  32.3717403
 114.6779921  98.8583610  33.8203892 108.0926309 107.0701187  46.0670925
 107.6093390 107.8701547  46.2734814 108.1787248 107.0809132  45.1138369
 101.3612268 108.9029567  33.9892744 101.3382956 109.0017254  33.0374627
 101.6712905 109.7494718  34.3109911 104.0199646 110.9605722  38.1039359
 104.9742900 110.9289664  38.0369290 103.8212170 110.4996346  38.9189585
 104.6099028 109.5306838  40.6710156 105.4291917 110.0250917  40.6944994
 104.8835836 108.6138806  40.6427724 117.7180160 101.9464111  33.7492451
 118.4940551 102.4360564  34.0217068 116.9928295 102.3722165  34.2064321
  99.8633942 103.8644972  41.3702354 100.5092806 103.3543926  41.8589579
  99.6551093 104.6013654  41.9445779 112.1989672  94.7227793  31.3772187
 111.4322068  94.1686280  31.5228869 112.6100377  94.7949662  32.2386338
 104.2031433 101.0112589  45.4677368 105.0662895 100.6549394  45.6780692
 103.6296844 100.6726484  46.1552772  46.0257791  -1.3356009  30.6538633
  45.5821645  -2.1219630  30.3359537  46.6875004  -1.1476858  29.9882524
  48.1239029  -1.0553209  28.6820034  48.1057504  -0.2344328  28.1900303
  49.0458949  -1.1799134  28.9070175  49.0354870  -4.4157371  31.0770752
  48.8840376  -4.6446819  30.1600836  49.0259549  -3.4586769  31.0902097
  50.7447076  -1.3838248  29.1547234  50.6859622  -2.0679028  28.4877817
  51.1466595  -0.6419258  28.7027860  49.2298750  -1.6823331  31.7311044
  49.7738654  -1.0693373  31.2365999  48.6485595  -1.1243753  32.2478057
  52.5527545  -2.2227277  31.0672366  51.7623088  -2.2403138  30.5276865
  52.3160899  -1.6838983  31.8221402  54.1743616  -2.9537869  28.6247116
  53.8828425  -2.5907888  29.4610577  53.5615748  -3.6670861  28.4460448
  47.3524809  -4.0363564  33.5939801  48.2215969  -3.8622912  33.2326436
  46.8731560  -3.2169147  33.4715530  59.0117285   7.6725062  22.9985075
  59.6495695   7.5531809  22.2948415  58.8938127   8.6205906  23.0573028
  55.8206991   7.6252490  22.9346600  55.4825502   7.5093555  22.0467135
  56.6896759   7.2243655  22.9147606  56.3026774   8.7787342  28.8932806
  56.2915415   8.3840140  28.0213309  56.4647413   8.0453414  29.4866577
  49.2258239  10.9739158  21.7627712  50.0179530  10.6329983  21.3474011
  49.4654889  11.0834133  22.6829865  53.0234035  11.5624453  27.8411990
  52.7323901  12.4670084  27.7258656  53.6591019  11.6040981  28.5556059
  53.9490242   8.9401302  24.4313349  54.5453814   8.7157324  23.7170312
  54.0065213   8.1986047  25.0338797  63.9666980   5.3351749  20.9771262
  64.6992152   4.7650966  21.2109091  63.2106336   4.9473349  21.4177768
  61.4892401  -0.9526677  25.4365871  61.1575725  -0.0831266  25.2127086
  60.8938014  -1.2690393  26.1159901  57.9823920  11.2485869  24.8361783
  57.6824643  12.1510908  24.7277591  57.6374980  10.9818052  25.6882936
  61.3821064   3.7668409  22.5159221  60.4737941   3.6983818  22.2217982
  61.3308660   4.2440354  23.3441046  52.9644700  18.0130189  17.8032751
  52.8868730  18.9638014  17.8821232  52.3606343  17.6676062  18.4607677
  55.4561930   5.1858055  30.4594118  54.6795264   5.7451975  30.4496983
  56.0952493   5.6714838  30.9808988  63.2482710   1.9684848  24.2937095
  62.6057091   2.2617381  23.6476889  62.7437639   1.8537768  25.0990291
  53.7108302   7.9943508  30.0212085  54.4522986   8.5328552  29.7446909
  53.0045287   8.6209797  30.1783637  59.1863642  10.1372649  28.6184246
  59.5946998   9.6955059  27.8738879  58.4640903   9.5625276  28.8718439
  55.5394712   5.0745255  25.9917803  56.3855907   5.4984669  26.1352452
  55.4793349   4.4178880  26.6856366  59.5092456  10.6973839  22.3736535
  58.8801319  10.8619553  21.6712603  59.1218118  11.1115449  23.1447499
  63.3881688  11.6328277  19.7280899  62.7032726  12.0127178  19.1777932
  63.4725537  12.2423604  20.4612847  58.6894157   2.7349624  27.6498977
  58.4455089   3.4891684  27.1133253  58.9654088   3.1134971  28.4846224
  60.6432620   9.2788236  26.3276243  60.8549515   9.9219996  25.6510624
  60.5962368   8.4450553  25.8598173  51.9544499   9.9819729  22.5766384
  52.5245856  10.4106997  21.9383868  52.5452611   9.7002314  23.2750569
  52.4469666   5.1483156  30.8227395  51.8168326   5.8299437  31.0562792
  52.3405754   5.0366238  29.8780533  61.7578448  12.1560192  24.4998600
  62.5795891  11.7540379  24.2181282  61.7540851  12.0528426  25.4514716
  55.5235051  11.7044235  26.6559310  55.5879484  12.1664642  27.4917482
  54.8145975  11.0741600  26.7841620  69.8484441   8.4998940  20.8483571
  69.0948149   7.9306338  20.6927576  69.9831982   8.4661604  21.7954206
  51.7250408  -0.5496078  33.1852646  51.3317354  -1.1029879  33.8600290
  52.5416549  -0.2385499  33.5759163  50.5007351  14.0053537  19.1788969
  50.6773979  14.9271501  18.9909953  51.2964184  13.6911956  19.6083349
  54.6418369   0.8661801  30.7772902  55.3828083   1.4668954  30.6977365
  54.8736292   0.1239439  30.2190945  49.7859707   6.0518169  29.0551132
  49.6713223   5.1503426  29.3558231  48.9304225   6.2981865  28.7035949
  56.8651545  13.9935909  30.6538633  56.4215399  13.2072287  30.3359537
  57.5268759  14.1815059  29.9882524  51.6238666  15.5231710  25.1799311
  52.1746091  15.3948774  24.4076305  50.7850142  15.8226599  24.8294204
  58.9632783  14.2738709  28.6820034  58.9451259  15.0947590  28.1900303
  59.8852703  14.1492784  28.9070175  55.4205837  11.7882838  29.5243542
  55.9534174  11.0271126  29.2942850  54.8919919  11.4956490  30.2667697
  61.7651396   9.1117851  22.1529401  61.1075071   9.8017113  22.2409529
  62.5691795   9.5014283  22.4963387  60.5756855   7.4662224  20.2033342
  61.0888737   8.0992216  20.7055052  61.2258079   6.8663419  19.8376703
  57.0537686   4.9411679  22.4491683  56.1360247   5.1626626  22.2913371
  57.4697829   5.0157990  21.5903390  61.3418651  12.4468225  18.3312485
  60.8880978  11.6059135  18.3877676  60.7112618  13.0829624  18.6687265
  59.7851590  14.2844722  19.2662303  60.0774565  14.8449779  18.5474669
  60.2950211  14.5773283  20.0215462  54.7485216  15.0625073  20.3555756
  54.7061394  15.2885919  19.4264289  55.6647914  14.8288448  20.5041558
  58.1950849   5.5309141  27.2536386  58.5500237   5.7580614  28.1130851
  58.8422981   5.8627517  26.6313641  63.9248586   8.6527577  17.9585715
  63.7866485   8.8429173  17.0306904  63.5684805   9.4146959  18.4153766
  63.9517966  10.7204104  22.9696986  64.3854473  10.6279393  23.8180040
  64.6649547  10.6961604  22.3317002  52.8651016  11.9388102  20.1517719
  53.6591615  11.4438422  19.9500294  52.1542709  11.4105965  19.7885425
  57.6845861  14.3206198  24.5030087  57.7382883  14.8897134  25.2707803
  56.8160642  14.4908083  24.1384124  50.5644254   4.0223754  25.9854538
  51.2367308   3.8141116  25.3367187  49.7374041   3.8245840  25.5459770
  64.8133516  10.7627804  25.5029872  65.0069406  11.6673615  25.7489147
  64.7134134  10.3035223  26.3368457  56.4669826   0.6485695  28.0020199
  55.8197741   1.3475644  27.9084675  57.2370842   1.0821839  28.3696447
  59.8748624  10.9134547  31.0770752  59.7234131  10.6845099  30.1600836
  59.8653304  11.8705148  31.0902097  56.6433961   8.4866460  26.0617019
  57.5726021   8.6377619  25.8885986  56.2224991   8.5750480  25.2065665
  55.4422292  12.5117124  23.8315556  55.3033378  12.1435909  24.7041494
  54.6536889  13.0264764  23.6599514  56.0370444  17.6126221  15.1741093
  56.2122200  17.1414264  15.9886716  55.3503232  18.2391987  15.4022354
  56.9927508  11.8898727  21.2204394  56.6577340  11.8499497  22.1162044
  56.4931453  11.2243443  20.7474804  50.9671751   7.2966357  26.7456975
  50.8291549   6.5646596  27.3468514  51.8776675   7.2075257  26.4641163
  53.5954052   7.0086316  26.2340655  54.3053671   6.3679508  26.1927273
  53.5523360   7.2599211  27.1566836  61.5840831  13.9453669  29.1547234
  61.5253377  13.2612890  28.4877817  61.9860349  14.6872660  28.7027860
  52.3082986   3.9951534  28.0536294  51.7720343   3.5442272  28.7057891
  51.7199695   4.1297443  27.3106759  50.6031530  20.7615583  21.9480953
  50.8428128  21.3934107  22.6259972  49.7600726  20.4103623  22.2346312
  61.5858238  11.9093253  27.3861214  60.6985017  11.5719175  27.5087613
  62.1556789  11.1776285  27.6229979  55.1159391  16.5694706  24.3522457
  55.0429563  17.3749677  24.8641762  54.6736785  16.7686672  23.5270478
  54.9049171  15.8066476  17.8625279  54.1216693  16.3488156  17.9563503
  55.6041916  16.3240455  18.2619520  66.0675579   7.3201471  22.1477775
  66.0565455   8.2026186  21.7771709  65.1992958   6.9673022  21.9532312
  57.5758075  16.4681540  26.5080616  58.2886047  17.1029005  26.4356517
  57.0848104  16.5645406  25.6920617  59.2975602  10.3732792  18.0797907
  58.3631881  10.4934255  17.9102612  59.4752270   9.4705259  17.8157917
  62.6848153   6.2150112  18.6147941  63.1508605   7.0478103  18.5408244
  63.1355654   5.7495093  19.3193200  52.6269989  14.2175983  27.3286186
  53.3279448  14.8512466  27.4815581  52.1565104  14.5590715  26.5681826
  60.4271275   6.7720591  25.1538737  59.7742725   7.0196498  24.4991190
  60.8051654   5.9584729  24.8201214  57.3878448  16.8080284  19.2566907
  57.5700843  15.9901940  19.7194659  58.2111434  17.0247976  18.8191797
  57.7220614  15.7348469  16.5181956  58.2508380  15.2240924  15.9052118
  57.9848833  15.4190999  17.3827489  56.4758848   7.5140402  31.6404774
  55.7999485   7.4134531  32.3107149  57.2986481   7.3579616  32.1040771
  48.2237707  13.7512338  24.2617289  48.8091143  13.0056026  24.3945193
  48.0262545  14.0616295  25.1453953  51.0776362  16.7863586  19.2779732
  50.4086737  17.2709713  18.7943772  50.9389232  17.0332806  20.1923110
  55.2181630  18.8207329  25.8762390  55.7699938  18.9838951  26.6411475
  55.5587824  19.4111767  25.2042415  49.6698396   3.2405612  30.1257309
  50.2970435   2.8582689  30.7394833  48.8126315   3.0219814  30.4913001
  60.0692505  13.6468587  31.7311044  60.6132409  14.2598545  31.2365999
  59.4879350  14.2048165  32.2478057  58.3550018  16.7689305  22.8626072
  58.2301157  15.9679045  22.3537018  59.0129109  17.2635498  22.3740042
  60.4184926  14.5698325  24.4905622  59.4715262  14.4503676  24.4183949
  60.7667699  13.6820823  24.5731884  52.7784499   0.4592464  28.3143864
  53.3018901   0.7054760  29.0770173  52.5596833   1.2912499  27.8947001
  57.4231359  14.3651041  20.6909974  57.2756322  13.4367748  20.8717544
  58.2484853  14.3871132  20.2067050  61.0265481  15.1879600  21.7774847
  61.9512029  14.9822461  21.6399298  60.8580785  14.9396001  22.6864189
  53.9837044   1.4006159  25.9993535  53.6433865   0.6013972  26.4014214
  53.2776051   1.7007870  25.4270368  55.8714609   2.6014480  24.3546853
  55.6132386   3.5231551  24.3531184  55.3399649   2.2044915  25.0447317
  60.8160797  15.7065267  17.1336939  60.9897675  15.1411690  16.3810791
  61.3089689  16.5066162  16.9516429  46.6337757   7.7179936  25.2000497
  46.0891225   8.4939744  25.3320772  47.5117107   8.0650741  25.0419619
  66.6700189   8.4701690  18.7527238  67.1131335   7.7209015  18.3546362
  65.7926699   8.4611827  18.3700970  61.8035970  15.0232032  14.2333837
  62.4986875  15.6438724  14.4521151  62.1459120  14.1727383  14.5086215
  47.4203779   6.8449833  28.0930654  46.6785515   6.9932468  28.6795285
  47.0996523   7.1058098  27.2297404  63.7027393  12.4731737  15.7621168
  64.2278717  12.8119010  15.0370488  63.6149746  11.5378753  15.5784302
  55.3647442  16.3865811  27.8911044  55.6734568  16.1414958  28.7633744
  56.1622924  16.5912449  27.4029914  55.3868054  18.5403720  20.1216421
  54.9473044  18.0480099  20.8149278  56.1376171  17.9976688  19.8808496
  47.8660393  14.7315261  20.1241049  48.6918413  14.4319033  19.7439692
  47.5154445  13.9622884  20.5730838  52.8341926  14.0841730  22.1938722
  52.2121935  13.4212435  21.8940950  53.5046793  14.1102861  21.5112370
  52.9066453   2.5623518  31.7871229  52.9554609   3.4385640  31.4048998
  53.4488968   2.0200911  31.2142872  63.3921299  13.1064641  31.0672366
  62.6016843  13.0888780  30.5276865  63.1554654  13.6452935  31.8221402
  63.5119174   9.9557107  28.3805094  63.5617179   9.7907115  29.3220617
  63.4033097   9.0884366  27.9902975  60.8022937   5.9388035  29.6964401
  61.7032799   5.7994500  29.4048399  60.8770911   6.1042490  30.6362578
  55.1365742   3.3154890  28.5417587  54.2669051   3.6088456  28.2700176
  55.3725222   3.8995335  29.2624851  65.0137371  12.3754049  28.6247116
  64.7222179  12.7384029  29.4610577  64.4009502  11.6621057  28.4460448
  66.2133053   9.9406928  21.1449686  67.0479945  10.3796733  21.3087246
  66.3492182   9.4645582  20.3257932  63.2624559   7.4986663  27.0927174
  63.7378681   7.6914310  26.2846025  62.3390125   7.5545849  26.8470557
  57.8404776  -0.4665493  26.0583008  58.3586720   0.2695534  25.7329496
  57.4859908  -0.1601500  26.8929767  61.9626228   4.3752423  25.3255479
  62.9143651   4.4750521  25.3467703  61.7929679   3.5830692  25.8353564
  59.9840608   1.4608007  25.5114880  59.3890540   1.7413019  24.8161369
  59.6990304   1.9501908  26.2831621  64.4414306   7.5958543  24.4397779
  64.4090626   6.6574544  24.6257463  65.0514930   7.6742580  23.7063604
  64.5908794   4.3869587  24.4856062  64.0747843   3.6028043  24.2985991
  65.4748743   4.0588303  24.6502582  70.2590856   8.6574550  23.5803816
  70.9894244   8.3959838  24.1411519  69.6497801   7.9203272  23.6205884
  68.3406153   6.7982413  24.1778267  67.6139317   6.6638377  23.5694758
  67.9253440   7.1059241  24.9834985  56.1636329  10.5172342  31.9425640
  57.0839339  10.6950941  32.1365686  56.1285912   9.5728388  31.7905339
  49.1598402   8.4273377  24.5848421  49.3784412   9.3590485  24.6036455
  49.5724176   8.0681351  25.3703225  54.0326267   4.0006583  33.9751170
  53.9322994   4.9500940  33.9063261  53.8147809   3.6724822  33.1027240
  53.8957537   7.4303721  32.7916232  53.4124619   8.2304082  32.9980121
  53.9818476   7.4411666  31.8383676  49.8230875  11.3208256  24.8284665
  50.7774128  11.2892199  24.7614597  49.6243398  10.8598880  25.6434891
  50.4130257   9.8909372  27.3955463  51.2323146  10.3853451  27.4190300
  50.6867065   8.9741340  27.3673031  63.5211389   2.3066646  20.4737758
  64.2971779   2.7963098  20.7462375  62.7959523   2.7324700  20.9309627
  65.9583948   3.0194265  21.5311698  66.5528439   2.7790001  20.8205007
  66.0310532   2.3001395  22.1585235  48.1781104  16.8627876  21.8454863
  48.0435572  16.1028277  21.2792861  47.7613166  17.5868776  21.3783652
  68.2655021   6.3260466  20.3055120  67.7054579   6.3953655  21.0786682
  67.6598524   6.1501450  19.5854616  51.3350229  17.7597193  22.0573306
  51.2182614  18.7042625  21.9551996  50.5142676  17.4570754  22.4459105
  45.6665171   4.2247506  28.0947660  46.3124035   3.7146460  28.5834885
  45.4582322   4.9616188  28.6691085  58.1918563  11.2928354  33.5939801
  59.0609723  11.4669006  33.2326436  57.7125315  12.1122770  33.4715530
  52.3604744  18.4125455  25.2729234  53.2631990  18.4449065  25.5895729
  52.1342114  17.4825906  25.2875570  54.1158346  17.1656441  21.9339313
  53.1653977  17.1658303  21.8203685  54.4190832  16.4189176  21.4175348
  50.0062662   1.3715123  32.1922674  50.8694124   1.0151928  32.4025999
  49.4328073   1.0329018  32.8798079  69.8511039  23.0016980  22.9985075
  70.4889449  22.8823727  22.2948415  69.7331882  23.9497823  23.0573028
  66.6600745  22.9544408  22.9346600  66.3219257  22.8385472  22.0467135
  67.5290514  22.5535573  22.9147606  62.5187561  24.8079884  18.9243491
  61.9552426  24.7169821  18.1559779  62.4039956  23.9879788  19.4045984
  67.1420528  24.1079259  28.8932806  67.1309169  23.7132058  28.0213309
  67.3041168  23.3745332  29.4866577  60.0651993  26.3031076  21.7627712
  60.8573285  25.9621900  21.3474011  60.3048643  26.4126051  22.6829865
  68.0987120  28.4750852  14.2357956  67.4475100  29.0604932  13.8491970
  68.8931483  29.0057047  14.2952993  62.0242747  25.5639989  14.6345090
  62.7973623  25.0168976  14.4957966  62.3768146  26.4284238  14.8459552
  63.8627790  26.8916371  27.8411990  63.5717655  27.7962002  27.7258656
  64.4984774  26.9332899  28.5556059  64.7883996  24.2693220  24.4313349
  65.3847569  24.0449242  23.7170312  64.8458968  23.5277965  25.0338797
  64.3609025  21.7232655  12.2663540  64.6134545  21.2014176  11.5047003
  63.4233584  21.5598800  12.3690224  69.4052308  20.7268433  20.0738283
  70.1915397  20.3087857  19.7228700  69.6691012  21.6314526  20.2419932
  69.5762385  26.1641284  14.7726940  68.9408218  26.2375910  15.4847845
  69.2459791  26.7534883  14.0946020  74.8060735  20.6643667  20.9771262
  75.5385907  20.0942883  21.2109091  74.0500090  20.2765267  21.4177768
  64.0805314  23.6260761  14.4687915  63.9641572  22.9505664  15.1368999
  64.1907573  23.1393135  13.6520068  66.4236854  23.0870908  18.1734604
  66.0595062  22.5601529  18.8847526  67.2803970  22.6969377  18.0001090
  72.3286155  14.3765241  25.4365871  71.9969480  15.2460652  25.2127086
  71.7331768  14.0601525  26.1159901  66.0642341  18.1160808  13.1695953
  66.2316744  18.9841044  13.5366424  65.8739510  18.2788089  12.2457242
  68.8217675  26.5777787  24.8361783  68.5218398  27.4802825  24.7277591
  68.4768734  26.3109970  25.6882936  62.2730156  23.0291584  20.8698488
  61.3480653  22.8967798  21.0776179  62.5214569  23.8085803  21.3668430
  72.2214818  19.0960327  22.5159221  71.3131696  19.0275735  22.2217982
  72.1702414  19.5732272  23.3441046  66.0431562  20.5718465  14.1542620
  65.9231187  21.0175516  14.9928100  65.3484151  20.9203783  13.5956158
  59.6338967  22.6724857  21.7042277  59.7631348  22.9259336  22.6181689
  58.9536418  23.2652565  21.3846932  63.8038454  33.3422107  17.8032751
  63.7262484  34.2929932  17.8821232  63.2000098  32.9967980  18.4607677
  66.2955684  20.5149972  30.4594118  65.5189018  21.0743893  30.4496983
  66.9346247  21.0006755  30.9808988  74.0876465  17.2976765  24.2937095
  73.4450845  17.5909298  23.6476889  73.5831393  17.1829686  25.0990291
  71.7416628  21.0439938  14.9822954  72.6534485  21.2767325  14.8070651
  71.2326276  21.6276983  14.4198032  64.5502056  23.3235426  30.0212085
  65.2916741  23.8620470  29.7446909  63.8439042  23.9501715  30.1783637
  70.0257396  25.4664566  28.6184246  70.4340752  25.0246977  27.8738879
  69.3034658  24.8917194  28.8718439  66.3788466  20.4037173  25.9917803
  67.2249661  20.8276587  26.1352452  66.3187104  19.7470797  26.6856366
  70.3486211  26.0265757  22.3736535  69.7195073  26.1911471  21.6712603
  69.9611873  26.4407366  23.1447499  74.2275443  26.9620195  19.7280899
  73.5426481  27.3419096  19.1777932  74.3119292  27.5715521  20.4612847
  69.5287911  18.0641541  27.6498977  69.2848843  18.8183602  27.1133253
  69.8047842  18.4426889  28.4846224  71.4826374  24.6080154  26.3276243
  71.6943269  25.2511914  25.6510624  71.4356123  23.7742470  25.8598173
  69.0852603  17.2197974  23.2312815  68.2237082  17.5179228  23.5229552
  69.1115038  17.4368373  22.2993847  65.9014173  25.7640165  19.6386620
  66.3652518  26.0427868  18.8491243  65.6370971  24.8623610  19.4559711
  62.7938254  25.3111647  22.5766384  63.3639611  25.7398915  21.9383868
  63.3846366  25.0294231  23.2750569  64.8383059  21.8863317  16.4476185
  65.5407102  22.3384361  16.9150112  64.5063687  21.2447136  17.0756079
  63.2863420  20.4775074  30.8227395  62.6562081  21.1591355  31.0562792
  63.1799508  20.3658156  29.8780533  58.5808393  20.1446870  21.7493319
  57.7907447  20.4004399  21.2733430  59.0719640  20.9595208  21.8545360
  72.5972202  27.4852109  24.4998600  73.4189646  27.0832296  24.2181282
  72.5934605  27.3820343  25.4514716  60.5323138  20.5091449  18.7076796
  59.7354301  20.6210144  19.2260291  60.3048730  20.8478101  17.8417686
  66.3628806  27.0336152  26.6559310  66.4273238  27.4956560  27.4917482
  65.6539730  26.4033517  26.7841620  56.8646096  20.3977360  24.1808310
  57.1154134  21.2824370  24.4465886  57.4005644  20.2181962  23.4083402
  80.6878195  23.8290858  20.8483571  79.9341904  23.2598256  20.6927576
  80.8225736  23.7953522  21.7954206  66.0776823  28.7004260  16.5238291
  65.9422498  29.5455796  16.9523139  66.6186636  28.9023538  15.7604225
  62.5644163  14.7795840  33.1852646  62.1711109  14.2262038  33.8600290
  63.3810303  15.0906418  33.5759163  59.5306221  26.2179698  17.0966216
  60.0430741  27.0122948  17.2471780  60.1828934  25.5205988  17.0299817
  61.3401105  29.3345454  19.1788969  61.5167734  30.2563419  18.9909953
  62.1357939  29.0203874  19.6083349  65.4812124  16.1953719  30.7772902
  66.2221837  16.7960872  30.6977365  65.7130047  15.4531357  30.2190945
  60.6253462  21.3810086  29.0551132  60.5106977  20.4795343  29.3558231
  59.7697980  21.6273783  28.7035949  67.7045300  29.3227826  30.6538633
  67.2609154  28.5364205  30.3359537  68.3662513  29.5106977  29.9882524
  62.4632421  30.8523628  25.1799311  63.0139846  30.7240691  24.4076305
  61.6243897  31.1518517  24.8294204  69.8026538  29.6030626  28.6820034
  69.7845013  30.4239507  28.1900303  70.7246458  29.4784702  28.9070175
  66.2599592  27.1174756  29.5243542  66.7927929  26.3563044  29.2942850
  65.7313673  26.8248408  30.2667697  69.4269287  12.2234822  25.0537184
  69.0833556  13.1136464  24.9776295  69.7948249  12.0336479  24.1906769
  57.4955137  24.5468352  17.8725786  58.3330359  24.9565361  17.6559494
  57.6733405  23.6067794  17.8425980  69.3919570  22.2143433  13.5609619
  68.8766193  22.9848038  13.7998007  69.1196878  21.5408569  14.1842681
  66.9766681  17.0593134  18.6194858  66.1208277  16.6699984  18.4400496
  67.3893632  17.1385095  17.7594643  68.5065827  14.5939477  23.0186417
  68.0030623  14.5569612  22.2054223  68.7996434  15.5032220  23.0783074
  64.7508713  14.6778207  22.0252599  65.6161710  14.4821015  21.6658489
  64.8186222  14.4488559  22.9521956  74.3653844  24.9675788  15.4962793
  73.5883286  24.6286947  15.0517955  75.0445325  24.9728411  14.8217758
  69.1805873  20.0870525  15.3869400  68.8756008  20.4016674  16.2379544
  70.1336315  20.1651945  15.4296733  67.6252305  26.2460748  17.0362354
  67.0973666  25.5113508  16.7235592  67.1239807  27.0235425  16.7902323
  72.6045151  24.4409769  22.1529401  71.9468825  25.1309030  22.2409529
  73.4085550  24.8306201  22.4963387  62.3571032  16.9080415  19.3968966
  62.9314784  16.6855596  18.6642159  62.9442015  16.9769109  20.1497567
  71.4150609  22.7954142  20.2033342  71.9282491  23.4284133  20.7055052
  72.0651833  22.1955337  19.8376703  62.6840619  18.9384876  13.4164851
  61.8477932  19.2759562  13.7374126  62.5445389  18.8033855  12.4791988
  64.6593700  13.7821664  18.1244035  64.0058112  13.4670681  17.5000650
  64.6174174  13.1597404  18.8503858  65.7704905  24.0640959  10.0397327
  64.8631967  23.8330212  10.2388476  66.2675937  23.2678578  10.2271309
  68.6772984  32.7738466  12.9594014  68.0034682  33.0770163  13.5678971
  69.0638806  33.5767546  12.6099471  67.8931440  20.2703597  22.4491683
  66.9754002  20.4918544  22.2913371  68.3091584  20.3449908  21.5903390
  68.6766488  21.6695013  17.5794363  69.4238307  22.1816410  17.2701485
  68.9458078  21.3479066  18.4398757  66.9493138  24.1653554  14.5621318
  66.0404357  23.8812586  14.6593787  66.9788222  24.5852632  13.7024624
  72.1812406  27.7760143  18.3312485  71.7274733  26.9351053  18.3877676
  71.5506372  28.4121541  18.6687265  71.1245325  18.7052129  19.5613153
  70.3868082  18.1929515  19.8923395  71.3772099  18.2652511  18.7496429
  70.6245345  29.6136640  19.2662303  70.9168319  30.1741697  18.5474669
  71.1343965  29.9065201  20.0215462  71.2256953  11.4828381  20.1554922
  71.5315829  10.6225744  19.8680837  71.9509557  12.0746001  19.9553916
  57.5181309  21.8859068  18.5436520  57.3205708  21.2928428  17.8187586
  56.9627973  21.5811278  19.2612459  65.4978032  21.7782174  20.6631113
  65.5526642  20.8256011  20.5873590  64.6869234  21.9341613  21.1472411
  66.6469226  25.7062297  11.9009396  66.2088656  24.9898156  11.4415033
  67.3879667  25.9338412  11.3394488  63.4370392  20.3959234  18.4221492
  62.6238258  20.6953404  18.8286684  63.9329386  20.0014923  19.1395974
  65.5878970  30.3916991  20.3555756  65.5455149  30.6177837  19.4264289
  66.5041669  30.1580365  20.5041558  69.0344604  20.8601058  27.2536386
  69.3893992  21.0872531  28.1130851  69.6816735  21.1919435  26.6313641
  74.7642341  23.9819494  17.9585715  74.6260239  24.1721090  17.0306904
  74.4078560  24.7438877  18.4153766  62.9284467  17.9677589  24.0382727
  63.5683846  17.8266348  23.3405690  62.0961998  17.6812103  23.6621329
  74.7911720  26.0496021  22.9696986  75.2248227  25.9571310  23.8180040
  75.5043301  26.0253522  22.3317002  63.7044771  27.2680020  20.1517719
  64.4985369  26.7730340  19.9500294  62.9936463  26.7397883  19.7885425
  68.5239615  29.6498115  24.5030087  68.5776638  30.2189052  25.2707803
  67.6554397  29.8200000  24.1384124  60.0127534  21.4123102  16.2277472
  59.0825122  21.3507557  16.4447434  60.1085006  20.8899054  15.4314113
  59.9313083  17.9377914  18.8155714  60.1919901  18.8523248  18.7064874
  60.7530256  17.4702357  18.9652326  61.4038009  19.3515672  25.9854538
  62.0761062  19.1433034  25.3367187  60.5767795  19.1537758  25.5459770
  75.6527270  26.0919722  25.5029872  75.8463160  26.9965532  25.7489147
  75.5527888  25.6327141  26.3368457  67.3063581  15.9777612  28.0020199
  66.6591496  16.6767562  27.9084675  68.0764596  16.4113756  28.3696447
  70.7142379  26.2426465  31.0770752  70.5627885  26.0137016  30.1600836
  70.7047058  27.1997066  31.0902097  67.4827715  23.8158377  26.0617019
  68.4119775  23.9669537  25.8885986  67.0618745  23.9042398  25.2065665
  66.2816047  27.8409042  23.8315556  66.1427133  27.4727826  24.7041494
  65.4930643  28.3556681  23.6599514  66.8764199  32.9418138  15.1741093
  67.0515955  32.4706181  15.9886716  66.1896987  33.5683904  15.4022354
  67.8321262  27.2190644  21.2204394  67.4971095  27.1791414  22.1162044
  67.3325208  26.5535360  20.7474804  61.8065506  22.6258275  26.7456975
  61.6685304  21.8938513  27.3468514  62.7170429  22.5367175  26.4641163
  70.7680454  24.5646679  11.4941454  70.1509624  23.8393507  11.3974506
  70.2996942  25.3256039  11.1508528  64.4347807  22.3378234  26.2340655
  65.1447425  21.6971426  26.1927273  64.3917115  22.5891129  27.1566836
  72.4234585  29.2745587  29.1547234  72.3647131  28.5904807  28.4877817
  72.8254104  30.0164577  28.7027860  63.1476741  19.3243452  28.0536294
  62.6114098  18.8734190  28.7057891  62.5593449  19.4589361  27.3106759
  61.4425284  36.0907501  21.9480953  61.6821882  36.7226025  22.6259972
  60.5994481  35.7395541  22.2346312  72.4251993  27.2385171  27.3861214
  71.5378771  26.9011093  27.5087613  72.9950544  26.5068202  27.6229979
  54.0781140  23.5709263  20.7104265  54.7652180  23.2570993  20.1225280
  53.9229268  24.4750627  20.4371517  58.8815862  18.4599459  25.1389289
  58.7974051  17.8525129  24.4039699  58.0598568  18.9508478  25.1398785
  65.9553146  31.8986623  24.3522457  65.8823317  32.7041595  24.8641762
  65.5130539  32.0978589  23.5270478  65.7442926  31.1358393  17.8625279
  64.9610447  31.6780074  17.9563503  66.4435671  31.6532373  18.2619520
  69.0539576  16.9453023  20.5059484  69.5508275  16.1922985  20.1860554
  68.2826557  16.9817340  19.9402693  76.9069333  22.6493388  22.1477775
  76.8959209  23.5318104  21.7771709  76.0386713  22.2964939  21.9532312
  68.4151829  31.7973457  26.5080616  69.1279802  32.4320922  26.4356517
  67.9241858  31.8937323  25.6920617  70.1369356  25.7024710  18.0797907
  69.2025635  25.8226173  17.9102612  70.3146025  24.7997177  17.8157917
  65.6374544  19.0870406  20.2331169  65.2672332  18.5341446  20.9212074
  66.1333637  18.4828539  19.6806169  73.5241908  21.5442029  18.6147941
  73.9902360  22.3770021  18.5408244  73.9749408  21.0787011  19.3193200
  63.4663743  29.5467901  27.3286186  64.1673203  30.1804384  27.4815581
  62.9958858  29.8882632  26.5681826  71.5918139  27.8885851  15.6134093
  71.8677983  27.7742445  16.5227968  70.7222638  27.4903336  15.5746267
  71.4958570  13.9122616  22.6538843  70.5821650  14.1426843  22.8221050
  71.9251672  13.9961061  23.5052875  71.2665029  22.1012508  25.1538737
  70.6136479  22.3488416  24.4991190  71.6445409  21.2876647  24.8201214
  68.2272203  32.1372202  19.2566907  68.4094597  31.3193858  19.7194659
  69.0505189  32.3539894  18.8191797  68.5614368  31.0640387  16.5181956
  69.0902135  30.5532841  15.9052118  68.8242588  30.7482917  17.3827489
  67.3152602  22.8432319  31.6404774  66.6393239  22.7426449  32.3107149
  68.1380236  22.6871533  32.1040771  59.0631461  29.0804256  24.2617289
  59.6484898  28.3347944  24.3945193  58.8656300  29.3908213  25.1453953
  61.9170116  32.1155503  19.2779732  61.2480492  32.6001631  18.7943772
  61.7782986  32.3624724  20.1923110  53.6549116  21.6509856  22.9821732
  53.6933215  21.1173447  23.7758850  53.1489409  21.1245062  22.3632709
  66.0575385  34.1499247  25.8762390  66.6093693  34.3130868  26.6411475
  66.3981578  34.7403685  25.2042415  61.0339878  16.4974397  26.4784275
  61.0981205  17.3589228  26.0661672  60.9706998  15.8848398  25.7456633
  60.5092151  18.5697529  30.1257309  61.1364189  18.1874607  30.7394833
  59.6520070  18.3511731  30.4913001  70.9086259  28.9760504  31.7311044
  71.4526163  29.5890463  31.2365999  70.3273104  29.5340083  32.2478057
  57.2857693  20.3773958  16.0575664  57.5811134  19.4684637  16.0042717
  56.3845729  20.3561698  15.7356666  69.1943772  32.0981222  22.8626072
  69.0694912  31.2970962  22.3537018  69.8522863  32.5927416  22.3740042
  60.8151940  18.4529955  22.0403212  60.0938526  19.0665923  21.9010686
  61.6045196  18.9887720  21.9619858  71.2578681  29.8990243  24.4905622
  70.3109016  29.7795594  24.4183949  71.6061454  29.0112741  24.5731884
  63.6178254  15.7884381  28.3143864  64.1412656  16.0346678  29.0770173
  63.3990587  16.6204416  27.8947001  59.0145535  18.0588056  16.1814989
  58.6858241  17.1785435  15.9990095  59.3684906  18.0035725  17.0691378
  68.2625114  29.6942959  20.6909974  68.1150076  28.7659666  20.8717544
  69.0878607  29.7163049  20.2067050  62.1287358  18.3461026  16.5490467
  62.4683431  18.8746947  15.8269075  62.5759479  18.6841432  17.3249033
  71.8659236  30.5171517  21.7774847  72.7905783  30.3114379  21.6399298
  71.6974539  30.2687919  22.6864189  64.8230799  16.7298077  25.9993535
  64.4827619  15.9305890  26.4014214  64.1169805  17.0299787  25.4270368
  65.4747271  13.8147389  24.4520858  66.2973340  13.3407867  24.3299748
  65.7185334  14.5937873  24.9519544  64.1155505  16.8435647  14.7483759
  64.8363868  17.2216900  14.2447476  63.4920809  17.5624524  14.8518737
  68.2586628  17.5480796  15.6842092  68.4750243  18.4305434  15.3830920
  67.7780695  17.1567010  14.9547734  62.9985850  20.5066510  22.2612836
  62.8530430  20.8206813  23.1537118  62.5211053  21.1251410  21.7083735
  64.8582232  17.4969058  22.3093726  64.8443801  16.6010151  21.9726024
  65.5754661  17.5039721  22.9432012  66.7108363  17.9306398  24.3546853
  66.4526141  18.8523468  24.3531184  66.1793404  17.5336832  25.0447317
  71.6554552  31.0357185  17.1336939  71.8291429  30.4703607  16.3810791
  72.1483443  31.8358080  16.9516429  57.4731512  23.0471854  25.2000497
  56.9284980  23.8231662  25.3320772  58.3510862  23.3942658  25.0419619
  64.2619128  16.3783438  17.5781296  64.3835040  15.4500084  17.7772183
  63.9721171  16.3922124  16.6659611  67.1310319  14.0638348  20.7148016
  67.1532016  14.1277681  19.7599995  67.5478378  13.2242857  20.9088522
  77.5093943  23.7993608  18.7527238  77.9525089  23.0500933  18.3546362
  76.6320453  23.7903744  18.3700970  72.6429724  30.3523949  14.2333837
  73.3380629  30.9730642  14.4521151  72.9852875  29.5019301  14.5086215
  58.2597534  22.1741750  28.0930654  57.5179270  22.3224386  28.6795285
  57.9390278  22.4350016  27.2297404  74.5421148  27.8023655  15.7621168
  75.0672472  28.1410928  15.0370488  74.4543500  26.8670670  15.5784302
  66.2041196  31.7157729  27.8911044  66.5128323  31.4706875  28.7633744
  67.0016678  31.9204367  27.4029914  66.2261808  33.8695638  20.1216421
  65.7866799  33.3772017  20.8149278  66.9769925  33.3268606  19.8808496
  58.7054147  30.0607179  20.1241049  59.5312167  29.7610951  19.7439692
  58.3548199  29.2914801  20.5730838  63.6735680  29.4133647  22.1938722
  63.0515690  28.7504352  21.8940950  64.3440547  29.4394779  21.5112370
  56.9062752  27.9793505  21.0829982  56.0694661  27.5515680  20.9013984
  56.8786398  28.1725949  22.0200774  63.7460208  17.8915435  31.7871229
  63.7948363  18.7677558  31.4048998  64.2882722  17.3492828  31.2142872
  74.2315054  28.4356558  31.0672366  73.4410597  28.4180697  30.5276865
  73.9948408  28.9744852  31.8221402  74.3512929  25.2849025  28.3805094
  74.4010934  25.1199032  29.3220617  74.2426852  24.4176284  27.9902975
  63.2349187  27.9637571  15.6697183  63.3837308  28.6473035  15.0163856
  64.0415631  27.9442661  16.1846639  71.6416691  21.2679953  29.6964401
  72.5426554  21.1286418  29.4048399  71.7164666  21.4334408  30.6362578
  65.9759496  18.6446808  28.5417587  65.1062806  18.9380374  28.2700176
  66.2118977  19.2287253  29.2624851  75.8531125  27.7045966  28.6247116
  75.5615934  28.0675947  29.4610577  75.2403257  26.9912975  28.4460448
  77.0526808  25.2698846  21.1449686  77.8873699  25.7088650  21.3087246
  77.1885937  24.7937499  20.3257932  74.1018314  22.8278581  27.0927174
  74.5772435  23.0206227  26.2846025  73.1783879  22.8837767  26.8470557
  60.9901820  23.9902748  16.6758252  60.7447862  23.0865078  16.8738462
  61.1597735  23.9919899  15.7337730  68.6798530  14.8626425  26.0583008
  69.1980474  15.5987452  25.7329496  68.3253663  15.1690418  26.8929767
  60.2597468  19.7231106  14.1744413  59.5666713  19.7975461  13.5184449
  60.0149220  18.9591449  14.6965930  68.9311124  11.2826707  21.5783904
  69.2112878  10.6149896  22.2044331  69.7161731  11.4755803  21.0658568
  66.7344593  30.4585701  13.1408930  66.1618560  31.0775888  12.6879402
  67.3077387  31.0085063  13.6748852  72.8019983  19.7044341  25.3255479
  73.7537406  19.8042439  25.3467703  72.6323433  18.9122610  25.8353564
  70.8234362  16.7899924  25.5114880  70.2284294  17.0704937  24.8161369
  70.5384059  17.2793825  26.2831621  69.9541853  30.7422851  14.2717513
  70.8872526  30.6768413  14.4750388  69.8665065  31.5779118  13.8132045
  72.5829869  30.0588721  11.2321460  72.5043501  29.7248585  12.1257218
  73.4039536  30.5510489  11.2312933  75.2808060  22.9250461  24.4397779
  75.2484381  21.9866462  24.6257463  75.8908684  23.0034498  23.7063604
  67.1191391  21.7946514  10.4824983  68.0650496  21.6652722  10.5513401
  66.7405636  21.0561176  10.9594411  75.4302549  19.7161504  24.4856062
  74.9141598  18.9319961  24.2985991  76.3142497  19.3880221  24.6502582
  73.0913276  13.4602520  20.4451875  72.8938097  13.1517608  21.3295207
  73.7012981  14.1864159  20.5749805  81.0984610  23.9866468  23.5803816
  81.8287999  23.7251756  24.1411519  80.4891556  23.2495190  23.6205884
  79.1799907  22.1274330  24.1778267  78.4533071  21.9930295  23.5694758
  78.7647194  22.4351159  24.9834985  67.0030084  25.8464260  31.9425640
  67.9233093  26.0242859  32.1365686  66.9679667  24.9020305  31.7905339
  65.3034309  19.7196490  10.4179868  64.3965764  19.4229603  10.4942582
  65.5810290  19.4226308   9.5514154  56.2212249  21.0402854  20.8678915
  55.9015033  20.1868162  20.5753289  55.6745677  21.2551432  21.6236882
  59.9992156  23.7565295  24.5848421  60.2178166  24.6882402  24.6036455
  60.4117930  23.3973269  25.3703225  66.9196374  14.2633380  16.5724109
  66.1097103  13.9180465  16.9479356  67.6080791  13.9540924  17.1611721
  68.8486923  13.3411427  18.1948406  69.4017961  13.7606880  18.8538429
  69.0857009  12.4147175  18.2371362  64.8720022  19.3298500  33.9751170
  64.7716749  20.2792857  33.9063261  64.6541564  19.0016739  33.1027240
  56.0900509  24.6605765  22.8372036  55.3963980  24.2459718  22.3241991
  56.8373500  24.7026302  22.2405455  72.2265730  15.4511952  17.7027070
  71.6464399  16.1096756  17.3205123  71.9601662  14.6289296  17.2914488
  70.6769296  14.8517010  19.9048391  71.1769074  14.9633544  19.0962710
  71.3204904  14.5478062  20.5449199  64.7351292  22.7595639  32.7916232
  64.2518374  23.5595999  32.9980121  64.8212231  22.7703584  31.8383676
  58.0037251  24.5924019  20.7138051  57.9807940  24.6911706  19.7619934
  58.3137888  25.4389170  21.0355217  60.6624629  26.6500174  24.8284665
  61.6167883  26.6184116  24.7614597  60.4637153  26.1890798  25.6434891
  61.2524011  25.2201290  27.3955463  62.0716900  25.7145369  27.4190300
  61.5260819  24.3033258  27.3673031  71.0090608  17.6112042  16.7583419
  70.1216463  17.8961693  16.5403613  71.4244597  17.4505806  15.9110696
  74.3605144  17.6358563  20.4737758  75.1365534  18.1255016  20.7462375
  73.6353278  18.0616617  20.9309627  76.7977702  18.3486182  21.5311698
  77.3922193  18.1081918  20.8205007  76.8704286  17.6293313  22.1585235
  59.0174858  32.1919793  21.8454863  58.8829326  31.4320194  21.2792861
  58.6006920  32.9160693  21.3783652  70.1533821  27.3756717  10.8531439
  70.8569671  27.5806719  11.4689094  69.4296470  27.9433479  11.1180522
  70.9831631  23.1266578  16.9733709  70.9266833  23.5835130  16.1341341
  71.5359974  22.3657263  16.7956552  74.7936437  18.9156310  17.7983828
  74.5373372  18.5152946  18.6292036  74.1689305  19.6300104  17.6733967
  79.1048775  21.6552383  20.3055120  78.5448333  21.7245573  21.0786682
  78.4992279  21.4793368  19.5854616  62.1743984  33.0889110  22.0573306
  62.0576368  34.0334543  21.9551996  61.3536430  32.7862672  22.4459105
  72.0620518  27.8139246  12.9029899  72.8966122  27.3820445  12.7207373
  71.9004861  27.6421260  13.8306793  71.7166411  24.3171359  14.2686238
  71.6615214  24.1515631  13.3274682  71.0912466  25.0247392  14.4248428
  56.5058926  19.5539424  28.0947660  57.1517789  19.0438378  28.5834885
  56.2976077  20.2908105  28.6691085  69.0312318  26.6220271  33.5939801
  69.9003477  26.7960924  33.2326436  68.5519069  27.4414688  33.4715530
  65.0262536  13.8179468  13.8471556  65.0141206  14.7621308  14.0039827
  65.9185958  13.6349614  13.5531018  63.1998498  33.7417372  25.2729234
  64.1025745  33.7740983  25.5895729  62.9735868  32.8117823  25.2875570
  64.9552100  32.4948359  21.9339313  64.0047731  32.4950220  21.8203685
  65.2584586  31.7481093  21.4175348  68.8414656  10.4122245  18.1017493
  68.0747051   9.8580732  18.2474176  69.2525361  10.4844114  18.9631645
  60.8456417  16.7007041  32.1922674  61.7087878  16.3443846  32.4025999
  60.2721827  16.3620936  32.8798079  80.6904794  38.3308897  22.9985075
  81.3283204  38.2115645  22.2948415  80.5725636  39.2789741  23.0573028
  77.4994500  38.2836325  22.9346600  77.1613011  38.1677390  22.0467135
  78.3684268  37.8827490  22.9147606  73.3581316  40.1371802  18.9243491
  72.7946181  40.0461739  18.1559779  73.2433711  39.3171706  19.4045984
  77.9814283  39.4371177  28.8932806  77.9702924  39.0423975  28.0213309
  78.1434922  38.7037250  29.4866577  70.9045747  41.6322993  21.7627712
  71.6967039  41.2913818  21.3474011  71.1442398  41.7417968  22.6829865
  78.9380874  43.8042769  14.2357956  78.2868854  44.3896850  13.8491970
  79.7325237  44.3348964  14.2952993  72.8636501  40.8931907  14.6345090
  73.6367377  40.3460894  14.4957966  73.2161900  41.7576156  14.8459552
  74.7021544  42.2208289  27.8411990  74.4111410  43.1253920  27.7258656
  75.3378528  42.2624816  28.5556059  75.6277751  39.5985137  24.4313349
  76.2241323  39.3741160  23.7170312  75.6852722  38.8569883  25.0338797
  75.2002779  37.0524573  12.2663540  75.4528300  36.5306094  11.5047003
  74.2627338  36.8890718  12.3690224  80.2446062  36.0560351  20.0738283
  81.0309151  35.6379774  19.7228700  80.5084766  36.9606443  20.2419932
  80.4156139  41.4933201  14.7726940  79.7801972  41.5667828  15.4847845
  80.0853546  42.0826800  14.0946020  85.6454489  35.9935584  20.9771262
  86.3779661  35.4234801  21.2109091  84.8893845  35.6057185  21.4177768
  74.9199068  38.9552679  14.4687915  74.8035326  38.2797582  15.1368999
  75.0301328  38.4685053  13.6520068  77.2630609  38.4162826  18.1734604
  76.8988816  37.8893447  18.8847526  78.1197725  38.0261295  18.0001090
  83.1679910  29.7057158  25.4365871  82.8363234  30.5752569  25.2127086
  82.5725523  29.3893442  26.1159901  76.9036096  33.4452725  13.1695953
  77.0710498  34.3132962  13.5366424  76.7133265  33.6080007  12.2457242
  79.6611429  41.9069704  24.8361783  79.3612152  42.8094743  24.7277591
  79.3162489  41.6401888  25.6882936  73.1123911  38.3583501  20.8698488
  72.1874407  38.2259715  21.0776179  73.3608324  39.1377720  21.3668430
  83.0608573  34.4252245  22.5159221  82.1525450  34.3567653  22.2217982
  83.0096169  34.9024189  23.3441046  76.8825317  35.9010383  14.1542620
  76.7624942  36.3467434  14.9928100  76.1877905  36.2495701  13.5956158
  70.4732722  38.0016775  21.7042277  70.6025103  38.2551254  22.6181689
  69.7930173  38.5944483  21.3846932  74.6432209  48.6714025  17.8032751
  74.5656239  49.6221850  17.8821232  74.0393852  48.3259897  18.4607677
  77.1349439  35.8441890  30.4594118  76.3582773  36.4035810  30.4496983
  77.7740002  36.3298673  30.9808988  84.9270219  32.6268683  24.2937095
  84.2844600  32.9201216  23.6476889  84.4225148  32.5121603  25.0990291
  82.5810383  36.3731856  14.9822954  83.4928239  36.6059243  14.8070651
  82.0720030  36.9568900  14.4198032  75.3895811  38.6527343  30.0212085
  76.1310495  39.1912387  29.7446909  74.6832796  39.2793632  30.1783637
  80.8651151  40.7956484  28.6184246  81.2734507  40.3538894  27.8738879
  80.1428412  40.2209111  28.8718439  77.2182221  35.7329091  25.9917803
  78.0643416  36.1568504  26.1352452  77.1580858  35.0762715  26.6856366
  81.1879965  41.3557675  22.3736535  80.5588828  41.5203389  21.6712603
  80.8005627  41.7699284  23.1447499  85.0669197  42.2912112  19.7280899
  84.3820235  42.6711014  19.1777932  85.1513046  42.9007439  20.4612847
  80.3681666  33.3933459  27.6498977  80.1242598  34.1475520  27.1133253
  80.6441596  33.7718807  28.4846224  82.3220129  39.9372071  26.3276243
  82.5337024  40.5803831  25.6510624  82.2749877  39.1034388  25.8598173
  79.9246358  32.5489892  23.2312815  79.0630837  32.8471146  23.5229552
  79.9508792  32.7660291  22.2993847  76.7407927  41.0932083  19.6386620
  77.2046273  41.3719786  18.8491243  76.4764725  40.1915527  19.4559711
  73.6332008  40.6403564  22.5766384  74.2033365  41.0690833  21.9383868
  74.2240120  40.3586149  23.2750569  75.6776813  37.2155235  16.4476185
  76.3800857  37.6676279  16.9150112  75.3457442  36.5739054  17.0756079
  74.1257175  35.8066992  30.8227395  73.4955835  36.4883273  31.0562792
  74.0193263  35.6950073  29.8780533  69.4202147  35.4738788  21.7493319
  68.6301201  35.7296316  21.2733430  69.9113395  36.2887126  21.8545360
  83.4365957  42.8144027  24.4998600  84.2583400  42.4124214  24.2181282
  83.4328360  42.7112261  25.4514716  71.3716893  35.8383367  18.7076796
  70.5748056  35.9502061  19.2260291  71.1442485  36.1770019  17.8417686
  77.2022560  42.3628070  26.6559310  77.2666993  42.8248477  27.4917482
  76.4933484  41.7325435  26.7841620  67.7039850  35.7269278  24.1808310
  67.9547889  36.6116288  24.4465886  68.2399399  35.5473880  23.4083402
  91.5271950  39.1582775  20.8483571  90.7735658  38.5890173  20.6927576
  91.6619491  39.1245440  21.7954206  76.9170578  44.0296178  16.5238291
  76.7816253  44.8747713  16.9523139  77.4580390  44.2315455  15.7604225
  73.4037917  30.1087758  33.1852646  73.0104863  29.5553956  33.8600290
  74.2204058  30.4198336  33.5759163  70.3699975  41.5471616  17.0966216
  70.8824496  42.3414866  17.2471780  71.0222688  40.8497906  17.0299817
  72.1794860  44.6637372  19.1788969  72.3561488  45.5855337  18.9909953
  72.9751693  44.3495791  19.6083349  76.3205878  31.5245637  30.7772902
  77.0615592  32.1252790  30.6977365  76.5523801  30.7823274  30.2190945
  71.4647216  36.7102004  29.0551132  71.3500732  35.8087261  29.3558231
  70.6091734  36.9565701  28.7035949  78.5439054  44.6519744  30.6538633
  78.1002908  43.8656123  30.3359537  79.2056268  44.8398895  29.9882524
  73.3026175  46.1815546  25.1799311  73.8533600  46.0532609  24.4076305
  72.4637651  46.4810435  24.8294204  80.6420292  44.9322544  28.6820034
  80.6238768  45.7531425  28.1900303  81.5640212  44.8076619  28.9070175
  77.0993346  42.4466674  29.5243542  77.6321683  41.6854962  29.2942850
  76.5707427  42.1540325  30.2667697  80.2663041  27.5526740  25.0537184
  79.9227311  28.4428381  24.9776295  80.6342004  27.3628397  24.1906769
  68.3348892  39.8760270  17.8725786  69.1724114  40.2857278  17.6559494
  68.5127160  38.9359712  17.8425980  80.2313324  37.5435351  13.5609619
  79.7159948  38.3139955  13.7998007  79.9590633  36.8700487  14.1842681
  77.8160435  32.3885051  18.6194858  76.9602031  31.9991902  18.4400496
  78.2287387  32.4677012  17.7594643  79.3459582  29.9231395  23.0186417
  78.8424377  29.8861530  22.2054223  79.6390189  30.8324137  23.0783074
  75.5902468  30.0070124  22.0252599  76.4555464  29.8112933  21.6658489
  75.6579977  29.7780476  22.9521956  85.2047598  40.2967705  15.4962793
  84.4277041  39.9578865  15.0517955  85.8839079  40.3020328  14.8217758
  80.0199627  35.4162443  15.3869400  79.7149763  35.7308592  16.2379544
  80.9730069  35.4943863  15.4296733  78.4646059  41.5752666  17.0362354
  77.9367421  40.8405426  16.7235592  77.9633562  42.3527342  16.7902323
  83.4438905  39.7701687  22.1529401  82.7862580  40.4600948  22.2409529
  84.2479304  40.1598118  22.4963387  73.1964787  32.2372332  19.3968966
  73.7708539  32.0147514  18.6642159  73.7835769  32.3061027  20.1497567
  82.2544364  38.1246059  20.2033342  82.7676246  38.7576051  20.7055052
  82.9045588  37.5247255  19.8376703  73.5234374  34.2676793  13.4164851
  72.6871686  34.6051480  13.7374126  73.3839143  34.1325773  12.4791988
  75.4987454  29.1113581  18.1244035  74.8451867  28.7962598  17.5000650
  75.4567929  28.4889322  18.8503858  76.6098659  39.3932876  10.0397327
  75.7025721  39.1622130  10.2388476  77.1069691  38.5970496  10.2271309
  79.5166738  48.1030384  12.9594014  78.8428437  48.4062080  13.5678971
  79.9032560  48.9059464  12.6099471  78.7325195  35.5995515  22.4491683
  77.8147756  35.8210462  22.2913371  79.1485338  35.6741825  21.5903390
  79.5160243  36.9986930  17.5794363  80.2632061  37.5108328  17.2701485
  79.7851832  36.6770983  18.4398757  77.7886893  39.4945471  14.5621318
  76.8798112  39.2104504  14.6593787  77.8181977  39.9144550  13.7024624
  83.0206160  43.1052061  18.3312485  82.5668487  42.2642971  18.3877676
  82.3900127  43.7413459  18.6687265  81.9639080  34.0344047  19.5613153
  81.2261836  33.5221433  19.8923395  82.2165853  33.5944428  18.7496429
  81.4639099  44.9428557  19.2662303  81.7562074  45.5033614  18.5474669
  81.9737720  45.2357118  20.0215462  82.0650707  26.8120299  20.1554922
  82.3709584  25.9517662  19.8680837  82.7903312  27.4037919  19.9553916
  68.3575063  37.2150985  18.5436520  68.1599463  36.6220346  17.8187586
  67.8021727  36.9103195  19.2612459  76.3371787  37.1074092  20.6631113
  76.3920397  36.1547928  20.5873590  75.5262989  37.2633531  21.1472411
  77.4862981  41.0354215  11.9009396  77.0482410  40.3190074  11.4415033
  78.2273421  41.2630330  11.3394488  74.2764147  35.7251152  18.4221492
  73.4632012  36.0245322  18.8286684  74.7723141  35.3306840  19.1395974
  76.4272725  45.7208908  20.3555756  76.3848903  45.9469755  19.4264289
  77.3435423  45.4872283  20.5041558  79.8738358  36.1892976  27.2536386
  80.2287746  36.4164449  28.1130851  80.5210490  36.5211353  26.6313641
  85.6036095  39.3111412  17.9585715  85.4653994  39.5013008  17.0306904
  85.2472314  40.0730795  18.4153766  73.7678221  33.2969507  24.0382727
  74.4077601  33.1558266  23.3405690  72.9355752  33.0104020  23.6621329
  85.6305475  41.3787939  22.9696986  86.0641982  41.2863228  23.8180040
  86.3437056  41.3545439  22.3317002  74.5438525  42.5971937  20.1517719
  75.3379124  42.1022258  19.9500294  73.8330218  42.0689801  19.7885425
  79.3633370  44.9790033  24.5030087  79.4170392  45.5480969  25.2707803
  78.4948151  45.1491918  24.1384124  70.8521289  36.7415019  16.2277472
  69.9218877  36.6799475  16.4447434  70.9478761  36.2190972  15.4314113
  70.7706838  33.2669832  18.8155714  71.0313655  34.1815165  18.7064874
  71.5924010  32.7994275  18.9652326  72.2431763  34.6807589  25.9854538
  72.9154817  34.4724951  25.3367187  71.4161550  34.4829675  25.5459770
  86.4921024  41.4211640  25.5029872  86.6856915  42.3257450  25.7489147
  86.3921643  40.9619059  26.3368457  78.1457335  31.3069530  28.0020199
  77.4985250  32.0059480  27.9084675  78.9158351  31.7405674  28.3696447
  81.5536133  41.5718382  31.0770752  81.4021640  41.3428934  30.1600836
  81.5440813  42.5288984  31.0902097  78.3221470  39.1450295  26.0617019
  79.2513530  39.2961455  25.8885986  77.9012500  39.2334316  25.2065665
  77.1209801  43.1700959  23.8315556  76.9820887  42.8019744  24.7041494
  76.3324398  43.6848599  23.6599514  77.7157953  48.2710056  15.1741093
  77.8909709  47.7998099  15.9886716  77.0290741  48.8975822  15.4022354
  78.6715016  42.5482562  21.2204394  78.3364849  42.5083332  22.1162044
  78.1718962  41.8827278  20.7474804  72.6459260  37.9550192  26.7456975
  72.5079058  37.2230431  27.3468514  73.5564184  37.8659092  26.4641163
  81.6074208  39.8938596  11.4941454  80.9903379  39.1685425  11.3974506
  81.1390697  40.6547957  11.1508528  75.2741561  37.6670152  26.2340655
  75.9841180  37.0263344  26.1927273  75.2310869  37.9183046  27.1566836
  83.2628340  44.6037505  29.1547234  83.2040886  43.9196725  28.4877817
  83.6647858  45.3456495  28.7027860  73.9870495  34.6535369  28.0536294
  73.4507852  34.2026108  28.7057891  73.3987204  34.7881278  27.3106759
  72.2819039  51.4199419  21.9480953  72.5215637  52.0517943  22.6259972
  71.4388235  51.0687459  22.2346312  73.3972754  34.1124021  10.6162758
  72.5202220  33.9912822  10.2525005  73.8730507  33.3210099  10.3641647
  83.2645747  42.5677089  27.3861214  82.3772526  42.2303011  27.5087613
  83.8344298  41.8360120  27.6229979  64.9174894  38.9001181  20.7104265
  65.6045934  38.5862911  20.1225280  64.7623023  39.8042545  20.4371517
  69.7209616  33.7891377  25.1389289  69.6367805  33.1817047  24.4039699
  68.8992323  34.2800395  25.1398785  76.7946900  47.2278541  24.3522457
  76.7217072  48.0333513  24.8641762  76.3524294  47.4270507  23.5270478
  76.5836680  46.4650311  17.8625279  75.8004202  47.0071991  17.9563503
  77.2829425  46.9824291  18.2619520  79.8933330  32.2744941  20.5059484
  80.3902030  31.5214903  20.1860554  79.1220312  32.3109257  19.9402693
  87.7463088  37.9785306  22.1477775  87.7352964  38.8610022  21.7771709
  86.8780467  37.6256857  21.9532312  79.2545584  47.1265375  26.5080616
  79.9673556  47.7612840  26.4356517  78.7635613  47.2229241  25.6920617
  80.9763111  41.0316628  18.0797907  80.0419390  41.1518090  17.9102612
  81.1539779  40.1289095  17.8157917  76.4768299  34.4162324  20.2331169
  76.1066086  33.8633364  20.9212074  76.9727391  33.8120457  19.6806169
  84.3635662  36.8733947  18.6147941  84.8296114  37.7061939  18.5408244
  84.8143163  36.4078929  19.3193200  74.3057498  44.8759819  27.3286186
  75.0066957  45.5096302  27.4815581  73.8352613  45.2174550  26.5681826
  82.4311893  43.2177768  15.6134093  82.7071737  43.1034363  16.5227968
  81.5616392  42.8195253  15.5746267  82.3352325  29.2414534  22.6538843
  81.4215405  29.4718761  22.8221050  82.7645426  29.3252978  23.5052875
  82.1058783  37.4304426  25.1538737  81.4530234  37.6780334  24.4991190
  82.4839163  36.6168564  24.8201214  79.0665957  47.4664119  19.2566907
  79.2488352  46.6485775  19.7194659  79.8898943  47.6831812  18.8191797
  79.4008123  46.3932304  16.5181956  79.9295889  45.8824759  15.9052118
  79.6636342  46.0774835  17.3827489  78.1546357  38.1724237  31.6404774
  77.4786994  38.0718366  32.3107149  78.9773990  38.0163451  32.1040771
  69.9025216  44.4096174  24.2617289  70.4878652  43.6639862  24.3945193
  69.7050054  44.7200130  25.1453953  72.7563871  47.4447421  19.2779732
  72.0874246  47.9293549  18.7943772  72.6176740  47.6916642  20.1923110
  64.4942870  36.9801774  22.9821732  64.5326970  36.4465365  23.7758850
  63.9883163  36.4536979  22.3632709  76.8969139  49.4791165  25.8762390
  77.4487447  49.6422786  26.6411475  77.2375333  50.0695602  25.2042415
  71.8733633  31.8266314  26.4784275  71.9374959  32.6881145  26.0661672
  71.8100753  31.2140316  25.7456633  71.3485905  33.8989447  30.1257309
  71.9757944  33.5166524  30.7394833  70.4913824  33.6803649  30.4913001
  81.7480014  44.3052422  31.7311044  82.2919918  44.9182380  31.2365999
  81.1666859  44.8632001  32.2478057  68.1251448  35.7065876  16.0575664
  68.4204889  34.7976554  16.0042717  67.2239484  35.6853615  15.7356666
  80.0337527  47.4273140  22.8626072  79.9088666  46.6262880  22.3537018
  80.6916618  47.9219333  22.3740042  71.6545695  33.7821873  22.0403212
  70.9332281  34.3957840  21.9010686  72.4438951  34.3179637  21.9619858
  82.0972435  45.2282160  24.4905622  81.1502771  45.1087511  24.4183949
  82.4455208  44.3404658  24.5731884  74.4572008  31.1176299  28.3143864
  74.9806410  31.3638596  29.0770173  74.2384342  31.9496334  27.8947001
  69.8539289  33.3879974  16.1814989  69.5251996  32.5077353  15.9990095
  70.2078660  33.3327642  17.0691378  79.1018868  45.0234876  20.6909974
  78.9543831  44.0951584  20.8717544  79.9272362  45.0454967  20.2067050
  72.9681113  33.6752943  16.5490467  73.3077185  34.2038865  15.8269075
  73.4153233  34.0133350  17.3249033  82.7052990  45.8463435  21.7774847
  83.6299538  45.6406296  21.6399298  82.5368294  45.5979836  22.6864189
  75.6624553  32.0589994  25.9993535  75.3221374  31.2597807  26.4014214
  74.9563560  32.3591705  25.4270368  76.3141025  29.1439307  24.4520858
  77.1367095  28.6699785  24.3299748  76.5579089  29.9229790  24.9519544
  74.9549260  32.1727565  14.7483759  75.6757622  32.5508818  14.2447476
  74.3314564  32.8916442  14.8518737  79.0980383  32.8772714  15.6842092
  79.3143997  33.7597352  15.3830920  78.6174450  32.4858927  14.9547734
  73.8379604  35.8358427  22.2612836  73.6924185  36.1498730  23.1537118
  73.3604808  36.4543328  21.7083735  75.6975987  32.8260975  22.3093726
  75.6837556  31.9302069  21.9726024  76.4148415  32.8331639  22.9432012
  77.5502118  33.2598315  24.3546853  77.2919895  34.1815386  24.3531184
  77.0187158  32.8628750  25.0447317  82.4948306  46.3649103  17.1336939
  82.6685184  45.7995525  16.3810791  82.9877198  47.1649997  16.9516429
  68.3125266  38.3763772  25.2000497  67.7678734  39.1523580  25.3320772
  69.1904616  38.7234576  25.0419619  75.1012883  31.7075356  17.5781296
  75.2228794  30.7792002  17.7772183  74.8114925  31.7214042  16.6659611
  77.9704073  29.3930266  20.7148016  77.9925770  29.4569599  19.7599995
  78.3872132  28.5534775  20.9088522  88.3487698  39.1285526  18.7527238
  88.7918844  38.3792851  18.3546362  87.4714208  39.1195662  18.3700970
  83.4823479  45.6815867  14.2333837  84.1774384  46.3022560  14.4521151
  83.8246629  44.8311218  14.5086215  69.0991288  37.5033668  28.0930654
  68.3573024  37.6516303  28.6795285  68.7784032  37.7641934  27.2297404
  85.3814902  43.1315573  15.7621168  85.9066226  43.4702845  15.0370488
  85.2937255  42.1962588  15.5784302  77.0434951  47.0449646  27.8911044
  77.3522077  46.7998793  28.7633744  77.8410433  47.2496285  27.4029914
  77.0655563  49.1987556  20.1216421  76.6260553  48.7063935  20.8149278
  77.8163680  48.6560523  19.8808496  69.5447902  45.3899097  20.1241049
  70.3705922  45.0902869  19.7439692  69.1941954  44.6206719  20.5730838
  74.5129435  44.7425565  22.1938722  73.8909444  44.0796270  21.8940950
  75.1834302  44.7686697  21.5112370  67.7456507  43.3085423  21.0829982
  66.9088415  42.8807597  20.9013984  67.7180152  43.5017866  22.0200774
  74.5853962  33.2207353  31.7871229  74.6342118  34.0969476  31.4048998
  75.1276477  32.6784746  31.2142872  85.0708808  43.7648476  31.0672366
  84.2804352  43.7472615  30.5276865  84.8342163  44.3036770  31.8221402
  85.1906683  40.6140943  28.3805094  85.2404688  40.4490950  29.3220617
  85.0820606  39.7468202  27.9902975  74.0742942  43.2929488  15.6697183
  74.2231062  43.9764953  15.0163856  74.8809385  43.2734578  16.1846639
  82.4810446  36.5971871  29.6964401  83.3820308  36.4578335  29.4048399
  82.5558420  36.7626325  30.6362578  76.8153251  33.9738725  28.5417587
  75.9456560  34.2672291  28.2700176  77.0512731  34.5579170  29.2624851
  86.6924880  43.0337884  28.6247116  86.4009688  43.3967865  29.4610577
  86.0797011  42.3204892  28.4460448  87.8920562  40.5990764  21.1449686
  88.7267454  41.0380568  21.3087246  88.0279691  40.1229417  20.3257932
  84.9412068  38.1570499  27.0927174  85.4166190  38.3498145  26.2846025
  84.0177634  38.2129685  26.8470557  71.8295575  39.3194666  16.6758252
  71.5841617  38.4156996  16.8738462  71.9991489  39.3211816  15.7337730
  79.5192285  30.1918342  26.0583008  80.0374229  30.9279369  25.7329496
  79.1647417  30.4982336  26.8929767  71.0991222  35.0523023  14.1744413
  70.4060467  35.1267378  13.5184449  70.8542974  34.2883367  14.6965930
  79.7704879  26.6118625  21.5783904  80.0506633  25.9441814  22.2044331
  80.5555486  26.8047720  21.0658568  77.5738347  45.7877619  13.1408930
  77.0012314  46.4067806  12.6879402  78.1471141  46.3376980  13.6748852
  83.6413737  35.0336259  25.3255479  84.5931160  35.1334356  25.3467703
  83.4717188  34.2414527  25.8353564  81.6628117  32.1191842  25.5114880
  81.0678049  32.3996855  24.8161369  81.3777813  32.6085743  26.2831621
  80.7935607  46.0714769  14.2717513  81.7266280  46.0060330  14.4750388
  80.7058820  46.9071036  13.8132045  83.4223624  45.3880639  11.2321460
  83.3437255  45.0540503  12.1257218  84.2433291  45.8802407  11.2312933
  86.1201815  38.2542378  24.4397779  86.0878135  37.3158379  24.6257463
  86.7302439  38.3326415  23.7063604  77.9585146  37.1238431  10.4824983
  78.9044251  36.9944640  10.5513401  77.5799391  36.3853093  10.9594411
  86.2696303  35.0453422  24.4856062  85.7535352  34.2611879  24.2985991
  87.1536252  34.7172139  24.6502582  83.9307030  28.7894437  20.4451875
  83.7331852  28.4809526  21.3295207  84.5406736  29.5156076  20.5749805
  91.9378365  39.3158385  23.5803816  92.6681753  39.0543673  24.1411519
  91.3285310  38.5787107  23.6205884  90.0193662  37.4566248  24.1778267
  89.2926826  37.3222213  23.5694758  89.6040949  37.7643077  24.9834985
  77.8423838  41.1756178  31.9425640  78.7626848  41.3534777  32.1365686
  77.8073421  40.2312223  31.7905339  76.1428063  35.0488408  10.4179868
  75.2359518  34.7521521  10.4942582  76.4204044  34.7518226   9.5514154
  67.0606003  36.3694771  20.8678915  66.7408788  35.5160079  20.5753289
  66.5139432  36.5843349  21.6236882  70.8385911  39.0857212  24.5848421
  71.0571921  40.0174320  24.6036455  71.2511685  38.7265187  25.3703225
  77.7590129  29.5925298  16.5724109  76.9490857  29.2472383  16.9479356
  78.4474546  29.2832841  17.1611721  79.6880677  28.6703344  18.1948406
  80.2411716  29.0898798  18.8538429  79.9250763  27.7439092  18.2371362
  75.7113776  34.6590418  33.9751170  75.6110503  35.6084775  33.9063261
  75.4935318  34.3308657  33.1027240  74.9126848  31.9075343  10.5591847
  75.7746012  32.2330241  10.8187665  75.0977192  31.1206839  10.0464913
  66.9294263  39.9897683  22.8372036  66.2357735  39.5751636  22.3241991
  67.6767254  40.0318219  22.2405455  83.0659484  30.7803870  17.7027070
  82.4858153  31.4388674  17.3205123  82.7995417  29.9581214  17.2914488
  81.5163050  30.1808927  19.9048391  82.0162829  30.2925462  19.0962710
  82.1598658  29.8769980  20.5449199  75.5745046  38.0887557  32.7916232
  75.0912128  38.8887917  32.9980121  75.6605985  38.0995502  31.8383676
  68.8431006  39.9215937  20.7138051  68.8201694  40.0203624  19.7619934
  69.1531642  40.7681087  21.0355217  71.5018384  41.9792092  24.8284665
  72.4561637  41.9476034  24.7614597  71.3030907  41.5182715  25.6434891
  72.0917766  40.5493208  27.3955463  72.9110655  41.0437286  27.4190300
  72.3654574  39.6325176  27.3673031  81.8484362  32.9403960  16.7583419
  80.9610217  33.2253611  16.5403613  82.2638351  32.7797723  15.9110696
  85.1998898  32.9650481  20.4737758  85.9759288  33.4546933  20.7462375
  84.4747032  33.3908535  20.9309627  87.6371457  33.6778100  21.5311698
  88.2315948  33.4373836  20.8205007  87.7098041  32.9585231  22.1585235
  69.8568613  47.5211711  21.8454863  69.7223080  46.7612112  21.2792861
  69.4400675  48.2452611  21.3783652  80.9927576  42.7048635  10.8531439
  81.6963426  42.9098637  11.4689094  80.2690224  43.2725396  11.1180522
  81.8225386  38.4558496  16.9733709  81.7660587  38.9127047  16.1341341
  82.3753728  37.6949180  16.7956552  85.6330192  34.2448228  17.7983828
  85.3767126  33.8444863  18.6292036  85.0083060  34.9592022  17.6733967
  89.9442530  36.9844301  20.3055120  89.3842088  37.0537490  21.0786682
  89.3386033  36.8085286  19.5854616  73.0137738  48.4181028  22.0573306
  72.8970123  49.3626461  21.9551996  72.1930185  48.1154590  22.4459105
  82.9014273  43.1431164  12.9029899  83.7359877  42.7112362  12.7207373
  82.7398616  42.9713177  13.8306793  82.5560165  39.6463277  14.2686238
  82.5008969  39.4807549  13.3274682  81.9306220  40.3539310  14.4248428
  67.3452680  34.8831341  28.0947660  67.9911544  34.3730295  28.5834885
  67.1369831  35.6200023  28.6691085  79.8706072  41.9512189  33.5939801
  80.7397232  42.1252841  33.2326436  79.3912824  42.7706606  33.4715530
  75.8656291  29.1471386  13.8471556  75.8534960  30.0913226  14.0039827
  76.7579712  28.9641531  13.5531018  74.0392253  49.0709290  25.2729234
  74.9419499  49.1032900  25.5895729  73.8129623  48.1409741  25.2875570
  75.7945855  47.8240276  21.9339313  74.8441486  47.8242138  21.8203685
  76.0978341  47.0773011  21.4175348  79.6808410  25.7414163  18.1017493
  78.9140806  25.1872649  18.2474176  80.0919115  25.8136031  18.9631645
  71.6850171  32.0298959  32.1922674  72.5481633  31.6735763  32.4025999
  71.1115582  31.6912853  32.8798079  91.5298548  53.6600815  22.9985075
  92.1676958  53.5407562  22.2948415  91.4119391  54.6081659  23.0573028
  88.3388254  53.6128243  22.9346600  88.0006766  53.4969308  22.0467135
  89.2078023  53.2119408  22.9147606  84.1975070  55.4663719  18.9243491
  83.6339935  55.3753656  18.1559779  84.0827465  54.6463624  19.4045984
  88.8208037  54.7663095  28.8932806  88.8096678  54.3715893  28.0213309
  88.9828677  54.0329167  29.4866577  81.7439502  56.9614911  21.7627712
  82.5360794  56.6205736  21.3474011  81.9836152  57.0709886  22.6829865
  89.7774629  59.1334687  14.2357956  89.1262609  59.7188768  13.8491970
  90.5718992  59.6640882  14.2952993  83.7030256  56.2223824  14.6345090
  84.4761132  55.6752811  14.4957966  84.0555655  57.0868074  14.8459552
  85.5415298  57.5500207  27.8411990  85.2505164  58.4545837  27.7258656
  86.1772283  57.5916734  28.5556059  86.4671505  54.9277055  24.4313349
  87.0635078  54.7033077  23.7170312  86.5246477  54.1861801  25.0338797
  86.0396534  52.3816490  12.2663540  86.2922054  51.8598012  11.5047003
  85.1021093  52.2182636  12.3690224  91.0839817  51.3852269  20.0738283
  91.8702906  50.9671692  19.7228700  91.3478521  52.2898361  20.2419932
  91.2549894  56.8225119  14.7726940  90.6195727  56.8959746  15.4847845
  90.9247300  57.4118718  14.0946020  96.4848244  51.3227502  20.9771262
  97.2173416  50.7526719  21.2109091  95.7287599  50.9349102  21.4177768
  85.7592822  54.2844596  14.4687915  85.6429081  53.6089500  15.1368999
  85.8695082  53.7976970  13.6520068  88.1024363  53.7454743  18.1734604
  87.7382571  53.2185364  18.8847526  88.9591479  53.3553212  18.0001090
  94.0073664  45.0349076  25.4365871  93.6756989  45.9044487  25.2127086
  93.4119277  44.7185360  26.1159901  87.7429850  48.7744643  13.1695953
  87.9104253  49.6424880  13.5366424  87.5527019  48.9371925  12.2457242
  90.5005184  57.2361622  24.8361783  90.2005907  58.1386661  24.7277591
  90.1556243  56.9693805  25.6882936  83.9517665  53.6875419  20.8698488
  83.0268162  53.5551633  21.0776179  84.2002078  54.4669638  21.3668430
  93.9002327  49.7544162  22.5159221  92.9919205  49.6859571  22.2217982
  93.8489923  50.2316107  23.3441046  87.7219071  51.2302301  14.1542620
  87.6018696  51.6759351  14.9928100  87.0271660  51.5787618  13.5956158
  81.3126476  53.3308692  21.7042277  81.4418857  53.5843171  22.6181689
  80.6323927  53.9236400  21.3846932  85.4825963  64.0005942  17.8032751
  85.4049993  64.9513767  17.8821232  84.8787607  63.6551815  18.4607677
  87.9743193  51.1733808  30.4594118  87.1976527  51.7327728  30.4496983
  88.6133756  51.6590591  30.9808988  95.7663974  47.9560601  24.2937095
  95.1238354  48.2493134  23.6476889  95.2618902  47.8413521  25.0990291
  93.4204137  51.7023774  14.9822954  94.3321994  51.9351161  14.8070651
  92.9113784  52.2860818  14.4198032  86.2289565  53.9819261  30.0212085
  86.9704250  54.5204305  29.7446909  85.5226551  54.6085550  30.1783637
  91.7044905  56.1248402  28.6184246  92.1128261  55.6830812  27.8738879
  90.9822167  55.5501029  28.8718439  88.0575975  51.0621008  25.9917803
  88.9037170  51.4860422  26.1352452  87.9974613  50.4054633  26.6856366
  92.0273720  56.6849592  22.3736535  91.3982582  56.8495306  21.6712603
  91.6399382  57.0991202  23.1447499  95.9062952  57.6204030  19.7280899
  95.2213990  58.0002931  19.1777932  95.9906801  58.2299357  20.4612847
  91.2075420  48.7225377  27.6498977  90.9636352  49.4767437  27.1133253
  91.4835351  49.1010724  28.4846224  93.1613883  55.2663989  26.3276243
  93.3730778  55.9095749  25.6510624  93.1143631  54.4326306  25.8598173
  90.7640112  47.8781810  23.2312815  89.9024591  48.1763063  23.5229552
  90.7902547  48.0952209  22.2993847  87.5801682  56.4224000  19.6386620
  88.0440027  56.7011703  18.8491243  87.3158480  55.5207445  19.4559711
  84.4725763  55.9695482  22.5766384  85.0427120  56.3982750  21.9383868
  85.0633875  55.6878067  23.2750569  86.5170568  52.5447153  16.4476185
  87.2194611  52.9968196  16.9150112  86.1851196  51.9030972  17.0756079
  84.9650929  51.1358909  30.8227395  84.3349590  51.8175190  31.0562792
  84.8587017  51.0241991  29.8780533  80.2595902  50.8030705  21.7493319
  79.4694956  51.0588234  21.2733430  80.7507149  51.6179043  21.8545360
  94.2759711  58.1435945  24.4998600  95.0977155  57.7416132  24.2181282
  94.2722114  58.0404179  25.4514716  82.2110647  51.1675285  18.7076796
  81.4141810  51.2793979  19.2260291  81.9836239  51.5061937  17.8417686
  88.0416315  57.6919988  26.6559310  88.1060747  58.1540395  27.4917482
  87.3327239  57.0617353  26.7841620  78.5433605  51.0561196  24.1808310
  78.7941643  51.9408206  24.4465886  79.0793153  50.8765797  23.4083402
 102.3665704  54.4874693  20.8483571 101.6129413  53.9182091  20.6927576
 102.5013245  54.4537358  21.7954206  87.7564332  59.3588095  16.5238291
  87.6210007  60.2039631  16.9523139  88.2974145  59.5607373  15.7604225
  84.2431672  45.4379675  33.1852646  83.8498617  44.8845874  33.8600290
  85.0597812  45.7490254  33.5759163  81.2093730  56.8763533  17.0966216
  81.7218250  57.6706784  17.2471780  81.8616443  56.1789824  17.0299817
  83.0188614  59.9929290  19.1788969  83.1955243  60.9147254  18.9909953
  83.8145448  59.6787709  19.6083349  87.1599633  46.8537554  30.7772902
  87.9009346  47.4544707  30.6977365  87.3917556  46.1115192  30.2190945
  82.3040971  52.0393922  29.0551132  82.1894486  51.1379179  29.3558231
  81.4485489  52.2857618  28.7035949  89.3832809  59.9811662  30.6538633
  88.9396663  59.1948040  30.3359537  90.0450022  60.1690812  29.9882524
  84.1419930  61.5107463  25.1799311  84.6927355  61.3824527  24.4076305
  83.3031406  61.8102352  24.8294204  91.4814047  60.2614462  28.6820034
  91.4632522  61.0823343  28.1900303  92.4033967  60.1368537  28.9070175
  87.9387101  57.7758591  29.5243542  88.4715438  57.0146879  29.2942850
  87.4101182  57.4832243  30.2667697  91.1056796  42.8818657  25.0537184
  90.7621065  43.7720299  24.9776295  91.4735758  42.6920315  24.1906769
  79.1742646  55.2052188  17.8725786  80.0117868  55.6149196  17.6559494
  79.3520914  54.2651630  17.8425980  91.0707079  52.8727268  13.5609619
  90.5553702  53.6431873  13.7998007  90.7984387  52.1992404  14.1842681
  88.6554190  47.7176969  18.6194858  87.7995786  47.3283819  18.4400496
  89.0681141  47.7968930  17.7594643  90.1853336  45.2523312  23.0186417
  89.6818132  45.2153448  22.2054223  90.4783943  46.1616055  23.0783074
  86.4296222  45.3362042  22.0252599  87.2949219  45.1404851  21.6658489
  86.4973731  45.1072394  22.9521956  96.0441353  55.6259623  15.4962793
  95.2670795  55.2870782  15.0517955  96.7232834  55.6312246  14.8217758
  90.8593382  50.7454360  15.3869400  90.5543517  51.0600510  16.2379544
  91.8123824  50.8235780  15.4296733  89.3039814  56.9044584  17.0362354
  88.7761175  56.1697343  16.7235592  88.8027316  57.6819260  16.7902323
  94.2832660  55.0993604  22.1529401  93.6256334  55.7892866  22.2409529
  95.0873059  55.4890036  22.4963387  84.0358541  47.5664250  19.3968966
  84.6102293  47.3439432  18.6642159  84.6229524  47.6352945  20.1497567
  93.0938118  53.4537977  20.2033342  93.6070000  54.0867969  20.7055052
  93.7439342  52.8539172  19.8376703  84.3628128  49.5968711  13.4164851
  83.5265441  49.9343398  13.7374126  84.2232898  49.4617691  12.4791988
  86.3381209  44.4405499  18.1244035  85.6845621  44.1254516  17.5000650
  86.2961683  43.8181239  18.8503858  87.4492414  54.7224794  10.0397327
  86.5419476  54.4914047  10.2388476  87.9463446  53.9262413  10.2271309
  90.3560493  63.4322301  12.9594014  89.6822191  63.7353998  13.5678971
  90.7426315  64.2351382  12.6099471  89.5718949  50.9287432  22.4491683
  88.6541511  51.1502379  22.2913371  89.9879093  51.0033743  21.5903390
  90.3553997  52.3278848  17.5794363  91.1025816  52.8400245  17.2701485
  90.6245587  52.0062901  18.4398757  88.6280647  54.8237389  14.5621318
  87.7191866  54.5396422  14.6593787  88.6575731  55.2436467  13.7024624
  93.8599915  58.4343978  18.3312485  93.4062242  57.5934888  18.3877676
  93.2293881  59.0705377  18.6687265  92.8032834  49.3635964  19.5613153
  92.0655591  48.8513351  19.8923395  93.0559608  48.9236346  18.7496429
  92.3032854  60.2720475  19.2662303  92.5955828  60.8325532  18.5474669
  92.8131474  60.5649036  20.0215462  92.9044462  42.1412216  20.1554922
  93.2103338  41.2809580  19.8680837  93.6297066  42.7329837  19.9553916
  79.1968818  52.5442903  18.5436520  78.9993217  51.9512264  17.8187586
  78.6415482  52.2395113  19.2612459  87.1765541  52.4366009  20.6631113
  87.2314151  51.4839846  20.5873590  86.3656743  52.5925449  21.1472411
  88.3256735  56.3646133  11.9009396  87.8876165  55.6481991  11.4415033
  89.0667176  56.5922247  11.3394488  85.1157901  51.0543069  18.4221492
  84.3025767  51.3537240  18.8286684  85.6116895  50.6598758  19.1395974
  87.2666479  61.0500826  20.3555756  87.2242658  61.2761672  19.4264289
  88.1829178  60.8164201  20.5041558  90.7132113  51.5184894  27.2536386
  91.0681501  51.7456367  28.1130851  91.3604244  51.8503270  26.6313641
  96.4429850  54.6403330  17.9585715  96.3047748  54.8304926  17.0306904
  96.0866069  55.4022712  18.4153766  84.6071976  48.6261425  24.0382727
  85.2471355  48.4850184  23.3405690  83.7749506  48.3395938  23.6621329
  96.4699229  56.7079857  22.9696986  96.9035736  56.6155146  23.8180040
  97.1830810  56.6837357  22.3317002  85.3832280  57.9263855  20.1517719
  86.1772878  57.4314175  19.9500294  84.6723972  57.3981718  19.7885425
  90.2027124  60.3081951  24.5030087  90.2564147  60.8772887  25.2707803
  89.3341906  60.4783836  24.1384124  81.6915043  52.0706937  16.2277472
  80.7612631  52.0091392  16.4447434  81.7872515  51.5482890  15.4314113
  81.6100592  48.5961750  18.8155714  81.8707410  49.5107083  18.7064874
  82.4317765  48.1286192  18.9652326  83.0825518  50.0099507  25.9854538
  83.7548571  49.8016869  25.3367187  82.2555304  49.8121593  25.5459770
  97.3314779  56.7503557  25.5029872  97.5250669  57.6549368  25.7489147
  97.2315397  56.2910976  26.3368457  88.9851090  46.6361448  28.0020199
  88.3379005  47.3351397  27.9084675  89.7552105  47.0697592  28.3696447
  92.3929888  56.9010300  31.0770752  92.2415394  56.6720852  30.1600836
  92.3834567  57.8580901  31.0902097  89.1615224  54.4742213  26.0617019
  90.0907284  54.6253372  25.8885986  88.7406254  54.5626234  25.2065665
  87.9603556  58.4992877  23.8315556  87.8214642  58.1311662  24.7041494
  87.1718152  59.0140517  23.6599514  88.5551708  63.6001974  15.1741093
  88.7303463  63.1290017  15.9886716  87.8684496  64.2267740  15.4022354
  89.5108771  57.8774480  21.2204394  89.1758604  57.8375250  22.1162044
  89.0112717  57.2119196  20.7474804  83.4853015  53.2842110  26.7456975
  83.3472813  52.5522349  27.3468514  84.3957938  53.1951010  26.4641163
  92.4467963  55.2230514  11.4941454  91.8297133  54.4977342  11.3974506
  91.9784451  55.9839874  11.1508528  86.1135316  52.9962069  26.2340655
  86.8234934  52.3555261  26.1927273  86.0704624  53.2474964  27.1566836
  94.1022094  59.9329423  29.1547234  94.0434640  59.2488643  28.4877817
  94.5041613  60.6748413  28.7027860  84.8264250  49.9827287  28.0536294
  84.2901607  49.5318026  28.7057891  84.2380958  50.1173196  27.3106759
  83.1212793  66.7491336  21.9480953  83.3609391  67.3809861  22.6259972
  82.2781990  66.3979376  22.2346312  84.2366509  49.4415938  10.6162758
  83.3595975  49.3204739  10.2525005  84.7124262  48.6502017  10.3641647
  94.1039502  57.8969006  27.3861214  93.2166280  57.5594928  27.5087613
  94.6738053  57.1652038  27.6229979  75.7568649  54.2293098  20.7104265
  76.4439689  53.9154828  20.1225280  75.6016777  55.1334463  20.4371517
  80.5603371  49.1183295  25.1389289  80.4761560  48.5108964  24.4039699
  79.7386077  49.6092313  25.1398785  87.6340655  62.5570459  24.3522457
  87.5610826  63.3625430  24.8641762  87.1918048  62.7562425  23.5270478
  87.4230435  61.7942229  17.8625279  86.6397956  62.3363909  17.9563503
  88.1223180  62.3116208  18.2619520  90.7327085  47.6036858  20.5059484
  91.2295784  46.8506821  20.1860554  89.9614066  47.6401175  19.9402693
  98.5856842  53.3077224  22.1477775  98.5746718  54.1901939  21.7771709
  97.7174222  52.9548775  21.9532312  90.0939338  62.4557293  26.5080616
  90.8067311  63.0904758  26.4356517  89.6029367  62.5521159  25.6920617
  91.8156865  56.3608546  18.0797907  90.8813144  56.4810008  17.9102612
  91.9933534  55.4581012  17.8157917  87.3162053  49.7454241  20.2331169
  86.9459841  49.1925282  20.9212074  87.8121146  49.1412375  19.6806169
  95.2029417  52.2025865  18.6147941  95.6689869  53.0353856  18.5408244
  95.6536917  51.7370846  19.3193200  85.1451252  60.2051736  27.3286186
  85.8460711  60.8388219  27.4815581  84.6746367  60.5466468  26.5681826
  93.2705648  58.5469686  15.6134093  93.5465492  58.4326281  16.5227968
  92.4010147  58.1487171  15.5746267  93.1746079  44.5706452  22.6538843
  92.2609159  44.8010679  22.8221050  93.6039181  44.6544896  23.5052875
  92.9452538  52.7596344  25.1538737  92.2923988  53.0072251  24.4991190
  93.3232918  51.9460482  24.8201214  89.9059712  62.7956037  19.2566907
  90.0882106  61.9777693  19.7194659  90.7292698  63.0123729  18.8191797
  90.2401877  61.7224222  16.5181956  90.7689644  61.2116677  15.9052118
  90.5030097  61.4066752  17.3827489  88.9940111  53.5016155  31.6404774
  88.3180748  53.4010284  32.3107149  89.8167745  53.3455369  32.1040771
  80.7418970  59.7388091  24.2617289  81.3272407  58.9931779  24.3945193
  80.5443809  60.0492048  25.1453953  83.5957625  62.7739339  19.2779732
  82.9268001  63.2585466  18.7943772  83.4570495  63.0208559  20.1923110
  75.3336625  52.3093692  22.9821732  75.3720724  51.7757282  23.7758850
  74.8276918  51.7828897  22.3632709  87.7362894  64.8083082  25.8762390
  88.2881202  64.9714704  26.6411475  88.0769087  65.3987520  25.2042415
  82.7127387  47.1558232  26.4784275  82.7768714  48.0173063  26.0661672
  82.6494507  46.5432234  25.7456633  82.1879660  49.2281365  30.1257309
  82.8151698  48.8458442  30.7394833  81.3307578  49.0095567  30.4913001
  92.5873768  59.6344340  31.7311044  93.1313672  60.2474298  31.2365999
  92.0060613  60.1923918  32.2478057  78.9645202  51.0357794  16.0575664
  79.2598643  50.1268472  16.0042717  78.0633238  51.0145533  15.7356666
  90.8731281  62.7565058  22.8626072  90.7482421  61.9554798  22.3537018
  91.5310372  63.2511251  22.3740042  82.4939449  49.1113790  22.0403212
  81.7726035  49.7249758  21.9010686  83.2832705  49.6471555  21.9619858
  92.9366190  60.5574078  24.4905622  91.9896525  60.4379429  24.4183949
  93.2848963  59.6696576  24.5731884  85.2965763  46.4468217  28.3143864
  85.8200165  46.6930513  29.0770173  85.0778096  47.2788252  27.8947001
  80.6933044  48.7171891  16.1814989  80.3645750  47.8369270  15.9990095
  81.0472415  48.6619560  17.0691378  89.9412623  60.3526794  20.6909974
  89.7937585  59.4243502  20.8717544  90.7666116  60.3746885  20.2067050
  83.8074867  49.0044861  16.5490467  84.1470940  49.5330782  15.8269075
  84.2546988  49.3425267  17.3249033  93.5446745  61.1755353  21.7774847
  94.4693292  60.9698214  21.6399298  93.3762048  60.9271754  22.6864189
  86.5018308  47.3881912  25.9993535  86.1615128  46.5889725  26.4014214
  85.7957314  47.6883623  25.4270368  87.1534780  44.4731224  24.4520858
  87.9760849  43.9991703  24.3299748  87.3972843  45.2521708  24.9519544
  85.7943014  47.5019483  14.7483759  86.5151377  47.8800736  14.2447476
  85.1708318  48.2208360  14.8518737  89.9374137  48.2064632  15.6842092
  90.1537752  49.0889270  15.3830920  89.4568204  47.8150845  14.9547734
  84.6773359  51.1650345  22.2612836  84.5317939  51.4790648  23.1537118
  84.1998562  51.7835245  21.7083735  86.5369741  48.1552893  22.3093726
  86.5231310  47.2593986  21.9726024  87.2542170  48.1623557  22.9432012
  88.3895872  48.5890233  24.3546853  88.1313650  49.5107304  24.3531184
  87.8580913  48.1920668  25.0447317  93.3342061  61.6941020  17.1336939
  93.5078938  61.1287443  16.3810791  93.8270952  62.4941915  16.9516429
  79.1519021  53.7055689  25.2000497  78.6072489  54.4815497  25.3320772
  80.0298371  54.0526494  25.0419619  85.9406637  47.0367273  17.5781296
  86.0622549  46.1083919  17.7772183  85.6508680  47.0505959  16.6659611
  88.8097828  44.7222184  20.7148016  88.8319525  44.7861517  19.7599995
  89.2265887  43.8826692  20.9088522  99.1881452  54.4577443  18.7527238
  99.6312598  53.7084768  18.3546362  98.3107962  54.4487580  18.3700970
  94.3217233  61.0107785  14.2333837  95.0168138  61.6314477  14.4521151
  94.6640384  60.1603136  14.5086215  79.9385043  52.8325586  28.0930654
  79.1966779  52.9808221  28.6795285  79.6177787  53.0933851  27.2297404
  96.2208656  58.4607490  15.7621168  96.7459981  58.7994763  15.0370488
  96.1331009  57.5254506  15.5784302  87.8828705  62.3741564  27.8911044
  88.1915832  62.1290711  28.7633744  88.6804187  62.5788202  27.4029914
  87.9049317  64.5279473  20.1216421  87.4654308  64.0355852  20.8149278
  88.6557434  63.9852441  19.8808496  80.3841656  60.7191014  20.1241049
  81.2099676  60.4194786  19.7439692  80.0335708  59.9498637  20.5730838
  85.3523189  60.0717483  22.1938722  84.7303199  59.4088188  21.8940950
  86.0228056  60.0978614  21.5112370  78.5850261  58.6377341  21.0829982
  77.7482170  58.2099515  20.9013984  78.5573907  58.8309784  22.0200774
  85.4247717  48.5499271  31.7871229  85.4735872  49.4261393  31.4048998
  85.9670231  48.0076664  31.2142872  95.9102563  59.0940394  31.0672366
  95.1198106  59.0764533  30.5276865  95.6735917  59.6328688  31.8221402
  96.0300438  55.9432860  28.3805094  96.0798443  55.7782868  29.3220617
  95.9214361  55.0760119  27.9902975  84.9136696  58.6221406  15.6697183
  85.0624817  59.3056870  15.0163856  85.7203140  58.6026496  16.1846639
  93.3204200  51.9263788  29.6964401  94.2214063  51.7870253  29.4048399
  93.3952175  52.0918243  30.6362578  87.6547005  49.3030643  28.5417587
  86.7850315  49.5964209  28.2700176  87.8906486  49.8871088  29.2624851
  97.5318634  58.3629802  28.6247116  97.2403443  58.7259782  29.4610577
  96.9190766  57.6496810  28.4460448  98.7314317  55.9282682  21.1449686
  99.5661208  56.3672486  21.3087246  98.8673446  55.4521335  20.3257932
  95.7805823  53.4862416  27.0927174  96.2559944  53.6790063  26.2846025
  94.8571388  53.5421602  26.8470557  82.6689329  54.6486584  16.6758252
  82.4235371  53.7448914  16.8738462  82.8385244  54.6503734  15.7337730
  90.3586039  45.5210260  26.0583008  90.8767983  46.2571287  25.7329496
  90.0041172  45.8274253  26.8929767  81.9384977  50.3814941  14.1744413
  81.2454222  50.4559296  13.5184449  81.6936729  49.6175285  14.6965930
  90.6098633  41.9410542  21.5783904  90.8900387  41.2733732  22.2044331
  91.3949240  42.1339638  21.0658568  88.4132102  61.1169536  13.1408930
  87.8406069  61.7359723  12.6879402  88.9864896  61.6668898  13.6748852
  94.4807492  50.3628176  25.3255479  95.4324915  50.4626274  25.3467703
  94.3110942  49.5706445  25.8353564  92.5021871  47.4483760  25.5114880
  91.9071803  47.7288772  24.8161369  92.2171568  47.9377661  26.2831621
  91.6329362  61.4006686  14.2717513  92.5660035  61.3352248  14.4750388
  91.5452574  62.2362953  13.8132045  94.2617378  60.7172557  11.2321460
  94.1831010  60.3832420  12.1257218  95.0827045  61.2094325  11.2312933
  96.9595569  53.5834296  24.4397779  96.9271890  52.6450297  24.6257463
  97.5696193  53.6618333  23.7063604  88.7978900  52.4530349  10.4824983
  89.7438005  52.3236557  10.5513401  88.4193145  51.7145011  10.9594411
  97.1090058  50.3745340  24.4856062  96.5929107  49.5903796  24.2985991
  97.9930006  50.0464056  24.6502582  94.7700785  44.1186355  20.4451875
  94.5725606  43.8101443  21.3295207  95.3800490  44.8447994  20.5749805
 102.7772119  54.6450303  23.5803816 103.5075508  54.3835591  24.1411519
 102.1679065  53.9079025  23.6205884 100.8587416  52.7858166  24.1778267
 100.1320580  52.6514131  23.5694758 100.4434703  53.0934994  24.9834985
  88.6817593  56.5048095  31.9425640  89.6020602  56.6826694  32.1365686
  88.6467176  55.5604141  31.7905339  86.9821817  50.3780326  10.4179868
  86.0753273  50.0813438  10.4942582  87.2597798  50.0810144   9.5514154
  77.8999758  51.6986689  20.8678915  77.5802542  50.8451997  20.5753289
  77.3533186  51.9135267  21.6236882  81.6779665  54.4149130  24.5848421
  81.8965675  55.3466238  24.6036455  82.0905439  54.0557104  25.3703225
  88.5983883  44.9217215  16.5724109  87.7884612  44.5764300  16.9479356
  89.2868300  44.6124759  17.1611721  90.5274431  43.9995262  18.1948406
  91.0805470  44.4190715  18.8538429  90.7644518  43.0731010  18.2371362
  86.5507531  49.9882336  33.9751170  86.4504258  50.9376693  33.9063261
  86.3329073  49.6600575  33.1027240  85.7520602  47.2367261  10.5591847
  86.6139766  47.5622159  10.8187665  85.9370946  46.4498757  10.0464913
  77.7688018  55.3189600  22.8372036  77.0751489  54.9043553  22.3241991
  78.5161009  55.3610137  22.2405455  93.9053239  46.1095787  17.7027070
  93.3251908  46.7680591  17.3205123  93.6389171  45.2873132  17.2914488
  92.3556805  45.5100845  19.9048391  92.8556583  45.6217379  19.0962710
  92.9992413  45.2061898  20.5449199  86.4138801  53.4179475  32.7916232
  85.9305882  54.2179835  32.9980121  86.4999740  53.4287419  31.8383676
  79.6824760  55.2507854  20.7138051  79.6595449  55.3495541  19.7619934
  79.9925397  56.0973005  21.0355217  82.3412138  57.3084009  24.8284665
  83.2955392  57.2767952  24.7614597  82.1424662  56.8474633  25.6434891
  82.9311520  55.8785125  27.3955463  83.7504409  56.3729204  27.4190300
  83.2048328  54.9617093  27.3673031  92.6878117  48.2695878  16.7583419
  91.8003972  48.5545528  16.5403613  93.1032106  48.1089641  15.9110696
  96.0392653  48.2942399  20.4737758  96.8153043  48.7838851  20.7462375
  95.3140787  48.7200453  20.9309627  98.4765211  49.0070018  21.5311698
  99.0709702  48.7665754  20.8205007  98.5491795  48.2877148  22.1585235
  80.6962367  62.8503629  21.8454863  80.5616835  62.0904030  21.2792861
  80.2794429  63.5744529  21.3783652  91.8321330  58.0340552  10.8531439
  92.5357180  58.2390555  11.4689094  91.1083979  58.6017314  11.1180522
  92.6619140  53.7850414  16.9733709  92.6054342  54.2418965  16.1341341
  93.2147483  53.0241098  16.7956552  96.4723946  49.5740145  17.7983828
  96.2160880  49.1736781  18.6292036  95.8476814  50.2883939  17.6733967
 100.7836284  52.3136219  20.3055120 100.2235842  52.3829408  21.0786682
 100.1779787  52.1377203  19.5854616  83.8531493  63.7472946  22.0573306
  83.7363877  64.6918378  21.9551996  83.0323939  63.4446507  22.4459105
  93.7408027  58.4723081  12.9029899  94.5753631  58.0404280  12.7207373
  93.5792370  58.3005095  13.8306793  93.3953920  54.9755195  14.2686238
  93.3402723  54.8099466  13.3274682  92.7699975  55.6831228  14.4248428
  78.1846435  50.2123259  28.0947660  78.8305298  49.7022213  28.5834885
  77.9763586  50.9491941  28.6691085  90.7099827  57.2804107  33.5939801
  91.5790986  57.4544759  33.2326436  90.2306578  58.0998523  33.4715530
  86.7050045  44.4763304  13.8471556  86.6928715  45.4205144  14.0039827
  87.5973467  44.2933449  13.5531018  84.8786007  64.4001208  25.2729234
  85.7813254  64.4324818  25.5895729  84.6523377  63.4701659  25.2875570
  86.6339609  63.1532194  21.9339313  85.6835240  63.1534056  21.8203685
  86.9372095  62.4064929  21.4175348  90.5202165  41.0706080  18.1017493
  89.7534560  40.5164567  18.2474176  90.9312870  41.1427949  18.9631645
  82.5243926  47.3590876  32.1922674  83.3875387  47.0027681  32.4025999
  81.9509336  47.0204771  32.8798079 102.3692303  68.9892733  22.9985075
 103.0070713  68.8699480  22.2948415 102.2513145  69.9373577  23.0573028
  99.1782009  68.9420161  22.9346600  98.8400520  68.8261225  22.0467135
 100.0471777  68.5411326  22.9147606  95.0368825  70.7955637  18.9243491
  94.4733690  70.7045574  18.1559779  94.9221220  69.9755542  19.4045984
  99.6601792  70.0955012  28.8932806  99.6490433  69.7007811  28.0213309
  99.8222431  69.3621085  29.4866577  92.5833256  72.2906829  21.7627712
  93.3754548  71.9497653  21.3474011  92.8229907  72.4001804  22.6829865
 100.6168383  74.4626605  14.2357956  99.9656363  75.0480685  13.8491970
 101.4112746  74.9932800  14.2952993  94.5424010  71.5515742  14.6345090
  95.3154886  71.0044729  14.4957966  94.8949409  72.4159991  14.8459552
  96.3809053  72.8792124  27.8411990  96.0898919  73.7837755  27.7258656
  97.0166037  72.9208652  28.5556059  97.3065260  70.2568973  24.4313349
  97.9028832  70.0324995  23.7170312  97.3640231  69.5153718  25.0338797
  96.8790288  67.7108408  12.2663540  97.1315809  67.1889929  11.5047003
  95.9414847  67.5474553  12.3690224 101.9233571  66.7144186  20.0738283
 102.7096660  66.2963610  19.7228700 102.1872275  67.6190279  20.2419932
 102.0943648  72.1517037  14.7726940 101.4589481  72.2251663  15.4847845
 101.7641055  72.7410636  14.0946020 107.3241998  66.6519420  20.9771262
 108.0567170  66.0818636  21.2109091 106.5681354  66.2641020  21.4177768
  96.5986577  69.6136514  14.4687915  96.4822835  68.9381417  15.1368999
  96.7088837  69.1268888  13.6520068  98.9418118  69.0746661  18.1734604
  98.5776325  68.5477282  18.8847526  99.7985234  68.6845130  18.0001090
 104.8467419  60.3640994  25.4365871 104.5150743  61.2336405  25.2127086
 104.2513032  60.0477278  26.1159901  98.5823605  64.1036561  13.1695953
  98.7498007  64.9716797  13.5366424  98.3920774  64.2663842  12.2457242
 101.3398938  72.5653540  24.8361783 101.0399661  73.4678579  24.7277591
 100.9949998  72.2985723  25.6882936  94.7911420  69.0167337  20.8698488
  93.8661916  68.8843551  21.0776179  95.0395833  69.7961556  21.3668430
 104.7396082  65.0836080  22.5159221 103.8312959  65.0151488  22.2217982
 104.6883678  65.5608025  23.3441046  98.5612826  66.5594218  14.1542620
  98.4412451  67.0051269  14.9928100  97.8665414  66.9079536  13.5956158
  92.1520231  68.6600610  21.7042277  92.2812612  68.9135089  22.6181689
  91.4717682  69.2528318  21.3846932  96.3219718  79.3297860  17.8032751
  96.2443748  80.2805685  17.8821232  95.7181361  78.9843733  18.4607677
  98.8136948  66.5025725  30.4594118  98.0370282  67.0619646  30.4496983
  99.4527511  66.9882508  30.9808988 106.6057728  63.2852518  24.2937095
 105.9632108  63.5785051  23.6476889 106.1012657  63.1705439  25.0990291
 104.2597892  67.0315691  14.9822954 105.1715748  67.2643078  14.8070651
 103.7507539  67.6152736  14.4198032  97.0683320  69.3111179  30.0212085
  97.8098004  69.8496223  29.7446909  96.3620305  69.9377468  30.1783637
 102.5438660  71.4540319  28.6184246 102.9522016  71.0122730  27.8738879
 101.8215921  70.8792947  28.8718439  98.8969730  66.3912926  25.9917803
  99.7430925  66.8152340  26.1352452  98.8368367  65.7346550  26.6856366
 102.8667474  72.0141510  22.3736535 102.2376337  72.1787224  21.6712603
 102.4793136  72.4283119  23.1447499 106.7456706  72.9495948  19.7280899
 106.0607744  73.3294849  19.1777932 106.8300555  73.5591274  20.4612847
 102.0469175  64.0517294  27.6498977 101.8030107  64.8059355  27.1133253
 102.3229105  64.4302642  28.4846224 104.0007638  70.5955907  26.3276243
 104.2124533  71.2387667  25.6510624 103.9537386  69.7618223  25.8598173
 101.6033867  63.2073727  23.2312815 100.7418346  63.5054981  23.5229552
 101.6296301  63.4244126  22.2993847  98.4195436  71.7515918  19.6386620
  98.8833782  72.0303621  18.8491243  98.1552234  70.8499363  19.4559711
  95.3119517  71.2987400  22.5766384  95.8820874  71.7274668  21.9383868
  95.9027629  71.0169984  23.2750569  97.3564322  67.8739070  16.4476185
  98.0588365  68.3260114  16.9150112  97.0244951  67.2322889  17.0756079
  95.8044684  66.4650827  30.8227395  95.1743344  67.1467108  31.0562792
  95.6980772  66.3533909  29.8780533  91.0989656  66.1322623  21.7493319
  90.3088710  66.3880152  21.2733430  91.5900903  66.9470961  21.8545360
 105.1153466  73.4727862  24.4998600 105.9370909  73.0708049  24.2181282
 105.1115869  73.3696096  25.4514716  93.0504401  66.4967202  18.7076796
  92.2535565  66.6085897  19.2260291  92.8229994  66.8353855  17.8417686
  98.8810069  73.0211906  26.6559310  98.9454502  73.4832313  27.4917482
  98.1720993  72.3909270  26.7841620  89.3827359  66.3853113  24.1808310
  89.6335398  67.2700123  24.4465886  89.9186907  66.2057715  23.4083402
 113.2059459  69.8166611  20.8483571 112.4523167  69.2474009  20.6927576
 113.3407000  69.7829275  21.7954206  98.5958087  74.6880013  16.5238291
  98.4603762  75.5331549  16.9523139  99.1367899  74.8899291  15.7604225
  95.0825426  60.7671593  33.1852646  94.6892372  60.2137791  33.8600290
  95.8991567  61.0782171  33.5759163  92.0487484  72.2055451  17.0966216
  92.5612005  72.9998701  17.2471780  92.7010197  71.5081741  17.0299817
  93.8582369  75.3221207  19.1788969  94.0348997  76.2439172  18.9909953
  94.6539202  75.0079627  19.6083349  97.9993387  62.1829472  30.7772902
  98.7403101  62.7836625  30.6977365  98.2311310  61.4407110  30.2190945
  93.1434725  67.3685839  29.0551132  93.0288241  66.4671096  29.3558231
  92.2879243  67.6149536  28.7035949 100.2226563  75.3103580  30.6538633
  99.7790417  74.5239958  30.3359537 100.8843777  75.4982730  29.9882524
  94.9813684  76.8399381  25.1799311  95.5321109  76.7116444  24.4076305
  94.1425160  77.1394270  24.8294204 102.3207801  75.5906379  28.6820034
 102.3026277  76.4115260  28.1900303 103.2427721  75.4660455  28.9070175
  98.7780855  73.1050509  29.5243542  99.3109192  72.3438797  29.2942850
  98.2494936  72.8124161  30.2667697 101.9450550  58.2110575  25.0537184
 101.6014820  59.1012217  24.9776295 102.3129513  58.0212233  24.1906769
  90.0136401  70.5344105  17.8725786  90.8511623  70.9441114  17.6559494
  90.1914669  69.5943548  17.8425980 101.9100833  68.2019186  13.5609619
 101.3947456  68.9723791  13.7998007 101.6378142  67.5284322  14.1842681
  99.4947944  63.0468887  18.6194858  98.6389540  62.6575737  18.4400496
  99.9074896  63.1260848  17.7594643 101.0247091  60.5815230  23.0186417
 100.5211886  60.5445365  22.2054223 101.3177698  61.4907973  23.0783074
  97.2689977  60.6653960  22.0252599  98.1342973  60.4696768  21.6658489
  97.3367486  60.4364312  22.9521956 106.8835107  70.9551541  15.4962793
 106.1064550  70.6162700  15.0517955 107.5626588  70.9604164  14.8217758
 101.6987136  66.0746278  15.3869400 101.3937272  66.3892427  16.2379544
 102.6517578  66.1527698  15.4296733 100.1433568  72.2336501  17.0362354
  99.6154930  71.4989261  16.7235592  99.6421071  73.0111178  16.7902323
 105.1226414  70.4285522  22.1529401 104.4650089  71.1184783  22.2409529
 105.9266813  70.8181954  22.4963387  94.8752296  62.8956168  19.3968966
  95.4496048  62.6731349  18.6642159  95.4623278  62.9644862  20.1497567
 103.9331873  68.7829895  20.2033342 104.4463755  69.4159886  20.7055052
 104.5833097  68.1831090  19.8376703  95.2021883  64.9260629  13.4164851
  94.3659195  65.2635315  13.7374126  95.0626652  64.7909609  12.4791988
  97.1774963  59.7697417  18.1244035  96.5239376  59.4546434  17.5000650
  97.1355438  59.1473157  18.8503858  98.2886168  70.0516712  10.0397327
  97.3813230  69.8205965  10.2388476  98.7857200  69.2554331  10.2271309
 100.4112704  66.2579350  22.4491683  99.4935265  66.4794297  22.2913371
 100.8272847  66.3325661  21.5903390 101.1947752  67.6570766  17.5794363
 101.9419570  68.1692163  17.2701485 101.4639341  67.3354819  18.4398757
  99.4674402  70.1529307  14.5621318  98.5585621  69.8688339  14.6593787
  99.4969486  70.5728385  13.7024624 104.6993669  73.7635896  18.3312485
 104.2455996  72.9226806  18.3877676 104.0687636  74.3997294  18.6687265
 103.6426589  64.6927882  19.5613153 102.9049345  64.1805268  19.8923395
 103.8953362  64.2528264  18.7496429 103.1426608  75.6012393  19.2662303
 103.4349583  76.1617450  18.5474669 103.6525229  75.8940954  20.0215462
 103.7438216  57.4704134  20.1554922 104.0497093  56.6101497  19.8680837
 104.4690821  58.0621754  19.9553916  90.0362572  67.8734821  18.5436520
  89.8386972  67.2804181  17.8187586  89.4809236  67.5687031  19.2612459
  98.0159296  67.7657927  20.6631113  98.0707906  66.8131764  20.5873590
  97.2050498  67.9217366  21.1472411  99.1650490  71.6938050  11.9009396
  98.7269919  70.9773909  11.4415033  99.9060930  71.9214165  11.3394488
  95.9551656  66.3834987  18.4221492  95.1419521  66.6829157  18.8286684
  96.4510650  65.9890676  19.1395974  98.1060234  76.3792744  20.3555756
  98.0636412  76.6053590  19.4264289  99.0222932  76.1456118  20.5041558
 101.5525867  66.8476811  27.2536386 101.9075255  67.0748284  28.1130851
 102.1997999  67.1795188  26.6313641 107.2823604  69.9695247  17.9585715
 107.1441503  70.1596843  17.0306904 106.9259823  70.7314630  18.4153766
  95.4465730  63.9553342  24.0382727  96.0865110  63.8142102  23.3405690
  94.6143261  63.6687856  23.6621329 107.3092984  72.0371774  22.9696986
 107.7429491  71.9447063  23.8180040 108.0224565  72.0129275  22.3317002
  96.2226034  73.2555773  20.1517719  97.0166633  72.7606093  19.9500294
  95.5117727  72.7273636  19.7885425 101.0420879  75.6373868  24.5030087
 101.0957901  76.2064805  25.2707803 100.1735660  75.8075753  24.1384124
  92.5308798  67.3998855  16.2277472  91.6006386  67.3383310  16.4447434
  92.6266270  66.8774807  15.4314113  92.4494347  63.9253667  18.8155714
  92.7101164  64.8399001  18.7064874  93.2711519  63.4578110  18.9652326
  93.9219272  65.3391425  25.9854538  94.5942326  65.1308787  25.3367187
  93.0949059  65.1413511  25.5459770 108.1708533  72.0795475  25.5029872
 108.3644424  72.9841285  25.7489147 108.0709152  71.6202894  26.3368457
  99.8244844  61.9653365  28.0020199  99.1772759  62.6643315  27.9084675
 100.5945860  62.3989509  28.3696447 103.2323642  72.2302218  31.0770752
 103.0809149  72.0012769  30.1600836 103.2228322  73.1872819  31.0902097
 100.0008979  69.8034130  26.0617019 100.9301039  69.9545290  25.8885986
  99.5800009  69.8918151  25.2065665  98.7997310  73.8284795  23.8315556
  98.6608396  73.4603579  24.7041494  98.0111907  74.3432434  23.6599514
  99.3945462  78.9293891  15.1741093  99.5697218  78.4581934  15.9886716
  98.7078250  79.5559657  15.4022354 100.3502525  73.2066398  21.2204394
 100.0152358  73.1667167  22.1162044  99.8506471  72.5411113  20.7474804
  94.3246769  68.6134028  26.7456975  94.1866567  67.8814266  27.3468514
  95.2351693  68.5242928  26.4641163 103.2861717  70.5522432  11.4941454
 102.6690888  69.8269260  11.3974506 102.8178206  71.3131792  11.1508528
  96.9529070  68.3253987  26.2340655  97.6628689  67.6847179  26.1927273
  96.9098378  68.5766882  27.1566836 104.9415849  75.2621340  29.1547234
 104.8828395  74.5780560  28.4877817 105.3435367  76.0040330  28.7027860
  95.6658004  65.3119205  28.0536294  95.1295361  64.8609943  28.7057891
  95.0774713  65.4465114  27.3106759  93.9606548  82.0783254  21.9480953
  94.2003146  82.7101778  22.6259972  93.1175744  81.7271294  22.2346312
  95.0760263  64.7707856  10.6162758  94.1989729  64.6496657  10.2525005
  95.5518016  63.9793934  10.3641647 104.9433256  73.2260924  27.3861214
 104.0560035  72.8886846  27.5087613 105.5131807  72.4943955  27.6229979
  86.5962403  69.5585016  20.7104265  87.2833443  69.2446746  20.1225280
  86.4410532  70.4626381  20.4371517  91.3997125  64.4475212  25.1389289
  91.3155314  63.8400882  24.4039699  90.5779832  64.9384231  25.1398785
  98.4734409  77.8862376  24.3522457  98.4004581  78.6917348  24.8641762
  98.0311803  78.0854342  23.5270478  98.2624189  77.1234147  17.8625279
  97.4791711  77.6655827  17.9563503  98.9616934  77.6408126  18.2619520
 101.5720839  62.9328776  20.5059484 102.0689539  62.1798738  20.1860554
 100.8007821  62.9693093  19.9402693 109.4250597  68.6369142  22.1477775
 109.4140473  69.5193857  21.7771709 108.5567976  68.2840692  21.9532312
 100.9333093  77.7849211  26.5080616 101.6461065  78.4196675  26.4356517
 100.4423122  77.8813077  25.6920617 102.6550620  71.6900463  18.0797907
 101.7206899  71.8101926  17.9102612 102.8327288  70.7872930  17.8157917
  98.1555808  65.0746159  20.2331169  97.7853595  64.5217199  20.9212074
  98.6514900  64.4704292  19.6806169 106.0423171  67.5317782  18.6147941
 106.5083623  68.3645774  18.5408244 106.4930672  67.0662764  19.3193200
  95.9845006  75.5343654  27.3286186  96.6854466  76.1680137  27.4815581
  95.5140121  75.8758386  26.5681826 104.1099402  73.8761604  15.6134093
 104.3859246  73.7618198  16.5227968 103.2403901  73.4779089  15.5746267
 104.0139834  59.8998369  22.6538843 103.1002914  60.1302596  22.8221050
 104.4432935  59.9836814  23.5052875 103.7846292  68.0888261  25.1538737
 103.1317743  68.3364169  24.4991190 104.1626672  67.2752400  24.8201214
 100.7453466  78.1247955  19.2566907 100.9275861  77.3069611  19.7194659
 101.5686452  78.3415647  18.8191797 101.0795632  77.0516140  16.5181956
 101.6083398  76.5408594  15.9052118 101.3423851  76.7358670  17.3827489
  99.8333865  68.8308072  31.6404774  99.1574503  68.7302202  32.3107149
 100.6561499  68.6747286  32.1040771  91.5812725  75.0680009  24.2617289
  92.1666161  74.3223697  24.3945193  91.3837563  75.3783966  25.1453953
  94.4351380  78.1031256  19.2779732  93.7661755  78.5877384  18.7943772
  94.2964249  78.3500477  20.1923110  86.1730379  67.6385609  22.9821732
  86.2114479  67.1049200  23.7758850  85.6670672  67.1120815  22.3632709
  98.5756648  80.1375000  25.8762390  99.1274956  80.3006621  26.6411475
  98.9162842  80.7279438  25.2042415  93.5521142  62.4850150  26.4784275
  93.6162468  63.3464981  26.0661672  93.4888262  61.8724151  25.7456633
  93.0273414  64.5573282  30.1257309  93.6545453  64.1750360  30.7394833
  92.1701333  64.3387484  30.4913001 103.4267523  74.9636257  31.7311044
 103.9707427  75.5766216  31.2365999 102.8454368  75.5215836  32.2478057
  89.8038957  66.3649711  16.0575664  90.0992398  65.4560390  16.0042717
  88.9026993  66.3437451  15.7356666 101.7125036  78.0856975  22.8626072
 101.5876175  77.2846715  22.3537018 102.3704127  78.5803169  22.3740042
  93.3333204  64.4405708  22.0403212  92.6119790  65.0541676  21.9010686
  94.1226460  64.9763473  21.9619858 103.7759944  75.8865996  24.4905622
 102.8290280  75.7671347  24.4183949 104.1242717  74.9988494  24.5731884
  96.1359517  61.7760134  28.3143864  96.6593919  62.0222431  29.0770173
  95.9171851  62.6080169  27.8947001  91.5326798  64.0463809  16.1814989
  91.2039505  63.1661188  15.9990095  91.8866169  63.9911478  17.0691378
 100.7806377  75.6818712  20.6909974 100.6331340  74.7535419  20.8717544
 101.6059871  75.7038802  20.2067050  94.6468622  64.3336779  16.5490467
  94.9864694  64.8622700  15.8269075  95.0940742  64.6717185  17.3249033
 104.3840499  76.5047270  21.7774847 105.3087047  76.2990132  21.6399298
 104.2155803  76.2563672  22.6864189  97.3412062  62.7173830  25.9993535
  97.0008883  61.9181643  26.4014214  96.6351069  63.0175540  25.4270368
  97.9928534  59.8023142  24.4520858  98.8154604  59.3283620  24.3299748
  98.2366598  60.5813626  24.9519544  96.6336769  62.8311400  14.7483759
  97.3545131  63.2092653  14.2447476  96.0102073  63.5500277  14.8518737
 100.7767892  63.5356549  15.6842092 100.9931506  64.4181187  15.3830920
 100.2961959  63.1442763  14.9547734  95.5167113  66.4942263  22.2612836
  95.3711694  66.8082566  23.1537118  95.0392317  67.1127163  21.7083735
  97.3763496  63.4844811  22.3093726  97.3625065  62.5885904  21.9726024
  98.0935924  63.4915474  22.9432012  99.2289627  63.9182151  24.3546853
  98.9707404  64.8399221  24.3531184  98.6974667  63.5212585  25.0447317
 104.1735815  77.0232938  17.1336939 104.3472693  76.4579360  16.3810791
 104.6664707  77.8233833  16.9516429  89.9912775  69.0347607  25.2000497
  89.4466243  69.8107415  25.3320772  90.8692125  69.3818412  25.0419619
  96.7800392  62.3659191  17.5781296  96.9016303  61.4375837  17.7772183
  96.4902434  62.3797877  16.6659611  99.6491582  60.0514101  20.7148016
  99.6713279  60.1153434  19.7599995 100.0659641  59.2118610  20.9088522
 110.0275207  69.7869361  18.7527238 110.4706353  69.0376686  18.3546362
 109.1501717  69.7779497  18.3700970 105.1610988  76.3399702  14.2333837
 105.8561892  76.9606395  14.4521151 105.5034138  75.4895054  14.5086215
  90.7778797  68.1617503  28.0930654  90.0360533  68.3100139  28.6795285
  90.4571541  68.4225769  27.2297404 107.0602411  73.7899408  15.7621168
 107.5853735  74.1286681  15.0370488 106.9724764  72.8546423  15.5784302
  98.7222460  77.7033482  27.8911044  99.0309586  77.4582628  28.7633744
  99.5197942  77.9080120  27.4029914  98.7443072  79.8571391  20.1216421
  98.3048062  79.3647770  20.8149278  99.4951189  79.3144359  19.8808496
  91.2235411  76.0482932  20.1241049  92.0493431  75.7486704  19.7439692
  90.8729463  75.2790554  20.5730838  96.1916944  75.4009400  22.1938722
  95.5696953  74.7380105  21.8940950  96.8621811  75.4270532  21.5112370
  89.4244016  73.9669258  21.0829982  88.5875924  73.5391433  20.9013984
  89.3967661  74.1601702  22.0200774  96.2641471  63.8791188  31.7871229
  96.3129627  64.7553311  31.4048998  96.8063986  63.3368581  31.2142872
 106.7496317  74.4232312  31.0672366 105.9591861  74.4056450  30.5276865
 106.5129672  74.9620605  31.8221402 106.8694192  71.2724778  28.3805094
 106.9192197  71.1074785  29.3220617 106.7608115  70.4052037  27.9902975
  95.7530451  73.9513324  15.6697183  95.9018571  74.6348788  15.0163856
  96.5596894  73.9318414  16.1846639 104.1597954  67.2555706  29.6964401
 105.0607817  67.1162171  29.4048399 104.2345929  67.4210161  30.6362578
  98.4940760  64.6322561  28.5417587  97.6244069  64.9256127  28.2700176
  98.7300240  65.2163006  29.2624851 108.3712389  73.6921719  28.6247116
 108.0797197  74.0551700  29.4610577 107.7584520  72.9788728  28.4460448
 109.5708071  71.2574599  21.1449686 110.4054963  71.6964403  21.3087246
 109.7067200  70.7813252  20.3257932 106.6199577  68.8154334  27.0927174
 107.0953699  69.0081980  26.2846025 105.6965143  68.8713520  26.8470557
  93.5083084  69.9778501  16.6758252  93.2629126  69.0740831  16.8738462
  93.6778998  69.9795652  15.7337730 101.1979794  60.8502178  26.0583008
 101.7161738  61.5863205  25.7329496 100.8434926  61.1566171  26.8929767
  92.7778731  65.7106859  14.1744413  92.0847976  65.7851214  13.5184449
  92.5330483  64.9467202  14.6965930 101.4492388  57.2702460  21.5783904
 101.7294142  56.6025649  22.2044331 102.2342995  57.4631556  21.0658568
  99.2525856  76.4461454  13.1408930  98.6799823  77.0651641  12.6879402
  99.8258650  76.9960816  13.6748852 105.3201246  65.6920094  25.3255479
 106.2718669  65.7918192  25.3467703 105.1504697  64.8998363  25.8353564
 103.3415626  62.7775677  25.5114880 102.7465558  63.0580690  24.8161369
 103.0565322  63.2669578  26.2831621 102.4723116  76.7298604  14.2717513
 103.4053789  76.6644166  14.4750388 102.3846329  77.5654871  13.8132045
 107.7989324  68.9126214  24.4397779 107.7665644  67.9742215  24.6257463
 108.4089948  68.9910251  23.7063604  99.6372655  67.7822267  10.4824983
 100.5831760  67.6528475  10.5513401  99.2586900  67.0436929  10.9594411
 107.9483812  65.7037257  24.4856062 107.4322861  64.9195714  24.2985991
 108.8323761  65.3755974  24.6502582 105.6094539  59.4478273  20.4451875
 105.4119360  59.1393361  21.3295207 106.2194245  60.1739912  20.5749805
 113.6165874  69.9742221  23.5803816 114.3469262  69.7127509  24.1411519
 113.0072819  69.2370943  23.6205884 111.6981171  68.1150083  24.1778267
 110.9714335  67.9806048  23.5694758 111.2828458  68.4226912  24.9834985
  99.5211347  71.8340013  31.9425640 100.4414357  72.0118612  32.1365686
  99.4860930  70.8896058  31.7905339  97.8215572  65.7072243  10.4179868
  96.9147027  65.4105356  10.4942582  98.0991553  65.4102061   9.5514154
  88.7393512  67.0278607  20.8678915  88.4196297  66.1743915  20.5753289
  88.1926941  67.2427185  21.6236882  92.5173420  69.7441048  24.5848421
  92.7359430  70.6758155  24.6036455  92.9299194  69.3849022  25.3703225
  99.4377638  60.2509133  16.5724109  98.6278366  59.9056218  16.9479356
 100.1262055  59.9416677  17.1611721 101.3668186  59.3287180  18.1948406
 101.9199225  59.7482633  18.8538429 101.6038272  58.4022928  18.2371362
  97.3901285  65.3174253  33.9751170  97.2898012  66.2668610  33.9063261
  97.1722827  64.9892492  33.1027240  96.5914357  62.5659178  10.5591847
  97.4533521  62.8914077  10.8187665  96.7764701  61.7790674  10.0464913
  88.6081772  70.6481518  22.8372036  87.9145244  70.2335471  22.3241991
  89.3554763  70.6902055  22.2405455 104.7446993  61.4387705  17.7027070
 104.1645662  62.0972509  17.3205123 104.4782926  60.6165049  17.2914488
 103.1950559  60.8392763  19.9048391 103.6950338  60.9509297  19.0962710
 103.8386167  60.5353815  20.5449199  97.2532555  68.7471392  32.7916232
  96.7699637  69.5471752  32.9980121  97.3393494  68.7579337  31.8383676
  90.5218515  70.5799772  20.7138051  90.4989203  70.6787459  19.7619934
  90.8319151  71.4264923  21.0355217  93.1805893  72.6375927  24.8284665
  94.1349146  72.6059869  24.7614597  92.9818416  72.1766551  25.6434891
  93.7705275  71.2077043  27.3955463  94.5898164  71.7021122  27.4190300
  94.0442083  70.2909011  27.3673031 103.5271871  63.5987795  16.7583419
 102.6397726  63.8837446  16.5403613 103.9425860  63.4381559  15.9110696
 106.8786407  63.6234316  20.4737758 107.6546797  64.1130769  20.7462375
 106.1534541  64.0492370  20.9309627 109.3158966  64.3361935  21.5311698
 109.9103457  64.0957671  20.8205007 109.3885550  63.6169066  22.1585235
  91.5356122  78.1795546  21.8454863  91.4010589  77.4195947  21.2792861
  91.1188184  78.9036446  21.3783652 102.6715085  73.3632470  10.8531439
 103.3750935  73.5682472  11.4689094 101.9477733  73.9309232  11.1180522
 103.5012895  69.1142331  16.9733709 103.4448096  69.5710883  16.1341341
 104.0541237  68.3533016  16.7956552 107.3117701  64.9032063  17.7983828
 107.0554635  64.5028699  18.6292036 106.6870569  65.6175857  17.6733967
 111.6230039  67.6428136  20.3055120 111.0629597  67.7121326  21.0786682
 111.0173542  67.4669121  19.5854616  94.6925247  79.0764863  22.0573306
  94.5757632  80.0210296  21.9551996  93.8717694  78.7738425  22.4459105
 104.5801782  73.8014999  12.9029899 105.4147386  73.3696198  12.7207373
 104.4186125  73.6297013  13.8306793 104.2347674  70.3047112  14.2686238
 104.1796478  70.1391384  13.3274682 103.6093729  71.0123145  14.4248428
  89.0240189  65.5415177  28.0947660  89.6699053  65.0314131  28.5834885
  88.8157340  66.2783858  28.6691085 101.5493581  72.6096024  33.5939801
 102.4184741  72.7836677  33.2326436 101.0700333  73.4290441  33.4715530
  97.5443800  59.8055221  13.8471556  97.5322469  60.7497061  14.0039827
  98.4367221  59.6225367  13.5531018  95.7179762  79.7293125  25.2729234
  96.6207008  79.7616736  25.5895729  95.4917132  78.7993576  25.2875570
  97.4733364  78.4824112  21.9339313  96.5228995  78.4825973  21.8203685
  97.7765850  77.7356846  21.4175348 101.3595919  56.3997998  18.1017493
 100.5928315  55.8456485  18.2474176 101.7706624  56.4719867  18.9631645
  93.3637680  62.6882794  32.1922674  94.2269142  62.3319599  32.4025999
  92.7903091  62.3496689  32.8798079 113.2086057  84.3184650  22.9985075
 113.8464467  84.1991398  22.2948415 113.0906900  85.2665494  23.0573028
 110.0175763  84.2712078  22.9346600 109.6794275  84.1553143  22.0467135
 110.8865532  83.8703243  22.9147606 110.4995546  85.4246930  28.8932806
 110.4884187  85.0299728  28.0213309 110.6616186  84.6913003  29.4866577
 103.4227011  87.6198746  21.7627712 104.2148303  87.2789571  21.3474011
 103.6623661  87.7293721  22.6829865 107.2202807  88.2084042  27.8411990
 106.9292673  89.1129673  27.7258656 107.8559792  88.2500569  28.5556059
 108.1459014  85.5860890  24.4313349 108.7422587  85.3616913  23.7170312
 108.2033986  84.8445636  25.0338797 112.7627326  82.0436104  20.0738283
 113.5490415  81.6255527  19.7228700 113.0266030  82.9482196  20.2419932
 115.6861173  75.6932911  25.4365871 115.3544498  76.5628322  25.2127086
 115.0906786  75.3769195  26.1159901 112.1792693  87.8945457  24.8361783
 111.8793416  88.7970496  24.7277591 111.8343752  87.6277641  25.6882936
 105.6305174  84.3459254  20.8698488 104.7055671  84.2135468  21.0776179
 105.8789587  85.1253473  21.3668430 115.5789836  80.4127998  22.5159221
 114.6706714  80.3443406  22.2217982 115.5277432  80.8899942  23.3441046
 102.9913985  83.9892528  21.7042277 103.1206366  84.2427007  22.6181689
 102.3111436  84.5820236  21.3846932 109.6530702  81.8317643  30.4594118
 108.8764036  82.3911563  30.4496983 110.2921265  82.3174426  30.9808988
 117.4451483  78.6144436  24.2937095 116.8025863  78.9076969  23.6476889
 116.9406411  78.4997356  25.0990291 107.9077074  84.6403097  30.0212085
 108.6491759  85.1788140  29.7446909 107.2014060  85.2669385  30.1783637
 113.3832414  86.7832237  28.6184246 113.7915770  86.3414647  27.8738879
 112.6609676  86.2084864  28.8718439 109.7363484  81.7204844  25.9917803
 110.5824679  82.1444257  26.1352452 109.6762122  81.0638468  26.6856366
 112.8862929  79.3809212  27.6498977 112.6423861  80.1351273  27.1133253
 113.1622860  79.7594560  28.4846224 114.8401392  85.9247824  26.3276243
 115.0518287  86.5679584  25.6510624 114.7931140  85.0910141  25.8598173
 112.4427621  78.5365645  23.2312815 111.5812100  78.8346899  23.5229552
 112.4690056  78.7536044  22.2993847 106.1513272  86.6279317  22.5766384
 106.7214629  87.0566586  21.9383868 106.7421383  86.3461902  23.2750569
 106.6438438  81.7942745  30.8227395 106.0137099  82.4759026  31.0562792
 106.5374526  81.6825826  29.8780533 101.9383411  81.4614541  21.7493319
 101.1482465  81.7172069  21.2733430 102.4294658  82.2762879  21.8545360
 103.8898156  81.8259120  18.7076796 103.0929319  81.9377814  19.2260291
 103.6623748  82.1645772  17.8417686 109.7203824  88.3503823  26.6559310
 109.7848256  88.8124230  27.4917482 109.0114747  87.7201188  26.7841620
 100.2221114  81.7145031  24.1808310 100.4729152  82.5992041  24.4465886
 100.7580662  81.5349633  23.4083402 105.9219181  76.0963511  33.1852646
 105.5286126  75.5429709  33.8600290 106.7385321  76.4074089  33.5759163
 108.8387142  77.5121390  30.7772902 109.5796855  78.1128543  30.6977365
 109.0705065  76.7699027  30.2190945 103.9828480  82.6977757  29.0551132
 103.8681995  81.7963014  29.3558231 103.1272998  82.9441454  28.7035949
 111.0620318  90.6395497  30.6538633 110.6184172  89.8531876  30.3359537
 111.7237531  90.8274648  29.9882524 105.8207439  92.1691299  25.1799311
 106.3714864  92.0408362  24.4076305 104.9818915  92.4686188  24.8294204
 113.1601556  90.9198297  28.6820034 113.1420031  91.7407178  28.1900303
 114.0821476  90.7952372  28.9070175 109.6174610  88.4342427  29.5243542
 110.1502947  87.6730715  29.2942850 109.0888691  88.1416078  30.2667697
 112.7844305  73.5402493  25.0537184 112.4408574  74.4304134  24.9776295
 113.1523267  73.3504150  24.1906769 100.8530155  85.8636023  17.8725786
 101.6905377  86.2733031  17.6559494 101.0308423  84.9235465  17.8425980
 110.3341699  78.3760804  18.6194858 109.4783295  77.9867655  18.4400496
 110.7468650  78.4552765  17.7594643 111.8640845  75.9107148  23.0186417
 111.3605641  75.8737283  22.2054223 112.1571452  76.8199890  23.0783074
 108.1083731  75.9945877  22.0252599 108.9736728  75.7988686  21.6658489
 108.1761240  75.7656229  22.9521956 105.7146050  78.2248085  19.3968966
 106.2889802  78.0023267  18.6642159 106.3017033  78.2936780  20.1497567
 108.0168718  75.0989334  18.1244035 107.3633130  74.7838351  17.5000650
 107.9749192  74.4765075  18.8503858 111.2506458  81.5871268  22.4491683
 110.3329020  81.8086215  22.2913371 111.6666602  81.6617578  21.5903390
 114.5831970  72.7996052  20.1554922 114.8890847  71.9393415  19.8680837
 115.3084575  73.3913672  19.9553916 100.8756327  83.2026738  18.5436520
 100.6780726  82.6096099  17.8187586 100.3202991  82.8978949  19.2612459
 108.8553050  83.0949845  20.6631113 108.9101660  82.1423681  20.5873590
 108.0444252  83.2509284  21.1472411 106.7945410  81.7126905  18.4221492
 105.9813276  82.0121075  18.8286684 107.2904404  81.3182593  19.1395974
 112.3919622  82.1768729  27.2536386 112.7469010  82.4040202  28.1130851
 113.0391753  82.5087106  26.6313641 106.2859485  79.2845260  24.0382727
 106.9258864  79.1434019  23.3405690 105.4537015  78.9979773  23.6621329
 111.8814633  90.9665786  24.5030087 111.9351656  91.5356722  25.2707803
 111.0129415  91.1367671  24.1384124 103.2888101  79.2545585  18.8155714
 103.5494919  80.1690918  18.7064874 104.1105274  78.7870028  18.9652326
 104.7613027  80.6683342  25.9854538 105.4336080  80.4600704  25.3367187
 103.9342813  80.4705428  25.5459770 110.6638599  77.2945283  28.0020199
 110.0166514  77.9935233  27.9084675 111.4339614  77.7281427  28.3696447
 114.0717397  87.5594135  31.0770752 113.9202903  87.3304687  30.1600836
 114.0622076  88.5164737  31.0902097 110.8402733  85.1326048  26.0617019
 111.7694793  85.2837208  25.8885986 110.4193763  85.2210069  25.2065665
 109.6391065  89.1576712  23.8315556 109.5002151  88.7895497  24.7041494
 108.8505661  89.6724352  23.6599514 105.1640524  83.9425945  26.7456975
 105.0260322  83.2106184  27.3468514 106.0745447  83.8534845  26.4641163
 107.7922825  83.6545905  26.2340655 108.5022443  83.0139097  26.1927273
 107.7492133  83.9058799  27.1566836 115.7809603  90.5913258  29.1547234
 115.7222149  89.9072478  28.4877817 116.1829122  91.3332248  28.7027860
 106.5051759  80.6411122  28.0536294 105.9689116  80.1901861  28.7057891
 105.9168467  80.7757031  27.3106759 115.7827011  88.5552842  27.3861214
 114.8953789  88.2178764  27.5087613 116.3525562  87.8235873  27.6229979
  97.4356158  84.8876934  20.7104265  98.1227197  84.5738664  20.1225280
  97.2804286  85.7918298  20.4371517 102.2390880  79.7767130  25.1389289
 102.1549069  79.1692800  24.4039699 101.4173586  80.2676148  25.1398785
 112.4114594  78.2620694  20.5059484 112.9083293  77.5090656  20.1860554
 111.6401575  78.2985010  19.9402693 111.7726847  93.1141128  26.5080616
 112.4854820  93.7488593  26.4356517 111.2816876  93.2104994  25.6920617
 108.9949562  80.4038077  20.2331169 108.6247350  79.8509117  20.9212074
 109.4908655  79.7996210  19.6806169 106.8238761  90.8635572  27.3286186
 107.5248220  91.4972055  27.4815581 106.3533876  91.2050303  26.5681826
 114.8533588  75.2290287  22.6538843 113.9396668  75.4594514  22.8221050
 115.2826690  75.3128731  23.5052875 114.6240047  83.4180179  25.1538737
 113.9711497  83.6656087  24.4991190 115.0020427  82.6044317  24.8201214
 110.6727620  84.1599990  31.6404774 109.9968257  84.0594119  32.3107149
 111.4955254  84.0039204  32.1040771 102.4206479  90.3971927  24.2617289
 103.0059916  89.6515615  24.3945193 102.2231318  90.7075883  25.1453953
  97.0124134  82.9677527  22.9821732  97.0508233  82.4341118  23.7758850
  96.5064427  82.4412732  22.3632709 104.3914896  77.8142067  26.4784275
 104.4556223  78.6756898  26.0661672 104.3282016  77.2016069  25.7456633
 103.8667169  79.8865200  30.1257309 104.4939207  79.5042277  30.7394833
 103.0095087  79.6679402  30.4913001 114.2661277  90.2928175  31.7311044
 114.8101181  90.9058133  31.2365999 113.6848122  90.8507754  32.2478057
 100.6432711  81.6941629  16.0575664 100.9386152  80.7852307  16.0042717
  99.7420747  81.6729369  15.7356666 104.1726958  79.7697626  22.0403212
 103.4513544  80.3833593  21.9010686 104.9620214  80.3055390  21.9619858
 106.9753272  77.1052052  28.3143864 107.4987674  77.3514349  29.0770173
 106.7565605  77.9372087  27.8947001 102.3720553  79.3755727  16.1814989
 102.0433259  78.4953106  15.9990095 102.7259924  79.3203395  17.0691378
 105.4862376  79.6628697  16.5490467 105.8258449  80.1914618  15.8269075
 105.9334497  80.0009103  17.3249033 108.1805817  78.0465747  25.9993535
 107.8402637  77.2473560  26.4014214 107.4744823  78.3467458  25.4270368
 108.8322289  75.1315060  24.4520858 109.6548358  74.6575538  24.3299748
 109.0760352  75.9105543  24.9519544 106.3560868  81.8234180  22.2612836
 106.2105448  82.1374483  23.1537118 105.8786071  82.4419081  21.7083735
 108.2157250  78.8136728  22.3093726 108.2018819  77.9177822  21.9726024
 108.9329679  78.8207392  22.9432012 110.0683381  79.2474069  24.3546853
 109.8101159  80.1691139  24.3531184 109.5368421  78.8504503  25.0447317
 100.8306530  84.3639525  25.2000497 100.2859998  85.1399333  25.3320772
 101.7085880  84.7110329  25.0419619 107.6194146  77.6951109  17.5781296
 107.7410058  76.7667755  17.7772183 107.3296189  77.7089795  16.6659611
 110.4885337  75.3806019  20.7148016 110.5107034  75.4445352  19.7599995
 110.9053396  74.5410528  20.9088522 101.6172552  83.4909421  28.0930654
 100.8754288  83.6392056  28.6795285 101.2965296  83.7517687  27.2297404
 109.5616214  93.0325399  27.8911044 109.8703341  92.7874546  28.7633744
 110.3591696  93.2372038  27.4029914 100.2637770  89.2961176  21.0829982
  99.4269679  88.8683351  20.9013984 100.2361416  89.4893620  22.0200774
 107.1035226  79.2083106  31.7871229 107.1523381  80.0845229  31.4048998
 107.6457740  78.6660499  31.2142872 117.5890072  89.7524229  31.0672366
 116.7985615  89.7348368  30.5276865 117.3523426  90.2912523  31.8221402
 117.7087947  86.6016696  28.3805094 117.7585952  86.4366703  29.3220617
 117.6001870  85.7343955  27.9902975 114.9991709  82.5847624  29.6964401
 115.9001572  82.4454088  29.4048399 115.0739683  82.7502078  30.6362578
 109.3334514  79.9614478  28.5417587 108.4637824  80.2548044  28.2700176
 109.5693995  80.5454923  29.2624851 119.2106143  89.0213637  28.6247116
 118.9190952  89.3843618  29.4610577 118.5978275  88.3080645  28.4460448
 117.4593332  84.1446252  27.0927174 117.9347453  84.3373898  26.2846025
 116.5358897  84.2005438  26.8470557 112.0373548  76.1794095  26.0583008
 112.5555492  76.9155122  25.7329496 111.6828681  76.4858089  26.8929767
 112.2886142  72.5994378  21.5783904 112.5687896  71.9317567  22.2044331
 113.0736749  72.7923473  21.0658568 116.1595001  81.0212012  25.3255479
 117.1112424  81.1210109  25.3467703 115.9898451  80.2290280  25.8353564
 114.1809380  78.1067595  25.5114880 113.5859312  78.3872608  24.8161369
 113.8959077  78.5961496  26.2831621 118.6383078  84.2418132  24.4397779
 118.6059399  83.3034132  24.6257463 119.2483702  84.3202168  23.7063604
 118.7877567  81.0329175  24.4856062 118.2716616  80.2487632  24.2985991
 119.6717515  80.7047892  24.6502582 116.4488294  74.7770191  20.4451875
 116.2513115  74.4685279  21.3295207 117.0587999  75.5031829  20.5749805
 110.3605102  87.1631931  31.9425640 111.2808111  87.3410530  32.1365686
 110.3254685  86.2187976  31.7905339  99.5787267  82.3570524  20.8678915
  99.2590051  81.5035832  20.5753289  99.0320695  82.5719102  21.6236882
 103.3567174  85.0732965  24.5848421 103.5753184  86.0050073  24.6036455
 103.7692948  84.7140940  25.3703225 110.2771392  75.5801051  16.5724109
 109.4672121  75.2348136  16.9479356 110.9655809  75.2708594  17.1611721
 112.2061940  74.6579097  18.1948406 112.7592979  75.0774551  18.8538429
 112.4432027  73.7314845  18.2371362 108.2295040  80.6466171  33.9751170
 108.1291767  81.5960528  33.9063261 108.0116582  80.3184410  33.1027240
  99.4475527  85.9773436  22.8372036  98.7538998  85.5627389  22.3241991
 100.1948518  86.0193972  22.2405455 114.0344314  76.1684680  19.9048391
 114.5344092  76.2801215  19.0962710 114.6779922  75.8645733  20.5449199
 108.0926310  84.0763310  32.7916232 107.6093391  84.8763670  32.9980121
 108.1787249  84.0871255  31.8383676 101.3612269  85.9091690  20.7138051
 101.3382957  86.0079377  19.7619934 101.6712906  86.7556840  21.0355217
 104.0199647  87.9667845  24.8284665 104.9742901  87.9351787  24.7614597
 103.8212171  87.5058468  25.6434891 104.6099029  86.5368961  27.3955463
 105.4291918  87.0313039  27.4190300 104.8835837  85.6200929  27.3673031
 117.7180162  78.9526234  20.4737758 118.4940552  79.4422686  20.7462375
 116.9928296  79.3784288  20.9309627  99.8633944  80.8707094  28.0947660
 100.5092807  80.3606048  28.5834885  99.6551095  81.6075776  28.6691085
 112.3887336  87.9387942  33.5939801 113.2578495  88.1128594  33.2326436
 111.9094087  88.7582359  33.4715530 106.5573516  95.0585043  25.2729234
 107.4600763  95.0908653  25.5895729 106.3310886  94.1285494  25.2875570
 112.1989674  71.7289916  18.1017493 111.4322069  71.1748402  18.2474176
 112.6100379  71.8011785  18.9631645 104.2031435  78.0174712  32.1922674
 105.0662896  77.6611516  32.4025999 103.6296845  77.6788606  32.8798079
 116.7612935  91.4255428  33.1852646 116.3679881  90.8721627  33.8600290
 117.5779076  91.7366007  33.5759163 119.6780896  92.8413307  30.7772902
 120.4190610  93.4420460  30.6977365 119.9098819  92.0990945  30.2190945
 114.7060923  95.2157118  30.1257309 115.3332962  94.8334195  30.7394833
 113.8488842  94.9971320  30.4913001 117.9428980  94.5375024  31.7871229
 117.9917136  95.4137146  31.4048998 118.4851495  93.9952417  31.2142872
 119.0688794  95.9758089  33.9751170 118.9685521  96.9252446  33.9063261
 118.8510336  95.6476328  33.1027240 110.7027698  96.1999012  28.0947660
 111.3486562  95.6897966  28.5834885 110.4944849  96.9367694  28.6691085
 115.0425189  93.3466629  32.1922674 115.9056651  92.9903434  32.4025999
 114.4690600  93.0080524  32.8798079  67.7045301   6.3289949  17.3783939
  67.2609155   5.5426328  17.0604844  68.3662515   6.5169100  16.7127830
  69.8026539   6.6092749  15.4065341  69.7845014   7.4301630  14.9145610
  70.7246459   6.4846824  15.6315482  70.7142380   3.2488587  17.8016059
  70.5627886   3.0199139  16.8846143  70.7047059   4.2059189  17.8147404
  72.4234587   6.2807710  15.8792541  72.3647133   5.5966930  15.2123124
  72.8254105   7.0226700  15.4273167  70.9086260   5.9822627  18.4556351
  71.4526164   6.5952585  17.9611306  70.3273105   6.5402205  18.9723364
  74.2315055   5.4418681  17.7917672  73.4410599   5.4242820  17.2522172
  73.9948409   5.9806975  18.5466709  75.8531127   4.7108089  15.3492422
  75.5615935   5.0738070  16.1855883  75.2403258   3.9975097  15.1705754
  69.0312319   3.6282394  20.3185107  69.9003479   3.8023046  19.9571742
  68.5519071   4.4476811  20.1960837  80.6904795  15.3371020   9.7230382
  81.3283205  15.2177767   9.0193722  80.5725638  16.2851864   9.7818334
  77.4994501  15.2898448   9.6591907  77.1613013  15.1739513   8.7712442
  78.3684269  14.8889613   9.6392913  77.9814284  16.4433300  15.6178112
  77.9702925  16.0486098  14.7458616  78.1434924  15.7099372  16.2111884
  70.9045749  18.6385116   8.4873018  71.6967041  18.2975941   8.0719317
  71.1442399  18.7480091   9.4075171  74.7021545  19.2270411  14.5657296
  74.4111411  20.1316042  14.4503963  75.3378530  19.2686939  15.2801366
  75.6277752  16.6047260  11.1558656  76.2241324  16.3803282  10.4415619
  75.6852724  15.8632005  11.7584104  83.1679911   6.7119281  12.1611177
  82.8363236   7.5814692  11.9372392  82.5725524   6.3955565  12.8405208
  79.6611430  18.9131827  11.5607090  79.3612153  19.8156866  11.4522897
  79.3162490  18.6464010  12.4128243  83.0608574  11.4314367   9.2404527
  82.1525451  11.3629776   8.9463288  83.0096170  11.9086312  10.0686353
  74.6432210  25.6776147   4.5278058  74.5656240  26.6283972   4.6066538
  74.0393854  25.3322020   5.1852984  77.1349440  12.8504013  17.1839425
  76.3582774  13.4097933  17.1742289  77.7740003  13.3360796  17.7054295
  84.9270221   9.6330806  11.0182401  84.2844601   9.9263339  10.3722196
  84.4225149   9.5183726  11.8235598  75.3895812  15.6589466  16.7457392
  76.1310497  16.1974510  16.4692215  74.6832798  16.2855755  16.9028943
  80.8651152  17.8018607  15.3429553  81.2734508  17.3601017  14.5984185
  80.1428413  17.2271234  15.5963746  77.2182222  12.7391213  12.7163110
  78.0643417  13.1630627  12.8597759  77.1580860  12.0824838  13.4101673
  81.1879967  18.3619797   9.0981842  80.5588829  18.5265511   8.3957910
  80.8005629  18.7761407   9.8692806  85.0669198  19.2974235   6.4526206
  84.3820237  19.6773136   5.9023239  85.1513048  19.9069562   7.1858153
  80.3681667  10.3995582  14.3744284  80.1242599  11.1537642  13.8378559
  80.6441598  10.7780929  15.2091531  82.3220130  16.9434194  13.0521549
  82.5337025  17.5865954  12.3755930  82.2749878  16.1096511  12.5843479
  73.6332009  17.6465687   9.3011690  74.2033367  18.0752955   8.6629175
  74.2240121  17.3648271   9.9995876  74.1257176  12.8129114  17.5472702
  73.4955837  13.4945395  17.7808098  74.0193264  12.7012196  16.6025840
  83.4365958  19.8206149  11.2243907  84.2583402  19.4186337  10.9426588
  83.4328361  19.7174384  12.1760022  77.2022561  19.3690193  13.3804617
  77.2666994  19.8310600  14.2162789  76.4933485  18.7387558  13.5086927
  73.4037919   7.1149880  19.9097953  73.0104864   6.5616079  20.5845597
  74.2204059   7.4260459  20.3004470  72.1794861  21.6699495   5.9034276
  72.3561489  22.5917459   5.7155260  72.9751695  21.3557914   6.3328655
  76.3205880   8.5307759  17.5018209  77.0615593   9.1314912  17.4222672
  76.5523803   7.7885397  16.9436252  71.4647218  13.7164126  15.7796439
  71.3500733  12.8149384  16.0803538  70.6091735  13.9627823  15.4281255
  78.5439055  21.6581867  17.3783939  78.1002910  20.8718245  17.0604844
  79.2056269  21.8461017  16.7127830  73.3026177  23.1877668  11.9044618
  73.8533602  23.0594732  11.1321612  72.4637653  23.4872557  11.5539511
  80.6420294  21.9384667  15.4065341  80.6238769  22.7593548  14.9145610
  81.5640214  21.8138742  15.6315482  77.0993348  19.4528796  16.2488849
  77.6321684  18.6917084  16.0188157  76.5707429  19.1602448  16.9913004
  83.4438906  16.7763809   8.8774707  82.7862581  17.4663071   8.9654836
  84.2479306  17.1660241   9.2208694  82.2544365  15.1308182   6.9278649
  82.7676247  15.7638174   7.4300359  82.9045589  14.5309377   6.5622009
  78.7325196  12.6057637   9.1736990  77.8147757  12.8272584   9.0158678
  79.1485340  12.6803948   8.3148697  83.0206161  20.1114183   5.0557792
  82.5668488  19.2705093   5.1122982  82.3900128  20.7475582   5.3932572
  81.4639101  21.9490680   5.9907610  81.7562075  22.5095737   5.2719976
  81.9737721  22.2419241   6.7460769  76.4272726  22.7271031   7.0801063
  76.3848905  22.9531877   6.1509595  77.3435425  22.4934406   7.2286864
  79.8738360  13.1955099  13.9781692  80.2287747  13.4226572  14.8376158
  80.5210491  13.5273475  13.3558948  85.6305476  18.3850061   9.6942293
  86.0641983  18.2925351  10.5425347  86.3437057  18.3607562   9.0562309
  74.5438527  19.6034060   6.8763026  75.3379125  19.1084380   6.6745601
  73.8330219  19.0751923   6.5130731  79.3633371  21.9852156  11.2275393
  79.4170393  22.5543092  11.9953109  78.4948152  22.1554041  10.8629431
  72.2431764  11.6869712  12.7099845  72.9154818  11.4787074  12.0612494
  71.4161551  11.4891798  12.2705077  86.4921026  18.4273762  12.2275178
  86.6856916  19.3319573  12.4734453  86.3921644  17.9681181  13.0613763
  78.1457336   8.3131653  14.7265506  77.4985252   9.0121602  14.6329982
  78.9158352   8.7467797  15.0941754  81.5536134  18.5780505  17.8016059
  81.4021641  18.3491057  16.8846143  81.5440814  19.5351106  17.8147404
  78.3221471  16.1512418  12.7862325  79.2513531  16.3023577  12.6131293
  77.9012501  16.2396438  11.9310972  77.1209803  20.1763082  10.5560863
  76.9820888  19.8081866  11.4286801  76.3324399  20.6910721  10.3844821
  77.7157955  25.2772179   1.8986399  77.8909710  24.8060222   2.7132022
  77.0290743  25.9037945   2.1267660  78.6715018  19.5544685   7.9449701
  78.3364850  19.5145455   8.8407351  78.1718963  18.8889401   7.4720111
  72.6459262  14.9612315  13.4702282  72.5079060  14.2292554  14.0713821
  73.5564185  14.8721215  13.1886470  75.2741562  14.6732274  12.9585962
  75.9841181  14.0325466  12.9172580  75.2310871  14.9245169  13.8812142
  83.2628341  21.6099627  15.8792541  83.2040887  20.9258848  15.2123124
  83.6647859  22.3518617  15.4273167  73.9870496  11.6597492  14.7781601
  73.4507853  11.2088230  15.4303197  73.3987205  11.7943401  14.0352065
  72.2819040  28.4261541   8.6726260  72.5215638  29.0580065   9.3505278
  71.4388236  28.0749581   8.9591619  83.2645748  19.5739211  14.1106520
  82.3772527  19.2365133  14.2332919  83.8344299  18.8422243  14.3475286
  76.7946902  24.2340664  11.0767764  76.7217073  25.0395635  11.5887068
  76.3524295  24.4332630  10.2515785  76.5836681  23.4712434   4.5870585
  75.8004203  24.0134114   4.6808810  77.2829427  23.9886413   4.9864826
  79.2545585  24.1327498  13.2325922  79.9673557  24.7674963  13.1601824
  78.7635614  24.2291364  12.4165924  80.9763112  18.0378750   4.8043214
  80.0419391  18.1580213   4.6347918  81.1539781  17.1351217   4.5403224
  74.3057499  21.8821941  14.0531493  75.0066958  22.5158424  14.2060887
  73.8352614  22.2236673  13.2927132  82.1058785  14.4366549  11.8784043
  81.4530235  14.6842456  11.2236496  82.4839165  13.6230687  11.5446521
  79.0665959  24.4726242   5.9812214  79.2488353  23.6547898   6.4439966
  79.8898945  24.6893934   5.5437104  79.4008124  23.3994427   3.2427262
  79.9295891  22.8886882   2.6297424  79.6636344  23.0836957   4.1072795
  78.1546358  15.1786360  18.3650081  77.4786995  15.0780489  19.0352456
  78.9773992  15.0225573  18.8286078  69.9025217  21.4158296  10.9862596
  70.4878654  20.6701984  11.1190500  69.7050055  21.7262253  11.8699260
  72.7563872  24.4509544   6.0025038  72.0874247  24.9355671   5.5189078
  72.6176742  24.6978764   6.9168417  76.8969141  26.4853287  12.6007697
  77.4487449  26.6484909  13.3656782  77.2375334  27.0757725  11.9287721
  71.3485906  10.9051570  16.8502615  71.9757945  10.5228647  17.4640140
  70.4913825  10.6865771  17.2158308  81.7480015  21.3114545  18.4556351
  82.2919919  21.9244503  17.9611306  81.1666860  21.8694123  18.9723364
  80.0337528  24.4335263   9.5871379  79.9088667  23.6325003   9.0782324
  80.6916619  24.9281456   9.0985349  82.0972436  22.2344283  11.2150929
  81.1502772  22.1149634  11.1429256  82.4455209  21.3466781  11.2977190
  74.4572010   8.1238422  15.0389171  74.9806411   8.3700718  15.8015480
  74.2384343   8.9558457  14.6192308  79.1018870  22.0296999   7.4155281
  78.9543832  21.1013706   7.5962851  79.9272363  22.0517090   6.9312356
  82.7052991  22.8525558   8.5020154  83.6299539  22.6468419   8.3644605
  82.5368295  22.6041959   9.4109495  75.6624555   9.0652117  12.7238841
  75.3221375   8.2659930  13.1259521  74.9563561   9.3653828  12.1515674
  77.5502119  10.2660438  11.0792160  77.2919897  11.1877509  11.0776490
  77.0187159   9.8690873  11.7692624  82.4948308  23.3711225   3.8582245
  82.6685185  22.8057648   3.1056098  82.9877199  24.1712120   3.6761735
  68.3125267  15.3825894  11.9245804  67.7678736  16.1585702  12.0566078
  69.1904617  15.7296699  11.7664925  69.0991289  14.5095791  14.8175961
  68.3573025  14.6578426  15.4040591  68.7784034  14.7704056  13.9542710
  77.0434952  24.0511769  14.6156351  77.3522078  23.8060916  15.4879050
  77.8410434  24.2558407  14.1275221  77.0655564  26.2049678   6.8461727
  76.6260554  25.7126057   7.5394584  77.8163681  25.6622646   6.6053803
  69.5447903  22.3961219   6.8486356  70.3705923  22.0964991   6.4684999
  69.1941955  21.6268842   7.2976144  74.5129436  21.7487687   8.9184029
  73.8909445  21.0858393   8.6186257  75.1834303  21.7748819   8.2357677
  74.5853964  10.2269476  18.5116535  74.6342119  11.1031598  18.1294305
  75.1276478   9.6846869  17.9388178  85.0708809  20.7710599  17.7917672
  84.2804353  20.7534738  17.2522172  84.8342164  21.3098892  18.5466709
  85.1906684  17.6203065  15.1050401  85.2404689  17.4553073  16.0465924
  85.0820608  16.7530324  14.7148282  82.4810447  13.6033993  16.4209707
  83.3820310  13.4640458  16.1293705  82.5558421  13.7688448  17.3607885
  76.8153252  10.9800848  15.2662894  75.9456562  11.2734414  14.9945482
  77.0512732  11.5641293  15.9870157  86.6924881  20.0400007  15.3492422
  86.4009690  20.4029987  16.1855883  86.0797012  19.3267015  15.1705754
  84.9412069  15.1632621  13.8172480  85.4166191  15.3560268  13.0091332
  84.0177635  15.2191807  13.5715864  79.5192286   7.1980465  12.7828314
  80.0374230   7.9341492  12.4574803  79.1647419   7.5044458  13.6175073
  83.6413738  12.0398381  12.0500786  84.5931161  12.1396479  12.0713010
  83.4717189  11.2476650  12.5598870  81.6628118   9.1253965  12.2360187
  81.0678050   9.4058977  11.5406675  81.3777815   9.6147866  13.0076928
  86.1201816  15.2604501  11.1643086  86.0878136  14.3220502  11.3502769
  86.7302440  15.3388538  10.4308910  77.8423840  18.1818300  18.6670947
  78.7626849  18.3596899  18.8610993  77.8073423  17.2374346  18.5150646
  70.8385912  16.0919335  11.3093728  71.0571922  17.0236443  11.3281762
  71.2511686  15.7327309  12.0948532  75.7113777  11.6652541  20.6996477
  75.6110504  12.6146898  20.6308568  75.4935320  11.3370779  19.8272547
  75.5745048  15.0949679  19.5161538  75.0912129  15.8950040  19.7225427
  75.6605987  15.1057624  18.5628982  71.5018385  18.9854214  11.5529972
  72.4561639  18.9538156  11.4859904  71.3030909  18.5244838  12.3680198
  72.0917767  17.5555330  14.1200770  72.9110656  18.0499409  14.1435607
  72.3654575  16.6387298  14.0918337  69.8568614  24.5273834   8.5700170
  69.7223082  23.7674235   8.0038168  69.4400676  25.2514733   8.1028959
  73.0137740  25.4243151   8.7818613  72.8970124  26.3688583   8.6797303
  72.1930186  25.1216712   9.1704412  67.3452681  11.8893464  14.8192967
  67.9911545  11.3792418  15.3080192  67.1369833  12.6262146  15.3936392
  79.8706074  18.9574312  20.3185107  80.7397233  19.1314964  19.9571742
  79.3912825  19.7768728  20.1960837  74.0392254  26.0771413  11.9974541
  74.9419501  26.1095023  12.3141036  73.8129624  25.1471863  12.0120877
  75.7945856  24.8302399   8.6584620  74.8441487  24.8304261   8.5448992
  76.0978342  24.0835134   8.1420654  71.6850172   9.0361081  18.9167981
  72.5481634   8.6797886  19.1271306  71.1115583   8.6974976  19.6043385
  91.5298549  30.6662937   9.7230382  92.1676959  30.5469685   9.0193722
  91.4119392  31.6143781   9.7818334  88.3388256  30.6190366   9.6591907
  88.0006767  30.5031430   8.7712442  89.2078024  30.2181531   9.6392913
  84.1975071  32.4725842   5.6488798  83.6339936  32.3815779   4.8805085
  84.0827466  31.6525746   6.1291290  88.8208039  31.7725217  15.6178112
  88.8096679  31.3778016  14.7458616  88.9828678  31.0391290  16.2111884
  81.7439503  33.9677034   8.4873018  82.5360795  33.6267858   8.0719317
  81.9836153  34.0772009   9.4075171  89.7774630  36.1396810   0.9603263
  89.1262610  36.7250890   0.5737276  90.5718993  36.6703005   1.0198300
  83.7030257  33.2285947   1.3590397  84.4761133  32.6814934   1.2203273
  84.0555656  34.0930196   1.5704858  85.5415300  34.5562329  14.5657296
  85.2505166  35.4607960  14.4503963  86.1772284  34.5978857  15.2801366
  86.4671507  31.9339178  11.1558656  87.0635079  31.7095200  10.4415619
  86.5246478  31.1923923  11.7584104  91.0839818  28.3914391   6.7983590
  91.8702907  27.9733814   6.4474007  91.3478522  29.2960484   6.9665238
  85.7592824  31.2906719   1.1933222  85.6429082  30.6151622   1.8614306
  85.8695084  30.8039093   0.3765375  88.1024365  30.7516866   4.8979911
  87.7382572  30.2247487   5.6092833  88.9591481  30.3615335   4.7246396
  94.0073665  22.0411199  12.1611177  93.6756990  22.9106610  11.9372392
  93.4119279  21.7247483  12.8405208  90.5005185  34.2423745  11.5607090
  90.2005908  35.1448783  11.4522897  90.1556244  33.9755928  12.4128243
  83.9517666  30.6937541   7.5943794  83.0268163  30.5613756   7.8021486
  84.2002080  31.4731761   8.0913737  93.9002329  26.7606285   9.2404527
  92.9919206  26.6921693   8.9463288  93.8489924  27.2378230  10.0686353
  81.3126477  30.3370815   8.4287583  81.4418859  30.5905294   9.3426995
  80.6323929  30.9298523   8.1092238  85.4825965  41.0068065   4.5278058
  85.4049994  41.9575890   4.6066538  84.8787608  40.6613937   5.1852984
  87.9743194  28.1795930  17.1839425  87.1976528  28.7389851  17.1742289
  88.6133757  28.6652713  17.7054295  95.7663975  24.9622723  11.0182401
  95.1238355  25.2555256  10.3722196  95.2618904  24.8475644  11.8235598
  86.2289567  30.9881384  16.7457392  86.9704251  31.5266428  16.4692215
  85.5226552  31.6147673  16.9028943  91.7044906  33.1310524  15.3429553
  92.1128262  32.6892935  14.5984185  90.9822168  32.5563152  15.5963746
  88.0575976  28.0683131  12.7163110  88.9037172  28.4922545  12.8597759
  87.9974614  27.4116755  13.4101673  92.0273721  33.6911715   9.0981842
  91.3982583  33.8557429   8.3957910  91.6399383  34.1053324   9.8692806
  95.9062953  34.6266153   6.4526206  95.2213991  35.0065054   5.9023239
  95.9906802  35.2361479   7.1858153  91.2075422  25.7287499  14.3744284
  90.9636354  26.4829560  13.8378559  91.4835352  26.1072847  15.2091531
  93.1613884  32.2726112  13.0521549  93.3730780  32.9157872  12.3755930
  93.1143633  31.4388428  12.5843479  90.7640113  24.8843932   9.9558121
  89.9024592  25.1825186  10.2474859  90.7902548  25.1014331   9.0239154
  87.5801683  33.4286123   6.3631927  88.0440028  33.7073826   5.5736549
  87.3158481  32.5269568   6.1805018  84.4725764  32.9757604   9.3011690
  85.0427121  33.4044873   8.6629175  85.0633876  32.6940189   9.9995876
  86.5170569  29.5509275   3.1721492  87.2194612  30.0030319   3.6395418
  86.1851197  28.9093094   3.8001385  84.9650930  28.1421032  17.5472702
  84.3349591  28.8237313  17.7808098  84.8587018  28.0304114  16.6025840
  80.2595903  27.8092828   8.4738626  79.4694957  28.0650356   7.9978736
  80.7507150  28.6241166   8.5790666  94.2759712  35.1498067  11.2243907
  95.0977156  34.7478254  10.9426588  94.2722115  35.0466301  12.1760022
  82.2110648  28.1737407   5.4322102  81.4141812  28.2856101   5.9505598
  81.9836240  28.5124059   4.5662993  88.0416316  34.6982110  13.3804617
  88.1060748  35.1602518  14.2162789  87.3327240  34.0679475  13.5086927
  78.5433606  28.0623318  10.9053616  78.7941644  28.9470328  11.1711192
  79.0793154  27.8827920  10.1328708  87.7564334  36.3650218   3.2483597
  87.6210008  37.2101754   3.6768445  88.2974146  36.5669496   2.4849531
  84.2431673  22.4441798  19.9097953  83.8498619  21.8907996  20.5845597
  85.0597814  22.7552376  20.3004470  81.2093731  33.8825656   3.8211522
  81.7218252  34.6768906   3.9717087  81.8616444  33.1851946   3.7545124
  83.0188616  36.9991412   5.9034276  83.1955244  37.9209377   5.7155260
  83.8145449  36.6849831   6.3328655  87.1599634  23.8599677  17.5018209
  87.9009348  24.4606830  17.4222672  87.3917557  23.1177315  16.9436252
  82.3040972  29.0456044  15.7796439  82.1894487  28.1441301  16.0803538
  81.4485490  29.2919741  15.4281255  89.3832810  36.9873784  17.3783939
  88.9396664  36.2010163  17.0604844  90.0450024  37.1752935  16.7127830
  84.1419931  38.5169586  11.9044618  84.6927356  38.3886649  11.1321612
  83.3031407  38.8164475  11.5539511  91.4814048  37.2676584  15.4065341
  91.4632523  38.0885465  14.9145610  92.4033968  37.1430660  15.6315482
  87.9387102  34.7820714  16.2488849  88.4715439  34.0209002  16.0188157
  87.4101183  34.4894366  16.9913004  91.1056797  19.8880780  11.7782491
  90.7621067  20.7782421  11.7021601  91.4735760  19.6982437  10.9152076
  79.1742648  32.2114310   4.5971093  80.0117870  32.6211319   4.3804801
  79.3520915  31.2713752   4.5671287  90.1853338  22.2585435   9.7431724
  89.6818133  22.2215570   8.9299529  90.4783944  23.1678178   9.8028381
  86.4296223  22.3424165   8.7497906  87.2949220  22.1466973   8.3903795
  86.4973732  22.1134516   9.6767263  89.3039815  33.9106706   3.7607661
  88.7761176  33.1759466   3.4480899  88.8027318  34.6881383   3.5147629
  94.2832661  32.1055727   8.8774707  93.6256335  32.7954988   8.9654836
  95.0873060  32.4952159   9.2208694  84.0358542  24.5726373   6.1214273
  84.6102294  24.3501554   5.3887466  84.6229525  24.6415067   6.8742874
  93.0938120  30.4600099   6.9278649  93.6070001  31.0930091   7.4300359
  93.7439344  29.8601295   6.5622009  90.3560494  40.4384424  -0.3160680
  89.6822193  40.7416121   0.2924278  90.7426316  41.2413504  -0.6655223
  89.5718951  27.9349555   9.1736990  88.6541512  28.1564502   9.0158678
  89.9879094  28.0095866   8.3148697  93.8599916  35.4406101   5.0557792
  93.4062243  34.5997011   5.1122982  93.2293883  36.0767499   5.3932572
  92.3032855  37.2782598   5.9907610  92.5955830  37.8387655   5.2719976
  92.8131476  37.5711159   6.7460769  79.1968819  29.5505026   5.2681826
  78.9993219  28.9574386   4.5432893  78.6415483  29.2457236   5.9857765
  87.1765543  29.4428132   7.3876420  87.2314152  28.4901968   7.3118896
  86.3656745  29.5987571   7.8717718  85.1157902  28.0605192   5.1466798
  84.3025768  28.3599362   5.5531991  85.6116897  27.6660881   5.8641281
  87.2666480  38.0562949   7.0801063  87.2242659  38.2823795   6.1509595
  88.1829179  37.8226323   7.2286864  90.7132114  28.5247016  13.9781692
  91.0681502  28.7518489  14.8376158  91.3604245  28.8565393  13.3558948
  84.6071977  25.6323547  10.7628033  85.2471357  25.4912306  10.0650997
  83.7749508  25.3458061  10.3866635  96.4699231  33.7141979   9.6942293
  96.9035737  33.6217268  10.5425347  97.1830811  33.6899480   9.0562309
  85.3832281  34.9325978   6.8763026  86.1772880  34.4376298   6.6745601
  84.6723973  34.4043841   6.5130731  90.2027126  37.3144073  11.2275393
  90.2564148  37.8835010  11.9953109  89.3341907  37.4845958  10.8629431
  81.6915045  29.0769059   2.9522779  80.7612633  29.0153515   3.1692741
  81.7872517  28.5545012   2.1559420  81.6100594  25.6023872   5.5401020
  81.8707411  26.5169206   5.4310181  82.4317766  25.1348315   5.6897633
  83.0825519  27.0161629  12.7099845  83.7548572  26.8078992  12.0612494
  82.2555305  26.8183715  12.2705077  97.3314780  33.7565680  12.2275178
  97.5250670  34.6611490  12.4734453  97.2315398  33.2973099  13.0613763
  88.9851091  23.6423570  14.7265506  88.3379006  24.3413520  14.6329982
  89.7552106  24.0759714  15.0941754  92.3929889  33.9072423  17.8016059
  92.2415395  33.6782974  16.8846143  92.3834568  34.8643024  17.8147404
  89.1615225  31.4804335  12.7862325  90.0907285  31.6315495  12.6131293
  88.7406255  31.5688356  11.9310972  87.9603557  35.5055000  10.5560863
  87.8214643  35.1373784  11.4286801  87.1718153  36.0202639  10.3844821
  88.5551709  40.6064096   1.8986399  88.7303465  40.1352139   2.7132022
  87.8684497  41.2329862   2.1267660  89.5108772  34.8836602   7.9449701
  89.1758605  34.8437372   8.8407351  89.0112718  34.2181318   7.4720111
  83.4853016  30.2904232  13.4702282  83.3472814  29.5584471  14.0713821
  84.3957940  30.2013133  13.1886470  86.1135317  30.0024192  12.9585962
  86.8234935  29.3617384  12.9172580  86.0704625  30.2537087  13.8812142
  94.1022096  36.9391545  15.8792541  94.0434642  36.2550765  15.2123124
  94.5041614  37.6810535  15.4273167  84.8264251  26.9889410  14.7781601
  84.2901608  26.5380148  15.4303197  84.2380959  27.1235318  14.0352065
  83.1212794  43.7553459   8.6726260  83.3609393  44.3871983   9.3505278
  82.2781991  43.4041499   8.9591619  94.1039503  34.9031129  14.1106520
  93.2166282  34.5657051  14.2332919  94.6738054  34.1714160  14.3475286
  75.7568650  31.2355221   7.4349572  76.4439690  30.9216951   6.8470587
  75.6016779  32.1396585   7.1616823  80.5603372  26.1245417  11.8634595
  80.4761561  25.5171087  11.1285005  79.7386078  26.6154436  11.8644092
  87.6340656  39.5632581  11.0767764  87.5610828  40.3687553  11.5887068
  87.1918049  39.7624547  10.2515785  87.4230436  38.8004351   4.5870585
  86.6397958  39.3426032   4.6808810  88.1223181  39.3178331   4.9864826
  90.0939340  39.4619415  13.2325922  90.8067312  40.0966880  13.1601824
  89.6029368  39.5583281  12.4165924  91.8156867  33.3670668   4.8043214
  90.8813145  33.4872131   4.6347918  91.9933535  32.4643135   4.5403224
  87.3162055  26.7516364   6.9576475  86.9459842  26.1987404   7.6457381
  87.8121147  26.1474497   6.4051475  85.1451253  37.2113859  14.0531493
  85.8460713  37.8450342  14.2060887  84.6746368  37.5528590  13.2927132
  92.9452539  29.7658466  11.8784043  92.2923989  30.0134374  11.2236496
  93.3232919  28.9522605  11.5446521  89.9059713  39.8018160   5.9812214
  90.0882108  38.9839815   6.4439966  90.7292699  40.0185852   5.5437104
  90.2401879  38.7286345   3.2427262  90.7689645  38.2178799   2.6297424
  90.5030098  38.4128875   4.1072795  88.9940112  30.5078277  18.3650081
  88.3180749  30.4072407  19.0352456  89.8167746  30.3517491  18.8286078
  80.7418971  36.7450214  10.9862596  81.3272408  35.9993902  11.1190500
  80.5443810  37.0554171  11.8699260  83.5957627  39.7801461   6.0025038
  82.9268002  40.2647589   5.5189078  83.4570496  40.0270682   6.9168417
  75.3336626  29.3155814   9.7067039  75.3720726  28.7819405  10.5004157
  74.8276919  28.7891020   9.0878016  87.7362895  41.8145205  12.6007697
  88.2881203  41.9776826  13.3656782  88.0769089  42.4049643  11.9287721
  82.7127388  24.1620355  13.2029581  82.7768715  25.0235186  12.7906979
  82.6494509  23.5494356  12.4701940  82.1879661  26.2343487  16.8502615
  82.8151700  25.8520565  17.4640140  81.3307580  26.0157689  17.2158308
  92.5873769  36.6406462  18.4556351  93.1313673  37.2536421  17.9611306
  92.0060614  37.1986041  18.9723364  78.9645204  28.0419916   2.7820970
  79.2598645  27.1330595   2.7288024  78.0633239  28.0207656   2.4601973
  90.8731282  39.7627180   9.5871379  90.7482422  38.9616920   9.0782324
  91.5310374  40.2573374   9.0985349  82.4939451  26.1175913   8.7648519
  81.7726036  26.7311881   8.6255992  83.2832706  26.6533678   8.6865165
  92.9366191  37.5636200  11.2150929  91.9896526  37.4441552  11.1429256
  93.2848964  36.6758699  11.2977190  85.2965764  23.4530339  15.0389171
  85.8200166  23.6992636  15.8015480  85.0778097  24.2850374  14.6192308
  80.6933045  25.7234014   2.9060295  80.3645751  24.8431393   2.7235401
  81.0472416  25.6681683   3.7936685  89.9412624  37.3588917   7.4155281
  89.7937587  36.4305624   7.5962851  90.7666118  37.3809007   6.9312356
  83.8074868  26.0106984   3.2735773  84.1470941  26.5392905   2.5514382
  84.2546989  26.3487390   4.0494340  93.5446746  38.1817475   8.5020154
  94.4693293  37.9760337   8.3644605  93.3762049  37.9333877   9.4109495
  86.5018309  24.3944035  12.7238841  86.1615130  23.5951848  13.1259521
  85.7957315  24.6945745  12.1515674  87.1534781  21.4793347  11.1766164
  87.9760850  21.0053825  11.0545055  87.3972845  22.2583831  11.6764851
  84.6773360  28.1712468   8.9858143  84.5317941  28.4852771   9.8782424
  84.1998563  28.7897368   8.4329041  86.5369743  25.1615016   9.0339032
  86.5231311  24.2656109   8.6971330  87.2542171  25.1685679   9.6677318
  88.3895873  25.5952356  11.0792160  88.1313651  26.5169426  11.0776490
  87.8580914  25.1982790  11.7692624  93.3342062  38.7003143   3.8582245
  93.5078940  38.1349565   3.1056098  93.8270953  39.5004038   3.6761735
  79.1519022  30.7117812  11.9245804  78.6072490  31.4877620  12.0566078
  80.0298372  31.0588616  11.7664925  85.9406639  24.0429396   4.3026603
  86.0622550  23.1146042   4.5017490  85.6508681  24.0568082   3.3904918
  79.9385044  29.8387708  14.8175961  79.1966780  29.9870344  15.4040591
  79.6177788  30.0995974  13.9542710  87.8828706  39.3803686  14.6156351
  88.1915833  39.1352833  15.4879050  88.6804188  39.5850325  14.1275221
  87.9049319  41.5341596   6.8461727  87.4654309  41.0417975   7.5394584
  88.6557435  40.9914564   6.6053803  80.3841657  37.7253137   6.8486356
  81.2099677  37.4256909   6.4684999  80.0335709  36.9560759   7.2976144
  85.3523191  37.0779605   8.9184029  84.7303200  36.4150310   8.6186257
  86.0228058  37.1040737   8.2357677  78.5850263  35.6439463   7.8075289
  77.7482171  35.2161638   7.6259290  78.5573908  35.8371907   8.7446080
  85.4247718  25.5561393  18.5116535  85.4735874  26.4323516  18.1294305
  85.9670232  25.0138786  17.9388178  95.9102564  36.1002516  17.7917672
  95.1198108  36.0826655  17.2522172  95.6735918  36.6390810  18.5466709
  96.0300439  32.9494983  15.1050401  96.0798444  32.7844990  16.0465924
  95.9214362  32.0822242  14.7148282  84.9136698  35.6283529   2.3942490
  85.0624818  36.3118993   1.7409162  85.7203141  35.6088619   2.9091945
  93.3204201  28.9325911  16.4209707  94.2214064  28.7932376  16.1293705
  93.3952176  29.0980366  17.3607885  87.6547007  26.3092766  15.2662894
  86.7850316  26.6026332  14.9945482  87.8906487  26.8933211  15.9870157
  97.5318636  35.3691924  15.3492422  97.2403444  35.7321905  16.1855883
  96.9190767  34.6558933  15.1705754  95.7805824  30.4924539  13.8172480
  96.2559946  30.6852185  13.0091332  94.8571389  30.5483725  13.5715864
  82.6689331  31.6548706   3.4003559  82.4235372  30.7511036   3.5983769
  82.8385245  31.6565857   2.4583037  90.3586040  22.5272383  12.7828314
  90.8767984  23.2633409  12.4574803  90.0041173  22.8336376  13.6175073
  81.9384978  27.3877064   0.8989720  81.2454223  27.4621419   0.2429756
  81.6936730  26.6237407   1.4211237  88.4132103  38.1231659  -0.1345763
  87.8406070  38.7421846  -0.5875291  88.9864897  38.6731021   0.3994159
  94.4807493  27.3690299  12.0500786  95.4324916  27.4688397  12.0713010
  94.3110943  26.5768568  12.5598870  92.5021872  24.4545882  12.2360187
  91.9071805  24.7350895  11.5406675  92.2171569  24.9439783  13.0076928
  91.6329363  38.4068809   0.9962819  92.5660036  38.3414371   1.1995695
  91.5452576  39.2425076   0.5377352  96.9595571  30.5896419  11.1643086
  96.9271891  29.6512419  11.3502769  97.5696194  30.6680455  10.4308910
  88.6817594  33.5110218  18.6670947  89.6020604  33.6888817  18.8610993
  88.6467177  32.5666263  18.5150646  77.8999759  28.7048812   7.5924221
  77.5802543  27.8514120   7.2998595  77.3533187  28.9197390   8.3482189
  81.6779667  31.4211253  11.3093728  81.8965676  32.3528360  11.3281762
  82.0905440  31.0619227  12.0948532  86.5507532  26.9944458  20.6996477
  86.4504259  27.9438815  20.6308568  86.3329074  26.6662697  19.8272547
  77.7688019  32.3251723   9.5617343  77.0751491  31.9105676   9.0487297
  78.5161010  32.3672260   8.9650762  86.4138802  30.4241597  19.5161538
  85.9305884  31.2241957  19.7225427  86.4999741  30.4349542  18.5628982
  79.6824762  32.2569977   7.4383358  79.6595450  32.3557664   6.4865241
  79.9925398  33.1035128   7.7600524  82.3412140  34.3146132  11.5529972
  83.2955393  34.2830074  11.4859904  82.1424663  33.8536756  12.3680198
  82.9311522  32.8847248  14.1200770  83.7504411  33.3791327  14.1435607
  83.2048329  31.9679216  14.0918337  80.6962368  39.8565751   8.5700170
  80.5616836  39.0966152   8.0038168  80.2794431  40.5806651   8.1028959
  83.8531494  40.7535068   8.7818613  83.7363878  41.6980501   8.6797303
  83.0323940  40.4508630   9.1704412  78.1846436  27.2185382  14.8192967
  78.8305300  26.7084336  15.3080192  77.9763587  27.9554063  15.3936392
  90.7099828  34.2866229  20.3185107  91.5790988  34.4606881  19.9571742
  90.2306580  35.1060646  20.1960837  84.8786008  41.4063330  11.9974541
  85.7813255  41.4386940  12.3141036  84.6523378  40.4763781  12.0120877
  86.6339610  40.1594317   8.6584620  85.6835241  40.1596178   8.5448992
  86.9372096  39.4127051   8.1420654  82.5243927  24.3652999  18.9167981
  83.3875388  24.0089804  19.1271306  81.9509338  24.0266894  19.6043385
 102.3692304  45.9954855   9.7230382 103.0070714  45.8761603   9.0193722
 102.2513147  46.9435699   9.7818334  99.1782010  45.9482283   9.6591907
  98.8400522  45.8323348   8.7712442 100.0471778  45.5473448   9.6392913
  95.0368826  47.8017760   5.6488798  94.4733691  47.7107697   4.8805085
  94.9221221  46.9817664   6.1291290  99.6601793  47.1017135  15.6178112
  99.6490434  46.7069933  14.7458616  99.8222433  46.3683208  16.2111884
  92.5833258  49.2968951   8.4873018  93.3754550  48.9559776   8.0719317
  92.8229908  49.4063926   9.4075171 100.6168385  51.4688727   0.9603263
  99.9656364  52.0542808   0.5737276 101.4112747  51.9994922   1.0198300
  94.5424012  48.5577865   1.3590397  95.3154888  48.0106852   1.2203273
  94.8949411  49.4222114   1.5704858  96.3809054  49.8854247  14.5657296
  96.0898920  50.7899878  14.4503963  97.0166039  49.9270774  15.2801366
  97.3065261  47.2631095  11.1558656  97.9028833  47.0387118  10.4415619
  97.3640233  46.5215841  11.7584104 101.9233572  43.7206309   6.7983590
 102.7096662  43.3025732   6.4474007 102.1872277  44.6252401   6.9665238
  96.5986578  46.6198637   1.1933222  96.4822836  45.9443540   1.8614306
  96.7088838  46.1331011   0.3765375  98.9418119  46.0808784   4.8979911
  98.5776326  45.5539405   5.6092833  99.7985235  45.6907253   4.7246396
 104.8467420  37.3703116  12.1611177 104.5150745  38.2398527  11.9372392
 104.2513033  37.0539400  12.8405208 101.3398939  49.5715662  11.5607090
 101.0399662  50.4740701  11.4522897 100.9949999  49.3047846  12.4128243
  94.7911421  46.0229459   7.5943794  93.8661917  45.8905673   7.8021486
  95.0395834  46.8023678   8.0913737 104.7396083  42.0898202   9.2404527
 103.8312960  42.0213611   8.9463288 104.6883679  42.5670147  10.0686353
  92.1520232  45.6662733   8.4287583  92.2812613  45.9197212   9.3426995
  91.4717683  46.2590441   8.1092238  96.3219719  56.3359983   4.5278058
  96.2443749  57.2867808   4.6066538  95.7181363  55.9905855   5.1852984
  98.8136949  43.5087848  17.1839425  98.0370283  44.0681768  17.1742289
  99.4527512  43.9944631  17.7054295 106.6057730  40.2914641  11.0182401
 105.9632110  40.5847174  10.3722196 106.1012658  40.1767561  11.8235598
  97.0683321  46.3173301  16.7457392  97.8098006  46.8558345  16.4692215
  96.3620307  46.9439590  16.9028943 102.5438661  48.4602442  15.3429553
 102.9522017  48.0184852  14.5984185 101.8215922  47.8855069  15.5963746
  98.8969731  43.3975049  12.7163110  99.7430926  43.8214462  12.8597759
  98.8368369  42.7408673  13.4101673 102.8667475  49.0203633   9.0981842
 102.2376338  49.1849347   8.3957910 102.4793138  49.4345242   9.8692806
 106.7456707  49.9558070   6.4526206 106.0607746  50.3356972   5.9023239
 106.8300557  50.5653397   7.1858153 102.0469176  41.0579417  14.3744284
 101.8030108  41.8121478  13.8378559 102.3229107  41.4364765  15.2091531
 104.0007639  47.6018029  13.0521549 104.2124534  48.2449789  12.3755930
 103.9537387  46.7680346  12.5843479 101.6033868  40.2135850   9.9558121
 100.7418347  40.5117104  10.2474859 101.6296303  40.4306249   9.0239154
  98.4195437  48.7578041   6.3631927  98.8833783  49.0365744   5.5736549
  98.1552235  47.8561485   6.1805018  95.3119518  48.3049522   9.3011690
  95.8820875  48.7336791   8.6629175  95.9027630  48.0232107   9.9995876
  97.3564323  44.8801193   3.1721492  98.0588367  45.3322237   3.6395418
  97.0244952  44.2385012   3.8001385  95.8044685  43.4712950  17.5472702
  95.1743346  44.1529230  17.7808098  95.6980773  43.3596031  16.6025840
  91.0989657  43.1384746   8.4738626  90.3088711  43.3942274   7.9978736
  91.5900905  43.9533083   8.5790666 105.1153467  50.4789985  11.2243907
 105.9370911  50.0770172  10.9426588 105.1115870  50.3758219  12.1760022
  93.0504403  43.5029325   5.4322102  92.2535566  43.6148019   5.9505598
  92.8229995  43.8415977   4.5662993  98.8810070  50.0274028  13.3804617
  98.9454503  50.4894435  14.2162789  98.1720994  49.3971393  13.5086927
  89.3827360  43.3915236  10.9053616  89.6335399  44.2762246  11.1711192
  89.9186909  43.2119838  10.1328708  98.5958088  51.6942136   3.2483597
  98.4603763  52.5393671   3.6768445  99.1367901  51.8961413   2.4849531
  95.0825428  37.7733715  19.9097953  94.6892373  37.2199914  20.5845597
  95.8991568  38.0844294  20.3004470  92.0487485  49.2117574   3.8211522
  92.5612006  50.0060824   3.9717087  92.7010198  48.5143864   3.7545124
  93.8582370  52.3283330   5.9034276  94.0348998  53.2501295   5.7155260
  94.6539204  52.0141749   6.3328655  97.9993389  39.1891595  17.5018209
  98.7403102  39.7898748  17.4222672  98.2311311  38.4469232  16.9436252
  93.1434727  44.3747962  15.7796439  93.0288242  43.4733219  16.0803538
  92.2879244  44.6211659  15.4281255 100.2226564  52.3165702  17.3783939
  99.7790419  51.5302081  17.0604844 100.8843778  52.5044853  16.7127830
  94.9813686  53.8461504  11.9044618  95.5321111  53.7178567  11.1321612
  94.1425161  54.1456393  11.5539511 102.3207802  52.5968502  15.4065341
 102.3026278  53.4177383  14.9145610 103.2427723  52.4722577  15.6315482
  98.7780857  50.1112632  16.2488849  99.3109193  49.3500920  16.0188157
  98.2494938  49.8186283  16.9913004 101.9450552  35.2172697  11.7782491
 101.6014821  36.1074339  11.7021601 102.3129514  35.0274355  10.9152076
  90.0136402  47.5406228   4.5971093  90.8511624  47.9503236   4.3804801
  90.1914670  46.6005670   4.5671287 101.0247092  37.5877353   9.7431724
 100.5211888  37.5507488   8.9299529 101.3177699  38.4970095   9.8028381
  97.2689978  37.6716082   8.7497906  98.1342975  37.4758891   8.3903795
  97.3367487  37.4426434   9.6767263 100.1433569  49.2398624   3.7607661
  99.6154931  48.5051384   3.4480899  99.6421072  50.0173300   3.5147629
 105.1226415  47.4347644   8.8774707 104.4650090  48.1246906   8.9654836
 105.9266815  47.8244076   9.2208694  94.8752297  39.9018290   6.1214273
  95.4496049  39.6793472   5.3887466  95.4623279  39.9706985   6.8742874
 103.9331874  45.7892017   6.9278649 104.4463756  46.4222009   7.4300359
 104.5833098  45.1893213   6.5622009 100.4112705  43.2641473   9.1736990
  99.4935266  43.4856420   9.0158678 100.8272849  43.3387783   8.3148697
 104.6993670  50.7698019   5.0557792 104.2455997  49.9288929   5.1122982
 104.0687637  51.4059417   5.3932572 103.1426610  52.6074515   5.9907610
 103.4349584  53.1679572   5.2719976 103.6525230  52.9003076   6.7460769
  90.0362573  44.8796943   5.2681826  89.8386973  44.2866304   4.5432893
  89.4809237  44.5749153   5.9857765  98.0159297  44.7720050   7.3876420
  98.0707907  43.8193886   7.3118896  97.2050499  44.9279489   7.8717718
  95.9551657  43.3897109   5.1466798  95.1419522  43.6891280   5.5531991
  96.4510651  42.9952798   5.8641281  98.1060235  53.3854866   7.0801063
  98.0636414  53.6115713   6.1509595  99.0222934  53.1518241   7.2286864
 101.5525869  43.8538934  13.9781692 101.9075256  44.0810407  14.8376158
 102.1998000  44.1857311  13.3558948  95.4465732  40.9615465  10.7628033
  96.0865111  40.8204224  10.0650997  94.6143262  40.6749978  10.3866635
 107.3092985  49.0433897   9.6942293 107.7429492  48.9509186  10.5425347
 108.0224566  49.0191397   9.0562309  96.2226036  50.2617895   6.8763026
  97.0166634  49.7668216   6.6745601  95.5117728  49.7335759   6.5130731
 101.0420880  52.6435991  11.2275393 101.0957902  53.2126927  11.9953109
 100.1735661  52.8137876  10.8629431  92.5308799  44.4060977   2.9522779
  91.6006387  44.3445433   3.1692741  92.6266271  43.8836930   2.1559420
  92.4494348  40.9315790   5.5401020  92.7101165  41.8461123   5.4310181
  93.2711520  40.4640233   5.6897633  93.9219273  42.3453547  12.7099845
  94.5942327  42.1370909  12.0612494  93.0949060  42.1475633  12.2705077
 108.1708535  49.0857598  12.2275178 108.3644425  49.9903408  12.4734453
 108.0709153  48.6265017  13.0613763  99.8244845  38.9715488  14.7265506
  99.1772760  39.6705438  14.6329982 100.5945861  39.4051632  15.0941754
 103.2323643  49.2364340  17.8016059 103.0809150  49.0074892  16.8846143
 103.2228323  50.1934942  17.8147404 100.0008980  46.8096253  12.7862325
 100.9301040  46.9607413  12.6131293  99.5800010  46.8980274  11.9310972
  98.7997312  50.8346917  10.5560863  98.6608397  50.4665702  11.4286801
  98.0111908  51.3494557  10.3844821  99.3945464  55.9356014   1.8986399
  99.5697219  55.4644057   2.7132022  98.7078252  56.5621780   2.1267660
 100.3502527  50.2128520   7.9449701 100.0152359  50.1729290   8.8407351
  99.8506472  49.5473236   7.4720111  94.3246771  45.6196150  13.4702282
  94.1866569  44.8876389  14.0713821  95.2351694  45.5305050  13.1886470
  96.9529071  45.3316109  12.9585962  97.6628690  44.6909302  12.9172580
  96.9098380  45.5829004  13.8812142 104.9415850  52.2683463  15.8792541
 104.8828396  51.5842683  15.2123124 105.3435368  53.0102453  15.4273167
  95.6658005  42.3181327  14.7781601  95.1295362  41.8672066  15.4303197
  95.0774714  42.4527236  14.0352065  93.9606549  59.0845377   8.6726260
  94.2003147  59.7163901   9.3505278  93.1175745  58.7333417   8.9591619
 104.9433257  50.2323047  14.1106520 104.0560036  49.8948969  14.2332919
 105.5131808  49.5006078  14.3475286  86.5962404  46.5647138   7.4349572
  87.2833444  46.2508869   6.8470587  86.4410533  47.4688503   7.1616823
  91.3997127  41.4537335  11.8634595  91.3155315  40.8463005  11.1285005
  90.5779833  41.9446353  11.8644092  98.4734411  54.8924499  11.0767764
  98.4004582  55.6979471  11.5887068  98.0311804  55.0916465  10.2515785
  98.2624190  54.1296269   4.5870585  97.4791712  54.6717949   4.6808810
  98.9616935  54.6470249   4.9864826 100.9333094  54.7911333  13.2325922
 101.6461066  55.4258798  13.1601824 100.4423123  54.8875199  12.4165924
 102.6550621  48.6962586   4.8043214 101.7206900  48.8164048   4.6347918
 102.8327290  47.7935053   4.5403224  98.1555809  42.0808282   6.9576475
  97.7853597  41.5279322   7.6457381  98.6514902  41.4766415   6.4051475
  95.9845008  52.5405777  14.0531493  96.6854467  53.1742260  14.2060887
  95.5140123  52.8820508  13.2927132 103.7846294  45.0950384  11.8784043
 103.1317744  45.3426291  11.2236496 104.1626674  44.2814522  11.5446521
 100.7453468  55.1310077   5.9812214 100.9275862  54.3131733   6.4439966
 101.5686454  55.3477769   5.5437104 101.0795633  54.0578262   3.2427262
 101.6083400  53.5470717   2.6297424 101.3423853  53.7420793   4.1072795
  99.8333867  45.8370195  18.3650081  99.1574504  45.7364324  19.0352456
 100.6561501  45.6809409  18.8286078  91.5812726  52.0742132  10.9862596
  92.1666163  51.3285820  11.1190500  91.3837564  52.3846088  11.8699260
  94.4351381  55.1093379   6.0025038  93.7661756  55.5939507   5.5189078
  94.2964251  55.3562599   6.9168417  86.1730381  44.6447732   9.7067039
  86.2114480  44.1111323  10.5004157  85.6670673  44.1182937   9.0878016
  98.5756650  57.1437123  12.6007697  99.1274958  57.3068744  13.3656782
  98.9162843  57.7341560  11.9287721  93.5521143  39.4912272  13.2029581
  93.6162469  40.3527103  12.7906979  93.4888263  38.8786274  12.4701940
  93.0273415  41.5635405  16.8502615  93.6545454  41.1812482  17.4640140
  92.1701334  41.3449607  17.2158308 103.4267524  51.9698380  18.4556351
 103.9707428  52.5828338  17.9611306 102.8454369  52.5277958  18.9723364
  89.8038958  43.3711834   2.7820970  90.0992399  42.4622512   2.7288024
  88.9026994  43.3499573   2.4601973 101.7125037  55.0919098   9.5871379
 101.5876176  54.2908838   9.0782324 102.3704128  55.5865291   9.0985349
  93.3333205  41.4467831   8.7648519  92.6119791  42.0603798   8.6255992
  94.1226461  41.9825595   8.6865165 103.7759945  52.8928118  11.2150929
 102.8290281  52.7733469  11.1429256 104.1242718  52.0050616  11.2977190
  96.1359519  38.7822257  15.0389171  96.6593920  39.0284554  15.8015480
  95.9171852  39.6142292  14.6192308  91.5326800  41.0525932   2.9060295
  91.2039506  40.1723311   2.7235401  91.8866170  40.9973600   3.7936685
 100.7806379  52.6880834   7.4155281 100.6331341  51.7597542   7.5962851
 101.6059872  52.7100925   6.9312356  94.6468623  41.3398901   3.2735773
  94.9864695  41.8684823   2.5514382  95.0940743  41.6779308   4.0494340
 104.3840500  53.5109393   8.5020154 105.3087048  53.3052254   8.3644605
 104.2155804  53.2625794   9.4109495  97.3412064  39.7235952  12.7238841
  97.0008884  38.9243765  13.1259521  96.6351070  40.0237663  12.1515674
  97.9928536  36.8085265  11.1766164  98.8154605  36.3345743  11.0545055
  98.2366599  37.5875748  11.6764851  95.5167114  43.5004385   8.9858143
  95.3711695  43.8144688   9.8782424  95.0392318  44.1189286   8.4329041
  97.3763497  40.4906933   9.0339032  97.3625066  39.5948027   8.6971330
  98.0935925  40.4977597   9.6677318  99.2289628  40.9244273  11.0792160
  98.9707406  41.8461344  11.0776490  98.6974668  40.5274708  11.7692624
 104.1735817  54.0295061   3.8582245 104.3472694  53.4641483   3.1056098
 104.6664708  54.8295955   3.6761735  89.9912776  46.0409730  11.9245804
  89.4466245  46.8169538  12.0566078  90.8692126  46.3880534  11.7664925
  96.7800393  39.3721314   4.3026603  96.9016304  38.4437960   4.5017490
  96.4902435  39.3859999   3.3904918  90.7778798  45.1679626  14.8175961
  90.0360534  45.3162261  15.4040591  90.4571543  45.4287892  13.9542710
  98.7222461  54.7095604  14.6156351  99.0309587  54.4644751  15.4879050
  99.5197943  54.9142243  14.1275221  98.7443073  56.8633514   6.8461727
  98.3048063  56.3709892   7.5394584  99.4951190  56.3206481   6.6053803
  91.2235412  53.0545055   6.8486356  92.0493432  52.7548826   6.4684999
  90.8729464  52.2852677   7.2976144  96.1916945  52.4071523   8.9184029
  95.5696954  51.7442228   8.6186257  96.8621812  52.4332655   8.2357677
  89.4244017  50.9731381   7.8075289  88.5875925  50.5453555   7.6259290
  89.3967662  51.1663824   8.7446080  96.2641473  40.8853311  18.5116535
  96.3129628  41.7615434  18.1294305  96.8063987  40.3430704  17.9388178
 106.7496318  51.4294434  17.7917672 105.9591862  51.4118573  17.2522172
 106.5129673  51.9682728  18.5466709 106.8694193  48.2786900  15.1050401
 106.9192198  48.1136908  16.0465924 106.7608117  47.4114160  14.7148282
  95.7530452  50.9575446   2.3942490  95.9018572  51.6410911   1.7409162
  96.5596896  50.9380536   2.9091945 104.1597956  44.2617829  16.4209707
 105.0607819  44.1224293  16.1293705 104.2345930  44.4272283  17.3607885
  98.4940761  41.6384683  15.2662894  97.6244070  41.9318249  14.9945482
  98.7300241  42.2225128  15.9870157 108.3712390  50.6983842  15.3492422
 108.0797198  51.0613823  16.1855883 107.7584521  49.9850850  15.1705754
 106.6199578  45.8216457  13.8172480 107.0953700  46.0144103  13.0091332
 105.6965144  45.8775642  13.5715864  93.5083085  46.9840624   3.4003559
  93.2629127  46.0802954   3.5983769  93.6779000  46.9857774   2.4583037
 101.1979795  37.8564300  12.7828314 101.7161739  38.5925327  12.4574803
 100.8434928  38.1628293  13.6175073  92.7778733  42.7168981   0.8989720
  92.0847978  42.7913336   0.2429756  92.5330484  41.9529325   1.4211237
  99.2525858  53.4523577  -0.1345763  98.6799825  54.0713764  -0.5875291
  99.8258651  54.0022938   0.3994159 105.3201247  42.6982217  12.0500786
 106.2718670  42.7980314  12.0713010 105.1504698  41.9060485  12.5598870
 103.3415627  39.7837800  12.2360187 102.7465559  40.0642813  11.5406675
 103.0565324  40.2731701  13.0076928 102.4723117  53.7360727   0.9962819
 103.4053791  53.6706288   1.1995695 102.3846330  54.5716994   0.5377352
 107.7989325  45.9188336  11.1643086 107.7665645  44.9804337  11.3502769
 108.4089949  45.9972373  10.4308910  99.5211349  48.8402136  18.6670947
 100.4414358  49.0180735  18.8610993  99.4860932  47.8958181  18.5150646
  88.7393514  44.0340729   7.5924221  88.4196298  43.1806037   7.2998595
  88.1926942  44.2489307   8.3482189  92.5173421  46.7503170  11.3093728
  92.7359431  47.6820278  11.3281762  92.9299195  46.3911145  12.0948532
  97.3901286  42.3236376  20.6996477  97.2898013  43.2730733  20.6308568
  97.1722829  41.9954615  19.8272547  88.6081774  47.6543641   9.5617343
  87.9145245  47.2397593   9.0487297  89.3554765  47.6964177   8.9650762
  97.2532557  45.7533515  19.5161538  96.7699638  46.5533875  19.7225427
  97.3393496  45.7641460  18.5628982  90.5218516  47.5861894   7.4383358
  90.4989204  47.6849582   6.4865241  90.8319153  48.4327045   7.7600524
  93.1805894  49.6438049  11.5529972  94.1349148  49.6121992  11.4859904
  92.9818418  49.1828673  12.3680198  93.7705276  48.2139166  14.1200770
  94.5898165  48.7083244  14.1435607  94.0442084  47.2971134  14.0918337
  91.5356123  55.1857669   8.5700170  91.4010591  54.4258070   8.0038168
  91.1188185  55.9098569   8.1028959  94.6925249  56.0826986   8.7818613
  94.5757633  57.0272418   8.6797303  93.8717695  55.7800548   9.1704412
  89.0240190  42.5477299  14.8192967  89.6699054  42.0376253  15.3080192
  88.8157342  43.2845981  15.3936392 101.5493583  49.6158147  20.3185107
 102.4184742  49.7898799  19.9571742 101.0700334  50.4352564  20.1960837
  95.7179763  56.7355248  11.9974541  96.6207010  56.7678858  12.3141036
  95.4917133  55.8055699  12.0120877  97.4733365  55.4886234   8.6584620
  96.5228996  55.4888096   8.5448992  97.7765851  54.7418969   8.1420654
  93.3637681  39.6944916  18.9167981  94.2269143  39.3381721  19.1271306
  92.7903092  39.3558811  19.6043385 113.2086058  61.3246773   9.7230382
 113.8464468  61.2053520   9.0193722 113.0906901  62.2727617   9.7818334
 110.0175765  61.2774201   9.6591907 109.6794276  61.1615266   8.7712442
 110.8865533  60.8765366   9.6392913 110.4995548  62.4309053  15.6178112
 110.4884188  62.0361851  14.7458616 110.6616187  61.6975125  16.2111884
 103.4227012  64.6260869   8.4873018 104.2148304  64.2851694   8.0719317
 103.6623662  64.7355844   9.4075171 107.2202809  65.2146164  14.5657296
 106.9292675  66.1191795  14.4503963 107.8559793  65.2562692  15.2801366
 108.1459016  62.5923013  11.1558656 108.7422588  62.3679035  10.4415619
 108.2033987  61.8507758  11.7584104 112.7627327  59.0498227   6.7983590
 113.5490416  58.6317650   6.4474007 113.0266031  59.9544319   6.9665238
 115.6861174  52.6995034  12.1611177 115.3544499  53.5690445  11.9372392
 115.0906788  52.3831318  12.8405208 112.1792694  64.9007580  11.5607090
 111.8793417  65.8032619  11.4522897 111.8343753  64.6339763  12.4128243
 105.6305175  61.3521377   7.5943794 104.7055672  61.2197591   7.8021486
 105.8789588  62.1315596   8.0913737 115.5789838  57.4190120   9.2404527
 114.6706715  57.3505529   8.9463288 115.5277433  57.8962065  10.0686353
 102.9913986  60.9954650   8.4287583 103.1206367  61.2489129   9.3426995
 102.3111438  61.5882358   8.1092238 109.6530703  58.8379766  17.1839425
 108.8764037  59.3973686  17.1742289 110.2921266  59.3236549  17.7054295
 117.4451484  55.6206559  11.0182401 116.8025864  55.9139092  10.3722196
 116.9406413  55.5059479  11.8235598 107.9077076  61.6465219  16.7457392
 108.6491760  62.1850263  16.4692215 107.2014061  62.2731508  16.9028943
 113.3832415  63.7894360  15.3429553 113.7915771  63.3476770  14.5984185
 112.6609677  63.2146987  15.5963746 109.7363485  58.7266966  12.7163110
 110.5824681  59.1506380  12.8597759 109.6762123  58.0700591  13.4101673
 112.8862931  56.3871335  14.3744284 112.6423863  57.1413395  13.8378559
 113.1622861  56.7656682  15.2091531 114.8401393  62.9309947  13.0521549
 115.0518289  63.5741707  12.3755930 114.7931142  62.0972264  12.5843479
 112.4427622  55.5427768   9.9558121 111.5812101  55.8409021  10.2474859
 112.4690057  55.7598167   9.0239154 106.1513273  63.6341440   9.3011690
 106.7214630  64.0628708   8.6629175 106.7421385  63.3524025   9.9995876
 106.6438439  58.8004867  17.5472702 106.0137100  59.4821148  17.7808098
 106.5374527  58.6887949  16.6025840 101.9383412  58.4676663   8.4738626
 101.1482466  58.7234192   7.9978736 102.4294659  59.2825001   8.5790666
 103.8898157  58.8321243   5.4322102 103.0929321  58.9439937   5.9505598
 103.6623749  59.1707895   4.5662993 109.7203825  65.3565946  13.3804617
 109.7848257  65.8186353  14.2162789 109.0114749  64.7263311  13.5086927
 100.2221115  58.7207154  10.9053616 100.4729153  59.6054164  11.1711192
 100.7580663  58.5411755  10.1328708 105.9219182  53.1025633  19.9097953
 105.5286128  52.5491832  20.5845597 106.7385322  53.4136212  20.3004470
 108.8387143  54.5183512  17.5018209 109.5796857  55.1190665  17.4222672
 109.0705066  53.7761150  16.9436252 103.9828481  59.7039879  15.7796439
 103.8681996  58.8025137  16.0803538 103.1272999  59.9503576  15.4281255
 111.0620319  67.6457620  17.3783939 110.6184173  66.8593998  17.0604844
 111.7237532  67.8336770  16.7127830 105.8207440  69.1753421  11.9044618
 106.3714865  69.0470485  11.1321612 104.9818916  69.4748310  11.5539511
 113.1601557  67.9260420  15.4065341 113.1420032  68.7469301  14.9145610
 114.0821477  67.8014495  15.6315482 109.6174611  65.4404549  16.2488849
 110.1502948  64.6792837  16.0188157 109.0888692  65.1478201  16.9913004
 112.7844306  50.5464615  11.7782491 112.4408575  51.4366257  11.7021601
 113.1523269  50.3566273  10.9152076 100.8530157  62.8698146   4.5971093
 101.6905379  63.2795154   4.3804801 101.0308424  61.9297588   4.5671287
 111.8640846  52.9169270   9.7431724 111.3605642  52.8799405   8.9299529
 112.1571453  53.8262013   9.8028381 108.1083732  53.0008000   8.7497906
 108.9736729  52.8050809   8.3903795 108.1761241  52.7718352   9.6767263
 105.7146051  55.2310208   6.1214273 106.2889803  55.0085389   5.3887466
 106.3017034  55.2998902   6.8742874 111.2506460  58.5933390   9.1736990
 110.3329021  58.8148337   9.0158678 111.6666603  58.6679701   8.3148697
 100.8756328  60.2088861   5.2681826 100.6780728  59.6158222   4.5432893
 100.3202992  59.9041071   5.9857765 108.8553051  60.1011967   7.3876420
 108.9101661  59.1485804   7.3118896 108.0444254  60.2571407   7.8717718
 106.7945411  58.7189027   5.1466798 105.9813277  59.0183198   5.5531991
 107.2904406  58.3244716   5.8641281 112.3919623  59.1830852  13.9781692
 112.7469011  59.4102325  14.8376158 113.0391754  59.5149228  13.3558948
 106.2859486  56.2907383  10.7628033 106.9258865  56.1496142  10.0650997
 105.4537017  56.0041896  10.3866635 111.8814635  67.9727909  11.2275393
 111.9351657  68.5418845  11.9953109 111.0129416  68.1429794  10.8629431
 103.2888103  56.2607708   5.5401020 103.5494920  57.1753041   5.4310181
 104.1105275  55.7932150   5.6897633 104.7613028  57.6745465  12.7099845
 105.4336081  57.4662827  12.0612494 103.9342814  57.4767551  12.2705077
 110.6638600  54.3007406  14.7265506 110.0166515  54.9997355  14.6329982
 111.4339615  54.7343550  15.0941754 114.0717398  64.5656258  17.8016059
 113.9202904  64.3366810  16.8846143 114.0622077  65.5226859  17.8147404
 110.8402734  62.1388171  12.7862325 111.7694794  62.2899330  12.6131293
 110.4193764  62.2272191  11.9310972 109.6391066  66.1638835  10.5560863
 109.5002152  65.7957619  11.4286801 108.8505662  66.6786475  10.3844821
 105.1640525  60.9488068  13.4702282 105.0260323  60.2168307  14.0713821
 106.0745449  60.8596968  13.1886470 107.7922826  60.6608027  12.9585962
 108.5022444  60.0201219  12.9172580 107.7492134  60.9120922  13.8812142
 115.7809605  67.5975380  15.8792541 115.7222151  66.9134601  15.2123124
 116.1829123  68.3394370  15.4273167 106.5051760  57.6473245  14.7781601
 105.9689117  57.1963983  15.4303197 105.9168468  57.7819154  14.0352065
 115.7827012  65.5614964  14.1106520 114.8953791  65.2240886  14.2332919
 116.3525563  64.8297996  14.3475286  97.4356159  61.8939056   7.4349572
  98.1227199  61.5800786   6.8470587  97.2804288  62.7980421   7.1616823
 102.2390881  56.7829253  11.8634595 102.1549070  56.1754922  11.1285005
 101.4173587  57.2738271  11.8644092 111.7726849  70.1203251  13.2325922
 112.4854821  70.7550716  13.1601824 111.2816877  70.2167117  12.4165924
 108.9949564  57.4100199   6.9576475 108.6247351  56.8571240   7.6457381
 109.4908656  56.8058333   6.4051475 106.8238762  67.8697694  14.0531493
 107.5248222  68.5034177  14.2060887 106.3533877  68.2112426  13.2927132
 114.6240048  60.4242302  11.8784043 113.9711498  60.6718209  11.2236496
 115.0020428  59.6106440  11.5446521 110.6727621  61.1662113  18.3650081
 109.9968258  61.0656242  19.0352456 111.4955255  61.0101327  18.8286078
 102.4206480  67.4034049  10.9862596 103.0059917  66.6577737  11.1190500
 102.2231319  67.7138006  11.8699260  97.0124135  59.9739650   9.7067039
  97.0508235  59.4403240  10.5004157  96.5064428  59.4474855   9.0878016
 104.3914897  54.8204190  13.2029581 104.4556224  55.6819021  12.7906979
 104.3282018  54.2078192  12.4701940 103.8667170  56.8927323  16.8502615
 104.4939209  56.5104400  17.4640140 103.0095089  56.6741524  17.2158308
 114.2661278  67.2990298  18.4556351 114.8101182  67.9120256  17.9611306
 113.6848123  67.8569876  18.9723364 100.6432713  58.7003752   2.7820970
 100.9386154  57.7914430   2.7288024  99.7420748  58.6791491   2.4601973
 104.1726960  56.7759748   8.7648519 103.4513545  57.3895716   8.6255992
 104.9620215  57.3117513   8.6865165 106.9753273  54.1114175  15.0389171
 107.4987675  54.3576471  15.8015480 106.7565606  54.9434210  14.6192308
 102.3720554  56.3817849   2.9060295 102.0433260  55.5015228   2.7235401
 102.7259925  56.3265518   3.7936685 105.4862377  56.6690819   3.2735773
 105.8258450  57.1976740   2.5514382 105.9334498  57.0071225   4.0494340
 108.1805818  55.0527870  12.7238841 107.8402639  54.2535683  13.1259521
 107.4744824  55.3529581  12.1515674 108.8322290  52.1377182  11.1766164
 109.6548359  51.6637660  11.0545055 109.0760354  52.9167666  11.6764851
 106.3560869  58.8296303   8.9858143 106.2105449  59.1436606   9.8782424
 105.8786072  59.4481203   8.4329041 108.2157252  55.8198851   9.0339032
 108.2018820  54.9239944   8.6971330 108.9329680  55.8269515   9.6677318
 110.0683382  56.2536191  11.0792160 109.8101160  57.1753262  11.0776490
 109.5368423  55.8566626  11.7692624 100.8306531  61.3701647  11.9245804
 100.2859999  62.1461455  12.0566078 101.7085881  61.7172452  11.7664925
 107.6194148  54.7013231   4.3026603 107.7410059  53.7729877   4.5017490
 107.3296190  54.7151917   3.3904918 101.6172553  60.4971544  14.8175961
 100.8754289  60.6454179  15.4040591 101.2965297  60.7579809  13.9542710
 109.5616215  70.0387522  14.6156351 109.8703342  69.7936669  15.4879050
 110.3591697  70.2434160  14.1275221 100.2637772  66.3023299   7.8075289
  99.4269680  65.8745473   7.6259290 100.2361417  66.4955742   8.7446080
 107.1035227  56.2145229  18.5116535 107.1523383  57.0907351  18.1294305
 107.6457741  55.6722622  17.9388178 117.5890073  66.7586352  17.7917672
 116.7985617  66.7410491  17.2522172 117.3523427  67.2974645  18.5466709
 117.7087948  63.6078818  15.1050401 117.7585953  63.4428826  16.0465924
 117.6001871  62.7406077  14.7148282 114.9991710  59.5909746  16.4209707
 115.9001573  59.4516211  16.1293705 115.0739685  59.7564201  17.3607885
 109.3334516  56.9676601  15.2662894 108.4637825  57.2610167  14.9945482
 109.5693996  57.5517046  15.9870157 119.2106145  66.0275760  15.3492422
 118.9190953  66.3905740  16.1855883 118.5978276  65.3142768  15.1705754
 117.4593333  61.1508374  13.8172480 117.9347455  61.3436021  13.0091332
 116.5358898  61.2067560  13.5715864 112.0373549  53.1856218  12.7828314
 112.5555493  53.9217245  12.4574803 111.6828682  53.4920211  13.6175073
 116.1595002  58.0274134  12.0500786 117.1112425  58.1272232  12.0713010
 115.9898452  57.2352403  12.5598870 114.1809381  55.1129718  12.2360187
 113.5859313  55.3934730  11.5406675 113.8959078  55.6023619  13.0076928
 118.6383080  61.2480254  11.1643086 118.6059400  60.3096255  11.3502769
 119.2483703  61.3264291  10.4308910 110.3605103  64.1694053  18.6670947
 111.2808113  64.3472652  18.8610993 110.3254686  63.2250099  18.5150646
  99.5787268  59.3632647   7.5924221  99.2590052  58.5097955   7.2998595
  99.0320696  59.5781225   8.3482189 103.3567176  62.0795088  11.3093728
 103.5753185  63.0112196  11.3281762 103.7692949  61.7203062  12.0948532
 108.2295041  57.6528294  20.6996477 108.1291768  58.6022651  20.6308568
 108.0116583  57.3246533  19.8272547  99.4475528  62.9835558   9.5617343
  98.7539000  62.5689511   9.0487297 100.1948519  63.0256095   8.9650762
 108.0926311  61.0825432  19.5161538 107.6093393  61.8825793  19.7225427
 108.1787250  61.0933377  18.5628982 101.3612271  62.9153812   7.4383358
 101.3382959  63.0141499   6.4865241 101.6712907  63.7618963   7.7600524
 104.0199649  64.9729967  11.5529972 104.9742902  64.9413909  11.4859904
 103.8212172  64.5120591  12.3680198 104.6099031  63.5431083  14.1200770
 105.4291920  64.0375162  14.1435607 104.8835838  62.6263051  14.0918337
  99.8633945  57.8769217  14.8192967 100.5092808  57.3668171  15.3080192
  99.6551096  58.6137899  15.3936392 112.3887337  64.9450065  20.3185107
 113.2578497  65.1190717  19.9571742 111.9094089  65.7644481  20.1960837
 106.5573517  72.0647166  11.9974541 107.4600764  72.0970776  12.3141036
 106.3310887  71.1347617  12.0120877 104.2031436  55.0236834  18.9167981
 105.0662897  54.6673639  19.1271306 103.6296847  54.6850729  19.6043385
 116.7612937  68.4317551  19.9097953 116.3679882  67.8783749  20.5845597
 117.5779077  68.7428129  20.3004470 119.6780898  69.8475430  17.5018209
 120.4190611  70.4482583  17.4222672 119.9098820  69.1053068  16.9436252
 114.7060924  72.2219240  16.8502615 115.3332963  71.8396318  17.4640140
 113.8488843  72.0033442  17.2158308 117.9428982  71.5437146  18.5116535
 117.9917137  72.4199269  18.1294305 118.4851496  71.0014539  17.9388178
 119.0688795  72.9820211  20.6996477 118.9685522  73.9314568  20.6308568
 118.8510338  72.6538450  19.8272547 110.7027699  73.2061135  14.8192967
 111.3486563  72.6960089  15.3080192 110.4944850  73.9429816  15.3936392
 115.0425190  70.3528752  18.9167981 115.9056652  69.9965557  19.1271306
 114.4690601  70.0142647  19.6043385   4.8121908  77.4812574  87.2257035
   4.0585616  76.9119972  87.0701040   4.9469449  77.4475238  88.1727670
   1.6337655  77.4515324  85.1300702   2.0768801  76.7022649  84.7319825
   0.7564166  77.4425461  84.7474434   1.1770520  78.9220562  87.5223150
   2.0117411  79.3610367  87.6860710   1.3129649  78.4459216  86.7031395
   5.2228323  77.6388184  89.9577279   5.9531711  77.3773472  90.5184983
   4.6135268  76.9016906  89.9979347   3.3043620  75.7796047  90.5551731
   2.5776783  75.6452011  89.9468222   2.8890907  76.0872875  91.3608449
   0.9221415  72.0007899  87.9085162   1.5165905  71.7603635  87.1978470
   0.9947998  71.2815029  88.5358698   3.2292487  75.3074100  86.6828583
   2.6692045  75.3767289  87.4560145   2.6235991  75.1315084  85.9628080
   4.8148506  91.9830614  89.3758539   5.4526916  91.8637361  88.6721879
   4.6969349  92.9311457  89.4346491   1.6238212  91.9358042  89.3120064
   1.2856724  91.8199106  88.4240599   2.4927980  91.5349207  89.2921070
   3.0624587  97.4564486  80.6131420   2.4112566  98.0418566  80.2265433
   3.8568949  97.9870681  80.6726457   4.3689774  89.7082067  86.4511747
   5.1552864  89.2901491  86.1002164   4.6328479  90.6128160  86.6193396
   4.5399852  95.1454918  81.1500404   3.9045685  95.2189544  81.8621309
   4.2097258  95.7348517  80.4719483   9.7698201  89.6457301  87.3544726
  10.5023373  89.0756517  87.5882555   9.0137557  89.2578901  87.7951231
   1.3874321  92.0684542  84.5508068   1.0232528  91.5415163  85.2620990
   2.2441437  91.6783011  84.3774554   7.2923622  83.3578875  91.8139334
   6.9606947  84.2274286  91.5900549   6.6969235  83.0415159  92.4933365
   1.0279808  87.0974442  79.5469417   1.1954211  87.9654678  79.9139888
   0.8376977  87.2601723  78.6230706   3.7855141  95.5591421  91.2135247
   3.4855864  96.4616459  91.1051054   3.4406201  95.2923604  92.0656400
   7.1852285  88.0773961  88.8932684   6.2769162  88.0089369  88.5991445
   7.1339881  88.5545906  89.7214510   9.0513932  86.2790399  90.6710558
   8.4088312  86.5722932  90.0250353   8.5468860  86.1643320  91.4763755
   6.7054095  90.0253572  81.3596418   7.6171951  90.2580959  81.1844115
   6.1963742  90.6090617  80.7971496   4.9894863  94.4478200  94.9957710
   5.3978219  94.0060611  94.2512342   4.2672124  93.8730828  95.2491903
   1.3425933  89.3850807  92.3691267   2.1887128  89.8090221  92.5125916
   1.2824571  88.7284431  93.0629830   5.3123678  95.0079391  88.7509999
   4.6832540  95.1725105  88.0486067   4.9249340  95.4221000  89.5220963
   9.1912909  95.9433829  86.1054363   8.5063948  96.3232730  85.5551396
   9.2756759  96.5529155  86.8386311   4.4925378  87.0455175  94.0272441
   4.2486310  87.7997236  93.4906716   4.7685309  87.4240523  94.8619688
   6.4463841  93.5893788  92.7049706   6.6580736  94.2325548  92.0284087
   6.3993589  92.7556104  92.2371636   4.0490070  86.2011608  89.6086278
   3.1874549  86.4992862  89.9003016   4.0752505  86.4182007  88.6767311
   0.8651639  94.7453799  86.0160084   1.3289985  95.0241502  85.2264707
   0.6008438  93.8437244  85.8333175   7.5609669  96.4665743  90.8772064
   8.3827113  96.0645930  90.5954745   7.5572072  96.3633977  91.8288179
  15.6515662  92.8104492  87.2257035  14.8979370  92.2411890  87.0701040
  15.7863203  92.7767156  88.1727670   1.0414290  97.6817894  82.9011754
   0.9059965  98.5269430  83.3296602   1.5824103  97.8837172  82.1377688
   4.3906754  81.2048456  91.4310648   4.0471023  82.0950098  91.3549758
   4.7585716  81.0150113  90.5680233   4.3557036  91.1957067  79.9383083
   3.8403660  91.9661672  80.1771470   4.0834345  90.5222203  80.5616144
   1.9404147  86.0406768  84.9968321   1.0845744  85.6513618  84.8173960
   2.3531099  86.1198729  84.1368107   3.4703294  83.5753111  89.3959881
   2.9668090  83.5383246  88.5827686   3.7633901  84.4845854  89.4556538
   9.3291311  93.9489422  81.8736257   8.5520753  93.6100581  81.4291419
  10.0082791  93.9542045  81.1991222   4.1443340  89.0684159  81.7642864
   3.8393475  89.3830308  82.6153007   5.0973782  89.1465579  81.8070197
   2.5889771  95.2274382  83.4135818   2.0611133  94.4927142  83.1009056
   2.0877274  96.0049059  83.1675787   7.5682617  93.4223403  88.5302864
   6.9106292  94.1122664  88.6182993   8.3723017  93.8119835  88.8736851
   6.3788076  91.7767776  86.5806806   6.8919958  92.4097767  87.0828516
   7.0289300  91.1768971  86.2150166   3.6410450 101.7552100  79.3367477
   2.9672149 102.0583797  79.9452435   4.0276272 102.5581180  78.9872934
   2.8568907  89.2517231  88.8265147   1.9391468  89.4732178  88.6686835
   3.2729051  89.3263542  87.9676854   3.6403955  90.6508647  83.9567827
   4.3875774  91.1630044  83.6474949   3.9095544  90.3292699  84.8172221
   1.9130605  93.1467187  80.9394781   1.0041824  92.8626220  81.0367251
   1.9425689  93.5666266  80.0798088   7.1449872  96.7573777  84.7085949
   6.6912200  95.9164687  84.7651139   6.5143839  97.3935175  85.0460729
   6.0882792  87.6865763  85.9386616   5.3505549  87.1743149  86.2696859
   6.3409566  87.2466145  85.1269893   5.5882812  98.5950274  85.6435767
   5.8805786  99.1555331  84.9248133   6.0981432  98.8878835  86.3988926
   6.1894419  80.4642015  86.5328386   6.4953296  79.6039378  86.2454301
   6.9147024  81.0559635  86.3327379   1.6106693  94.6875931  78.2782860
   1.1726123  93.9711790  77.8188497   2.3517134  94.9152046  77.7167951
   0.5516437  99.3730625  86.7329220   0.5092616  99.5991471  85.8037752
   1.4679136  99.1393999  86.8815021   3.9982071  89.8414692  93.6309849
   4.3531458  90.0686165  94.4904315   4.6454202  90.1733069  93.0087105
   9.7279808  92.9633128  84.3359178   9.5897706  93.1534724  83.4080368
   9.3716026  93.7252511  84.7927230   9.7549187  95.0309655  89.3470450
  10.1885694  94.9384944  90.1953504  10.4680768  95.0067156  88.7090466
   3.4877082  98.6311749  90.8803551   3.5414104  99.2002686  91.6481266
   2.6191863  98.8013634  90.5157588  10.6164737  95.0733356  91.8803335
  10.8100627  95.9779166  92.1262610  10.5165355  94.6140775  92.7141920
   2.2701047  84.9591246  94.3793663   1.6228963  85.6581196  94.2858139
   3.0402063  85.3927390  94.7469911   2.4465182  92.7972011  92.4390482
   3.3757242  92.9483171  92.2659450   2.0256212  92.8856032  91.5839129
   1.8401666 101.9231772  81.5514557   2.0153421 101.4519815  82.3660179
   1.1534454 102.5497538  81.7795817   2.7958729  96.2004278  87.5977858
   2.4608561  96.1605048  88.4935508   2.2962674  95.5348994  87.1248268
   5.7317920  93.5460313  77.8714917   5.1147091  92.8207141  77.7747970
   5.2634409  94.3069673  77.5281992   7.3872052  98.2559221  95.5320698
   7.3284598  97.5718441  94.8651281   7.7891570  98.9978211  95.0801324
   7.3889459  96.2198805  93.7634678   6.5016238  95.8824727  93.8861076
   7.9588010  95.4881836  94.0003443   4.0177042  85.9266657  86.8832948
   4.5145742  85.1736619  86.5634018   3.2464024  85.9630974  86.3176157
  11.8706800  91.6307022  88.5251239  11.8596676  92.5131738  88.1545172
  11.0024179  91.2778573  88.3305776   5.1006823  94.6838344  84.4571371
   4.1663102  94.8039807  84.2876075   5.2783492  93.7810811  84.1931381
   8.4879375  90.5255663  84.9921405   8.9539827  91.3583655  84.9181708
   8.9386875  90.0600645  85.6966664   6.5555606  96.8699485  81.9907557
   6.8315450  96.7556079  82.9001431   5.6860104  96.4716970  81.9519730
   6.4596037  82.8936250  89.0312307   5.5459117  83.1240477  89.1994513
   6.8889139  82.9774694  89.8826339   6.2302496  91.0826142  91.5312201
   5.5773946  91.3302050  90.8764653   6.6082876  90.2690281  91.1974678
   3.1909670 101.1185836  85.6340371   3.3732064 100.3007492  86.0968123
   4.0142656 101.3353528  85.1965261   3.5251835 100.0454021  82.8955419
   4.0539602  99.5346475  82.2825581   3.7880055  99.7296551  83.7600952
   4.1581239 101.0794856  89.2399536   4.0332378 100.2784596  88.7310481
   4.8160330 101.5741050  88.7513506   6.2216147  98.8803877  90.8679086
   5.2746483  98.7609228  90.7957413   6.5698920  97.9926375  90.9505347
   3.2262581  98.6756593  87.0683438   3.0787543  97.7473300  87.2491008
   4.0516074  98.6976683  86.5840513   6.8296702  99.4985151  88.1548311
   7.7543250  99.2928013  88.0172762   6.6612006  99.2501553  89.0637652
   3.2224095  86.5294430  82.0615555   3.4387709  87.4119068  81.7604383
   2.7418162  86.1380644  81.3321197   1.6745830  86.9120032  90.7320317
   1.4163608  87.8337102  90.7304647   1.1430870  86.5150466  91.4220781
   6.6192019 100.0170819  83.5110402   6.7928896  99.4517241  82.7584255
   7.1120910 100.8171714  83.3289892   2.0947786  83.0451982  87.0921479
   2.1169482  83.1091315  86.1373459   2.5115845  82.2056491  87.2861986
  12.4731410  92.7807242  85.1300702  12.9162556  92.0314567  84.7319825
  11.5957920  92.7717378  84.7474434   7.6067191  99.3337583  80.6107301
   8.3018096  99.9544276  80.8294615   7.9490341  98.4832935  80.8859678
   9.5058614  96.7837289  82.1394631  10.0309938  97.1224562  81.4143951
   9.4180967  95.8484304  81.9557766   1.1899275 102.8509272  86.4989885
   0.7504265 102.3585651  87.1922741   1.9407392 102.3082240  86.2581960
   9.3150395  94.2662659  94.7578558   9.3648400  94.1012666  95.6994081
   9.2064319  93.3989918  94.3676439   6.6054158  90.2493587  96.0737865
   7.5064021  90.1100052  95.7821862   6.6802132  90.4148042  97.0136042
  10.8168592  96.6859600  95.0020579  10.5253401  97.0489581  95.8384040
  10.2040724  95.9726609  94.8233911  12.0164275  94.2512480  87.5223150
  12.8511166  94.6902284  87.6860710  12.1523403  93.7751133  86.7031395
   9.0655780  91.8092215  93.4700637   9.5409902  92.0019861  92.6619489
   8.1421346  91.8651401  93.2244021   3.6435997  83.8440059  92.4356471
   4.1617941  84.5801085  92.1102960   3.2891130  84.1504052  93.2703230
   3.8948591  80.2640341  87.9557368   4.1750345  79.5963530  88.5817794
   4.6799198  80.4569437  87.4432032   1.6982060  99.4399335  79.5182394
   1.1256027 100.0589522  79.0652866   2.2714853  99.9898697  80.0522316
   7.7657449  88.6857975  91.7028943   8.7174872  88.7856073  91.7241167
   7.5960900  87.8936244  92.2127027   5.7871829  85.7713558  91.8888344
   5.1921761  86.0518571  91.1934833   5.5021526  86.2607459  92.6605085
   4.9179319  99.7236485  80.6490976   5.8509993  99.6582047  80.8523852
   4.8302532 100.5592752  80.1905509   7.5467336  99.0402355  77.6094924
   7.4680968  98.7062219  78.5030682   8.3677003  99.5324123  77.6086396
  10.2445527  91.9064095  90.8171243  10.2121847  90.9680096  91.0030926
  10.8546151  91.9848131  90.0837067   2.0828858  90.7760148  76.8598447
   3.0287963  90.6466356  76.9286865   1.7043103  90.0374810  77.3367875
  10.3940016  88.6975138  90.8629526   9.8779064  87.9133595  90.6759455
  11.2779964  88.3693855  91.0276045   8.0550743  82.4416154  86.8225338
   7.8575564  82.1331242  87.7068670   8.6650448  83.1677793  86.9523268
  16.0622077  92.9680102  89.9577279  16.7925466  92.7065390  90.5184983
  15.4529023  92.2308824  89.9979347  14.1437374  91.1087964  90.5551731
  13.4170538  90.9743929  89.9468222  13.7284661  91.4164793  91.3608449
   1.8833841  83.2447014  82.9497573   1.0734569  82.8994099  83.3252819
   2.5718258  82.9354558  83.5385185   3.8124389  82.3225061  84.5721870
   4.3655428  82.7420514  85.2311893   4.0494476  81.3960809  84.6144826
   7.1903196  84.4325586  84.0800534   6.6101865  85.0910390  83.6978586
   6.9239129  83.6102930  83.6687952   5.6406763  83.8330644  86.2821854
   6.1406541  83.9447178  85.4736173   6.2842371  83.5291696  86.9222663
   5.9728074  86.5925676  83.1356882   5.0853929  86.8775327  82.9177077
   6.3882063  86.4319440  82.2884159   9.3242611  86.6172197  86.8511222
  10.1003001  87.1068650  87.1235838   8.5990745  87.0430251  87.3083091
  11.7615169  87.3299816  87.9085162  12.3559660  87.0895552  87.1978470
  11.8341753  86.6106947  88.5358698   5.1171288  96.3570351  77.2304902
   5.8207138  96.5620353  77.8462558   4.3933937  96.9247113  77.4953986
   5.9469098  92.1080212  83.3507172   5.8904300  92.5648764  82.5114805
   6.4997441  91.3470897  83.1730015   9.7573904  87.8969944  84.1757292
   9.5010838  87.4966580  85.0065500   9.1326772  88.6113738  84.0507431
  14.0686242  90.6366017  86.6828583  13.5085800  90.7059207  87.4560145
  13.4629745  90.4607002  85.9628080   7.0257985  96.7952880  79.2803362
   7.8603589  96.3634079  79.0980837   6.8642328  96.6234894  80.2080257
   6.6803877  93.2984993  80.6459702   6.6252681  93.1329265  79.7048146
   6.0549933  94.0061026  80.8021891   3.8052122  79.3935879  84.4790957
   3.0384518  78.8394366  84.6247639   4.2162827  79.4657748  85.3405109
  15.6542260 107.3122531  89.3758539  16.2920670 107.1929279  88.6721879
  15.5363103 108.2603375  89.4346491  12.4631967 107.2649959  89.3120064
  12.1250478 107.1491024  88.4240599  13.3321735 106.8641124  89.2921070
  10.1640246 106.0338207  78.6437004  10.4165767 105.5119728  77.8820467
   9.2264805 105.8704352  78.7463688  15.2083529 105.0373985  86.4511747
  15.9946618 104.6193408  86.1002164  15.4722233 105.9420077  86.6193396
  20.6091956 104.9749218  87.3544726  21.3417128 104.4048435  87.5882555
  19.8531312 104.5870819  87.7951231  12.2268076 107.3976460  84.5508068
  11.8626283 106.8707081  85.2620990  13.0835192 107.0074929  84.3774554
  18.1317376  98.6870792  91.8139334  17.8000701  99.5566203  91.5900549
  17.5362990  98.3707076  92.4933365  11.8673563 102.4266359  79.5469417
  12.0347965 103.2946596  79.9139888  11.6770732 102.5893641  78.6230706
  18.0246040 103.4065879  88.8932684  17.1162917 103.3381287  88.5991445
  17.9733635 103.8837823  89.7214510  11.8462784 104.8824017  80.5316083
  11.7262409 105.3281068  81.3701564  11.1515372 105.2309335  79.9729622
  19.8907686 101.6082317  90.6710558  19.2482066 101.9014850  90.0250353
  19.3862615 101.4935237  91.4763755  17.5447850 105.3545490  81.3596418
  18.4565706 105.5872877  81.1844115  17.0357497 105.9382534  80.7971496
  15.8288617 109.7770118  94.9957710  16.2371973 109.3352528  94.2512342
  15.1065879 109.2022745  95.2491903  12.1819687 104.7142725  92.3691267
  13.0280883 105.1382138  92.5125916  12.1218325 104.0576349  93.0629830
  15.3319133 102.3747093  94.0272441  15.0880065 103.1289154  93.4906716
  15.6079063 102.7532441  94.8619688  17.2857596 108.9185705  92.7049706
  17.4974491 109.5617465  92.0284087  17.2387344 108.0848022  92.2371636
  14.8883824 101.5303526  89.6086278  14.0268304 101.8284780  89.9003016
  14.9146259 101.7473925  88.6767311  10.6414280 106.1968869  82.8249649
  11.3438323 106.6489913  83.2923576  10.3094908 105.5552688  83.4529542
   4.3839614 104.4552422  88.1266783   3.5938668 104.7109950  87.6506893
   4.8750861 105.2700760  88.2318823   6.3354359 104.8197001  85.0850259
   5.5385523 104.9315695  85.6033755   6.1079951 105.1583653  84.2191150
  26.4909417 108.1396409  87.2257035  25.7373125 107.5703807  87.0701040
  26.6256958 108.1059074  88.1727670  11.2843345 100.5059271  97.1546366
  12.0253059 101.1066424  97.0750829  11.5161268  99.7636908  96.5964409
  15.2300508  96.5340374  91.4310648  14.8864778  97.4242015  91.3549758
  15.5979471  96.3442031  90.5680233  15.1950791 106.5248985  79.9383083
  14.6797414 107.2953589  80.1771470  14.9228099 105.8514121  80.5616144
  12.7797902 101.3698685  84.9968321  11.9239498 100.9805536  84.8173960
  13.1924854 101.4490646  84.1368107  14.3097049  98.9045029  89.3959881
  13.8061844  98.8675164  88.5827686  14.6027655  99.8137771  89.4556538
  10.5539934  98.9883758  88.4026063  11.4192931  98.7926567  88.0431952
  10.6217443  98.7594110  89.3295420  20.1685065 109.2781339  81.8736257
  19.3914508 108.9392499  81.4291419  20.8476546 109.2833962  81.1991222
  14.9837094 104.3976077  81.7642864  14.6787230 104.7122226  82.6153007
  15.9367536 104.4757497  81.8070197  18.4076372 108.7515321  88.5302864
  17.7500046 109.4414582  88.6182993  19.2116771 109.1411752  88.8736851
   8.1602253 101.2185966  85.7742430   8.7346005 100.9961148  85.0415623
   8.7473236 101.2874661  86.5271031  17.2181831 107.1059693  86.5806806
  17.7313712 107.7389685  87.0828516  17.8683055 106.5060889  86.2150166
   8.4871841 103.2490427  79.7938315   7.6509153 103.5865114  80.1147590
   8.3476610 103.1139407  78.8565452  10.4624921  98.0927215  84.5017499
   9.8089334  97.7776232  83.8774114  10.4205395  97.4702956  85.2277322
  11.5736126 108.3746510  76.4170791  10.6663188 108.1435764  76.6161940
  12.0707158 107.5784130  76.6044773  13.6962662 104.5809149  88.8265147
  12.7785223 104.8024096  88.6686835  14.1122805 104.6555459  87.9676854
  14.4797709 105.9800564  83.9567827  15.2269528 106.4921962  83.6474949
  14.7489299 105.6584617  84.8172221  12.7524359 108.4759105  80.9394781
  11.8435579 108.1918138  81.0367251  12.7819443 108.8958184  80.0798088
  16.9276546 103.0157681  85.9386616  16.1899303 102.5035067  86.2696859
  17.1803320 102.5758062  85.1269893  17.0288174  95.7933933  86.5328386
  17.3347051  94.9331296  86.2454301  17.7540779  96.3851553  86.3327379
  11.3009254 106.0887726  87.0404577  11.3557863 105.1361562  86.9647053
  10.4900456 106.2447165  87.5245875   9.2401613 104.7064786  84.7994956
   8.4269479 105.0058956  85.2060148   9.7360608 104.3120474  85.5169438
  14.8375825 105.1706610  93.6309849  15.1925213 105.3978083  94.4904315
  15.4847956 105.5024987  93.0087105  20.5673562 108.2925046  84.3359178
  20.4291461 108.4826642  83.4080368  20.2109781 109.0544429  84.7927230
   8.7315688 102.2783141  90.4156190   9.3715068 102.1371900  89.7179154
   7.8993219 101.9917654  90.0394792  20.5942942 110.3601573  89.3470450
  21.0279448 110.2676862  90.1953504  21.3074522 110.3359073  88.7090466
   5.8158756 105.7228653  82.6050936   4.8856344 105.6613109  82.8220898
   5.9116228 105.2004606  81.8087577   5.7344305 102.2483466  85.1929177
   5.9951122 103.1628799  85.0838338   6.5561477 101.7807909  85.3425790
  21.4558491 110.4025274  91.8803335  21.6494381 111.3071084  92.1262610
  21.3559109 109.9432693  92.7141920  13.1094802 100.2883164  94.3793663
  12.4622717 100.9873114  94.2858139  13.8795817 100.7219308  94.7469911
  13.2858936 108.1263929  92.4390482  14.2150996 108.2775089  92.2659450
  12.8649966 108.2147950  91.5839129  16.5711675 108.8752230  77.8714917
  15.9540846 108.1499059  77.7747970  16.1028163 109.6361591  77.5281992
   8.3610221 103.0937655  76.9936222   7.4839687 102.9726456  76.6298468
   8.8367974 102.3023733  76.7415110  14.8570797 101.2558575  86.8832948
  15.3539497 100.5028537  86.5634018  14.0857778 101.2922891  86.3176157
  22.7100554 106.9598940  88.5251239  22.6990431 107.8423656  88.1545172
  21.8417934 106.6070491  88.3305776  11.4405766 103.3975958  86.6104632
  11.0703553 102.8446998  87.2985538  11.9364858 102.7934091  86.0579632
  19.3273129 105.8547581  84.9921405  19.7933581 106.6875573  84.9181708
  19.7780630 105.3892563  85.6966664  17.2989792  98.2228168  89.0312307
  16.3852872  98.4532395  89.1994513  17.7282893  98.3066612  89.8826339
  17.0696250 106.4118060  91.5312201  16.4167700 106.6593968  90.8764653
  17.4476630 105.5982198  91.1974678   6.8371099 100.8079948  92.8557738
   6.9012426 101.6694779  92.4435136   6.7738220 100.1953950  92.1230097
   3.0888915 104.6879510  82.4349127   3.3842356 103.7790188  82.3816181
   2.1876950 104.6667249  82.1130130   6.6183162 102.7635507  88.4176676
   5.8969747 103.3771474  88.2784149   7.4076417 103.2993271  88.3393322
   9.4209475 100.0989933  94.6917328   9.9443877 100.3452230  95.4543637
   9.2021808 100.9309968  94.2720465   4.8176756 102.3693608  82.5588453
   4.4889462 101.4890987  82.3763558   5.1716127 102.3141276  83.4464842
   7.9318579 102.6566577  82.9263930   8.2714652 103.1852499  82.2042539
   8.3790700 102.9946984  83.7022497  10.6262020 101.0403628  92.3766998
  10.2858841 100.2411441  92.7787678   9.9201027 101.3405339  91.8043831
  11.2778492  98.1252941  90.8294321  12.1004561  97.6513419  90.7073212
  11.5216556  98.9043424  91.3293008   9.9186727 101.1541199  81.1257223
  10.6395089 101.5322452  80.6220940   9.2952031 101.8730076  81.2292201
  14.0617849 101.8586348  82.0615555  14.2781464 102.7410986  81.7604383
  13.5811917 101.4672561  81.3321197   8.8017071 104.8172061  88.6386300
   8.6561652 105.1312364  89.5310581   8.3242274 105.4356962  88.0857199
  10.6613454 101.8074609  88.6867189  10.6475022 100.9115703  88.3499487
  11.3785882 101.8145273  89.3205476  12.5139584 102.2411949  90.7320317
  12.2557362 103.1629020  90.7304647  11.9824625 101.8442384  91.4220781
  10.0650350 100.6888990  83.9554760  10.1866261  99.7605636  84.1545647
   9.7752392 100.7027676  83.0433075  12.9341540  98.3743900  87.0921479
  12.9563237  98.4383233  86.1373459  13.3509599  97.5348409  87.2861986
  23.3125164 108.1099160  85.1300702  23.7556310 107.3606485  84.7319825
  22.4351675 108.1009296  84.7474434  20.1544150 109.5954577  94.7578558
  20.2042155 109.4304584  95.6994081  20.0458073 108.7281836  94.3676439
  17.4447912 105.5785505  96.0737865  18.3457775 105.4391969  95.7821862
  17.5195887 105.7439959  97.0136042  11.7790718 102.9552359  94.9191051
  10.9094027 103.2485925  94.6473639  12.0150198 103.5392804  95.6398315
  22.8558029 109.5804398  87.5223150  23.6904920 110.0194202  87.6860710
  22.9917158 109.1043051  86.7031395  19.9049535 107.1384133  93.4700637
  20.3803657 107.3311779  92.6619489  18.9815100 107.1943319  93.2244021
  14.4829751  99.1731976  92.4356471  15.0011695  99.9093003  92.1102960
  14.1284884  99.4795970  93.2703230   6.0628689 104.0336657  80.5517877
   5.3697934 104.1081012  79.8957913   5.8180441 103.2697001  81.0739394
  14.7342346  95.5932259  87.9557368  15.0144099  94.9255448  88.5817794
  15.5192953  95.7861354  87.4432032  18.6051204 104.0149893  91.7028943
  19.5568627 104.1147990  91.7241167  18.4354654 103.2228161  92.2127027
  16.6265583 101.1005476  91.8888344  16.0315516 101.3810489  91.1934833
  16.3415280 101.5899377  92.6605085  21.0839282 107.2356012  90.8171243
  21.0515602 106.2972013  91.0030926  21.6939905 107.3140049  90.0837067
  12.9222613 106.1052065  76.8598447  13.8681717 105.9758274  76.9286865
  12.5436858 105.3666727  77.3367875  21.2333770 104.0267056  90.8629526
  20.7172819 103.2425513  90.6759455  22.1173719 103.6985773  91.0276045
  18.8944497  97.7708071  86.8225338  18.6969318  97.4623160  87.7068670
  19.5044203  98.4969710  86.9523268  26.9015832 108.2972019  89.9577279
  27.6319220 108.0357307  90.5184983  26.2922777 107.5600741  89.9979347
  24.9831129 106.4379882  90.5551731  24.2564292 106.3035847  89.9468222
  24.5678416 106.7456710  91.3608449  11.1065530 104.0302042  76.7953332
  10.1996985 103.7335155  76.8716045  11.3841511 103.7331860  75.9287618
  12.7227595  98.5738932  82.9497573  11.9128324  98.2286017  83.3252819
  13.4112012  98.2646475  83.5385185  14.6518144  97.6516978  84.5721870
  15.2049182  98.0712432  85.2311893  14.8888230  96.7252726  84.6144826
   9.8764314 100.8888977  76.9365311  10.7383478 101.2143875  77.1961128
  10.0614659 100.1020473  76.4238377  18.0296951  99.7617503  84.0800534
  17.4495620 100.4202308  83.6978586  17.7632884  98.9394848  83.6687952
  16.4800517  99.1622561  86.2821854  16.9800296  99.2739096  85.4736173
  17.1236125  98.8583614  86.9222663  16.8121829 101.9217594  83.1356882
  15.9247684 102.2067245  82.9177077  17.2275818 101.7611357  82.2884159
  20.1636365 101.9464115  86.8511222  20.9396755 102.4360567  87.1235838
  19.4384499 102.3722169  87.3083091  22.6008924 102.6591734  87.9085162
  23.1953414 102.4187470  87.1978470  22.6735507 101.9398865  88.5358698
  16.7862853 107.4372130  83.3507172  16.7298054 107.8940681  82.5114805
  17.3391195 106.6762814  83.1730015  20.5967659 103.2261862  84.1757292
  20.3404593 102.8258497  85.0065500  19.9720527 103.9405656  84.0507431
  24.9079996 105.9657935  86.6828583  24.3479554 106.0351124  87.4560145
  24.3023500 105.7898920  85.9628080  17.5197632 108.6276911  80.6459702
  17.4646436 108.4621182  79.7048146  16.8943687 109.3352944  80.8021891
  10.8293757  98.1285020  80.2245020  10.8172427  99.0726860  80.3813291
  11.7217179  97.9455165  79.9304481  14.6445877  94.7227797  84.4790957
  13.8778273  94.1686283  84.6247639  15.0556582  94.7949665  85.3405109
  26.0694263 111.8632291  91.4310648  25.7258532 112.7533933  91.3549758
  26.4373225 111.6733949  90.5680233  27.8681928 111.1225850  86.5328386
  28.1740805 110.2623214  86.2454301  28.5934533 111.7143471  86.3327379
  28.1383546 113.5520086  89.0312307  27.2246626 113.7824313  89.1994513
  28.5676648 113.6358530  89.8826339  25.5736100 110.9224176  87.9557368
  25.8537854 110.2547366  88.5817794  26.3586707 111.1153272  87.4432032
  29.7338252 113.0999989  86.8225338  29.5363073 112.7915077  87.7068670
  30.3437957 113.8261628  86.9523268  25.4911898 112.9808896  84.5721870
  26.0442937 113.4004349  85.2311893  25.7281985 112.0544644  84.6144826
  25.4839631 110.0519714  84.4790957  24.7172027 109.4978201  84.6247639
  25.8950336 110.1241583  85.3405109   4.8121909  54.4874697  73.9502342
   4.0585617  53.9182095  73.7946346   4.9469450  54.4537361  74.8972976
   1.6337657  54.4577447  71.8546009   2.0768803  53.7084772  71.4565132
   0.7564167  54.4487583  71.4719741   1.1770521  55.9282685  74.2468456
   2.0117413  56.3672489  74.4106017   1.3129650  55.4521338  73.4276702
   5.2228324  54.6450307  76.6822586   5.9531712  54.3835595  77.2430289
   4.6135269  53.9079028  76.7224654   3.3043621  52.7858169  77.2797037
   2.5776785  52.6514134  76.6713529   2.8890908  53.0934998  78.0853755
   0.9221416  49.0070021  74.6330469   1.5165907  48.7665757  73.9223777
   0.9948000  48.2877152  75.2604005   3.2292489  52.3136222  73.4073890
   2.6692047  52.3829411  74.1805452   2.6235992  52.1377207  72.6873386
   4.8148507  68.9892736  76.1003846   5.4526917  68.8699483  75.3967186
   4.6969350  69.9373580  76.1591798   1.6238213  68.9420164  76.0365370
   1.2856725  68.8261229  75.1485905   2.4927982  68.5411329  76.0166377
   2.1057996  70.0955016  81.9951576   2.0946637  69.7007814  81.1232080
   2.2678636  69.3621089  82.5885347   3.0624588  74.4626608  67.3376726
   2.4112568  75.0480689  66.9510740   3.8568951  74.9932803  67.3971764
   4.3689776  66.7144190  73.1757054   5.1552865  66.2963613  72.8247471
   4.6328480  67.6190282  73.3438702   4.5399853  72.1517040  67.8745711
   3.9045686  72.2251667  68.5866615   4.2097259  72.7410639  67.1964790
   9.7698203  66.6519423  74.0790032  10.5023375  66.0818640  74.3127862
   9.0137558  66.2641024  74.5196538   1.3874322  69.0746665  71.2753375
   1.0232530  68.5477286  71.9866296   2.2441438  68.6845134  71.1019860
   7.2923623  60.3640997  78.5384641   6.9606948  61.2336408  78.3145856
   6.6969236  60.0477281  79.2178671   1.0279809  64.1036564  66.2714723
   1.1954212  64.9716801  66.6385194   0.8376979  64.2663846  65.3476013
   3.7855143  72.5653543  77.9380554   3.4855866  73.4678582  77.8296361
   3.4406202  72.2985726  78.7901707   7.1852286  65.0836083  75.6177991
   6.2769164  65.0151492  75.3236752   7.1339882  65.5608028  76.4459816
   1.2593152  66.5025729  83.5612888   0.4826486  67.0619649  83.5515753
   1.8983715  66.9882512  84.0827758   9.0513933  63.2852522  77.3955865
   8.4088313  63.5785055  76.7495659   8.5468861  63.1705442  78.2009062
   6.7054096  67.0315695  68.0841724   7.6171953  67.2643082  67.9089422
   6.1963744  67.6152739  67.5216803   4.9894864  71.4540323  81.7203017
   5.3978220  71.0122733  80.9757649   4.2672126  70.8792950  81.9737210
   1.3425934  66.3912930  79.0936574   2.1887129  66.8152343  79.2371223
   1.2824572  65.7346554  79.7875137   5.3123679  72.0141513  75.4755306
   4.6832541  72.1787228  74.7731373   4.9249341  72.4283123  76.2466270
   9.1912911  72.9495951  72.8299669   8.5063949  73.3294853  72.2796703
   9.2756760  73.5591278  73.5631617   4.4925380  64.0517298  80.7517747
   4.2486311  64.8059359  80.2152023   4.7685310  64.4302646  81.5864994
   6.4463842  70.5955910  79.4295013   6.6580738  71.2387670  78.7529394
   6.3993591  69.7618227  78.9616943   4.0490071  63.2073731  76.3331585
   3.1874550  63.5054985  76.6248323   4.0752506  63.4244130  75.4012618
   0.8651641  71.7515922  72.7405391   1.3289986  72.0303625  71.9510013
   0.6008439  70.8499366  72.5578481   7.5609670  73.4727866  77.6017370
   8.3827114  73.0708053  77.3200052   7.5572073  73.3696100  78.5533486
   1.3266274  73.0211909  79.7578081   1.3910706  73.4832316  80.5936253
   0.6177198  72.3909274  79.8860391  15.6515663  69.8166614  73.9502342
  14.8979372  69.2474012  73.7946346  15.7863204  69.7829279  74.8972976
   1.0414291  74.6880017  69.6257061   0.9059966  75.5331552  70.0541909
   1.5824104  74.8899294  68.8622995   2.6682768  75.3103583  83.7557403
   2.2246622  74.5239962  83.4378308   3.3299981  75.4982734  83.0901294
   4.7664006  75.5906383  81.7838804   4.7482481  76.4115264  81.2919074
   5.6883926  75.4660458  82.0088946   1.2237060  73.1050512  82.6262313
   1.7565397  72.3438801  82.3961621   0.6951141  72.8124164  83.3686467
   4.3906755  58.2110578  78.1555955   4.0471024  59.1012220  78.0795065
   4.7585718  58.0212236  77.2925540   4.3557038  68.2019190  66.6628390
   3.8403661  68.9723794  66.9016777   4.0834346  67.5284326  67.2861451
   1.9404149  63.0468890  71.7213628   1.0845745  62.6575741  71.5419267
   2.3531100  63.1260851  70.8613414   3.4703295  60.5815234  76.1205188
   2.9668091  60.5445369  75.3072993   3.7633902  61.4907976  76.1801844
   9.3291312  70.9551544  68.5981563   8.5520755  70.6162704  68.1536725
  10.0082793  70.9604167  67.9236528   4.1443341  66.0746282  68.4888171
   3.8393476  66.3892431  69.3398314   5.0973783  66.1527702  68.5315504
   2.5889773  72.2336505  70.1381125   2.0611134  71.4989265  69.8254362
   2.0877275  73.0111181  69.8921093   7.5682619  70.4285525  75.2548171
   6.9106293  71.1184787  75.3428300   8.3723018  70.8181957  75.5982157
   6.3788077  68.7829898  73.3052113   6.8919959  69.4159890  73.8073823
   7.0289301  68.1831094  72.9395473   3.6410452  78.7614222  66.0612784
   2.9672150  79.0645919  66.6697742   4.0276274  79.5643303  65.7118241
   2.8568908  66.2579354  75.5510453   1.9391470  66.4794301  75.3932141
   3.2729052  66.3325664  74.6922161   3.6403956  67.6570769  70.6813134
   4.3875775  68.1692167  70.3720256   3.9095546  67.3354822  71.5417527
   1.9130606  70.1529310  67.6640088   1.0041826  69.8688343  67.7612558
   1.9425690  70.5728389  66.8043395   7.1449874  73.7635900  71.4331256
   6.6912201  72.9226809  71.4896446   6.5143840  74.3997298  71.7706036
   6.0882793  64.6927886  72.6631923   5.3505550  64.1805272  72.9942166
   6.3409567  64.2528267  71.8515200   5.5882813  75.6012396  72.3681074
   5.8805787  76.1617453  71.6493439   6.0981433  75.8940957  73.1234233
   6.1894421  57.4704138  73.2573692   6.4953297  56.6101501  72.9699607
   6.9147025  58.0621758  73.0572686   1.6106694  71.6938054  65.0028167
   1.1726124  70.9773913  64.5433804   2.3517135  71.9214169  64.4413258
   0.5516438  76.3792747  73.4574527   0.5092617  76.6053594  72.5283059
   1.4679137  76.1456122  73.6060328   3.9982072  66.8476815  80.3555156
   4.3531460  67.0748288  81.2149622   4.6454203  67.1795192  79.7332411
   9.7279809  69.9695251  71.0604485   9.5897707  70.1596847  70.1325674
   9.3716028  70.7314634  71.5172536   9.7549188  72.0371778  76.0715757
  10.1885695  71.9447067  76.9198811  10.4680769  72.0129278  75.4335773
   3.4877083  75.6373872  77.6048857   3.5414106  76.2064808  78.3726573
   2.6191865  75.8075757  77.2402894  10.6164738  72.0795478  78.6048642
  10.8100628  72.9841289  78.8507917  10.5165356  71.6202898  79.4387227
   2.2701049  61.9653369  81.1038969   1.6228964  62.6643319  81.0103446
   3.0402064  62.3989513  81.4715218   5.6779847  72.2302221  84.1789523
   5.5265353  72.0012773  83.2619606   5.6684526  73.1872823  84.1920868
   2.4465183  69.8034134  79.1635789   3.3757243  69.9545294  78.9904756
   2.0256213  69.8918155  78.3084436   1.8401667  78.9293895  68.2759863
   2.0153423  78.4581938  69.0905486   1.1534455  79.5559661  68.5041124
   2.7958730  73.2066401  74.3223164   2.4608563  73.1667171  75.2180814
   2.2962676  72.5411117  73.8493575   5.7317922  70.5522435  64.5960224
   5.1147092  69.8269264  64.4993277   5.2634410  71.3131796  64.2527298
   7.3872053  75.2621344  82.2566004   7.3284599  74.5780564  81.5896587
   7.7891572  76.0040334  81.8046630   7.3889461  73.2260928  80.4879984
   6.5016239  72.8886849  80.6106383   7.9588012  72.4943959  80.7248750
   4.0177044  62.9328780  73.6078254   4.5145743  62.1798742  73.2879325
   3.2464025  62.9693096  73.0421464  11.8706801  68.6369145  75.2496546
  11.8596677  69.5193860  74.8790479  11.0024181  68.2840696  75.0551083
   3.3789298  77.7849214  79.6099386   4.0917270  78.4196679  79.5375287
   2.8879326  77.8813080  78.7939388   5.1006824  71.6900467  71.1816678
   4.1663103  71.8101929  71.0121382   5.2783493  70.7872934  70.9176688
   8.4879376  67.5317786  71.7166712   8.9539828  68.3645778  71.6427014
   8.9386876  67.0662768  72.4211970   6.5555607  73.8761607  68.7152864
   6.8315451  73.7618202  69.6246738   5.6860106  73.4779092  68.6765037
   6.4596039  59.8998373  75.7557613   5.5459118  60.1302600  75.9239820
   6.8889140  59.9836817  76.6071646   6.2302497  68.0888265  78.2557507
   5.5773947  68.3364172  77.6009960   6.6082877  67.2752403  77.9219984
   3.1909671  78.1247958  72.3585677   3.3732065  77.3069614  72.8213430
   4.0142657  78.3415650  71.9210567   3.5251836  77.0516143  69.6200726
   4.0539603  76.5408598  69.0070888   3.7880056  76.7358674  70.4846259
   2.2790070  68.8308076  84.7423544   1.6030707  68.7302205  85.4125919
   3.1017704  68.6747290  85.2059541   1.0212853  80.1375004  78.9781160
   1.5731161  80.3006625  79.7430245   1.3619046  80.7279441  78.3061185
   5.8723727  74.9636261  84.8329815   6.4163631  75.5766219  84.3384769
   5.2910572  75.5215839  85.3496828   4.1581240  78.0856979  75.9644842
   4.0332380  77.2846719  75.4555788   4.8160331  78.5803172  75.4758812
   6.2216149  75.8865999  77.5924392   5.2746484  75.7671350  77.5202719
   6.5698922  74.9988497  77.6750654   3.2262582  75.6818715  73.7928745
   3.0787544  74.7535423  73.9736315   4.0516075  75.7038806  73.3085820
   6.8296704  76.5047274  74.8793617   7.7543251  76.2990135  74.7418069
   6.6612007  76.2563675  75.7882959   3.2224096  63.5356553  68.7860862
   3.4387711  64.4181191  68.4849690   2.7418163  63.1442766  68.0566504
   1.6745831  63.9182154  77.4565624   1.4163609  64.8399225  77.4549954
   1.1430872  63.5212589  78.1466088   6.6192020  77.0232942  70.2355709
   6.7928897  76.4579364  69.4829561   7.1120911  77.8233836  70.0535199
   2.0947787  60.0514105  73.8166786   2.1169484  60.1153438  72.8618766
   2.5115846  59.2118614  74.0107292  12.4731411  69.7869364  71.8546009
  12.9162557  69.0376690  71.4565132  11.5957921  69.7779501  71.4719741
   7.6067192  76.3399706  67.3352607   8.3018097  76.9606399  67.5539922
   7.9490343  75.4895057  67.6104985   9.5058616  73.7899411  68.8639938
  10.0309940  74.1286684  68.1389258   9.4180968  72.8546427  68.6803073
   1.1678664  77.7033485  80.9929815   1.4765791  77.4582632  81.8652514
   1.9654146  77.9080124  80.5048685   1.1899276  79.8571395  73.2235191
   0.7504267  79.3647773  73.9168048   1.9407393  79.3144362  72.9827266
   9.1952522  74.4232315  84.1691136   8.4048065  74.4056454  83.6295635
   8.9585876  74.9620609  84.9240173   9.3150397  71.2724781  81.4823864
   9.3648402  71.1074789  82.4239387   9.2064320  70.4052040  81.0921745
   6.6054159  67.2555709  82.7983171   7.5064022  67.1162174  82.5067169
   6.6802134  67.4210164  83.7381349  10.8168593  73.6921723  81.7265886
  10.5253402  74.0551704  82.5629347  10.2040725  72.9788731  81.5479218
  12.0164276  71.2574603  74.2468456  12.8511167  71.6964407  74.4106017
  12.1523405  70.7813256  73.4276702   9.0655782  68.8154338  80.1945944
   9.5409903  69.0081984  79.3864795   8.1421347  68.8713523  79.9489328
   3.6435998  60.8502181  79.1601778   4.1617942  61.5863208  78.8348266
   3.2891131  61.1566174  79.9948537   3.8948592  57.2702464  74.6802675
   4.1750346  56.6025653  75.3063101   4.6799199  57.4631559  74.1677338
   1.6982061  76.4461458  66.2427701   1.1256028  77.0651645  65.7898173
   2.2714855  76.9960819  66.7767623   7.7657451  65.6920098  78.4274250
   8.7174874  65.7918195  78.4486474   7.5960901  64.8998366  78.9372334
   5.7871830  62.7775681  78.6133651   5.1921762  63.0580694  77.9180139
   5.5021527  63.2669582  79.3850392   4.9179321  76.7298608  67.3736283
   5.8509994  76.6644169  67.5769159   4.8302533  77.5654875  66.9150816
   7.5467337  76.0464478  64.3340231   7.4680969  75.7124342  65.2275989
   8.3677004  76.5386246  64.3331703  10.2445529  68.9126217  77.5416549
  10.2121849  67.9742218  77.7276233  10.8546152  68.9910254  76.8082374
   2.0828859  67.7822270  63.5843753   3.0287964  67.6528478  63.6532171
   1.7043104  67.0436932  64.0613181  10.3940017  65.7037261  77.5874832
   9.8779066  64.9195717  77.4004761  11.2779966  65.3755977  77.7521352
   8.0550744  59.4478276  73.5470645   7.8575565  59.1393365  74.4313977
   8.6650450  60.1739915  73.6768575  16.0622078  69.9742224  76.6822586
  16.7925467  69.7127512  77.2430289  15.4529024  69.2370946  76.7224654
  14.1437375  68.1150087  77.2797037  13.4170539  67.9806052  76.6713529
  13.7284662  68.4226915  78.0853755   1.9667552  71.8340016  85.0444410
   2.8870561  72.0118615  85.2384457   1.9317135  70.8896062  84.8924110
   1.8833842  60.2509136  69.6742880   1.0734571  59.9056221  70.0498126
   2.5718259  59.9416680  70.2630491   3.8124391  59.3287183  71.2967176
   4.3655429  59.7482637  71.9557200   4.0494477  58.4022931  71.3390132
   7.1903198  61.4387708  70.8045841   6.6101867  62.0972512  70.4223893
   6.9239130  60.6165053  70.3933258   5.6406764  60.8392766  73.0067161
   6.1406542  60.9509301  72.1981480   6.2842372  60.5353819  73.6467969
   5.9728076  63.5987799  69.8602189   5.0853931  63.8837449  69.6422384
   6.3882065  63.4381562  69.0129466   9.3242612  63.6234320  73.5756528
  10.1003002  64.1130772  73.8481145   8.5990746  64.0492374  74.0328398
  11.7615170  64.3361939  74.6330469  12.3559661  64.0957675  73.9223777
  11.8341754  63.6169070  75.2604005   5.1171289  73.3632473  63.9550209
   5.8207139  73.5682476  64.5707865   4.3933938  73.9309235  64.2199292
   5.9469099  69.1142335  70.0752479   5.8904301  69.5710886  69.2360112
   6.4997442  68.3533019  69.8975322   9.7573905  64.9032067  70.9002599
   9.5010840  64.5028702  71.7310806   9.1326773  65.6175861  70.7752738
  14.0686243  67.6428140  73.4073890  13.5085801  67.7121329  74.1805452
  13.4629747  67.4669124  72.6873386   7.0257987  73.8015003  66.0048669
   7.8603590  73.3696201  65.8226144   6.8642329  73.6297016  66.9325564
   6.6803879  70.3047116  67.3705008   6.6252682  70.1391387  66.4293452
   6.0549934  71.0123149  67.5267198   3.9949786  72.6096028  86.6958571
   4.8640946  72.7836680  86.3345206   3.5156537  73.4290445  86.5734300
   3.8052124  56.3998002  71.2036264   3.0384519  55.8456488  71.3492946
   4.2162829  56.4719870  72.0650415  15.6542262  84.3184654  76.1003846
  16.2920672  84.1991401  75.3967186  15.5363105  85.2665498  76.1591798
  12.4631968  84.2712082  76.0365370  12.1250479  84.1553147  75.1485905
  13.3321736  83.8703247  76.0166377   8.3218784  86.1247558  72.0262261
   7.7583649  86.0337495  71.2578549   8.2071179  85.3047463  72.5064754
  12.9451751  85.4246934  81.9951576  12.9340392  85.0299732  81.1232080
  13.1072390  84.6913006  82.5885347   5.8683216  87.6198750  74.8646482
   6.6604507  87.2789575  74.4492781   6.1079866  87.7293725  75.7848635
  13.9018342  89.7918526  67.3376726  13.2506322  90.3772606  66.9510740
  14.6962705  90.3224721  67.3971764   7.8273969  86.8807663  67.7363861
   8.6004845  86.3336650  67.5976736   8.1799368  87.7451912  67.9478322
   9.6659012  88.2084045  80.9430760   9.3748878  89.1129676  80.8277426
  10.3015996  88.2500573  81.6574830  10.5915219  85.5860894  77.5332120
  11.1878791  85.3616916  76.8189083  10.6490190  84.8445639  78.1357567
  10.1640247  83.0400329  65.3682311  10.4165768  82.5181851  64.6065774
   9.2264806  82.8766475  65.4708994  15.2083530  82.0436108  73.1757054
  15.9946619  81.6255531  72.8247471  15.4722234  82.9482200  73.3438702
  15.3793607  87.4808958  67.8745711  14.7439440  87.5543584  68.5866615
  15.0491014  88.0702557  67.1964790  20.6091957  81.9811341  74.0790032
  21.3417129  81.4110558  74.3127862  19.8531313  81.5932941  74.5196538
   9.8836536  84.9428435  67.5706686   9.7672794  84.2673339  68.2387770
   9.9938796  84.4560809  66.7538839  12.2268077  84.4038582  71.2753375
  11.8626284  83.8769203  71.9866296  13.0835193  84.0137051  71.1019860
  18.1317378  75.6932915  78.5384641  17.8000702  76.5628326  78.3145856
  17.5362991  75.3769199  79.2178671  11.8673564  79.4328482  66.2714723
  12.0347966  80.3008718  66.6385194  11.6770733  79.5955764  65.3476013
  14.6248897  87.8945461  77.9380554  14.3249620  88.7970500  77.8296361
  14.2799957  87.6277644  78.7901707   8.0761379  84.3459258  73.9717258
   7.1511875  84.2135472  74.1794950   8.3245792  85.1253477  74.4687200
  18.0246041  80.4128001  75.6177991  17.1162918  80.3443410  75.3236752
  17.9733637  80.8899946  76.4459816  11.8462785  81.8886140  67.2561390
  11.7262410  82.3343190  68.0946870  11.1515373  82.2371457  66.6974928
   5.4370190  83.9892531  74.8061047   5.5662571  84.2427010  75.7200459
   4.7567641  84.5820239  74.4865702   9.6069677  94.6589781  70.9051521
   9.5293707  95.6097606  70.9840002   9.0031321  94.3135654  71.5626448
  12.0986907  81.8317647  83.5612888  11.3220241  82.3911567  83.5515753
  12.7377470  82.3174430  84.0827758  19.8907687  78.6144440  77.3955865
  19.2482068  78.9076973  76.7495659  19.3862616  78.4997360  78.2009062
  17.5447851  82.3607613  68.0841724  18.4565707  82.5934999  67.9089422
  17.0357498  82.9444657  67.5216803  10.3533279  84.6403100  83.1230855
  11.0947963  85.1788144  82.8465679   9.6470264  85.2669389  83.2802407
  15.8288619  86.7832241  81.7203017  16.2371975  86.3414651  80.9757649
  15.1065880  86.2084868  81.9737210  12.1819689  81.7204847  79.0936574
  13.0280884  82.1444261  79.2371223  12.1218326  81.0638472  79.7875137
  16.1517433  87.3433431  75.4755306  15.5226296  87.5079145  74.7731373
  15.7643095  87.7575041  76.2466270  20.0306665  88.2787869  72.8299669
  19.3457703  88.6586770  72.2796703  20.1150514  88.8883196  73.5631617
  15.3319134  79.3809216  80.7517747  15.0880066  80.1351276  80.2152023
  15.6079065  79.7594563  81.5864994  17.2857597  85.9247828  79.4295013
  17.4974492  86.5679588  78.7529394  17.2387345  85.0910145  78.9616943
  14.8883826  78.5365649  76.3331585  14.0268305  78.8346902  76.6248323
  14.9146260  78.7536048  75.4012618  11.7045395  87.0807839  72.7405391
  12.1683741  87.3595542  71.9510013  11.4402193  86.1791284  72.5578481
   8.5969476  86.6279321  75.6785154   9.1670833  87.0566589  75.0402638
   9.1877588  86.3461905  76.3769340  10.6414281  83.2030992  69.5494956
  11.3438325  83.6552035  70.0168882  10.3094910  82.5614810  70.1774849
   9.0894643  81.7942748  83.9246165   8.4593303  82.4759029  84.1581562
   8.9830731  81.6825830  82.9799304   4.3839615  81.4614544  74.8512089
   3.5938669  81.7172073  74.3752200   4.8750863  82.2762882  74.9564130
  18.4003425  88.8019783  77.6017370  19.2220868  88.3999971  77.3200052
  18.3965828  88.6988018  78.5533486   6.3354361  81.8259124  71.8095566
   5.5385524  81.9377818  72.3279062   6.1079953  82.1645776  70.9436457
  12.1660028  88.3503827  79.7578081  12.2304461  88.8124234  80.5936253
  11.4570952  87.7201192  79.8860391   2.6677318  81.7145035  77.2827080
   2.9185357  82.5992045  77.5484656   3.2036867  81.5349636  76.5102172
  26.4909418  85.1458532  73.9502342  25.7373126  84.5765930  73.7946346
  26.6256959  85.1121196  74.8972976  11.8808046  90.0171934  69.6257061
  11.7453721  90.8623470  70.0541909  12.4217858  90.2191212  68.8622995
   8.3675385  76.0963514  86.2871416   7.9742331  75.5429713  86.9619061
   9.1841526  76.4074093  86.6777934   5.3337443  87.5347372  70.1984986
   5.8461964  88.3290623  70.3490551   5.9860156  86.8373663  70.1318588
   7.1432328  90.6513129  72.2807739   7.3198956  91.5731093  72.0928723
   7.9389161  90.3371548  72.7102119  11.2843346  77.5121393  83.8791673
  12.0253060  78.1128546  83.7996135  11.5161269  76.7699031  83.3209715
   6.4284684  82.6977760  82.1569903   6.3138200  81.7963018  82.4577001
   5.5729202  82.9441457  81.8054719  13.5076522  90.6395501  83.7557403
  13.0640376  89.8531879  83.4378308  14.1693736  90.8274651  83.0901294
   8.2663643  92.1691302  78.2818082   8.8171069  92.0408366  77.5095076
   7.4275119  92.4686191  77.9312974  15.6057760  90.9198301  81.7838804
  15.5876236  91.7407182  81.2919074  16.5277680  90.7952376  82.0088946
  12.0630814  88.4342430  82.6262313  12.5959151  87.6730718  82.3961621
  11.5344896  88.1416082  83.3686467  15.2300509  73.5402496  78.1555955
  14.8864779  74.4304138  78.0795065  15.5979472  73.3504154  77.2925540
   3.2986360  85.8636027  70.9744557   4.1361582  86.2733035  70.7578264
   3.4764628  84.9235469  70.9444751  15.1950792  83.5311107  66.6628390
  14.6797416  84.3015712  66.9016777  14.9228101  82.8576243  67.2861451
  12.7797903  78.3760808  71.7213628  11.9239499  77.9867658  71.5419267
  13.1924855  78.4552769  70.8613414  14.3097050  75.9107151  76.1205188
  13.8061845  75.8737286  75.3072993  14.6027657  76.8199894  76.1801844
  10.5539936  75.9945881  75.1271370  11.4192932  75.7988690  74.7677259
  10.6217445  75.7656233  76.0540726  20.1685066  86.2843462  68.5981563
  19.3914509  85.9454621  68.1536725  20.8476547  86.2896085  67.9236528
  14.9837095  81.4038199  68.4888171  14.6787231  81.7184349  69.3398314
  15.9367537  81.4819619  68.5315504  13.4283527  87.5628423  70.1381125
  12.9004889  86.8281182  69.8254362  12.9271030  88.3403099  69.8921093
  18.4076373  85.7577443  75.2548171  17.7500048  86.4476705  75.3428300
  19.2116772  86.1473875  75.5982157   8.1602255  78.2248089  72.4987736
   8.7346007  78.0023270  71.7660929   8.7473237  78.2936783  73.2516338
  17.2181832  84.1121816  73.3052113  17.7313714  84.7451808  73.8073823
  17.8683056  83.5123011  72.9395473   8.4871842  80.2552550  66.5183622
   7.6509154  80.5927236  66.8392896   8.3476612  80.1201530  65.5810759
  10.4624922  75.0989338  71.2262806   9.8089335  74.7838355  70.6019421
  10.4205397  74.4765078  71.9522629  11.5736127  85.3808633  63.1416098
  10.6663189  85.1497886  63.3407247  12.0707159  84.5846252  63.3290079
  14.4804206  94.0906140  66.0612784  13.8065905  94.3937837  66.6697742
  14.8670028  94.8935220  65.7118241  13.6962663  81.5871271  75.5510453
  12.7785224  81.8086218  75.3932141  14.1122806  81.6617582  74.6922161
  14.4797711  82.9862687  70.6813134  15.2269530  83.4984084  70.3720256
  14.7489300  82.6646740  71.5417527  12.7524361  85.4821228  67.6640088
  11.8435580  85.1980261  67.7612558  12.7819445  85.9020306  66.8043395
  17.9843628  89.0927817  71.4331256  17.5305955  88.2518727  71.4896446
  17.3537595  89.7289216  71.7706036  16.9276548  80.0219803  72.6631923
  16.1899305  79.5097190  72.9942166  17.1803321  79.5820185  71.8515200
  16.4276567  90.9304314  72.3681074  16.7199542  91.4909371  71.6493439
  16.9375188  91.2232875  73.1234233  17.0288175  72.7996055  73.2573692
  17.3347052  71.9393419  72.9699607  17.7540780  73.3913676  73.0572686
   3.3212531  83.2026742  71.6455290   3.1236931  82.6096103  70.9206357
   2.7659195  82.8978952  72.3631229  11.3009255  83.0949848  73.7649883
  11.3557865  82.1423685  73.6892360  10.4900457  83.2509287  74.2491182
  12.4500449  87.0229971  65.0028167  12.0119878  86.3065830  64.5433804
  13.1910889  87.2506086  64.4413258   9.2401615  81.7126908  71.5240262
   8.4269480  82.0121079  71.9305454   9.7360609  81.3182597  72.2414744
  11.3910193  91.7084665  73.4574527  11.3486371  91.9345511  72.5283059
  12.3072891  91.4748040  73.6060328  14.8375826  82.1768733  80.3555156
  15.1925214  82.4040206  81.2149622  15.4847958  82.5087109  79.7332411
  20.5673563  85.2987168  71.0604485  20.4291462  85.4888764  70.1325674
  20.2109782  86.0606551  71.5172536   8.7315689  79.2845264  77.1401497
   9.3715069  79.1434023  76.4424460   7.8993220  78.9979777  76.7640099
  20.5942943  87.3663695  76.0715757  21.0279450  87.2738985  76.9198811
  21.3074524  87.3421196  75.4335773   9.5075993  88.5847694  73.2536490
  10.3016592  88.0898014  73.0519065   8.7967686  88.0565557  72.8904195
  14.3270838  90.9665790  77.6048857  14.3807860  91.5356726  78.3726573
  13.4585619  91.1367675  77.2402894   5.8158757  82.7290776  69.3296242
   4.8856345  82.6675231  69.5466204   5.9116229  82.2066729  68.5332884
   5.7344306  79.2545589  71.9174484   5.9951123  80.1690922  71.8083644
   6.5561478  78.7870031  72.0671097   7.2069231  80.6683346  79.0873308
   7.8792285  80.4600708  78.4385957   6.3799018  80.4705432  78.6478541
  21.4558493  87.4087396  78.6048642  21.6494383  88.3133207  78.8507917
  21.3559111  86.9494815  79.4387227  13.1094803  77.2945287  81.1038969
  12.4622718  77.9935236  81.0103446  13.8795819  77.7281431  81.4715218
  16.5173601  87.5594139  84.1789523  16.3659108  87.3304691  83.2619606
  16.5078281  88.5164740  84.1920868  13.2858938  85.1326052  79.1635789
  14.2150998  85.2837211  78.9904756  12.8649968  85.2210072  78.3084436
  12.0847269  89.1576716  76.9334327  11.9458355  88.7895500  77.8060265
  11.2961866  89.6724355  76.7618284  12.6795421  94.2585813  68.2759863
  12.8547177  93.7873856  69.0905486  11.9928209  94.8851579  68.5041124
  13.6352485  88.5358319  74.3223164  13.3002317  88.4959089  75.2180814
  13.1356430  87.8703035  73.8493575   7.6096728  83.9425949  79.8475746
   7.4716526  83.2106188  80.4487285   8.5201652  83.8534849  79.5659933
  16.5711676  85.8814353  64.5960224  15.9540847  85.1561181  64.4993277
  16.1028165  86.6423713  64.2527298  10.2379029  83.6545908  79.3359425
  10.9478648  83.0139100  79.2946044  10.1948337  83.9058803  80.2585606
  18.2265808  90.5913261  82.2566004  18.1678354  89.9072482  81.5896587
  18.6285326  91.3332251  81.8046630   8.9507963  80.6411126  81.1555065
   8.4145320  80.1901864  81.8076661   8.3624672  80.7757035  80.4125529
   7.2456507  97.4075175  75.0499723   7.4853105  98.0393699  75.7278742
   6.4025703  97.0563215  75.3365083   8.3610222  80.0999777  63.7181528
   7.4839688  79.9788578  63.3543775   8.8367975  79.3085856  63.4660417
  18.2283215  88.5552845  80.4879984  17.3409994  88.2178767  80.6106383
  18.7981766  87.8235877  80.7248750   4.6847084  79.7767134  78.2408059
   4.6005273  79.1692803  77.5058469   3.8629791  80.2676152  78.2417556
  11.7584368  93.2154298  77.4541227  11.6854540  94.0209269  77.9660532
  11.3161762  93.4146264  76.6289249  11.5474148  92.4526068  70.9644049
  10.7641670  92.9947748  71.0582273  12.2466893  92.9700047  71.3638290
  14.8570798  78.2620697  73.6078254  15.3539498  77.5090660  73.2879325
  14.0857780  78.2985014  73.0421464  22.7100556  83.9661063  75.2496546
  22.6990432  84.8485778  74.8790479  21.8417935  83.6132614  75.0551083
  14.2183052  93.1141132  79.6099386  14.9311024  93.7488597  79.5375287
  13.7273081  93.2104998  78.7939388  15.9400579  87.0192384  71.1816678
  15.0056858  87.1393847  71.0121382  16.1177247  86.1164851  70.9176688
  11.4405767  80.4038080  73.3349939  11.0703555  79.8509121  74.0230844
  11.9364859  79.7996214  72.7824939  19.3273130  82.8609704  71.7166712
  19.7933582  83.6937695  71.6427014  19.7780631  82.3954685  72.4211970
   9.2694966  90.8635575  80.4304957   9.9704425  91.4972058  80.5834351
   8.7990081  91.2050307  79.6700596  17.3949361  89.2053525  68.7152864
  17.6709205  89.0910120  69.6246738  16.5253860  88.8071010  68.6765037
  17.2989793  75.2290291  75.7557613  16.3852873  75.4594518  75.9239820
  17.7282894  75.3128735  76.6071646  17.0696252  83.4180183  78.2557507
  16.4167702  83.6656090  77.6009960  17.4476631  82.6044321  77.9219984
  14.0303425  93.4539876  72.3585677  14.2125820  92.6361532  72.8213430
  14.8536411  93.6707568  71.9210567  14.3645591  92.3808061  69.6200726
  14.8933357  91.8700516  69.0070888  14.6273810  92.0650591  70.4846259
  13.1183825  84.1599994  84.7423544  12.4424462  84.0594123  85.4125919
  13.9411458  84.0039207  85.2059541   4.8662684  90.3971930  77.3636060
   5.4516120  89.6515618  77.4963964   4.6687522  90.7075887  78.2472723
   7.7201339  93.4323178  72.3798502   7.0511714  93.9169305  71.8962542
   7.5814209  93.6792398  73.2941880  11.8606607  95.4666921  78.9781160
  12.4124915  95.6298543  79.7430245  12.2012801  96.0571359  78.3061185
   6.8371101  77.8142071  79.5803045   6.9012427  78.6756902  79.1680443
   6.7738221  77.2016073  78.8475403   6.3123373  79.8865204  83.2276079
   6.9395412  79.5042281  83.8413604   5.4551292  79.6679405  83.5931772
  16.7117482  90.2928179  84.8329815  17.2557386  90.9058137  84.3384769
  16.1304327  90.8507757  85.3496828   3.0888916  81.6941633  69.1594434
   3.3842357  80.7852311  69.1061488   2.1876952  81.6729372  68.8375436
  14.9974995  93.4148897  75.9644842  14.8726134  92.6138637  75.4555788
  15.6554086  93.9095090  75.4758812   6.6183163  79.7697629  75.1421983
   5.8969749  80.3833597  75.0029456   7.4076419  80.3055394  75.0638629
  17.0609903  91.2157917  77.5924392  16.1140239  91.0963268  77.5202719
  17.4092676  90.3280415  77.6750654   9.4209476  77.1052056  81.4162634
   9.9443878  77.3514352  82.1788944   9.2021810  77.9372091  80.9965772
   4.8176758  79.3755730  69.2833759   4.4889464  78.4953109  69.1008865
   5.1716128  79.3203399  70.1710148  14.0656336  91.0110633  73.7928745
  13.9181299  90.0827340  73.9736315  14.8909830  91.0330724  73.3085820
   7.9318581  79.6628700  69.6509237   8.2714653  80.1914621  68.9287845
   8.3790701  80.0009106  70.4267803  17.6690458  91.8339192  74.8793617
  18.5937006  91.6282053  74.7418069  17.5005762  91.5855593  75.7882959
  10.6262021  78.0465751  79.1012305  10.2858842  77.2473564  79.5032985
   9.9201028  78.3467462  78.5289138  11.2778493  75.1315063  77.5539628
  12.1004563  74.6575541  77.4318518  11.5216557  75.9105547  78.0538314
   9.9186728  78.1603322  67.8502530  10.6395090  78.5384574  67.3466246
   9.2952032  78.8792198  67.9537508  14.0617851  78.8648471  68.7860862
  14.2781465  79.7473109  68.4849690  13.5811918  78.4734684  68.0566504
   8.8017072  81.8234184  75.3631607   8.6561653  82.1374487  76.2555888
   8.3242276  82.4419084  74.8102505  10.6613455  78.8136732  75.4112496
  10.6475024  77.9177825  75.0744794  11.3785883  78.8207396  76.0450782
  12.5139586  79.2474072  77.4565624  12.2557363  80.1691143  77.4549954
  11.9824626  78.8504507  78.1466088  17.4585774  92.3524859  70.2355709
  17.6322652  91.7871282  69.4829561  17.9514666  93.1525754  70.0535199
   3.2762734  84.3639528  78.3019268   2.7316202  85.1399336  78.4339542
   4.1542084  84.7110333  78.1438389  10.0650351  77.6951112  70.6800066
  10.1866262  76.7667758  70.8790954   9.7752393  77.7089798  69.7678382
  12.9341541  75.3806023  73.8166786  12.9563238  75.4445356  72.8618766
  13.3509600  74.5410531  74.0107292  23.3125166  85.1161282  71.8546009
  23.7556312  84.3668607  71.4565132  22.4351676  85.1071418  71.4719741
  18.4460947  91.6691624  67.3352607  19.1411852  92.2898316  67.5539922
  18.7884097  90.8186975  67.6104985   4.0628756  83.4909425  81.1949425
   3.3210492  83.6392060  81.7814055   3.7421500  83.7517690  80.3316174
  20.3452370  89.1191329  68.8639938  20.8703694  89.4578602  68.1389258
  20.2574723  88.1838344  68.6803073  12.0072419  93.0325403  80.9929815
  12.3159545  92.7874550  81.8652514  12.8047901  93.2372041  80.5048685
  12.0293031  95.1863312  73.2235191  11.5898021  94.6939691  73.9168048
  12.7801148  94.6436280  72.9827266   4.5085370  91.3774853  73.2259819
   5.3343390  91.0778625  72.8458463   4.1579422  90.6082476  73.6749608
   9.4766903  90.7301321  75.2957493   8.8546912  90.0672027  74.9959721
  10.1471770  90.7562453  74.6131141   2.7093975  89.2961180  74.1848753
   1.8725883  88.8683354  74.0032754   2.6817620  89.4893623  75.1219544
   9.5491430  79.2083110  84.8889999   9.5979586  80.0845232  84.5067768
  10.0913945  78.6660503  84.3161642  20.0346276  89.7524233  84.1691136
  19.2441820  89.7348372  83.6295635  19.7979631  90.2912526  84.9240173
  20.1544151  86.6016699  81.4823864  20.2042156  86.4366707  82.4239387
  20.0458074  85.7343958  81.0921745   9.0380410  89.2805245  68.7715953
   9.1868530  89.9640709  68.1182626   9.8446853  89.2610335  69.2865409
  17.4447914  82.5847627  82.7983171  18.3457776  82.4454092  82.5067169
  17.5195888  82.7502082  83.7381349  11.7790719  79.9614482  81.6436358
  10.9094028  80.2548048  81.3718946  12.0150199  80.5454927  82.3643621
  21.6562348  89.0213641  81.7265886  21.3647156  89.3843621  82.5629347
  21.0434479  88.3080649  81.5479218  22.8558030  86.5866520  74.2468456
  23.6904922  87.0256324  74.4106017  22.9917159  86.1105174  73.4276702
  19.9049536  84.1446255  80.1945944  20.3803658  84.3373902  79.3864795
  18.9815102  84.2005441  79.9489328   6.7933043  85.3070422  69.7777022
   6.5479085  84.4032752  69.9757232   6.9628957  85.3087573  68.8356500
  14.4829753  76.1794099  79.1601778  15.0011697  76.9155126  78.8348266
  14.1284885  76.4858092  79.9948537   6.0628690  81.0398780  67.2763184
   5.3697935  81.1143135  66.6203220   5.8180442  80.2759124  67.7984701
  14.7342347  72.5994381  74.6802675  15.0144101  71.9317570  75.3063101
  15.5192954  72.7923477  74.1677338  12.5375815  91.7753375  66.2427701
  11.9649782  92.3943562  65.7898173  13.1108609  92.3252737  66.7767623
  18.6051205  81.0212015  78.4274250  19.5568628  81.1210113  78.4486474
  18.4354656  80.2290284  78.9372334  16.6265585  78.1067599  78.6133651
  16.0315517  78.3872611  77.9180139  16.3415281  78.5961500  79.3850392
  15.7573075  92.0590525  67.3736283  16.6903748  91.9936087  67.5769159
  15.6696288  92.8946792  66.9150816  18.3861092  91.3756396  64.3340231
  18.3074723  91.0416259  65.2275989  19.2070759  91.8678164  64.3331703
  21.0839283  84.2418135  77.5416549  21.0515603  83.3034136  77.7276233
  21.6939907  84.3202172  76.8082374  12.9222614  83.1114188  63.5843753
  13.8681719  82.9820396  63.6532171  12.5436859  82.3728850  64.0613181
  21.2333771  81.0329178  77.5874832  20.7172820  80.2487635  77.4004761
  22.1173720  80.7047895  77.7521352  18.8944498  74.7770194  73.5470645
  18.6969320  74.4685282  74.4313977  19.5044204  75.5031833  73.6768575
  26.9015833  85.3034142  76.6822586  27.6319221  85.0419430  77.2430289
  26.2922778  84.5662864  76.7224654  24.9831130  83.4442004  77.2797037
  24.2564294  83.3097969  76.6713529  24.5678417  83.7518833  78.0853755
  12.8061306  87.1631934  85.0444410  13.7264316  87.3410533  85.2384457
  12.7710889  86.2187980  84.8924110  11.1065531  81.0364164  63.5198639
  10.1996986  80.7397277  63.5961352  11.3841512  80.7393983  62.6532925
   2.0243471  82.3570528  73.9697685   1.7046256  81.5035836  73.6772059
   1.4776900  82.5719106  74.7255652   5.8023379  85.0732969  77.6867191
   6.0209389  86.0050077  77.7055225   6.2149153  84.7140943  78.4721995
  12.7227597  75.5801054  69.6742880  11.9128325  75.2348139  70.0498126
  13.4112014  75.2708598  70.2630491  14.6518145  74.6579101  71.2967176
  15.2049184  75.0774554  71.9557200  14.8888231  73.7314849  71.3390132
  10.6751244  80.6466175  87.0769940  10.5747971  81.5960532  87.0082031
  10.4572786  80.3184413  86.2046010   9.8764316  77.8951100  63.6610618
  10.7383480  78.2205998  63.9206435  10.0614660  77.1082596  63.1483684
   1.8931731  85.9773439  75.9390807   1.1995203  85.5627392  75.4260761
   2.6404722  86.0193976  75.3424225  18.0296952  76.7679626  70.8045841
  17.4495621  77.4264430  70.4223893  17.7632885  75.9456971  70.3933258
  16.4800518  76.1684684  73.0067161  16.9800297  76.2801218  72.1981480
  17.1236126  75.8645737  73.6467969  10.5382514  84.0763313  85.8935002
  10.0549596  84.8763674  86.0998891  10.6243453  84.0871258  84.9402446
   3.8068474  85.9091693  73.8156821   3.7839162  86.0079380  72.8638704
   4.1169110  86.7556844  74.1373988   6.4655852  87.9667848  77.9303436
   7.4199105  87.9351790  77.8633367   6.2668375  87.5058472  78.7453662
   7.0555234  86.5368964  80.4974233   7.8748123  87.0313043  80.5209071
   7.3292042  85.6200932  80.4691801  16.8121830  78.9279716  69.8602189
  15.9247685  79.2129367  69.6422384  17.2275819  78.7673480  69.0129466
  20.1636366  78.9526237  73.5756528  20.9396756  79.4422690  73.8481145
  19.4384500  79.3784292  74.0328398  22.6008925  79.6653857  74.6330469
  23.1953416  79.4249593  73.9223777  22.6735509  78.9460987  75.2604005
   4.8206081  93.5087468  74.9473634   4.6860549  92.7487868  74.3811632
   4.4038143  94.2328367  74.4802423  15.9565044  88.6924391  63.9550209
  16.6600894  88.8974394  64.5707865  15.2327692  89.2601153  64.2199292
  16.7862854  84.4434252  70.0752479  16.7298055  84.9002804  69.2360112
  17.3391196  83.6824937  69.8975322  20.5967660  80.2323984  70.9002599
  20.3404594  79.8320620  71.7310806  19.9720528  80.9467778  70.7752738
  24.9079998  82.9720058  73.4073890  24.3479556  83.0413247  74.1805452
  24.3023501  82.7961042  72.6873386   7.9775206  94.4056785  75.1592076
   7.8607591  95.3502217  75.0570767   7.1567653  94.1030346  75.5477876
  17.8651741  89.1306920  66.0048669  18.6997345  88.6988119  65.8226144
  17.7036084  88.9588934  66.9325564  17.5197633  85.6339034  67.3705008
  17.4646437  85.4683305  66.4293452  16.8943688  86.3415067  67.5267198
   2.3090148  80.8707098  81.1966431   2.9549012  80.3606052  81.6853656
   2.1007299  81.6075780  81.7709856  14.8343540  87.9387946  86.6958571
  15.7034700  88.1128598  86.3345206  14.3550292  88.7582362  86.5734300
  10.8293759  75.1347143  66.9490327  10.8172428  76.0788983  67.1058598
  11.7217181  74.9517288  66.6549788   9.0029721  95.0585047  78.3748005
   9.9056967  95.0908657  78.6914500   8.7767091  94.1285497  78.3894341
  10.7583323  93.8116033  75.0358083   9.8078954  93.8117895  74.9222456
  11.0615809  93.0648768  74.5194118  14.6445878  71.7289919  71.2036264
  13.8778274  71.1748406  71.3492946  15.0556583  71.8011788  72.0650415
   6.6487639  78.0174715  85.2941445   7.5119101  77.6611520  85.5044769
   6.0753050  77.6788610  85.9816849  26.4936016  99.6476571  76.1003846
  27.1314426  99.5283319  75.3967186  26.3756859 100.5957415  76.1591798
  23.3025722  99.6004000  76.0365370  22.9644234  99.4845064  75.1485905
  24.1715491  99.1995165  76.0166377  19.1612538 101.4539476  72.0262261
  18.5977403 101.3629413  71.2578549  19.0464933 100.6339380  72.5064754
  23.7845505 100.7538851  81.9951576  23.7734146 100.3591650  81.1232080
  23.9466145 100.0204924  82.5885347  16.7076970 102.9490668  74.8646482
  17.4998262 102.6081492  74.4492781  16.9473620 103.0585643  75.7848635
  24.7412097 105.1210444  67.3376726  24.0900077 105.7064524  66.9510740
  25.5356460 105.6516639  67.3971764  18.6667724 102.2099581  67.7363861
  19.4398600 101.6628568  67.5976736  19.0193123 103.0743830  67.9478322
  20.5052767 103.5375963  80.9430760  20.2142632 104.4421594  80.8277426
  21.1409751 103.5792491  81.6574830  21.4308973 100.9152812  77.5332120
  22.0272546 100.6908834  76.8189083  21.4883945 100.1737557  78.1357567
  21.0034002  98.3692247  65.3682311  21.2559522  97.8473768  64.6065774
  20.0658561  98.2058392  65.4708994  26.0477285  97.3728025  73.1757054
  26.8340374  96.9547448  72.8247471  26.3115989  98.2774117  73.3438702
  26.2187362 102.8100876  67.8745711  25.5833195 102.8835502  68.5866615
  25.8884768 103.3994474  67.1964790  31.4485712  97.3103259  74.0790032
  32.1810884  96.7402475  74.3127862  30.6925067  96.9224859  74.5196538
  20.7230291 100.2720353  67.5706686  20.6066549  99.5965256  68.2387770
  20.8332550  99.7852727  66.7538839  23.0661831  99.7330500  71.2753375
  22.7020039  99.2061121  71.9866296  23.9228947  99.3428969  71.1019860
  28.9711132  91.0224833  78.5384641  28.6394457  91.8920244  78.3145856
  28.3756745  90.7061117  79.2178671  22.7067318  94.7620400  66.2714723
  22.8741721  95.6300636  66.6385194  22.5164487  94.9247681  65.3476013
  25.4642652 103.2237379  77.9380554  25.1643375 104.1262417  77.8296361
  25.1193711 102.9569562  78.7901707  18.9155133  99.6751175  73.9717258
  17.9905630  99.5427390  74.1794950  19.1639546 100.4545395  74.4687200
  28.8639795  95.7419919  75.6177991  27.9556673  95.6735327  75.3236752
  28.8127391  96.2191864  76.4459816  22.6856539  97.2178057  67.2561390
  22.5656164  97.6635108  68.0946870  21.9909128  97.5663375  66.6974928
  16.2763944  99.3184449  74.8061047  16.4056325  99.5718928  75.7200459
  15.5961395  99.9112157  74.4865702  20.4463431 109.9881699  70.9051521
  20.3687461 110.9389524  70.9840002  19.8425075 109.6427571  71.5626448
  22.9380661  97.1609564  83.5612888  22.1613995  97.7203485  83.5515753
  23.5771224  97.6466347  84.0827758  30.7301442  93.9436357  77.3955865
  30.0875822  94.2368890  76.7495659  30.2256370  93.8289278  78.2009062
  28.3841605  97.6899530  68.0841724  29.2959462  97.9226917  67.9089422
  27.8751253  98.2736575  67.5216803  21.1927033  99.9695018  83.1230855
  21.9341718 100.5080062  82.8465679  20.4864019 100.5961306  83.2802407
  26.6682373 102.1124158  81.7203017  27.0765729 101.6706569  80.9757649
  25.9459635 101.5376786  81.9737210  23.0213443  97.0496765  79.0936574
  23.8674638  97.4736179  79.2371223  22.9612081  96.3930389  79.7875137
  26.9911188 102.6725349  75.4755306  26.3620050 102.8371063  74.7731373
  26.6036850 103.0866958  76.2466270  30.8700420 103.6079787  72.8299669
  30.1851458 103.9878688  72.2796703  30.9544269 104.2175113  73.5631617
  26.1712888  94.7101133  80.7517747  25.9273820  95.4643194  80.2152023
  26.4472819  95.0886481  81.5864994  28.1251351 101.2539746  79.4295013
  28.3368247 101.8971506  78.7529394  28.0781100 100.4202062  78.9616943
  25.7277580  93.8657566  76.3331585  24.8662059  94.1638820  76.6248323
  25.7540015  94.0827965  75.4012618  22.5439150 102.4099757  72.7405391
  23.0077495 102.6887460  71.9510013  22.2795948 101.5083201  72.5578481
  19.4363231 101.9571238  75.6785154  20.0064588 102.3858507  75.0402638
  20.0271343 101.6753823  76.3769340  21.4808036  98.5322909  69.5494956
  22.1832079  98.9843953  70.0168882  21.1488664  97.8906728  70.1774849
  19.9288397  97.1234666  83.9246165  19.2987058  97.8050947  84.1581562
  19.8224485  97.0117748  82.9799304  15.2233370  96.7906462  74.8512089
  14.4332424  97.0463990  74.3752200  15.7144617  97.6054800  74.9564130
  29.2397179 104.1311701  77.6017370  30.0614623 103.7291888  77.3200052
  29.2359582 104.0279935  78.5533486  17.1748115  97.1551041  71.8095566
  16.3779278  97.2669735  72.3279062  16.9473707  97.4937693  70.9436457
  23.0053783 103.6795744  79.7578081  23.0698215 104.1416152  80.5936253
  22.2964707 103.0493109  79.8860391  13.5071073  97.0436952  77.2827080
  13.7579111  97.9283962  77.5484656  14.0430621  96.8641554  76.5102172
  37.3303172 100.4750450  73.9502342  36.5766881  99.9057848  73.7946346
  37.4650713 100.4413114  74.8972976  22.7201800 105.3463852  69.6257061
  22.5847475 106.1915388  70.0541909  23.2611613 105.5483130  68.8622995
  19.2069140  91.4255432  86.2871416  18.8136086  90.8721630  86.9619061
  20.0235280  91.7366010  86.6777934  16.1731198 102.8639290  70.1984986
  16.6855718 103.6582540  70.3490551  16.8253911 102.1665580  70.1318588
  17.9826082 105.9805046  72.2807739  18.1592711 106.9023011  72.0928723
  18.7782916 105.6663465  72.7102119  22.1237101  92.8413311  83.8791673
  22.8646814  93.4420464  83.7996135  22.3555024  92.0990949  83.3209715
  17.2678439  98.0269678  82.1569903  17.1531954  97.1254935  82.4577001
  16.4122957  98.2733375  81.8054719  24.3470277 105.9687418  83.7557403
  23.9034131 105.1823797  83.4378308  25.0087490 106.1566569  83.0901294
  19.1057398 107.4983220  78.2818082  19.6564823 107.3700283  77.5095076
  18.2668874 107.7978109  77.9312974  26.4451515 106.2490218  81.7838804
  26.4269990 107.0699099  81.2919074  27.3671435 106.1244294  82.0088946
  22.9024569 103.7634348  82.6262313  23.4352906 103.0022636  82.3961621
  22.3738650 103.4708000  83.3686467  26.0694264  88.8694414  78.1555955
  25.7258533  89.7596055  78.0795065  26.4373226  88.6796071  77.2925540
  14.1380114 101.1927944  70.9744557  14.9755336 101.6024953  70.7578264
  14.3158382 100.2527386  70.9444751  26.0344547  98.8603025  66.6628390
  25.5191170  99.6307630  66.9016777  25.7621855  98.1868161  67.2861451
  23.6191658  93.7052726  71.7213628  22.7633254  93.3159576  71.5419267
  24.0318609  93.7844686  70.8613414  25.1490804  91.2399069  76.1205188
  24.6455600  91.2029204  75.3072993  25.4421411  92.1491812  76.1801844
  21.3933690  91.3237799  75.1271370  22.2586687  91.1280607  74.7677259
  21.4611199  91.0948150  76.0540726  31.0078821 101.6135380  68.5981563
  30.2308264 101.2746539  68.1536725  31.6870302 101.6188003  67.9236528
  25.8230850  96.7330117  68.4888171  25.5180985  97.0476266  69.3398314
  26.7761292  96.8111537  68.5315504  24.2677282 102.8920340  70.1381125
  23.7398643 102.1573100  69.8254362  23.7664784 103.6695017  69.8921093
  29.2470128 101.0869361  75.2548171  28.5893802 101.7768622  75.3428300
  30.0510527 101.4765793  75.5982157  18.9996009  93.5540007  72.4987736
  19.5739761  93.3315188  71.7660929  19.5866992  93.6228701  73.2516338
  28.0575586  99.4413733  73.3052113  28.5707468 100.0743725  73.8073823
  28.7076810  98.8414929  72.9395473  19.3265596  95.5844468  66.5183622
  18.4902909  95.9219154  66.8392896  19.1870366  95.4493447  65.5810759
  21.3018677  90.4281255  71.2262806  20.6483089  90.1130273  70.6019421
  21.2599151  89.8056996  71.9522629  22.4129882 100.7100551  63.1416098
  21.5056944 100.4789804  63.3407247  22.9100914  99.9138170  63.3290079
  25.3197961 109.4198058  66.0612784  24.6459659 109.7229755  66.6697742
  25.7063783 110.2227138  65.7118241  24.5356417  96.9163189  75.5510453
  23.6178979  97.1378136  75.3932141  24.9516561  96.9909500  74.6922161
  25.3191465  98.3154605  70.6813134  26.0663284  98.8276002  70.3720256
  25.5883055  97.9938657  71.5417527  23.5918115 100.8113145  67.6640088
  22.6829335 100.5272178  67.7612558  23.6213199 101.2312224  66.8043395
  28.8237383 104.4219735  71.4331256  28.3699710 103.5810645  71.4896446
  28.1931349 105.0581133  71.7706036  27.7670302  95.3511721  72.6631923
  27.0293059  94.8389107  72.9942166  28.0197076  94.9112103  71.8515200
  27.2670322 106.2596232  72.3681074  27.5593296 106.8201289  71.6493439
  27.7768942 106.5524793  73.1234233  27.8681930  88.1287973  73.2573692
  28.1740806  87.2685336  72.9699607  28.5934534  88.7205593  73.0572686
  14.1606286  98.5318660  71.6455290  13.9630685  97.9388020  70.9206357
  13.6052950  98.2270870  72.3631229  22.1403009  98.4241766  73.7649883
  22.1951619  97.4715602  73.6892360  21.3294211  98.5801205  74.2491182
  23.2894203 102.3521889  65.0028167  22.8513633 101.6357748  64.5433804
  24.0304644 102.5798004  64.4413258  20.0795369  97.0418826  71.5240262
  19.2663235  97.3412996  71.9305454  20.5754363  96.6474515  72.2414744
  22.2303947 107.0376583  73.4574527  22.1880126 107.2637429  72.5283059
  23.1466646 106.8039957  73.6060328  25.6769581  97.5060650  80.3555156
  26.0318969  97.7332123  81.2149622  26.3241712  97.8379027  79.7332411
  31.4067318 100.6279086  71.0604485  31.2685216 100.8180682  70.1325674
  31.0503537 101.3898469  71.5172536  19.5709444  94.6137181  77.1401497
  20.2108823  94.4725940  76.4424460  18.7386975  94.3271695  76.7640099
  31.4336697 102.6955613  76.0715757  31.8673204 102.6030902  76.9198811
  32.1468278 102.6713114  75.4335773  20.3469748 103.9139612  73.2536490
  21.1410346 103.4189932  73.0519065  19.6361440 103.3857475  72.8904195
  25.1664592 106.2957707  77.6048857  25.2201615 106.8648644  78.3726573
  24.2979374 106.4659592  77.2402894  16.6552511  98.0582693  69.3296242
  15.7250099  97.9967149  69.5466204  16.7509983  97.5358646  68.5332884
  16.5738060  94.5837506  71.9174484  16.8344878  95.4982840  71.8083644
  17.3955233  94.1161949  72.0671097  18.0462986  95.9975263  79.0873308
  18.7186039  95.7892626  78.4385957  17.2192772  95.7997349  78.6478541
  32.2952247 102.7379314  78.6048642  32.4888137 103.6425124  78.8507917
  32.1952865 102.2786733  79.4387227  23.9488558  92.6237204  81.1038969
  23.3016473  93.3227154  81.0103446  24.7189573  93.0573348  81.4715218
  27.3567356 102.8886057  84.1789523  27.2052862 102.6596608  83.2619606
  27.3472035 103.8456658  84.1920868  24.1252692 100.4617969  79.1635789
  25.0544752 100.6129129  78.9904756  23.7043722 100.5501990  78.3084436
  22.9241024 104.4868634  76.9334327  22.7852110 104.1187418  77.8060265
  22.1355620 105.0016273  76.7618284  23.5189176 109.5877730  68.2759863
  23.6940932 109.1165773  69.0905486  22.8321964 110.2143496  68.5041124
  24.4746239 103.8650236  74.3223164  24.1396072 103.8251006  75.2180814
  23.9750185 103.1994952  73.8493575  18.4490483  99.2717866  79.8475746
  18.3110281  98.5398105  80.4487285  19.3595406  99.1826767  79.5659933
  27.4105431 101.2106271  64.5960224  26.7934601 100.4853099  64.4993277
  26.9421919 101.9715631  64.2527298  21.0772784  98.9837826  79.3359425
  21.7872402  98.3431018  79.2946044  21.0342092  99.2350721  80.2585606
  29.0659562 105.9205179  82.2566004  29.0072108 105.2364399  81.5896587
  29.4679081 106.6624169  81.8046630  19.7901718  95.9703044  81.1555065
  19.2539075  95.5193782  81.8076661  19.2018426  96.1048952  80.4125529
  19.2003977  95.4291695  63.7181528  18.3233443  95.3080496  63.3543775
  19.6761730  94.6377773  63.4660417  29.0676970 103.8844763  80.4879984
  28.1803748 103.5470685  80.6106383  29.6375521 103.1527794  80.7248750
  10.7206117 100.2168855  73.8123036  11.4077157  99.9030585  73.2244051
  10.5654245 101.1210219  73.5390287  15.5240839  95.1059051  78.2408059
  15.4399028  94.4984721  77.5058469  14.7023545  95.5968070  78.2417556
  22.5978123 108.5446215  77.4541227  22.5248294 109.3501187  77.9660532
  22.1555516 108.7438181  76.6289249  22.3867903 107.7817985  70.9644049
  21.6035424 108.3239666  71.0582273  23.0860648 108.2991965  71.3638290
  25.6964553  93.5912615  73.6078254  26.1933252  92.8382577  73.2879325
  24.9251534  93.6276932  73.0421464  33.5494310  99.2952980  75.2496546
  33.5384186 100.1777696  74.8790479  32.6811690  98.9424531  75.0551083
  25.0576807 108.4433049  79.6099386  25.7704779 109.0780514  79.5375287
  24.5666835 108.5396915  78.7939388  26.7794333 102.3484302  71.1816678
  25.8450612 102.4685765  71.0121382  26.9571002 101.4456769  70.9176688
  22.2799521  95.7329998  73.3349939  21.9097309  95.1801038  74.0230844
  22.7758614  95.1288131  72.7824939  30.1666885  98.1901621  71.7166712
  30.6327337  99.0229613  71.6427014  30.6174385  97.7246603  72.4211970
  20.1088720 106.1927493  80.4304957  20.8098180 106.8263976  80.5834351
  19.6383835 106.5342224  79.6700596  28.2343116 104.5345443  68.7152864
  28.5102960 104.4202037  69.6246738  27.3647615 104.1362928  68.6765037
  28.1383548  90.5582208  75.7557613  27.2246627  90.7886435  75.9239820
  28.5676649  90.6420652  76.6071646  27.9090006  98.7472100  78.2557507
  27.2561456  98.9948008  77.6009960  28.2870386  97.9336239  77.9219984
  24.8697180 108.7831794  72.3585677  25.0519574 107.9653449  72.8213430
  25.6930166 108.9999486  71.9210567  25.2039345 107.7099979  69.6200726
  25.7327112 107.1992433  69.0070888  25.4667565 107.3942509  70.4846259
  23.9577579  99.4891911  84.7423544  23.2818216  99.3886041  85.4125919
  24.7805213  99.3331125  85.2059541  15.7056438 105.7263848  77.3636060
  16.2909875 104.9807536  77.4963964  15.5081277 106.0367805  78.2472723
  18.5595093 108.7615095  72.3798502  17.8905469 109.2461223  71.8962542
  18.4207963 109.0084316  73.2941880  10.2974093  98.2969448  76.0840503
  10.3358192  97.7633039  76.8777621   9.7914386  97.7704654  75.4651480
  22.7000362 110.7958839  78.9781160  23.2518670 110.9590460  79.7430245
  23.0406555 111.3863277  78.3061185  17.6764855  93.1433989  79.5803045
  17.7406182  94.0048820  79.1680443  17.6131975  92.5307990  78.8475403
  17.1517128  95.2157121  83.2276079  17.7789166  94.8334199  83.8413604
  16.2945047  94.9971323  83.5931772  27.5511236 105.6220096  84.8329815
  28.0951140 106.2350055  84.3384769  26.9698081 106.1799675  85.3496828
  13.9282670  97.0233550  69.1594434  14.2236111  96.1144229  69.1061488
  13.0270706  97.0021290  68.8375436  25.8368749 108.7440814  75.9644842
  25.7119889 107.9430554  75.4555788  26.4947840 109.2387008  75.4758812
  17.4576917  95.0989547  75.1421983  16.7363503  95.7125515  75.0029456
  18.2470173  95.6347312  75.0638629  27.9003658 106.5449834  77.5924392
  26.9533993 106.4255186  77.5202719  28.2486431 105.6572333  77.6750654
  20.2603231  92.4343973  81.4162634  20.7837633  92.6806270  82.1788944
  20.0415564  93.2664008  80.9965772  15.6570512  94.7047648  69.2833759
  15.3283218  93.8245027  69.1008865  16.0109883  94.6495317  70.1710148
  24.9050091 106.3402551  73.7928745  24.7575053 105.4119258  73.9736315
  25.7303584 106.3622641  73.3085820  18.7712335  94.9920618  69.6509237
  19.1108408  95.5206539  68.9287845  19.2184456  95.3301024  70.4267803
  28.5084213 107.1631109  74.8793617  29.4330760 106.9573971  74.7418069
  28.3399516 106.9147511  75.7882959  21.4655776  93.3757668  79.1012305
  21.1252596  92.5765482  79.5032985  20.7594782  93.6759379  78.5289138
  22.1172248  90.4606981  77.5539628  22.9398317  89.9867459  77.4318518
  22.3610311  91.2397465  78.0538314  20.7580482  93.4895239  67.8502530
  21.4788845  93.8676492  67.3466246  20.1345786  94.2084116  67.9537508
  24.9011605  94.1940388  68.7860862  25.1175220  95.0765026  68.4849690
  24.4205672  93.8026602  68.0566504  19.6410827  97.1526102  75.3631607
  19.4955407  97.4666405  76.2555888  19.1636030  97.7711002  74.8102505
  21.5007209  94.1428650  75.4112496  21.4868778  93.2469743  75.0744794
  22.2179638  94.1499313  76.0450782  23.3533340  94.5765990  77.4565624
  23.0951118  95.4983060  77.4549954  22.8218381  94.1796424  78.1466088
  28.2979529 107.6816777  70.2355709  28.4716406 107.1163199  69.4829561
  28.7908420 108.4817672  70.0535199  14.1156489  99.6931446  78.3019268
  13.5709957 100.4691254  78.4339542  14.9935839 100.0402250  78.1438389
  20.9044105  93.0243030  70.6800066  21.0260017  92.0959676  70.8790954
  20.6146148  93.0381716  69.7678382  23.7735296  90.7097940  73.8166786
  23.7956993  90.7737273  72.8618766  24.1903355  89.8702449  74.0107292
  34.1518920 100.4453200  71.8546009  34.5950066  99.6960525  71.4565132
  33.2745430 100.4363336  71.4719741  29.2854701 106.9983541  67.3352607
  29.9805606 107.6190234  67.5539922  29.6277852 106.1478892  67.6104985
  14.9022511  98.8201342  81.1949425  14.1604247  98.9683978  81.7814055
  14.5815255  99.0809608  80.3316174  31.1846125 104.4483247  68.8639938
  31.7097449 104.7870520  68.1389258  31.0968477 103.5130262  68.6803073
  22.8466173 108.3617320  80.9929815  23.1553300 108.1166467  81.8652514
  23.6441655 108.5663959  80.5048685  22.8686785 110.5155230  73.2235191
  22.4291776 110.0231609  73.9168048  23.6194902 109.9728198  72.9827266
  15.3479124 106.7066771  73.2259819  16.1737144 106.4070543  72.8458463
  14.9973176 105.9374393  73.6749608  20.3160657 106.0593239  75.2957493
  19.6940667 105.3963944  74.9959721  20.9865524 106.0854371  74.6131141
  13.5487729 104.6253097  74.1848753  12.7119638 104.1975272  74.0032754
  13.5211375 104.8185541  75.1219544  20.3885185  94.5375027  84.8889999
  20.4373340  95.4137150  84.5067768  20.9307699  93.9952420  84.3161642
  30.8740031 105.0816150  84.1691136  30.0835574 105.0640289  83.6295635
  30.6373385 105.6204444  84.9240173  30.9937906 101.9308617  81.4823864
  31.0435911 101.7658624  82.4239387  30.8851829 101.0635876  81.0921745
  19.8774164 104.6097163  68.7715953  20.0262285 105.2932627  68.1182626
  20.6840608 104.5902253  69.2865409  28.2841668  97.9139545  82.7983171
  29.1851531  97.7746010  82.5067169  28.3589643  98.0794000  83.7381349
  22.6184473  95.2906400  81.6436358  21.7487783  95.5839966  81.3718946
  22.8543954  95.8746845  82.3643621  32.4956102 104.3505558  81.7265886
  32.2040911 104.7135539  82.5629347  31.8828234 103.6372567  81.5479218
  33.6951785 101.9158438  74.2468456  34.5298676 102.3548242  74.4106017
  33.8310914 101.4397091  73.4276702  30.7443291  99.4738173  80.1945944
  31.2197412  99.6665819  79.3864795  29.8208856  99.5297359  79.9489328
  17.6326797 100.6362340  69.7777022  17.3872839  99.7324670  69.9757232
  17.8022712 100.6379491  68.8356500  25.3223507  91.5086017  79.1601778
  25.8405451  92.2447043  78.8348266  24.9678640  91.8150010  79.9948537
  16.9022445  96.3690698  67.2763184  16.2091690  96.4435053  66.6203220
  16.6574197  95.6051041  67.7984701  25.5736101  87.9286299  74.6802675
  25.8537855  87.2609488  75.3063101  26.3586708  88.1215395  74.1677338
  23.3769570 107.1045293  66.2427701  22.8043537 107.7235480  65.7898173
  23.9502364 107.6544655  66.7767623  29.4444960  96.3503933  78.4274250
  30.3962383  96.4502031  78.4486474  29.2748410  95.5582202  78.9372334
  27.4659339  93.4359516  78.6133651  26.8709271  93.7164529  77.9180139
  27.1809036  93.9253417  79.3850392  26.5966830 107.3882443  67.3736283
  27.5297503 107.3228005  67.5769159  26.5090042 108.2238710  66.9150816
  29.2254846 106.7048313  64.3340231  29.1468478 106.3708177  65.2275989
  30.0464513 107.1970081  64.3331703  31.9233037  99.5710053  77.5416549
  31.8909358  98.6326053  77.7276233  32.5333661  99.6494089  76.8082374
  23.7616368  98.4406106  63.5843753  24.7075473  98.3112314  63.6532171
  23.3830613  97.7020768  64.0613181  32.0727526  96.3621096  77.5874832
  31.5566575  95.5779553  77.4004761  32.9567475  96.0339813  77.7521352
  29.7338253  90.1062112  73.5470645  29.5363074  89.7977200  74.4313977
  30.3437958  90.8323751  73.6768575  37.7409587 100.6326060  76.6822586
  38.4712976 100.3711348  77.2430289  37.1316533  99.8954782  76.7224654
  35.8224884  98.7733922  77.2797037  35.0958048  98.6389887  76.6713529
  35.4072171  99.0810751  78.0853755  23.6455061 102.4923852  85.0444410
  24.5658070 102.6702451  85.2384457  23.6104644 101.5479897  84.8924110
  21.9459286  96.3656082  63.5198639  21.0390741  96.0689195  63.5961352
  22.2235267  96.0685900  62.6532925  12.8637226  97.6862446  73.9697685
  12.5440010  96.8327754  73.6772059  12.3170654  97.9011024  74.7255652
  16.6417133 100.4024887  77.6867191  16.8603143 101.3341994  77.7055225
  17.0542907 100.0432861  78.4721995  23.5621351  90.9092972  69.6742880
  22.7522080  90.5640057  70.0498126  24.2505768  90.6000516  70.2630491
  25.4911900  89.9871019  71.2967176  26.0442938  90.4066472  71.9557200
  25.7281986  89.0606767  71.3390132  21.5144999  95.9758092  87.0769940
  21.4141726  96.9252449  87.0082031  21.2966541  95.6476331  86.2046010
  20.7158070  93.2243017  63.6610618  21.5777234  93.5497916  63.9206435
  20.9008414  92.4374513  63.1483684  12.7325486 101.3065357  75.9390807
  12.0388957 100.8919310  75.4260761  13.4798477 101.3485894  75.3424225
  28.8690707  92.0971544  70.8045841  28.2889376  92.7556348  70.4223893
  28.6026639  91.2748888  70.3933258  27.3194273  91.4976601  73.0067161
  27.8194051  91.6093136  72.1981480  27.9629881  91.1937654  73.6467969
  21.3776269  99.4055231  85.8935002  20.8943351 100.2055591  86.0998891
  21.4637208  99.4163176  84.9402446  14.6462228 101.2383611  73.8156821
  14.6232917 101.3371298  72.8638704  14.9562865 102.0848762  74.1373988
  17.3049606 103.2959766  77.9303436  18.2592860 103.2643708  77.8633367
  17.1062130 102.8350390  78.7453662  17.8948988 101.8660882  80.4974233
  18.7141877 102.3604961  80.5209071  18.1685796 100.9492850  80.4691801
  27.6515585  94.2571634  69.8602189  26.7641440  94.5421285  69.6422384
  28.0669574  94.0965398  69.0129466  31.0030121  94.2818155  73.5756528
  31.7790511  94.7714608  73.8481145  30.2778255  94.7076209  74.0328398
  33.4402679  94.9945774  74.6330469  34.0347170  94.7541510  73.9223777
  33.5129263  94.2752905  75.2604005  15.6599835 108.8379385  74.9473634
  15.5254303 108.0779786  74.3811632  15.2431897 109.5620285  74.4802423
  26.7958798 104.0216309  63.9550209  27.4994648 104.2266311  64.5707865
  26.0721447 104.5893071  64.2199292  27.6256608  99.7726170  70.0752479
  27.5691810 100.2294722  69.2360112  28.1784951  99.0116855  69.8975322
  31.4361414  95.5615902  70.9002599  31.1798349  95.1612538  71.7310806
  30.8114282  96.2759696  70.7752738  35.7473752  98.3011975  73.4073890
  35.1873310  98.3705165  74.1805452  35.1417256  98.1252960  72.6873386
  18.8168961 109.7348702  75.1592076  18.7001345 110.6794135  75.0570767
  17.9961407 109.4322264  75.5477876  28.7045496 104.4598838  66.0048669
  29.5391099 104.0280037  65.8226144  28.5429838 104.2880852  66.9325564
  28.3591388 100.9630951  67.3705008  28.3040191 100.7975223  66.4293452
  27.7337443 101.6706984  67.5267198  13.1483903  96.1999016  81.1966431
  13.7942766  95.6897970  81.6853656  12.9401054  96.9367697  81.7709856
  25.6737295 103.2679863  86.6958571  26.5428454 103.4420515  86.3345206
  25.1944046 104.0874280  86.5734300  21.6687513  90.4639060  66.9490327
  21.6566183  91.4080900  67.1058598  22.5610935  90.2809206  66.6549788
  19.8423475 110.3876964  78.3748005  20.7450722 110.4200574  78.6914500
  19.6160845 109.4577415  78.3894341  21.5977077 109.1407951  75.0358083
  20.6472708 109.1409812  74.9222456  21.9009563 108.3940685  74.5194118
  25.4839633  87.0581837  71.2036264  24.7172028  86.5040324  71.3492946
  25.8950338  87.1303706  72.0650415  17.4881394  93.3466633  85.2941445
  18.3512855  92.9903438  85.5044769  16.9146804  93.0080528  85.9816849
  37.3329771 114.9768489  76.1003846  37.9708181 114.8575236  75.3967186
  37.2150613 115.9249333  76.1591798  34.1419477 114.9295917  76.0365370
  33.8037988 114.8136982  75.1485905  35.0109245 114.5287082  76.0166377
  34.6239260 116.0830769  81.9951576  34.6127901 115.6883567  81.1232080
  34.7859899 115.3496842  82.5885347  31.8427756 113.6984165  65.3682311
  32.0953277 113.1765686  64.6065774  30.9052315 113.5350310  65.4708994
  36.8871039 112.7019943  73.1757054  37.6734128 112.2839366  72.8247471
  37.1509743 113.6066035  73.3438702  42.2879466 112.6395176  74.0790032
  43.0204638 112.0694393  74.3127862  41.5318822 112.2516777  74.5196538
  33.9055586 115.0622418  71.2753375  33.5413793 114.5353039  71.9866296
  34.7622702 114.6720887  71.1019860  39.8104887 106.3516750  78.5384641
  39.4788211 107.2212161  78.3145856  39.2150500 106.0353034  79.2178671
  33.5461073 110.0912317  66.2714723  33.7135475 110.9592554  66.6385194
  33.3558242 110.2539599  65.3476013  39.7033550 111.0711836  75.6177991
  38.7950427 111.0027245  75.3236752  39.6521146 111.5483781  76.4459816
  33.5250294 112.5469975  67.2561390  33.4049919 112.9927026  68.0946870
  32.8302882 112.8955293  66.6974928  33.7774416 112.4901482  83.5612888
  33.0007750 113.0495402  83.5515753  34.4164979 112.9758265  84.0827758
  41.5695196 109.2728275  77.3955865  40.9269577 109.5660808  76.7495659
  41.0650125 109.1581195  78.2009062  39.2235360 113.0191448  68.0841724
  40.1353216 113.2518835  67.9089422  38.7145007 113.6028492  67.5216803
  37.5076128 117.4416076  81.7203017  37.9159484 116.9998486  80.9757649
  36.7853389 116.8668703  81.9737210  33.8607198 112.3788683  79.0936574
  34.7068393 112.8028096  79.2371223  33.8005835 111.7222307  79.7875137
  37.0106643 110.0393051  80.7517747  36.7667575 110.7935112  80.2152023
  37.2866573 110.4178399  81.5864994  38.9645106 116.5831663  79.4295013
  39.1762001 117.2263423  78.7529394  38.9174854 115.7493980  78.9616943
  36.5671335 109.1949484  76.3331585  35.7055814 109.4930738  76.6248323
  36.5933769 109.4119883  75.4012618  32.3201790 113.8614827  69.5494956
  33.0225834 114.3135871  70.0168882  31.9882419 113.2198646  70.1774849
  30.7682152 112.4526584  83.9246165  30.1380812 113.1342864  84.1581562
  30.6618240 112.3409665  82.9799304  26.0627124 112.1198380  74.8512089
  25.2726178 112.3755908  74.3752200  26.5538372 112.9346717  74.9564130
  28.0141870 112.4842959  71.8095566  27.2173033 112.5961653  72.3279062
  27.7867462 112.8229611  70.9436457  48.1696927 115.8042367  73.9502342
  47.4160635 115.2349765  73.7946346  48.3044468 115.7705032  74.8972976
  30.0462894 106.7547349  86.2871416  29.6529840 106.2013548  86.9619061
  30.8629035 107.0657928  86.6777934  32.9630855 108.1705229  83.8791673
  33.7040569 108.7712382  83.7996135  33.1948778 107.4282866  83.3209715
  28.1072193 113.3561596  82.1569903  27.9925709 112.4546853  82.4577001
  27.2516711 113.6025293  81.8054719  36.9088018 104.1986331  78.1555955
  36.5652288 105.0887973  78.0795065  37.2766981 104.0087989  77.2925540
  36.8738301 114.1894943  66.6628390  36.3584925 114.9599547  66.9016777
  36.6015610 113.5160079  67.2861451  34.4585412 109.0344643  71.7213628
  33.6027008 108.6451494  71.5419267  34.8712364 109.1136604  70.8613414
  35.9884559 106.5690987  76.1205188  35.4849354 106.5321122  75.3072993
  36.2815166 107.4783729  76.1801844  32.2327445 106.6529716  75.1271370
  33.0980441 106.4572525  74.7677259  32.3004954 106.4240068  76.0540726
  41.8472575 116.9427297  68.5981563  41.0702018 116.6038457  68.1536725
  42.5264056 116.9479920  67.9236528  36.6624604 112.0622035  68.4888171
  36.3574740 112.3768184  69.3398314  37.6155046 112.1403455  68.5315504
  40.0863882 116.4161278  75.2548171  39.4287557 117.1060540  75.3428300
  40.8904281 116.8057710  75.5982157  29.8389764 108.8831924  72.4987736
  30.4133516 108.6607106  71.7660929  30.4260746 108.9520619  73.2516338
  38.8969341 114.7705651  73.3052113  39.4101223 115.4035643  73.8073823
  39.5470565 114.1706847  72.9395473  30.1659351 110.9136385  66.5183622
  29.3296663 111.2511072  66.8392896  30.0264120 110.7785365  65.5810759
  32.1412431 105.7573173  71.2262806  31.4876844 105.4422190  70.6019421
  32.0992906 105.1348914  71.9522629  33.2523636 116.0392468  63.1416098
  32.3450698 115.8081722  63.3407247  33.7494668 115.2430088  63.3290079
  35.3750172 112.2455107  75.5510453  34.4572733 112.4670054  75.3932141
  35.7910315 112.3201417  74.6922161  36.1585220 113.6446522  70.6813134
  36.9057039 114.1567920  70.3720256  36.4276809 113.3230575  71.5417527
  34.4311870 116.1405063  67.6640088  33.5223089 115.8564096  67.7612558
  34.4606954 116.5604142  66.8043395  38.6064057 110.6803639  72.6631923
  37.8686814 110.1681025  72.9942166  38.8590830 110.2404020  71.8515200
  38.7075684 103.4579891  73.2573692  39.0134561 102.5977254  72.9699607
  39.4328289 104.0497511  73.0572686  32.9796764 113.7533684  73.7649883
  33.0345374 112.8007520  73.6892360  32.1687966 113.9093123  74.2491182
  30.9189124 112.3710743  71.5240262  30.1056989 112.6704914  71.9305454
  31.4148118 111.9766432  72.2414744  36.5163335 112.8352568  80.3555156
  36.8712723 113.0624041  81.2149622  37.1635467 113.1670945  79.7332411
  42.2461072 115.9571004  71.0604485  42.1078971 116.1472600  70.1325674
  41.8897291 116.7190387  71.5172536  30.4103198 109.9429099  77.1401497
  31.0502578 109.8017858  76.4424460  29.5780729 109.6563612  76.7640099
  42.2730452 118.0247531  76.0715757  42.7066959 117.9322820  76.9198811
  42.9862033 118.0005031  75.4335773  27.4946266 113.3874611  69.3296242
  26.5643854 113.3259067  69.5466204  27.5903738 112.8650564  68.5332884
  27.4131815 109.9129424  71.9174484  27.6738632 110.8274757  71.8083644
  28.2348987 109.4453867  72.0671097  28.8856740 111.3267181  79.0873308
  29.5579794 111.1184543  78.4385957  28.0586527 111.1289267  78.6478541
  43.1346001 118.0671231  78.6048642  43.3281892 118.9717042  78.8507917
  43.0346620 117.6078651  79.4387227  34.7882312 107.9529122  81.1038969
  34.1410227 108.6519072  81.0103446  35.5583328 108.3865266  81.4715218
  34.9646447 115.7909887  79.1635789  35.8938507 115.9421047  78.9904756
  34.5437477 115.8793908  78.3084436  29.2884237 114.6009784  79.8475746
  29.1504035 113.8690023  80.4487285  30.1989161 114.5118684  79.5659933
  38.2499185 116.5398188  64.5960224  37.6328356 115.8145017  64.4993277
  37.7815674 117.3007549  64.2527298  31.9166538 114.3129743  79.3359425
  32.6266157 113.6722936  79.2946044  31.8735846 114.5642638  80.2585606
  30.6295472 111.2994961  81.1555065  30.0932829 110.8485700  81.8076661
  30.0412181 111.4340870  80.4125529  30.0397731 110.7583613  63.7181528
  29.1627197 110.6372414  63.3543775  30.5155484 109.9669691  63.4660417
  26.3634593 110.4350969  78.2408059  26.2792782 109.8276639  77.5058469
  25.5417300 110.9259987  78.2417556  36.5358307 108.9204533  73.6078254
  37.0327007 108.1674495  73.2879325  35.7645289 108.9568849  73.0421464
  44.3888065 114.6244898  75.2496546  44.3777941 115.5069614  74.8790479
  43.5205444 114.2716449  75.0551083  33.1193276 111.0621916  73.3349939
  32.7491063 110.5092956  74.0230844  33.6152368 110.4580049  72.7824939
  41.0060639 113.5193539  71.7166712  41.4721091 114.3521531  71.6427014
  41.4568140 113.0538521  72.4211970  38.9777302 105.8874126  75.7557613
  38.0640382 106.1178353  75.9239820  39.4070403 105.9712570  76.6071646
  38.7483760 114.0764018  78.2557507  38.0955211 114.3239925  77.6009960
  39.1264140 113.2628156  77.9219984  34.7971334 114.8183829  84.7423544
  34.1211971 114.7177958  85.4125919  35.6198967 114.6623043  85.2059541
  28.5158610 108.4725906  79.5803045  28.5799936 109.3340737  79.1680443
  28.4525730 107.8599908  78.8475403  27.9910882 110.5449039  83.2276079
  28.6182921 110.1626116  83.8413604  27.1338801 110.3263241  83.5931772
  24.7676425 112.3525468  69.1594434  25.0629866 111.4436146  69.1061488
  23.8664461 112.3313207  68.8375436  28.2970672 110.4281465  75.1421983
  27.5757258 111.0417432  75.0029456  29.0863928 110.9639229  75.0638629
  31.0996985 107.7635891  81.4162634  31.6231387 108.0098188  82.1788944
  30.8809319 108.5955926  80.9965772  26.4964266 110.0339566  69.2833759
  26.1676973 109.1536945  69.1008865  26.8503637 109.9787234  70.1710148
  29.6106090 110.3212535  69.6509237  29.9502162 110.8498457  68.9287845
  30.0578210 110.6592942  70.4267803  32.3049530 108.7049586  79.1012305
  31.9646351 107.9057399  79.5032985  31.5988537 109.0051297  78.5289138
  32.9566002 105.7898899  77.5539628  33.7792072 105.3159377  77.4318518
  33.2004066 106.5689382  78.0538314  31.5974237 108.8187157  67.8502530
  32.3182599 109.1968410  67.3466246  30.9739541 109.5376034  67.9537508
  35.7405360 109.5232306  68.7860862  35.9568974 110.4056944  68.4849690
  35.2599427 109.1318519  68.0566504  30.4804581 112.4818019  75.3631607
  30.3349162 112.7958322  76.2555888  30.0029785 113.1002920  74.8102505
  32.3400964 109.4720567  75.4112496  32.3262533 108.5761661  75.0744794
  33.0573392 109.4791231  76.0450782  34.1927095 109.9057907  77.4565624
  33.9344872 110.8274978  77.4549954  33.6612135 109.5088342  78.1466088
  31.7437860 108.3534947  70.6800066  31.8653771 107.4251594  70.8790954
  31.4539902 108.3673633  69.7678382  34.6129050 106.0389858  73.8166786
  34.6350747 106.1029191  72.8618766  35.0297109 105.1994367  74.0107292
  44.9912675 115.7745117  71.8546009  45.4343821 115.0252443  71.4565132
  44.1139185 115.7655254  71.4719741  31.2278939 109.8666945  84.8889999
  31.2767095 110.7429068  84.5067768  31.7701454 109.3244338  84.3161642
  41.8331660 117.2600534  81.4823864  41.8829665 117.0950542  82.4239387
  41.7245583 116.3927794  81.0921745  39.1235423 113.2431463  82.7983171
  40.0245285 113.1037927  82.5067169  39.1983397 113.4085917  83.7381349
  33.4578228 110.6198317  81.6436358  32.5881537 110.9131883  81.3718946
  33.6937708 111.2038762  82.3643621  44.5345539 117.2450356  74.2468456
  45.3692431 117.6840160  74.4106017  44.6704668 116.7689009  73.4276702
  41.5837045 114.8030091  80.1945944  42.0591167 114.9957737  79.3864795
  40.6602611 114.8589276  79.9489328  36.1617262 106.8377934  79.1601778
  36.6799206 107.5738961  78.8348266  35.8072394 107.1441927  79.9948537
  27.7416199 111.6982615  67.2763184  27.0485444 111.7726970  66.6203220
  27.4967951 110.9342959  67.7984701  36.4129856 103.2578217  74.6802675
  36.6931610 102.5901406  75.3063101  37.1980463 103.4507312  74.1677338
  40.2838714 111.6795851  78.4274250  41.2356137 111.7793948  78.4486474
  40.1142165 110.8874119  78.9372334  38.3053094 108.7651434  78.6133651
  37.7103026 109.0456447  77.9180139  38.0202790 109.2545335  79.3850392
  42.7626792 114.9001970  77.5416549  42.7303112 113.9617971  77.7276233
  43.3727416 114.9786007  76.8082374  34.6010123 113.7698023  63.5843753
  35.5469228 113.6404231  63.6532171  34.2224368 113.0312685  64.0613181
  42.9121280 111.6913014  77.5874832  42.3960329 110.9071470  77.4004761
  43.7961229 111.3631730  77.7521352  40.5732007 105.4354029  73.5470645
  40.3756829 105.1269118  74.4313977  41.1831713 106.1615668  73.6768575
  48.5803342 115.9617977  76.6822586  49.3106730 115.7003265  77.2430289
  47.9710287 115.2246699  76.7224654  46.6618639 114.1025840  77.2797037
  45.9351803 113.9681805  76.6713529  46.2465926 114.4102668  78.0853755
  32.7853040 111.6948000  63.5198639  31.8784495 111.3981112  63.5961352
  33.0629021 111.3977818  62.6532925  34.4015106 106.2384889  69.6742880
  33.5915834 105.8931974  70.0498126  35.0899523 105.9292433  70.2630491
  36.3305654 105.3162936  71.2967176  36.8836693 105.7358390  71.9557200
  36.5675740 104.3898684  71.3390132  32.3538753 111.3050010  87.0769940
  32.2535480 112.2544367  87.0082031  32.1360295 110.9768249  86.2046010
  31.5551825 108.5534935  63.6610618  32.4170989 108.8789833  63.9206435
  31.7402169 107.7666431  63.1483684  39.7084461 107.4263461  70.8045841
  39.1283130 108.0848265  70.4223893  39.4420394 106.6040806  70.3933258
  38.1588027 106.8268519  73.0067161  38.6587806 106.9385054  72.1981480
  38.8023635 106.5229572  73.6467969  32.2170023 114.7347149  85.8935002
  31.7337105 115.5347509  86.0998891  32.3030962 114.7455094  84.9402446
  38.4909339 109.5863552  69.8602189  37.6035194 109.8713202  69.6422384
  38.9063328 109.4257315  69.0129466  41.8423875 109.6110073  73.5756528
  42.6184265 110.1006525  73.8481145  41.1172009 110.0368127  74.0328398
  44.2796434 110.3237692  74.6330469  44.8740925 110.0833428  73.9223777
  44.3523018 109.6044823  75.2604005  38.4650363 115.1018088  70.0752479
  38.4085564 115.5586639  69.2360112  39.0178705 114.3408772  69.8975322
  42.2755169 110.8907820  70.9002599  42.0192103 110.4904455  71.7310806
  41.6508037 111.6051614  70.7752738  46.5867507 113.6303893  73.4073890
  46.0267065 113.6997082  74.1805452  45.9811010 113.4544878  72.6873386
  39.1985142 116.2922869  67.3705008  39.1433946 116.1267140  66.4293452
  38.5731197 116.9998902  67.5267198  23.9877657 111.5290933  81.1966431
  24.6336521 111.0189887  81.6853656  23.7794808 112.2659615  81.7709856
  32.5081268 105.7930978  66.9490327  32.4959937 106.7372818  67.1058598
  33.4004690 105.6101123  66.6549788  36.3233387 102.3873755  71.2036264
  35.5565783 101.8332241  71.3492946  36.7344092 102.4595623  72.0650415
  28.3275148 108.6758550  85.2941445  29.1906610 108.3195355  85.5044769
  27.7540559 108.3372445  85.9816849  47.7481773 119.5278249  78.1555955
  47.4046042 120.4179891  78.0795065  48.1160735 119.3379907  77.2925540
  49.5469439 118.7871808  73.2573692  49.8528315 117.9269172  72.9699607
  50.2722043 119.3789429  73.0572686  49.8171056 121.2166044  75.7557613
  48.9034136 121.4470271  75.9239820  50.2464158 121.3004488  76.6071646
  47.2523610 118.5870134  74.6802675  47.5325364 117.9193323  75.3063101
  48.0374217 118.7799230  74.1677338  51.4125762 120.7645947  73.5470645
  51.2150583 120.4561035  74.4313977  52.0225467 121.4907586  73.6768575
  47.1699409 120.6454854  71.2967176  47.7230447 121.0650307  71.9557200
  47.4069495 119.7190602  71.3390132  47.1627142 117.7165672  71.2036264
  46.3959537 117.1624159  71.3492946  47.5737847 117.7887541  72.0650415
   4.8121910  31.4936819  60.6747648   4.0585618  30.9244217  60.5191653
   4.9469451  31.4599484  61.6218283   1.6337658  31.4639569  58.5791315
   2.0768804  30.7146895  58.1810439   0.7564168  31.4549706  58.1965047
   1.1770523  32.9344808  60.9713763   2.0117414  33.3734612  61.1351323
   1.3129651  32.4583461  60.1522009   5.2228325  31.6512429  63.4067893
   5.9531714  31.3897717  63.9675596   4.6135271  30.9141151  63.4469961
   3.3043622  29.7920292  64.0042344   2.5776786  29.6576257  63.3958835
   2.8890909  30.0997120  64.8099062   0.9221417  26.0132144  61.3575776
   1.5165908  25.7727880  60.6469084   0.9948001  25.2939274  61.9849312
   3.2292490  29.3198345  60.1319197   2.6692048  29.3891534  60.9050759
   2.6235993  29.1439329  59.4118693   4.8148508  45.9954859  62.8249152
   5.4526918  45.8761606  62.1212492   4.6969351  46.9435703  62.8837105
   1.6238215  45.9482287  62.7610677   1.2856726  45.8323352  61.8731212
   2.4927983  45.5473452  62.7411683   2.1057998  47.1017139  68.7196883
   2.0946638  46.7069937  67.8477386   2.2678637  46.3683211  69.3130654
   3.0624589  51.4688731  54.0622033   2.4112569  52.0542811  53.6756047
   3.8568952  51.9994926  54.1217070   4.3689777  43.7206313  59.9002360
   5.1552866  43.3025736  59.5492777   4.6328481  44.6252405  60.0684009
   4.5399854  49.1579163  54.5991017   3.9045687  49.2313789  55.3111922
   4.2097261  49.7472762  53.9210097   9.7698204  43.6581546  60.8035339
  10.5023376  43.0880763  61.0373168   9.0137560  43.2703146  61.2441845
   1.3874324  46.0808787  57.9998681   1.0232531  45.5539408  58.7111603
   2.2441440  45.6907256  57.8265167   7.2923624  37.3703120  65.2629948
   6.9606949  38.2398531  65.0391163   6.6969238  37.0539404  65.9423978
   1.0279811  41.1098687  52.9960030   1.1954213  41.9778923  53.3630501
   0.8376980  41.2725969  52.0721319   3.7855144  49.5715666  64.6625860
   3.4855867  50.4740705  64.5541668   3.4406203  49.3047849  65.5147013
   7.1852288  42.0898206  62.3423298   6.2769165  42.0213614  62.0482059
   7.1339883  42.5670151  63.1705123   1.2593153  43.5087852  70.2858195
   0.4826488  44.0681772  70.2761060   1.8983717  43.9944635  70.8073065
   9.0513934  40.2914644  64.1201172   8.4088314  40.5847178  63.4740966
   8.5468863  40.1767565  64.9254368   6.7054098  44.0377818  54.8087031
   7.6171954  44.2705204  54.6334728   6.1963745  44.6214862  54.2462109
   4.9894865  48.4602445  68.4448323   5.3978221  48.0184856  67.7002956
   4.2672127  47.8855073  68.6982516   1.3425935  43.3975052  65.8181880
   2.1887131  43.8214466  65.9616529   1.2824573  42.7408677  66.5120443
   5.3123680  49.0203636  62.2000612   4.6832542  49.1849350  61.4976680
   4.9249342  49.4345246  62.9711576   9.1912912  49.9558074  59.5544976
   8.5063950  50.3356975  59.0042009   9.2756761  50.5653401  60.2876924
   4.4925381  41.0579421  67.4763054   4.2486313  41.8121481  66.9397330
   4.7685311  41.4364768  68.3110301   6.4463844  47.6018033  66.1540320
   6.6580739  48.2449793  65.4774701   6.3993592  46.7680350  65.6862250
   4.0490073  40.2135854  63.0576892   3.1874552  40.5117107  63.3493629
   4.0752507  40.4306252  62.1257924   0.8651642  48.7578044  59.4650697
   1.3289987  49.0365747  58.6755320   0.6008440  47.8561489  59.2823788
   7.5609671  50.4789988  64.3262677   8.3827115  50.0770176  64.0445359
   7.5572074  50.3758223  65.2778793   1.3266275  50.0274032  66.4823387
   1.3910707  50.4894439  67.3181559   0.6177199  49.3971397  66.6105697
  15.6515665  46.8228737  60.6747648  14.8979373  46.2536135  60.5191653
  15.7863206  46.7891401  61.6218283   1.0414293  51.6942139  56.3502368
   0.9059967  52.5393675  56.7787216   1.5824105  51.8961417  55.5868302
   2.6682769  52.3165706  70.4802710   2.2246623  51.5302084  70.1623614
   3.3299983  52.5044856  69.8146601   4.7664007  52.5968506  68.5084111
   4.7482482  53.4177387  68.0164380   5.6883927  52.4722581  68.7334252
   1.2237061  50.1112635  69.3507619   1.7565398  49.3500923  69.1206927
   0.6951142  49.8186287  70.0931774   4.3906756  35.2172701  64.8801261
   4.0471026  36.1074343  64.8040372   4.7585719  35.0274359  64.0170846
   4.3557039  45.2081312  53.3873696   3.8403662  45.9785917  53.6262084
   4.0834347  44.5346448  54.0106758   1.9404150  40.0531013  58.4458935
   1.0845746  39.6637863  58.2664573   2.3531102  40.1322974  57.5858720
   3.4703297  37.5877356  62.8450494   2.9668092  37.5507491  62.0318300
   3.7633903  38.4970099  62.9047151   9.3291313  47.9613667  55.3226870
   8.5520756  47.6224826  54.8782032  10.0082794  47.9666290  54.6481835
   4.1443342  43.0808404  55.2133477   3.8393478  43.3954553  56.0643621
   5.0973784  43.1589824  55.2560810   2.5889774  49.2398628  56.8626431
   2.0611135  48.5051387  56.5499669   2.0877277  50.0173304  56.6166400
   7.5682620  47.4347648  61.9793478   6.9106294  48.1246909  62.0673606
   8.3723019  47.8244080  62.3227464   6.3788079  45.7892021  60.0297420
   6.8919960  46.4222013  60.5319129   7.0289303  45.1893216  59.6640780
   3.6410453  55.7676345  52.7858091   2.9672152  56.0708042  53.3943048
   4.0276275  56.5705425  52.4363548   2.8568910  43.2641476  62.2755760
   1.9391471  43.4856423  62.1177448   3.2729053  43.3387787  61.4167467
   3.6403957  44.6632892  57.4058440   4.3875776  45.1754289  57.0965562
   3.9095547  44.3416945  58.2662834   1.9130608  47.1591433  54.3885395
   1.0041827  46.8750466  54.4857864   1.9425691  47.5790511  53.5288701
   7.1449875  50.7698022  58.1576562   6.6912202  49.9288932  58.2141753
   6.5143842  51.4059421  58.4951342   6.0882795  41.6990008  59.3877230
   5.3505551  41.1867394  59.7187472   6.3409568  41.2590390  58.5760506
   5.5882814  52.6074519  59.0926380   5.8805789  53.1679576  58.3738746
   6.0981435  52.9003080  59.8479539   6.1894422  34.4766260  59.9818999
   6.4953299  33.6163624  59.6944914   6.9147027  35.0683880  59.7817993
   1.6106695  48.7000176  51.7273473   1.1726125  47.9836035  51.2679110
   2.3517136  48.9276291  51.1658565   0.5516439  53.3854870  60.1819833
   0.5092618  53.6115716  59.2528366   1.4679138  53.1518245  60.3305635
   3.9982073  43.8538938  67.0800463   4.3531461  44.0810411  67.9394928
   4.6454204  44.1857314  66.4577718   9.7279810  46.9757373  57.7849792
   9.5897709  47.1658969  56.8570981   9.3716029  47.7376756  58.2417843
   9.7549190  49.0433900  62.7961063  10.1885696  48.9509190  63.6444117
  10.4680770  49.0191401  62.1581079   3.4877085  52.6435995  64.3294164
   3.5414107  53.2126931  65.0971880   2.6191866  52.8137880  63.9648201
  10.6164739  49.0857601  65.3293949  10.8100629  49.9903412  65.5753224
  10.5165357  48.6265020  66.1632534   2.2701050  38.9715492  67.8284276
   1.6228965  39.6705441  67.7348752   3.0402065  39.4051636  68.1960524
   5.6779848  49.2364344  70.9034829   5.5265354  49.0074895  69.9864913
   5.6684527  50.1934945  70.9166174   2.4465184  46.8096257  65.8881096
   3.3757244  46.9607416  65.7150063   2.0256214  46.8980277  65.0329742
   1.8401668  55.9356017  55.0005170   2.0153424  55.4644061  55.8150793
   1.1534456  56.5621784  55.2286431   2.7958731  50.2128524  61.0468471
   2.4608564  50.1729294  61.9426121   2.2962677  49.5473240  60.5738881
   5.7317923  47.5584558  51.3205531   5.1147094  46.8331386  51.2238583
   5.2634411  48.3193918  50.9772605   7.3872055  52.2683466  68.9811311
   7.3284601  51.5842686  68.3141894   7.7891573  53.0102456  68.5291937
   7.3889462  50.2323050  67.2125291   6.5016241  49.8948972  67.3351690
   7.9588013  49.5006082  67.4494056   4.0177045  39.9390902  60.3323561
   4.5145745  39.1860864  60.0124631   3.2464027  39.9755219  59.7666770
  11.8706802  45.6431268  61.9741852  11.8596679  46.5255983  61.6035786
  11.0024182  45.2902818  61.7796389   3.3789299  54.7911337  66.3344693
   4.0917271  55.4258801  66.2620594   2.8879327  54.8875203  65.5184694
   5.1006826  48.6962589  57.9061984   4.1663104  48.8164052  57.7366689
   5.2783494  47.7935056  57.6421994   8.4879377  44.5379909  58.4412018
   8.9539829  45.3707900  58.3672321   8.9386878  44.0724890  59.1457277
   6.5555608  50.8823730  55.4398170   6.8315452  50.7680325  56.3492045
   5.6860107  50.4841215  55.4010344   6.4596040  36.9060496  62.4802920
   5.5459120  37.1364722  62.6485127   6.8889141  36.9898940  63.3316952
   6.2302498  45.0950388  64.9802814   5.5773949  45.3426295  64.3255267
   6.6082878  44.2814526  64.6465291   3.1909672  55.1310081  59.0830984
   3.3732067  54.3131737  59.5458736   4.0142658  55.3477773  58.6455874
   3.5251838  54.0578266  56.3446033   4.0539604  53.5470720  55.7316195
   3.7880057  53.7420796  57.2091566   2.2790071  45.8370199  71.4668851
   1.6030708  45.7364328  72.1371226   3.1017705  45.6809412  71.9304848
   1.0212854  57.1437126  65.7026467   1.5731162  57.3068748  66.4675552
   1.3619048  57.7341564  65.0306492   5.8723729  51.9698384  71.5575121
   6.4163632  52.5828342  71.0630076   5.2910573  52.5277962  72.0742134
   4.1581241  55.0919102  62.6890149   4.0332381  54.2908841  62.1801095
   4.8160333  55.5865295  62.2004119   6.2216150  52.8928122  64.3169699
   5.2746485  52.7733473  64.2448026   6.5698923  52.0050620  64.3995961
   3.2262583  52.6880838  60.5174051   3.0787546  51.7597545  60.6981621
   4.0516077  52.7100929  60.0331127   6.8296705  53.5109397  61.6038924
   7.7543252  53.3052258  61.4663375   6.6612008  53.2625798  62.5128266
   3.2224097  40.5418676  55.5106169   3.4387712  41.4243313  55.2094997
   2.7418165  40.1504889  54.7811811   1.6745832  40.9244277  64.1810930
   1.4163610  41.8461348  64.1795261   1.1430873  40.5274712  64.8711394
   6.6192021  54.0295064  56.9601016   6.7928899  53.4641487  56.2074868
   7.1120912  54.8295959  56.7780506   2.0947788  37.0576227  60.5412093
   2.1169485  37.1215561  59.5864072   2.5115847  36.2180736  60.7352599
  12.4731412  46.7931487  58.5791315  12.9162558  46.0438812  58.1810439
  11.5957923  46.7841623  58.1965047   7.6067194  53.3461829  54.0597914
   8.3018098  53.9668521  54.2785229   7.9490344  52.4957180  54.3350292
   9.5058617  50.7961534  55.5885245  10.0309941  51.1348807  54.8634565
   9.4180969  49.8608549  55.4048379   1.1678666  54.7095608  67.7175121
   1.4765792  54.4644754  68.5897821   1.9654148  54.9142246  67.2293991
   1.1899278  56.8633517  59.9480498   0.7504268  56.3709896  60.6413355
   1.9407395  56.3206485  59.7072573   9.1952523  51.4294438  70.8936443
   8.4048067  51.4118577  70.3540942   8.9585877  51.9682731  71.6485479
   9.3150398  48.2786904  68.2069171   9.3648403  48.1136911  69.1484694
   9.2064321  47.4114163  67.8167052   6.6054160  44.2617832  69.5228478
   7.5064023  44.1224297  69.2312476   6.6802135  44.4272287  70.4626655
  10.8168595  50.6983846  68.4511193  10.5253403  51.0613826  69.2874654
  10.2040726  49.9850854  68.2724525  12.0164277  48.2636725  60.9713763
  12.8511168  48.7026529  61.1351323  12.1523406  47.7875379  60.1522009
   9.0655783  45.8216460  66.9191251   9.5409905  46.0144107  66.1110102
   8.1421348  45.8775646  66.6734634   3.6435999  37.8564304  65.8847085
   4.1617943  38.5925331  65.5593573   3.2891132  38.1628297  66.7193844
   3.8948594  34.2764586  61.4047981   4.1750347  33.6087775  62.0308408
   4.6799201  34.4693682  60.8922645   1.6982062  53.4523580  52.9673007
   1.1256029  54.0713767  52.5143479   2.2714856  54.0022942  53.5012929
   7.7657452  42.6982220  65.1519556   8.7174875  42.7980318  65.1731780
   7.5960902  41.9060489  65.6617641   5.7871831  39.7837803  65.3378957
   5.1921764  40.0642816  64.6425446   5.5021528  40.2731704  66.1095698
   4.9179322  53.7360730  54.0981590   5.8509995  53.6706292  54.3014465
   4.8302535  54.5716997  53.6396122   7.5467339  53.0526601  51.0585537
   7.4680970  52.7186464  51.9521295   8.3677005  53.5448369  51.0577010
  10.2445530  45.9188340  64.2661856  10.2121850  44.9804341  64.4521540
  10.8546153  45.9972377  63.5327681   2.0828861  44.7884393  50.3089060
   3.0287965  44.6590601  50.3777478   1.7043106  44.0499055  50.7858488
  10.3940018  42.7099383  64.3120139   9.8779067  41.9257840  64.1250068
  11.2779967  42.3818100  64.4766659   8.0550745  36.4540399  60.2715952
   7.8575566  36.1455487  61.1559284   8.6650451  37.1802038  60.4013882
  16.0622080  46.9804347  63.4067893  16.7925468  46.7189635  63.9675596
  15.4529025  46.2433069  63.4469961  14.1437377  45.1212209  64.0042344
  13.4170540  44.9868174  63.3958835  13.7284664  45.4289038  64.8099062
   1.9667553  48.8402139  71.7689717   2.8870563  49.0180738  71.9629763
   1.9317136  47.8958184  71.6169416   1.8833844  37.2571259  56.3988186
   1.0734572  36.9118344  56.7743433   2.5718260  36.9478803  56.9875798
   3.8124392  36.3349306  58.0212483   4.3655430  36.7544759  58.6802506
   4.0494478  35.4085054  58.0635439   7.1903199  38.4449831  57.5291147
   6.6101868  39.1034635  57.1469200   6.9239132  37.6227176  57.1178565
   5.6406765  37.8454889  59.7312468   6.1406544  37.9571423  58.9226787
   6.2842373  37.5415942  60.3713276   5.9728077  40.6049921  56.5847496
   5.0853932  40.8899572  56.3667690   6.3882066  40.4443685  55.7374773
   9.3242613  40.6296442  60.3001835  10.1003003  41.1192895  60.5726452
   8.5990747  41.0554497  60.7573704  11.7615172  41.3424062  61.3575776
  12.3559662  41.1019798  60.6469084  11.8341755  40.6231192  61.9849312
   5.1171290  50.3694596  50.6795516   5.8207140  50.5744599  51.2953171
   4.3933939  50.9371358  50.9444599   5.9469101  46.1204457  56.7997786
   5.8904302  46.5773009  55.9605418   6.4997443  45.3595142  56.6220629
   9.7573907  41.9094189  57.6247905   9.5010841  41.5090825  58.4556113
   9.1326775  42.6237983  57.4998044  14.0686244  44.6490262  60.1319197
  13.5085802  44.7183452  60.9050759  13.4629748  44.4731247  59.4118693
   7.0257988  50.8077125  52.7293976   7.8603592  50.3758324  52.5471450
   6.8642331  50.6359139  53.6570870   6.6803880  47.3109239  54.0950315
   6.6252684  47.1453510  53.1538759   6.0549935  48.0185271  54.2512505
   3.9949787  49.6158150  73.4203878   4.8640947  49.7898803  73.0590513
   3.5156539  50.4352567  73.2979607   3.8052125  33.4060124  57.9281570
   3.0384521  32.8518611  58.0738253   4.2162830  33.4781993  58.7895722
  15.6542263  61.3246776  62.8249152  16.2920673  61.2053524  62.1212492
  15.5363106  62.2727620  62.8837105  12.4631969  61.2774204  62.7610677
  12.1250481  61.1615269  61.8731212  13.3321737  60.8765370  62.7411683
   8.3218785  63.1309681  58.7507568   7.7583650  63.0399618  57.9823856
   8.2071180  62.3109585  59.2310061  12.9451752  62.4309056  68.7196883
  12.9340393  62.0361854  67.8477386  13.1072392  61.6975129  69.3130654
   5.8683217  64.6260872  61.5891789   6.6604509  64.2851697  61.1738088
   6.1079867  64.7355848  62.5093942  13.9018344  66.7980649  54.0622033
  13.2506323  67.3834729  53.6756047  14.6962706  67.3286844  54.1217070
   7.8273971  63.8869786  54.4609167   8.6004847  63.3398773  54.3222043
   8.1799370  64.7514035  54.6723629   9.6659013  65.2146168  67.6676067
   9.3748879  66.1191799  67.5522733  10.3015998  65.2562696  68.3820136
  10.5915220  62.5923017  64.2577426  11.1878792  62.3679039  63.5434389
  10.6490192  61.8507762  64.8602874  10.1640249  60.0462452  52.0927617
  10.4165769  59.5243973  51.3311080   9.2264808  59.8828597  52.1954301
  15.2083531  59.0498230  59.9002360  15.9946621  58.6317653  59.5492777
  15.4722236  59.9544322  60.0684009  15.3793609  64.4871081  54.5991017
  14.7439442  64.5605707  55.3111922  15.0491015  65.0764679  53.9210097
  20.6091958  58.9873463  60.8035339  21.3417130  58.4172680  61.0373168
  19.8531314  58.5995064  61.2441845   9.8836537  61.9490558  54.2951992
   9.7672795  61.2735461  54.9633076   9.9938797  61.4622932  53.4784145
  12.2268078  61.4100705  57.9998681  11.8626285  60.8831326  58.7111603
  13.0835194  61.0199174  57.8265167  18.1317379  52.6995038  65.2629948
  17.8000704  53.5690449  65.0391163  17.5362992  52.3831322  65.9423978
  11.8673565  56.4390605  52.9960030  12.0347968  57.3070841  53.3630501
  11.6770734  56.6017886  52.0721319  14.6248898  64.9007584  64.6625860
  14.3249621  65.8032622  64.5541668  14.2799958  64.6339767  65.5147013
   8.0761380  61.3521380  60.6962565   7.1511876  61.2197594  60.9040256
   8.3245793  62.1315600  61.1932507  18.0246042  57.4190124  62.3423298
  17.1162919  57.3505532  62.0482059  17.9733638  57.8962069  63.1705123
  11.8462786  58.8948262  53.9806697  11.7262411  59.3405313  54.8192177
  11.1515374  59.2433580  53.4220235   5.4370191  60.9954654  61.5306354
   5.5662572  61.2489133  62.4445766   4.7567642  61.5882362  61.2111009
   9.6069678  71.6651904  57.6296828   9.5293708  72.6159729  57.7085309
   9.0031322  71.3197776  58.2871754  12.0986908  58.8379769  70.2858195
  11.3220242  59.3973689  70.2761060  12.7377471  59.3236552  70.8073065
  19.8907689  55.6206562  64.1201172  19.2482069  55.9139095  63.4740966
  19.3862617  55.5059482  64.9254368  17.5447852  59.3669735  54.8087031
  18.4565708  59.5997122  54.6334728  17.0357499  59.9506780  54.2462109
  10.3533280  61.6465223  69.8476162  11.0947965  62.1850267  69.5710986
   9.6470266  62.2731511  70.0047714  15.8288620  63.7894363  68.4448323
  16.2371976  63.3476774  67.7002956  15.1065881  63.2146991  68.6982516
  12.1819690  58.7266970  65.8181880  13.0280885  59.1506383  65.9616529
  12.1218328  58.0700594  66.5120443  16.1517435  64.3495554  62.2000612
  15.5226297  64.5141268  61.4976680  15.7643097  64.7637163  62.9711576
  20.0306666  65.2849992  59.5544976  19.3457705  65.6648893  59.0042009
  20.1150516  65.8945318  60.2876924  15.3319135  56.3871338  67.4763054
  15.0880067  57.1413399  66.9397330  15.6079066  56.7656686  68.3110301
  17.2857598  62.9309951  66.1540320  17.4974493  63.5741711  65.4774701
  17.2387346  62.0972267  65.6862250  14.8883827  55.5427771  63.0576892
  14.0268306  55.8409025  63.3493629  14.9146262  55.7598170  62.1257924
  11.7045396  64.0869962  59.4650697  12.1683742  64.3657665  58.6755320
  11.4402195  63.1853406  59.2823788   8.5969477  63.6341443  62.4030461
   9.1670835  64.0628712  61.7647945   9.1877589  63.3524028  63.1014646
  10.6414282  60.2093114  56.2740263  11.3438326  60.6614158  56.7414189
  10.3094911  59.5676933  56.9020156   9.0894644  58.8004871  70.6491472
   8.4593305  59.4821152  70.8826869   8.9830732  58.6887952  69.7044610
   4.3839616  58.4676667  61.5757396   3.5938670  58.7234195  61.0997507
   4.8750864  59.2825005  61.6809437  18.4003426  65.8081906  64.3262677
  19.2220870  65.4062093  64.0445359  18.3965829  65.7050140  65.2778793
   6.3354362  58.8321246  58.5340873   5.5385525  58.9439940  59.0524368
   6.1079954  59.1707898  57.6681763  12.1660029  65.3565949  66.4823387
  12.2304462  65.8186357  67.3181559  11.4570953  64.7263314  66.6105697
   2.6677319  58.7207157  64.0072387   2.9185358  59.6054167  64.2729963
   3.2036868  58.5411759  63.2347479  26.4909419  62.1520655  60.6747648
  25.7373127  61.5828053  60.5191653  26.6256960  62.1183319  61.6218283
  11.8808047  67.0234057  56.3502368  11.7453722  67.8685593  56.7787216
  12.4217860  67.2253334  55.5868302   8.3675387  53.1025637  73.0116723
   7.9742332  52.5491835  73.6864367   9.1841527  53.4136215  73.4023240
   5.3337444  64.5409495  56.9230293   5.8461965  65.3352745  57.0735857
   5.9860157  63.8435785  56.8563894   7.1432329  67.6575251  59.0053046
   7.3198958  68.5793216  58.8174030   7.9389163  67.3433670  59.4347426
  11.2843348  54.5183516  70.6036980  12.0253061  55.1190669  70.5241442
  11.5161271  53.7761154  70.0455022   6.4284686  59.7039883  68.8815209
   6.3138201  58.8025140  69.1822308   5.5729203  59.9503580  68.5300026
  13.5076523  67.6457623  70.4802710  13.0640378  66.8594002  70.1623614
  14.1693737  67.8336774  69.8146601   8.2663645  69.1753425  65.0063388
   8.8171070  69.0470488  64.2340382   7.4275121  69.4748314  64.6558281
  15.6057762  67.9260423  68.5084111  15.5876237  68.7469304  68.0164380
  16.5277682  67.8014498  68.7334252  12.0630816  65.4404553  69.3507619
  12.5959152  64.6792841  69.1206927  11.5344897  65.1478205  70.0931774
  15.2300511  50.5464619  64.8801261  14.8864780  51.4366260  64.8040372
  15.5979473  50.3566276  64.0170846   3.2986361  62.8698149  57.6989863
   4.1361583  63.2795158  57.4823571   3.4764629  61.9297591  57.6690057
  15.1950793  60.5373230  53.3873696  14.6797417  61.3077834  53.6262084
  14.9228102  59.8638366  54.0106758  12.7797904  55.3822931  58.4458935
  11.9239501  54.9929781  58.2664573  13.1924856  55.4614891  57.5858720
  14.3097051  52.9169274  62.8450494  13.8061847  52.8799409  62.0318300
  14.6027658  53.8262017  62.9047151  10.5539937  53.0008004  61.8516676
  11.4192934  52.8050812  61.4922566  10.6217446  52.7718355  62.7786033
  20.1685068  63.2905584  55.3226870  19.3914510  62.9516744  54.8782032
  20.8476548  63.2958208  54.6481835  14.9837097  58.4100322  55.2133477
  14.6787232  58.7246471  56.0643621  15.9367539  58.4881742  55.2560810
  13.4283528  64.5690545  56.8626431  12.9004890  63.8343305  56.5499669
  12.9271031  65.3465222  56.6166400  18.4076374  62.7639566  61.9793478
  17.7500049  63.4538827  62.0673606  19.2116774  63.1535998  62.3227464
   8.1602256  55.2310212  59.2233043   8.7346008  55.0085393  58.4906236
   8.7473238  55.2998906  59.9761644  17.2181833  61.1183938  60.0297420
  17.7313715  61.7513930  60.5319129  17.8683057  60.5185134  59.6640780
   8.4871843  57.2614673  53.2428928   7.6509155  57.5989359  53.5638203
   8.3476613  57.1263652  52.3056065  10.4624924  52.1051460  57.9508112
   9.8089336  51.7900478  57.3264727  10.4205398  51.4827201  58.6767935
  11.5736129  62.3870756  49.8661404  10.6663190  62.1560009  50.0652553
  12.0707161  61.5908375  50.0535386  14.4804207  71.0968263  52.7858091
  13.8065906  71.3999959  53.3943048  14.8670029  71.8997343  52.4363548
  13.6962664  58.5933394  62.2755760  12.7785225  58.8148341  62.1177448
  14.1122808  58.6679704  61.4167467  14.4797712  59.9924810  57.4058440
  15.2269531  60.5046207  57.0965562  14.7489301  59.6708862  58.2662834
  12.7524362  62.4883350  54.3885395  11.8435581  62.2042383  54.4857864
  12.7819446  62.9082429  53.5288701  17.9843629  66.0989940  58.1576562
  17.5305957  65.2580850  58.2141753  17.3537596  66.7351338  58.4951342
  16.9276549  57.0281926  59.3877230  16.1899306  56.5159312  59.7187472
  17.1803323  56.5882308  58.5760506  16.4276569  67.9366437  59.0926380
  16.7199543  68.4971494  58.3738746  16.9375189  68.2294998  59.8479539
  17.0288176  49.8058178  59.9818999  17.3347053  48.9455541  59.6944914
  17.7540781  50.3975798  59.7817993   3.3212532  60.2088864  58.3700597
   3.1236932  59.6158225  57.6451663   2.7659196  59.9041075  59.0876536
  11.3009256  60.1011971  60.4895190  11.3557866  59.1485807  60.4137667
  10.4900458  60.2571410  60.9736488  12.4500450  64.0292094  51.7273473
  12.0119880  63.3127953  51.2679110  13.1910891  64.2568209  51.1658565
   9.2401616  58.7189031  58.2485569   8.4269482  59.0183201  58.6550761
   9.7360610  58.3244719  58.9660051  11.3910194  68.7146788  60.1819833
  11.3486373  68.9407634  59.2528366  12.3072893  68.4810162  60.3305635
  14.8375828  59.1830855  67.0800463  15.1925215  59.4102328  67.9394928
  15.4847959  59.5149232  66.4577718  20.5673565  62.3049291  57.7849792
  20.4291463  62.4950887  56.8570981  20.2109783  63.0668674  58.2417843
   8.7315691  56.2907386  63.8646804   9.3715070  56.1496145  63.1669767
   7.8993221  56.0041900  63.4885406  20.5942944  64.3725818  62.7961063
  21.0279451  64.2801107  63.6444117  21.3074525  64.3483319  62.1581079
   9.5075995  65.5909817  59.9781796  10.3016593  65.0960137  59.7764371
   8.7967687  65.0627680  59.6149502  14.3270839  67.9727912  64.3294164
  14.3807861  68.5418849  65.0971880  13.4585620  68.1429797  63.9648201
   5.8158758  59.7352898  56.0541549   4.8856346  59.6737354  56.2711511
   5.9116230  59.2128851  55.2578190   5.7344307  56.2607711  58.6419791
   5.9951124  57.1753044  58.5328951   6.5561479  55.7932154  58.7916403
   7.2069232  57.6745468  65.8118615   7.8792286  57.4662831  65.1631264
   6.3799019  57.4767554  65.3723847  21.4558494  64.4149519  65.3293949
  21.6494384  65.3195329  65.5753224  21.3559112  63.9556938  66.1632534
  13.1094804  54.3007409  67.8284276  12.4622720  54.9997359  67.7348752
  13.8795820  54.7343553  68.1960524  16.5173602  64.5656261  70.9034829
  16.3659109  64.3366813  69.9864913  16.5078282  65.5226863  70.9166174
  13.2858939  62.1388174  65.8881096  14.2150999  62.2899334  65.7150063
  12.8649969  62.2272195  65.0329742  12.0847271  66.1638839  63.6579633
  11.9458356  65.7957623  64.5305571  11.2961867  66.6786478  63.4863591
  12.6795423  71.2647935  55.0005170  12.8547178  70.7935978  55.8150793
  11.9928211  71.8913701  55.2286431  13.6352486  65.5420441  61.0468471
  13.3002318  65.5021211  61.9426121  13.1356431  64.8765157  60.5738881
   7.6096730  60.9488071  66.5721052   7.4716528  60.2168310  67.1732591
   8.5201653  60.8596971  66.2905240  16.5711677  62.8876476  51.3205531
  15.9540848  62.1623304  51.2238583  16.1028166  63.6485836  50.9772605
  10.2379030  60.6608031  66.0604732  10.9478649  60.0201223  66.0191350
  10.1948339  60.9120926  66.9830913  18.2265809  67.5975384  68.9811311
  18.1678355  66.9134604  68.3141894  18.6285327  68.3394374  68.5291937
   8.9507964  57.6473249  67.8800371   8.4145321  57.1963987  68.5321968
   8.3624673  57.7819157  67.1370836   7.2456508  74.4137298  61.7745030
   7.4853106  75.0455822  62.4524049   6.4025704  74.0625338  62.0610389
   8.3610223  57.1061900  50.4426835   7.4839690  56.9850701  50.0789082
   8.8367976  56.3147978  50.1905724  18.2283216  65.5614968  67.2125291
  17.3409995  65.2240890  67.3351690  18.7981767  64.8297999  67.4494056
   4.6847086  56.7829256  64.9653366   4.6005274  56.1754926  64.2303776
   3.8629792  57.2738275  64.9662862  11.7584370  70.2216420  64.1786534
  11.6854541  71.0271392  64.6905839  11.3161763  70.4208386  63.3534555
  11.5474149  69.4588190  57.6889356  10.7641671  70.0009871  57.7827580
  12.2466895  69.9762170  58.0883597  14.8570799  55.2682820  60.3323561
  15.3539499  54.5152782  60.0124631  14.0857781  55.3047136  59.7666770
  22.7100557  60.9723185  61.9741852  22.6990433  61.8547901  61.6035786
  21.8417936  60.6194736  61.7796389  14.2183053  70.1203254  66.3344693
  14.9311025  70.7550719  66.2620594  13.7273082  70.2167120  65.5184694
  15.9400580  64.0254507  57.9061984  15.0056859  64.1455969  57.7366689
  16.1177249  63.1226974  57.6421994  11.4405768  57.4100203  60.0595246
  11.0703556  56.8571243  60.7476151  11.9364861  56.8058336  59.5070246
  19.3273132  59.8671826  58.4412018  19.7933584  60.6999818  58.3672321
  19.7780632  59.4016808  59.1457277   9.2694967  67.8697698  67.1550263
   9.9704426  68.5034181  67.3079658   8.7990082  68.2112429  66.3945903
  17.3949363  66.2115648  55.4398170  17.6709207  66.0972242  56.3492045
  16.5253861  65.8133132  55.4010344  17.2989794  52.2352413  62.4802920
  16.3852874  52.4656640  62.6485127  17.7282896  52.3190857  63.3316952
  17.0696253  60.4242305  64.9802814  16.4167703  60.6718213  64.3255267
  17.4476633  59.6106443  64.6465291  14.0303427  70.4601998  59.0830984
  14.2125821  69.6423654  59.5458736  14.8536413  70.6769691  58.6455874
  14.3645592  69.3870184  56.3446033  14.8933359  68.8762638  55.7316195
  14.6273812  69.0712714  57.2091566  13.1183826  61.1662116  71.4668851
  12.4424463  61.0656246  72.1371226  13.9411460  61.0101330  71.9304848
   4.8662685  67.4034053  64.0881366   5.4516122  66.6577741  64.2209270
   4.6687523  67.7138010  64.9718030   7.7201340  70.4385300  59.1043809
   7.0511715  70.9231428  58.6207849   7.5814210  70.6854521  60.0187187
  11.8606609  72.4729044  65.7026467  12.4124917  72.6360665  66.4675552
  12.2012802  73.0633482  65.0306492   6.8371102  54.8204194  66.3048352
   6.9012428  55.6819024  65.8925749   6.7738222  54.2078195  65.5720710
   6.3123374  56.8927326  69.9521386   6.9395413  56.5104403  70.5658910
   5.4551293  56.6741528  70.3177078  16.7117483  67.2990301  71.5575121
  17.2557387  67.9120260  71.0630076  16.1304328  67.8569880  72.0742134
   3.0888917  58.7003755  55.8839741   3.3842358  57.7914434  55.8306794
   2.1876953  58.6791495  55.5620743  14.9974996  70.4211019  62.6890149
  14.8726135  69.6200759  62.1801095  15.6554087  70.9157213  62.2004119
   6.6183164  56.7759752  61.8667289   5.8969750  57.3895720  61.7274763
   7.4076420  57.3117517  61.7883935  17.0609904  68.2220039  64.3169699
  16.1140240  68.1025391  64.2448026  17.4092677  67.3342537  64.3995961
   9.4209478  54.1114178  68.1407941   9.9443880  54.3576475  68.9034250
   9.2021811  54.9434213  67.7211078   4.8176759  56.3817853  56.0079066
   4.4889465  55.5015232  55.8254172   5.1716129  56.3265522  56.8955455
  14.0656338  68.0172756  60.5174051  13.9181300  67.0889463  60.6981621
  14.8909831  68.0392846  60.0331127   7.9318582  56.6690823  56.3754544
   8.2714654  57.1976744  55.6533152   8.3790702  57.0071229  57.1513110
  17.6690459  68.8401314  61.6038924  18.5937007  68.6344176  61.4663375
  17.5005763  68.5917715  62.5128266  10.6262023  55.0527873  65.8257612
  10.2858843  54.2535686  66.2278291   9.9201029  55.3529584  65.2534445
  11.2778495  52.1377186  64.2784935  12.1004564  51.6637664  64.1563825
  11.5216558  52.9167670  64.7783621   9.9186729  55.1665444  54.5747836
  10.6395092  55.5446697  54.0711553   9.2952033  55.8854321  54.6782814
  14.0617852  55.8710593  55.5106169  14.2781466  56.7535231  55.2094997
  13.5811919  55.4796807  54.7811811   8.8017073  58.8296306  62.0876913
   8.6561654  59.1436610  62.9801195   8.3242277  59.4481207  61.5347812
  10.6613456  55.8198854  62.1357803  10.6475025  54.9239948  61.7990101
  11.3785884  55.8269518  62.7696089  12.5139587  56.2536195  64.1810930
  12.2557365  57.1753265  64.1795261  11.9824627  55.8566629  64.8711394
  17.4585776  69.3586982  56.9601016  17.6322653  68.7933404  56.2074868
  17.9514667  70.1587877  56.7780506   3.2762735  61.3701651  65.0264574
   2.7316204  62.1461459  65.1584849   4.1542085  61.7172455  64.8683696
  10.0650352  54.7013235  57.4045373  10.1866263  53.7729881  57.6036260
   9.7752395  54.7151921  56.4923688  12.9341543  52.3868145  60.5412093
  12.9563239  52.4507478  59.5864072  13.3509602  51.5472654  60.7352599
  23.3125167  62.1223405  58.5791315  23.7556313  61.3730730  58.1810439
  22.4351677  62.1133541  58.1965047  18.4460948  68.6753746  54.0597914
  19.1411853  69.2960439  54.2785229  18.7884098  67.8249097  54.3350292
   4.0628757  60.4971547  67.9194731   3.3210493  60.6454182  68.5059362
   3.7421502  60.7579813  67.0561481  20.3452371  66.1253452  55.5885245
  20.8703695  66.4640724  54.8634565  20.2574724  65.1900467  55.4048379
  12.0072420  70.0387525  67.7175121  12.3159546  69.7936672  68.5897821
  12.8047902  70.2434164  67.2293991  12.0293032  72.1925435  59.9480498
  11.5898022  71.7001814  60.6413355  12.7801149  71.6498403  59.7072573
   4.5085371  68.3836976  59.9505126   5.3343391  68.0840748  59.5703769
   4.1579423  67.6144598  60.3994915   9.4766904  67.7363444  62.0202799
   8.8546913  67.0734149  61.7205027  10.1471771  67.7624576  61.3376447
   2.7093976  66.3023302  60.9094059   1.8725884  65.8745477  60.7278061
   2.6817622  66.4955746  61.8464851   9.5491432  56.2145232  71.6135306
   9.5979587  57.0907355  71.2313075  10.0913946  55.6722625  71.0406949
  20.0346277  66.7586355  70.8936443  19.2441821  66.7410494  70.3540942
  19.7979632  67.2974649  71.6485479  20.1544152  63.6078822  68.2069171
  20.2042157  63.4428829  69.1484694  20.0458076  62.7406081  67.8167052
   9.0380411  66.2867367  55.4961260   9.1868531  66.9702832  54.8427933
   9.8446855  66.2672457  56.0110716  17.4447915  59.5909750  69.5228478
  18.3457778  59.4516215  69.2312476  17.5195889  59.7564205  70.4626655
  11.7790720  56.9676605  68.3681664  10.9094030  57.2610171  68.0964253
  12.0150200  57.5517050  69.0888928  21.6562349  66.0275763  68.4511193
  21.3647158  66.3905744  69.2874654  21.0434481  65.3142772  68.2724525
  22.8558032  63.5928643  60.9713763  23.6904923  64.0318447  61.1351323
  22.9917160  63.1167296  60.1522009  19.9049537  61.1508378  66.9191251
  20.3803659  61.3436024  66.1110102  18.9815103  61.2067564  66.6734634
   6.7933044  62.3132545  56.5022329   6.5479086  61.4094875  56.7002539
   6.9628959  62.3149696  55.5601807  14.4829754  53.1856221  65.8847085
  15.0011698  53.9217248  65.5593573  14.1284887  53.4920215  66.7193844
   6.0628692  58.0460903  54.0008490   5.3697937  58.1205258  53.3448526
   5.8180444  57.2821246  54.5230007  14.7342348  49.6056504  61.4047981
  15.0144102  48.9379693  62.0308408  15.5192955  49.7985600  60.8922645
  12.5375817  68.7815498  52.9673007  11.9649784  69.4005685  52.5143479
  13.1108610  69.3314860  53.5012929  18.6051206  58.0274138  65.1519556
  19.5568629  58.1272236  65.1731780  18.4354657  57.2352407  65.6617641
  16.6265586  55.1129721  65.3378957  16.0315518  55.3934734  64.6425446
  16.3415283  55.6023622  66.1095698  15.7573076  69.0652648  54.0981590
  16.6903750  68.9998210  54.3014465  15.6696289  69.9008915  53.6396122
  18.3861093  68.3818518  51.0585537  18.3074725  68.0478382  51.9521295
  19.2070760  68.8740286  51.0577010  21.0839284  61.2480258  64.2661856
  21.0515604  60.3096258  64.4521540  21.6939908  61.3264294  63.5327681
  12.9222615  60.1176311  50.3089060  13.8681720  59.9882519  50.3777478
  12.5436860  59.3790973  50.7858488  21.2333773  58.0391301  64.3120139
  20.7172821  57.2549758  64.1250068  22.1173721  57.7110018  64.4766659
  18.8944500  51.7832317  60.2715952  18.6969321  51.4747405  61.1559284
  19.5044205  52.5093956  60.4013882  26.9015834  62.3096264  63.4067893
  27.6319223  62.0481553  63.9675596  26.2922780  61.5724986  63.4469961
  24.9831131  60.4504127  64.0042344  24.2564295  60.3160092  63.3958835
  24.5678418  60.7580956  64.8099062  12.8061308  64.1694057  71.7689717
  13.7264317  64.3472656  71.9629763  12.7710891  63.2250102  71.6169416
  11.1065532  58.0426287  50.2443945  10.1996988  57.7459400  50.3206659
  11.3841513  57.7456105  49.3778231   2.0243473  59.3632650  60.6942992
   1.7046257  58.5097959  60.4017366   1.4776901  59.5781229  61.4500959
   5.8023380  62.0795091  64.4112498   6.0209390  63.0112199  64.4300532
   6.2149154  61.7203066  65.1967302  12.7227598  52.5863177  56.3988186
  11.9128326  52.2410262  56.7743433  13.4112015  52.2770720  56.9875798
  14.6518146  51.6641224  58.0212483  15.2049185  52.0836677  58.6802506
  14.8888233  50.7376972  58.0635439  10.6751246  57.6528297  73.8015247
  10.5747972  58.6022654  73.7327338  10.4572788  57.3246536  72.9291317
   9.8764317  54.9013222  50.3855924  10.7383481  55.2268121  50.6451742
  10.0614661  54.1144718  49.8728990   1.8931733  62.9835562  62.6636113
   1.1995204  62.5689515  62.1506068   2.6404724  63.0256098  62.0669532
  18.0296953  53.7741749  57.5291147  17.4495622  54.4326553  57.1469200
  17.7632886  52.9519093  57.1178565  16.4800520  53.1746806  59.7312468
  16.9800298  53.2863341  58.9226787  17.1236128  52.8707859  60.3713276
  10.5382516  61.0825436  72.6180309  10.0549597  61.8825796  72.8244198
  10.6243455  61.0933381  71.6647753   3.8068475  62.9153816  60.5402128
   3.7839163  63.0141503  59.5884011   4.1169112  63.7618966  60.8619294
   6.4655853  64.9729971  64.6548742   7.4199107  64.9413913  64.5878674
   6.2668377  64.5120594  65.4698968   7.0555235  63.5431087  67.2219540
   7.8748124  64.0375165  67.2454377   7.3292043  62.6263055  67.1937108
  16.8121831  55.9341839  56.5847496  15.9247686  56.2191490  56.3667690
  17.2275820  55.7735602  55.7374773  20.1636368  55.9588360  60.3001835
  20.9396758  56.4484813  60.5726452  19.4384502  56.3846414  60.7573704
  22.6008926  56.6715979  61.3575776  23.1953417  56.4311715  60.6469084
  22.6735510  55.9523110  61.9849312   4.8206082  70.5149590  61.6718940
   4.6860550  69.7549991  61.1056938   4.4038144  71.2390490  61.2047729
  15.9565045  65.6986514  50.6795516  16.6600895  65.9036516  51.2953171
  15.2327694  66.2663276  50.9444599  16.7862855  61.4496375  56.7997786
  16.7298057  61.9064926  55.9605418  17.3391198  60.6887060  56.6220629
  20.5967661  57.2386107  57.6247905  20.3404595  56.8382743  58.4556113
  19.9720529  57.9529901  57.4998044  24.9079999  59.9782180  60.1319197
  24.3479557  60.0475369  60.9050759  24.3023502  59.8023165  59.4118693
   7.9775208  71.4118907  61.8837383   7.8607592  72.3564340  61.7816073
   7.1567654  71.1092469  62.2723182  17.8651742  66.1369043  52.7293976
  18.6997346  65.7050241  52.5471450  17.7036085  65.9651057  53.6570870
  17.5197634  62.6401156  54.0950315  17.4646438  62.4745428  53.1538759
  16.8943690  63.3477189  54.2512505   2.3090149  57.8769221  67.9211737
   2.9549013  57.3668175  68.4098962   2.1007301  58.6137902  68.4955162
  14.8343542  64.9450068  73.4203878  15.7034701  65.1190720  73.0590513
  14.3550293  65.7644485  73.2979607  10.8293760  52.1409265  53.6735633
  10.8172430  53.0851105  53.8303904  11.7217182  51.9579411  53.3795095
   9.0029722  72.0647169  65.0993311   9.9056969  72.0970779  65.4159806
   8.7767092  71.1347620  65.1139647  10.7583324  70.8178156  61.7603390
   9.8078955  70.8180017  61.6467762  11.0615810  70.0710890  61.2439425
  14.6445879  48.7352042  57.9281570  13.8778275  48.1810529  58.0738253
  15.0556584  48.8073911  58.7895722   6.6487640  55.0236838  72.0186751
   7.5119102  54.6673643  72.2290076   6.0753051  54.6850733  72.7062156
  26.4936017  76.6538694  62.8249152  27.1314427  76.5345441  62.1212492
  26.3756860  77.6019538  62.8837105  23.3025724  76.6066122  62.7610677
  22.9644235  76.4907187  61.8731212  24.1715492  76.2057287  62.7411683
  19.1612539  78.4601599  58.7507568  18.5977404  78.3691536  57.9823856
  19.0464934  77.6401503  59.2310061  23.7845507  77.7600974  68.7196883
  23.7734147  77.3653772  67.8477386  23.9466146  77.0267047  69.3130654
  16.7076971  79.9552790  61.5891789  17.4998263  79.6143615  61.1738088
  16.9473621  80.0647765  62.5093942  24.7412098  82.1272566  54.0622033
  24.0900078  82.7126647  53.6756047  25.5356461  82.6578761  54.1217070
  18.6667725  79.2161703  54.4609167  19.4398601  78.6690691  54.3222043
  19.0193124  80.0805953  54.6723629  20.5052768  80.5438086  67.6676067
  20.2142634  81.4483717  67.5522733  21.1409752  80.5854613  68.3820136
  21.4308975  77.9214934  64.2577426  22.0272547  77.6970957  63.5434389
  21.4883946  77.1799680  64.8602874  21.0034003  75.3754370  52.0927617
  21.2559524  74.8535891  51.3311080  20.0658562  75.2120515  52.1954301
  26.0477286  74.3790148  59.9002360  26.8340375  73.9609571  59.5492777
  26.3115990  75.2836240  60.0684009  26.2187363  79.8162998  54.5991017
  25.5833196  79.8897625  55.3111922  25.8884770  80.4056597  53.9210097
  31.4485713  74.3165381  60.8035339  32.1810885  73.7464598  61.0373168
  30.6925069  73.9286982  61.2441845  20.7230292  77.2782476  54.2951992
  20.6066550  76.6027379  54.9633076  20.8332552  76.7914849  53.4784145
  23.0661833  76.7392623  57.9998681  22.7020040  76.2123244  58.7111603
  23.9228949  76.3491092  57.8265167  28.9711133  68.0286955  65.2629948
  28.6394458  68.8982366  65.0391163  28.3756747  67.7123239  65.9423978
  22.7067320  71.7682522  52.9960030  22.8741722  72.6362759  53.3630501
  22.5164489  71.9309804  52.0721319  25.4642653  80.2299501  64.6625860
  25.1643376  81.1324540  64.5541668  25.1193712  79.9631684  65.5147013
  18.9155134  76.6813298  60.6962565  17.9905631  76.5489512  60.9040256
  19.1639548  77.4607517  61.1932507  28.8639797  72.7482041  62.3423298
  27.9556674  72.6797450  62.0482059  28.8127392  73.2253986  63.1705123
  22.6856541  74.2240180  53.9806697  22.5656166  74.6697231  54.8192177
  21.9909129  74.5725497  53.4220235  16.2763945  76.3246572  61.5306354
  16.4056327  76.5781051  62.4445766  15.5961397  76.9174280  61.2111009
  20.4463433  86.9943822  57.6296828  20.3687462  87.9451647  57.7085309
  19.8425076  86.6489694  58.2871754  22.9380662  74.1671687  70.2858195
  22.1613996  74.7265607  70.2761060  23.5771225  74.6528470  70.8073065
  30.7301443  70.9498480  64.1201172  30.0875823  71.2431013  63.4740966
  30.2256372  70.8351400  64.9254368  28.3841607  74.6961653  54.8087031
  29.2959463  74.9289040  54.6334728  27.8751254  75.2798697  54.2462109
  21.1927035  76.9757140  69.8476162  21.9341719  77.5142184  69.5710986
  20.4864020  77.6023429  70.0047714  26.6682374  79.1186281  68.4448323
  27.0765730  78.6768691  67.7002956  25.9459636  78.5438908  68.6982516
  23.0213444  74.0558888  65.8181880  23.8674640  74.4798301  65.9616529
  22.9612082  73.3992512  66.5120443  26.9911189  79.6787471  62.2000612
  26.3620051  79.8433186  61.4976680  26.6036851  80.0929081  62.9711576
  30.8700421  80.6141909  59.5544976  30.1851459  80.9940811  59.0042009
  30.9544270  81.2237236  60.2876924  26.1712890  71.7163256  67.4763054
  25.9273822  72.4705316  66.9397330  26.4472820  72.0948604  68.3110301
  28.1251353  78.2601868  66.1540320  28.3368248  78.9033628  65.4774701
  28.0781101  77.4264185  65.6862250  25.7277581  70.8719689  63.0576892
  24.8662061  71.1700943  63.3493629  25.7540016  71.0890088  62.1257924
  22.5439151  79.4161880  59.4650697  23.0077496  79.6949583  58.6755320
  22.2795949  78.5145324  59.2823788  19.4363232  78.9633361  62.4030461
  20.0064589  79.3920629  61.7647945  20.0271344  78.6815946  63.1014646
  21.4808037  75.5385032  56.2740263  22.1832080  75.9906076  56.7414189
  21.1488665  74.8968851  56.9020156  19.9288398  74.1296789  70.6491472
  19.2987059  74.8113069  70.8826869  19.8224486  74.0179870  69.7044610
  15.2233371  73.7968585  61.5757396  14.4332425  74.0526113  61.0997507
  15.7144618  74.6116922  61.6809437  29.2397180  81.1373824  64.3262677
  30.0614624  80.7354011  64.0445359  29.2359583  81.0342058  65.2778793
  17.1748116  74.1613164  58.5340873  16.3779280  74.2731858  59.0524368
  16.9473708  74.4999816  57.6681763  23.0053784  80.6857867  66.4823387
  23.0698216  81.1478274  67.3181559  22.2964708  80.0555232  66.6105697
  13.5071074  74.0499075  64.0072387  13.7579112  74.9346085  64.2729963
  14.0430622  73.8703677  63.2347479  37.3303174  77.4812572  60.6747648
  36.5766882  76.9119970  60.5191653  37.4650715  77.4475237  61.6218283
  22.7201802  82.3525975  56.3502368  22.5847476  83.1977510  56.7787216
  23.2611614  82.5545252  55.5868302  19.2069141  68.4317554  73.0116723
  18.8136087  67.8783753  73.6864367  20.0235282  68.7428133  73.4023240
  16.1731199  79.8701413  56.9230293  16.6855720  80.6644663  57.0735857
  16.8253912  79.1727703  56.8563894  17.9826084  82.9867169  59.0053046
  18.1592712  83.9085134  58.8174030  18.7782917  82.6725588  59.4347426
  22.1237102  69.8475433  70.6036980  22.8646816  70.4482587  70.5241442
  22.3555025  69.1053071  70.0455022  17.2678440  75.0331801  68.8815209
  17.1531955  74.1317058  69.1822308  16.4122958  75.2795497  68.5300026
  24.3470278  82.9749541  70.4802710  23.9034132  82.1885920  70.1623614
  25.0087492  83.1628692  69.8146601  19.1057399  84.5045343  65.0063388
  19.6564824  84.3762406  64.2340382  18.2668875  84.8040232  64.6558281
  26.4451516  83.2552341  68.5084111  26.4269991  84.0761222  68.0164380
  27.3671436  83.1306416  68.7334252  22.9024570  80.7696470  69.3507619
  23.4352907  80.0084759  69.1206927  22.3738651  80.4770122  70.0931774
  26.0694265  65.8756536  64.8801261  25.7258535  66.7658178  64.8040372
  26.4373228  65.6858194  64.0170846  14.1380116  78.1990067  57.6989863
  14.9755338  78.6087075  57.4823571  14.3158383  77.2589509  57.6690057
  26.0344548  75.8665147  53.3873696  25.5191171  76.6369752  53.6262084
  25.7621856  75.1930284  54.0106758  23.6191659  70.7114848  58.4458935
  22.7633255  70.3221699  58.2664573  24.0318611  70.7906809  57.5858720
  25.1490806  68.2461192  62.8450494  24.6455601  68.2091327  62.0318300
  25.4421412  69.1553934  62.9047151  21.3933691  68.3299921  61.8516676
  22.2586688  68.1342730  61.4922566  21.4611200  68.1010273  62.7786033
  31.0078822  78.6197502  55.3226870  30.2308265  78.2808662  54.8782032
  31.6870303  78.6250125  54.6481835  25.8230851  73.7392240  55.2133477
  25.5180987  74.0538389  56.0643621  26.7761293  73.8173659  55.2560810
  24.2677283  79.8982463  56.8626431  23.7398644  79.1635222  56.5499669
  23.7664786  80.6757139  56.6166400  29.2470129  78.0931483  61.9793478
  28.5893803  78.7830745  62.0673606  30.0510528  78.4827915  62.3227464
  18.9996010  70.5602129  59.2233043  19.5739762  70.3377311  58.4906236
  19.5866993  70.6290824  59.9761644  28.0575588  76.4475856  60.0297420
  28.5707469  77.0805848  60.5319129  28.7076812  75.8477052  59.6640780
  19.3265598  72.5906590  53.2428928  18.4902910  72.9281277  53.5638203
  19.1870367  72.4555570  52.3056065  21.3018678  67.4343378  57.9508112
  20.6483091  67.1192395  57.3264727  21.2599152  66.8119119  58.6767935
  22.4129883  77.7162673  49.8661404  21.5056945  77.4851927  50.0652553
  22.9100915  76.9200292  50.0535386  25.3197962  86.4260180  52.7858091
  24.6459661  86.7291877  53.3943048  25.7063784  87.2289261  52.4363548
  24.5356419  73.9225312  62.2755760  23.6178980  74.1440259  62.1177448
  24.9516562  73.9971622  61.4167467  25.3191466  75.3216727  57.4058440
  26.0663285  75.8338125  57.0965562  25.5883056  75.0000780  58.2662834
  23.5918116  77.8175268  54.3885395  22.6829336  77.5334301  54.4857864
  23.6213200  78.2374347  53.5288701  28.8237384  81.4281858  58.1576562
  28.3699711  80.5872767  58.2141753  28.1931351  82.0643256  58.4951342
  27.7670303  72.3573844  59.3877230  27.0293060  71.8451230  59.7187472
  28.0197077  71.9174225  58.5760506  27.2670323  83.2658354  59.0926380
  27.5593298  83.8263411  58.3738746  27.7768944  83.5586915  59.8479539
  27.8681931  65.1350096  59.9818999  28.1740808  64.2747459  59.6944914
  28.5934536  65.7267716  59.7817993  14.1606287  75.5380782  58.3700597
  13.9630687  74.9450143  57.6451663  13.6052951  75.2332992  59.0876536
  22.1403011  75.4303889  60.4895190  22.1951620  74.4777725  60.4137667
  21.3294213  75.5863328  60.9736488  23.2894204  79.3584012  51.7273473
  22.8513634  78.6419871  51.2679110  24.0304645  79.5860127  51.1658565
  20.0795370  74.0480948  58.2485569  19.2663236  74.3475119  58.6550761
  20.5754365  73.6536637  58.9660051  22.2303948  84.0438705  60.1819833
  22.1880127  84.2699552  59.2528366  23.1466647  83.8102080  60.3305635
  25.6769582  74.5122773  67.0800463  26.0318970  74.7394246  67.9394928
  26.3241713  74.8441150  66.4577718  31.4067319  77.6341209  57.7849792
  31.2685218  77.8242805  56.8570981  31.0503538  78.3960592  58.2417843
  19.5709445  71.6199304  63.8646804  20.2108825  71.4788063  63.1669767
  18.7386976  71.3333817  63.4885406  31.4336699  79.7017736  62.7961063
  31.8673205  79.6093025  63.6444117  32.1468279  79.6775236  62.1581079
  20.3469749  80.9201734  59.9781796  21.1410348  80.4252054  59.7764371
  19.6361442  80.3919597  59.6149502  25.1664594  83.3019830  64.3294164
  25.2201616  83.8710766  65.0971880  24.2979375  83.4721715  63.9648201
  16.6552513  75.0644816  56.0541549  15.7250101  75.0029272  56.2711511
  16.7509985  74.5420769  55.2578190  16.5738062  71.5899629  58.6419791
  16.8344879  72.5044962  58.5328951  17.3955234  71.1224071  58.7916403
  18.0462987  73.0037386  65.8118615  18.7186040  72.7954748  65.1631264
  17.2192774  72.8059472  65.3723847  32.2952248  79.7441436  65.3293949
  32.4888138  80.6487247  65.5753224  32.1952866  79.2848855  66.1632534
  23.9488559  69.6299327  67.8284276  23.3016474  70.3289277  67.7348752
  24.7189574  70.0635471  68.1960524  27.3567357  79.8948179  70.9034829
  27.2052863  79.6658731  69.9864913  27.3472036  80.8518781  70.9166174
  24.1252693  77.4680092  65.8881096  25.0544753  77.6191252  65.7150063
  23.7043723  77.5564113  65.0329742  22.9241025  81.4930756  63.6579633
  22.7852111  81.1249541  64.5305571  22.1355621  82.0078396  63.4863591
  23.5189177  86.5939853  55.0005170  23.6940933  86.1227896  55.8150793
  22.8321965  87.2205619  55.2286431  24.4746240  80.8712359  61.0468471
  24.1396073  80.8313129  61.9426121  23.9750186  80.2057075  60.5738881
  18.4490484  76.2779989  66.5721052  18.3110282  75.5460228  67.1732591
  19.3595408  76.1888889  66.2905240  27.4105432  78.2168393  51.3205531
  26.7934603  77.4915222  51.2238583  26.9421920  78.9777754  50.9772605
  21.0772785  75.9899948  66.0604732  21.7872403  75.3493141  66.0191350
  21.0342093  76.2412843  66.9830913  29.0659564  82.9267302  68.9811311
  29.0072110  82.2426522  68.3141894  29.4679082  83.6686292  68.5291937
  19.7901719  72.9765166  67.8800371  19.2539076  72.5255905  68.5321968
  19.2018427  73.1111075  67.1370836  18.0850262  89.7429216  61.7745030
  18.3246861  90.3747740  62.4524049  17.2419459  89.3917256  62.0610389
  19.2003978  72.4353818  50.4426835  18.3233444  72.3142618  50.0789082
  19.6761731  71.6439896  50.1905724  29.0676971  80.8906886  67.2125291
  28.1803750  80.5532807  67.3351690  29.6375522  80.1589917  67.4494056
  10.7206118  77.2230977  60.5368342  11.4077158  76.9092707  59.9489357
  10.5654247  78.1272342  60.2635594  15.5240840  72.1121174  64.9653366
  15.4399029  71.5046844  64.2303776  14.7023547  72.6030192  64.9662862
  22.5978124  85.5508338  64.1786534  22.5248296  86.3563309  64.6905839
  22.1555517  85.7500304  63.3534555  22.3867904  84.7880108  57.6889356
  21.6035426  85.3301788  57.7827580  23.0860649  85.3054088  58.0883597
  25.6964554  70.5974737  60.3323561  26.1933254  69.8444700  60.0124631
  24.9251535  70.6339054  59.7666770  33.5494311  76.3015103  61.9741852
  33.5384188  77.1839818  61.6035786  32.6811691  75.9486654  61.7796389
  25.0576808  85.4495172  66.3344693  25.7704780  86.0842637  66.2620594
  24.5666836  85.5459038  65.5184694  26.7794335  79.3546425  57.9061984
  25.8450613  79.4747887  57.7366689  26.9571003  78.4518891  57.6421994
  22.2799523  72.7392120  60.0595246  21.9097310  72.1863161  60.7476151
  22.7758615  72.1350254  59.5070246  30.1666886  75.1963744  58.4412018
  30.6327338  76.0291736  58.3672321  30.6174387  74.7308726  59.1457277
  20.1088721  83.1989615  67.1550263  20.8098181  83.8326098  67.3079658
  19.6383836  83.5404347  66.3945903  28.2343117  81.5407565  55.4398170
  28.5102961  81.4264160  56.3492045  27.3647616  81.1425050  55.4010344
  28.1383549  67.5644331  62.4802920  27.2246629  67.7948558  62.6485127
  28.5676650  67.6482775  63.3316952  27.9090007  75.7534223  64.9802814
  27.2561457  76.0010130  64.3255267  28.2870387  74.9398361  64.6465291
  24.8697181  85.7893916  59.0830984  25.0519576  84.9715572  59.5458736
  25.6930167  86.0061608  58.6455874  25.2039347  84.7162101  56.3446033
  25.7327113  84.2054556  55.7316195  25.4667566  84.4004631  57.2091566
  23.9577580  76.4954034  71.4668851  23.2818217  76.3948163  72.1371226
  24.7805214  76.3393248  71.9304848  15.7056439  82.7325971  64.0881366
  16.2909876  81.9869658  64.2209270  15.5081278  83.0429927  64.9718030
  18.5595095  85.7677218  59.1043809  17.8905470  86.2523346  58.6207849
  18.4207964  86.0146438  60.0187187  10.2974094  75.3031571  62.8085809
  10.3358194  74.7695161  63.6022927   9.7914387  74.7766776  62.1896786
  22.7000363  87.8020961  65.7026467  23.2518671  87.9652583  66.4675552
  23.0406557  88.3925399  65.0306492  17.6764856  70.1496111  66.3048352
  17.7406183  71.0110942  65.8925749  17.6131977  69.5370113  65.5720710
  17.1517129  72.2219244  69.9521386  17.7789168  71.8396321  70.5658910
  16.2945048  72.0033446  70.3177078  27.5511237  82.6282219  71.5575121
  28.0951141  83.2412177  71.0630076  26.9698082  83.1861797  72.0742134
  13.9282672  74.0295673  55.8839741  14.2236113  73.1206351  55.8306794
  13.0270707  74.0083412  55.5620743  25.8368750  85.7502937  62.6890149
  25.7119890  84.9492677  62.1801095  26.4947842  86.2449130  62.2004119
  17.4576919  72.1051669  61.8667289  16.7363504  72.7187637  61.7274763
  18.2470174  72.6409434  61.7883935  27.9003659  83.5511957  64.3169699
  26.9533994  83.4317308  64.2448026  28.2486432  82.6634455  64.3995961
  20.2603232  69.4406096  68.1407941  20.7837634  69.6868393  68.9034250
  20.0415565  70.2726131  67.7211078  15.6570513  71.7109771  56.0079066
  15.3283219  70.8307149  55.8254172  16.0109884  71.6557439  56.8955455
  24.9050092  83.3464673  60.5174051  24.7575055  82.4181381  60.6981621
  25.7303586  83.3684764  60.0331127  18.7712336  71.9982740  56.3754544
  19.1108409  72.5268662  55.6533152  19.2184457  72.3363146  57.1513110
  28.5084214  84.1693232  61.6038924  29.4330761  83.9636093  61.4663375
  28.3399517  83.9209633  62.5128266  21.4655777  70.3819791  65.8257612
  21.1252598  69.5827604  66.2278291  20.7594784  70.6821502  65.2534445
  22.1172249  67.4669103  64.2784935  22.9398318  66.9929582  64.1563825
  22.3610313  68.2459587  64.7783621  20.7580484  70.4957362  54.5747836
  21.4788846  70.8738615  54.0711553  20.1345788  71.2146239  54.6782814
  24.9011606  71.2002511  55.5106169  25.1175221  72.0827149  55.2094997
  24.4205674  70.8088724  54.7811811  19.6410828  74.1588224  62.0876913
  19.4955409  74.4728527  62.9801195  19.1636031  74.7773124  61.5347812
  21.5007211  71.1490772  62.1357803  21.4868779  70.2531865  61.7990101
  22.2179639  71.1561436  62.7696089  23.3533341  71.5828112  64.1810930
  23.0951119  72.5045183  64.1795261  22.8218382  71.1858547  64.8711394
  28.2979530  84.6878899  56.9601016  28.4716408  84.1225322  56.2074868
  28.7908421  85.4879794  56.7780506  14.1156490  76.6993569  65.0264574
  13.5709958  77.4753377  65.1584849  14.9935840  77.0464373  64.8683696
  20.9044107  70.0305152  57.4045373  21.0260018  69.1021799  57.6036260
  20.6146149  70.0443838  56.4923688  23.7735297  67.7160063  60.5412093
  23.7956994  67.7799396  59.5864072  24.1903356  66.8764571  60.7352599
  34.1518921  77.4515322  58.5791315  34.5950067  76.7022648  58.1810439
  33.2745432  77.4425459  58.1965047  29.2854703  84.0045664  54.0597914
  29.9805607  84.6252357  54.2785229  29.6277853  83.1541015  54.3350292
  14.9022512  75.8263465  67.9194731  14.1604248  75.9746100  68.5059362
  14.5815256  76.0871730  67.0561481  31.1846126  81.4545369  55.5885245
  31.7097450  81.7932642  54.8634565  31.0968478  80.5192385  55.4048379
  22.8466174  85.3679443  67.7175121  23.1553301  85.1228590  68.5897821
  23.6441657  85.5726082  67.2293991  22.8686787  87.5217353  59.9480498
  22.4291777  87.0293731  60.6413355  23.6194903  86.9790320  59.7072573
  15.3479126  83.7128894  59.9505126  16.1737145  83.4132665  59.5703769
  14.9973178  82.9436516  60.3994915  20.3160659  83.0655362  62.0202799
  19.6940668  82.4026067  61.7205027  20.9865526  83.0916494  61.3376447
  13.5487731  81.6315220  60.9094059  12.7119639  81.2037394  60.7278061
  13.5211376  81.8247663  61.8464851  20.3885186  71.5437150  71.6135306
  20.4373342  72.4199273  71.2313075  20.9307700  71.0014543  71.0406949
  30.8740032  82.0878273  70.8936443  30.0835576  82.0702412  70.3540942
  30.6373386  82.6266567  71.6485479  30.9937907  78.9370739  68.2069171
  31.0435912  78.7720747  69.1484694  30.8851830  78.0697998  67.8167052
  19.8774166  81.6159285  55.4961260  20.0262286  82.2994749  54.8427933
  20.6840609  81.5964375  56.0110716  28.2841669  74.9201667  69.5228478
  29.1851532  74.7808132  69.2312476  28.3589644  75.0856122  70.4626655
  22.6184475  72.2968522  68.3681664  21.7487784  72.5902088  68.0964253
  22.8543955  72.8808967  69.0888928  32.4956104  81.3567681  68.4511193
  32.2040912  81.7197661  69.2874654  31.8828235  80.6434689  68.2724525
  33.6951786  78.9220561  60.9713763  34.5298677  79.3610365  61.1351323
  33.8310915  78.4459214  60.1522009  30.7443292  76.4800296  66.9191251
  31.2197414  76.6727942  66.1110102  29.8208857  76.5359481  66.6734634
  17.6326799  77.6424463  56.5022329  17.3872841  76.7386793  56.7002539
  17.8022713  77.6441613  55.5601807  25.3223508  68.5148139  65.8847085
  25.8405452  69.2509166  65.5593573  24.9678641  68.8212132  66.7193844
  16.9022446  73.3752820  54.0008490  16.2091691  73.4497175  53.3448526
  16.6574198  72.6113164  54.5230007  25.5736103  64.9348422  61.4047981
  25.8537856  64.2671611  62.0308408  26.3586710  65.1277517  60.8922645
  23.3769571  84.1107416  52.9673007  22.8043538  84.7297603  52.5143479
  23.9502365  84.6606777  53.5012929  29.4444961  73.3566056  65.1519556
  30.3962384  73.4564153  65.1731780  29.2748411  72.5644324  65.6617641
  27.4659340  70.4421639  65.3378957  26.8709273  70.7226652  64.6425446
  27.1809037  70.9315540  66.1095698  26.5966831  84.3944566  54.0981590
  27.5297504  84.3290127  54.3014465  26.5090044  85.2300833  53.6396122
  29.2254848  83.7110436  51.0585537  29.1468479  83.3770300  51.9521295
  30.0464514  84.2032204  51.0577010  31.9233039  76.5772175  64.2661856
  31.8909359  75.6388176  64.4521540  32.5333662  76.6556212  63.5327681
  23.7616370  75.4468228  50.3089060  24.7075474  75.3174436  50.3777478
  23.3830615  74.7082890  50.7858488  32.0727527  73.3683219  64.3120139
  31.5566576  72.5841675  64.1250068  32.9567476  73.0401935  64.4766659
  29.7338254  67.1124234  60.2715952  29.5363075  66.8039323  61.1559284
  30.3437960  67.8385873  60.4013882  37.7409589  77.6388182  63.4067893
  38.4712977  77.3773470  63.9675596  37.1316534  76.9016904  63.4469961
  35.8224886  75.7796045  64.0042344  35.0958049  75.6452010  63.3958835
  35.4072173  76.0872873  64.8099062  23.6455062  79.4985974  71.7689717
  24.5658072  79.6764573  71.9629763  23.6104645  78.5542020  71.6169416
  21.9459287  73.3718205  50.2443945  21.0390742  73.0751317  50.3206659
  22.2235268  73.0748023  49.3778231  12.8637227  74.6924568  60.6942992
  12.5440011  73.8389876  60.4017366  12.3170655  74.9073146  61.4500959
  16.6417135  77.4087009  64.4112498  16.8603144  78.3404117  64.4300532
  17.0542909  77.0494983  65.1967302  23.5621352  67.9155094  56.3988186
  22.7522081  67.5702179  56.7743433  24.2505769  67.6062638  56.9875798
  25.4911901  66.9933141  58.0212483  26.0442939  67.4128595  58.6802506
  25.7281987  66.0668889  58.0635439  21.5145000  72.9820215  73.8015247
  21.4141727  73.9314572  73.7327338  21.2966542  72.6538454  72.9291317
  20.7158071  70.2305140  50.3855924  21.5777235  70.5560038  50.6451742
  20.9008416  69.4436636  49.8728990  12.7325487  78.3127480  62.6636113
  12.0388959  77.8981432  62.1506068  13.4798478  78.3548016  62.0669532
  28.8690708  69.1033666  57.5291147  28.2889377  69.7618470  57.1469200
  28.6026641  68.2811011  57.1178565  27.3194274  68.5038724  59.7312468
  27.8194053  68.6155259  58.9226787  27.9629882  68.1999777  60.3713276
  21.3776270  76.4117354  72.6180309  20.8943352  77.2117714  72.8244198
  21.4637209  76.4225299  71.6647753  14.6462230  78.2445733  60.5402128
  14.6232918  78.3433421  59.5884011  14.9562866  79.0910884  60.8619294
  17.3049608  80.3021888  64.6548742  18.2592861  80.2705831  64.5878674
  17.1062131  79.8412512  65.4698968  17.8948990  78.8723004  67.2219540
  18.7141879  79.3667083  67.2454377  18.1685797  77.9554973  67.1937108
  27.6515586  71.2633757  56.5847496  26.7641441  71.5483407  56.3667690
  28.0669575  71.1027520  55.7374773  31.0030122  71.2880278  60.3001835
  31.7790512  71.7776730  60.5726452  30.2778256  71.7138332  60.7573704
  33.4402681  72.0007897  61.3575776  34.0347171  71.7603633  60.6469084
  33.5129264  71.2815028  61.9849312  15.6599836  85.8441508  61.6718940
  15.5254304  85.0841909  61.1056938  15.2431899  86.5682408  61.2047729
  26.7958799  81.0278431  50.6795516  27.4994649  81.2328434  51.2953171
  26.0721448  81.5955193  50.9444599  27.6256610  76.7788293  56.7997786
  27.5691811  77.2356844  55.9605418  28.1784952  76.0178977  56.6220629
  31.4361416  72.5678025  57.6247905  31.1798350  72.1674660  58.4556113
  30.8114284  73.2821818  57.4998044  35.7473753  75.3074098  60.1319197
  35.1873311  75.3767287  60.9050759  35.1417257  75.1315082  59.4118693
  18.8168962  86.7410825  61.8837383  18.7001346  87.6856257  61.7816073
  17.9961408  86.4384386  62.2723182  28.7045497  81.4660961  52.7293976
  29.5391101  81.0342159  52.5471450  28.5429840  81.2942974  53.6570870
  28.3591389  77.9693074  54.0950315  28.3040193  77.8037345  53.1538759
  27.7337444  78.6769107  54.2512505  13.1483904  73.2061138  67.9211737
  13.7942768  72.6960092  68.4098962  12.9401055  73.9429820  68.4955162
  25.6737296  80.2741986  73.4203878  26.5428456  80.4482638  73.0590513
  25.1944048  81.0936403  73.2979607  21.6687514  67.4701183  53.6735633
  21.6566184  68.4143023  53.8303904  22.5610936  67.2871328  53.3795095
  19.8423476  87.3939087  65.0993311  20.7450723  87.4262697  65.4159806
  19.6160846  86.4639538  65.1139647  21.5977078  86.1470073  61.7603390
  20.6472709  86.1471935  61.6467762  21.9009565  85.4002808  61.2439425
  25.4839634  64.0643960  57.9281570  24.7172030  63.5102446  58.0738253
  25.8950339  64.1365828  58.7895722  17.4881395  70.3528755  72.0186751
  18.3512856  69.9965560  72.2290076  16.9146806  70.0142650  72.7062156
  37.3329772  91.9830612  62.8249152  37.9708182  91.8637359  62.1212492
  37.2150615  92.9311456  62.8837105  34.1419478  91.9358040  62.7610677
  33.8037990  91.8199105  61.8731212  35.0109246  91.5349205  62.7411683
  30.0006294  93.7893516  58.7507568  29.4371159  93.6983453  57.9823856
  29.8858689  92.9693421  59.2310061  34.6239261  93.0892892  68.7196883
  34.6127902  92.6945690  67.8477386  34.7859901  92.3558964  69.3130654
  27.5470726  95.2844708  61.5891789  28.3392018  94.9435532  61.1738088
  27.7867376  95.3939683  62.5093942  35.5805853  97.4564484  54.0622033
  34.9293832  98.0418564  53.6756047  36.3750215  97.9870679  54.1217070
  29.5061480  94.5453621  54.4609167  30.2792356  93.9982608  54.3222043
  29.8586879  95.4097870  54.6723629  31.3446522  95.8730003  67.6676067
  31.0536388  96.7775634  67.5522733  31.9803507  95.9146531  68.3820136
  32.2702729  93.2506852  64.2577426  32.8666301  93.0262874  63.5434389
  32.3277701  92.5091597  64.8602874  31.8427758  90.7046287  52.0927617
  32.0953278  90.1827808  51.3311080  30.9052317  90.5412433  52.1954301
  36.8871040  89.7082066  59.9002360  37.6734130  89.2901489  59.5492777
  37.1509745  90.6128158  60.0684009  37.0581118  95.1454916  54.5991017
  36.4226951  95.2189542  55.3111922  36.7278524  95.7348515  53.9210097
  42.2879467  89.6457299  60.8035339  43.0204639  89.0756516  61.0373168
  41.5318823  89.2578899  61.2441845  31.5624046  92.6074393  54.2951992
  31.4460304  91.9319297  54.9633076  31.6726306  92.1206767  53.4784145
  33.9055587  92.0684540  57.9998681  33.5413794  91.5415161  58.7111603
  34.7622703  91.6783009  57.8265167  39.8104888  83.3578873  65.2629948
  39.4788213  84.2274284  65.0391163  39.2150501  83.0415157  65.9423978
  33.5461074  87.0974440  52.9960030  33.7135477  87.9654676  53.3630501
  33.3558243  87.2601722  52.0721319  36.3036407  95.5591419  64.6625860
  36.0037130  96.4616458  64.5541668  35.9587467  95.2923602  65.5147013
  29.7548889  92.0105216  60.6962565  28.8299385  91.8781430  60.9040256
  30.0033302  92.7899435  61.1932507  39.7033551  88.0773959  62.3423298
  38.7950428  88.0089367  62.0482059  39.6521147  88.5545904  63.1705123
  33.5250295  89.5532097  53.9806697  33.4049920  89.9989148  54.8192177
  32.8302883  89.9017415  53.4220235  27.1157700  91.6538489  61.5306354
  27.2450081  91.9072968  62.4445766  26.4355151  92.2466197  61.2111009
  31.2857187 102.3235739  57.6296828  31.2081217 103.2743564  57.7085309
  30.6818831 101.9781612  58.2871754  33.7774417  89.4963605  70.2858195
  33.0007751  90.0557525  70.2761060  34.4164980  89.9820388  70.8073065
  41.5695198  86.2790397  64.1201172  40.9269578  86.5722931  63.4740966
  41.0650126  86.1643318  64.9254368  39.2235361  90.0253571  54.8087031
  40.1353217  90.2580957  54.6334728  38.7145008  90.6090615  54.2462109
  32.0320789  92.3049058  69.8476162  32.7735474  92.8434102  69.5710986
  31.3257775  92.9315347  70.0047714  37.5076129  94.4478198  68.4448323
  37.9159485  94.0060609  67.7002956  36.7853390  93.8730826  68.6982516
  33.8607199  89.3850805  65.8181880  34.7068394  89.8090219  65.9616529
  33.8005837  88.7284430  66.5120443  37.8304944  95.0079389  62.2000612
  37.2013806  95.1725103  61.4976680  37.4430606  95.4220999  62.9711576
  41.7094175  95.9433827  59.5544976  41.0245214  96.3232728  59.0042009
  41.7938025  96.5529154  60.2876924  37.0106644  87.0455174  67.4763054
  36.7667576  87.7997234  66.9397330  37.2866575  87.4240521  68.3110301
  38.9645107  93.5893786  66.1540320  39.1762002  94.2325546  65.4774701
  38.9174855  92.7556103  65.6862250  36.5671336  86.2011607  63.0576892
  35.7055815  86.4992860  63.3493629  36.5933771  86.4182006  62.1257924
  33.3832905  94.7453797  59.4650697  33.8471251  95.0241500  58.6755320
  33.1189703  93.8437242  59.2823788  30.2756986  94.2925279  62.4030461
  30.8458344  94.7212547  61.7647945  30.8665098  94.0107863  63.1014646
  32.3201791  90.8676950  56.2740263  33.0225835  91.3197993  56.7414189
  31.9882420  90.2260768  56.9020156  30.7682153  89.4588706  70.6491472
  30.1380814  90.1404987  70.8826869  30.6618241  89.3471788  69.7044610
  26.0627125  89.1260502  61.5757396  25.2726179  89.3818031  61.0997507
  26.5538373  89.9408840  61.6809437  40.0790935  96.4665741  64.3262677
  40.9008379  96.0645929  64.0445359  40.0753338  96.3633976  65.2778793
  28.0141871  89.4905081  58.5340873  27.2173034  89.6023776  59.0524368
  27.7867463  89.8291734  57.6681763  33.8447538  96.0149785  66.4823387
  33.9091971  96.4770192  67.3181559  33.1358462  95.3847150  66.6105697
  24.3464828  89.3790993  64.0072387  24.5972867  90.2638003  64.2729963
  24.8824377  89.1995594  63.2347479  48.1696928  92.8104490  60.6747648
  47.4160636  92.2411888  60.5191653  48.3044469  92.7767154  61.6218283
  33.5595556  97.6817892  56.3502368  33.4241231  98.5269428  56.7787216
  34.1005369  97.8837170  55.5868302  30.0462896  83.7609472  73.0116723
  29.6529841  83.2075671  73.6864367  30.8629036  84.0720051  73.4023240
  27.0124953  95.1993330  56.9230293  27.5249474  95.9936580  57.0735857
  27.6647666  94.5019621  56.8563894  28.8219838  98.3159087  59.0053046
  28.9986466  99.2377051  58.8174030  29.6176672  98.0017506  59.4347426
  32.9630857  85.1767351  70.6036980  33.7040570  85.7774504  70.5241442
  33.1948780  84.4344989  70.0455022  28.1072195  90.3623718  68.8815209
  27.9925710  89.4608976  69.1822308  27.2516712  90.6087415  68.5300026
  35.1864032  98.3041459  70.4802710  34.7427887  97.5177837  70.1623614
  35.8481246  98.4920609  69.8146601  29.9451154  99.8337260  65.0063388
  30.4958579  99.7054324  64.2340382  29.1062630 100.1332149  64.6558281
  37.2845271  98.5844259  68.5084111  37.2663746  99.4053140  68.0164380
  38.2065191  98.4598334  68.7334252  33.7418325  96.0988388  69.3507619
  34.2746661  95.3376676  69.1206927  33.2132406  95.8062040  70.0931774
  36.9088020  81.2048454  64.8801261  36.5652289  82.0950096  64.8040372
  37.2766982  81.0150112  64.0170846  24.9773870  93.5281985  57.6989863
  25.8149092  93.9378993  57.4823571  25.1552138  92.5881427  57.6690057
  36.8738302  91.1957065  53.3873696  36.3584926  91.9661670  53.6262084
  36.6015611  90.5222201  54.0106758  34.4585413  86.0406766  58.4458935
  33.6027010  85.6513616  58.2664573  34.8712365  86.1198727  57.5858720
  35.9884560  83.5753109  62.8450494  35.4849356  83.5383244  62.0318300
  36.2815167  84.4845852  62.9047151  32.2327446  83.6591839  61.8516676
  33.0980443  83.4634648  61.4922566  32.3004955  83.4302191  62.7786033
  41.8472576  93.9489420  55.3226870  41.0702019  93.6100579  54.8782032
  42.5264057  93.9542043  54.6481835  36.6624606  89.0684157  55.2133477
  36.3574741  89.3830306  56.0643621  37.6155048  89.1465577  55.2560810
  35.1071037  95.2274381  56.8626431  34.5792399  94.4927140  56.5499669
  34.6058540  96.0049057  56.6166400  40.0863883  93.4223401  61.9793478
  39.4287558  94.1122662  62.0673606  40.8904283  93.8119833  62.3227464
  29.8389765  85.8894047  59.2233043  30.4133517  85.6669228  58.4906236
  30.4260747  85.9582741  59.9761644  38.8969342  91.7767774  60.0297420
  39.4101224  92.4097766  60.5319129  39.5470566  91.1768969  59.6640780
  30.1659352  87.9198508  53.2428928  29.3296664  88.2573194  53.5638203
  30.0264122  87.7847488  52.3056065  32.1412433  82.7635296  57.9508112
  31.4876845  82.4484313  57.3264727  32.0992907  82.1411036  58.6767935
  33.2523638  93.0454591  49.8661404  32.3450699  92.8143844  50.0652553
  33.7494670  92.2492210  50.0535386  36.1591716 101.7552098  52.7858091
  35.4853415 102.0583795  53.3943048  36.5457538 102.5581178  52.4363548
  35.3750173  89.2517229  62.2755760  34.4572734  89.4732176  62.1177448
  35.7910317  89.3263540  61.4167467  36.1585221  90.6508645  57.4058440
  36.9057040  91.1630042  57.0965562  36.4276810  90.3292698  58.2662834
  34.4311871  93.1467186  54.3885395  33.5223090  92.8626219  54.4857864
  34.4606955  93.5666264  53.5288701  39.6631138  96.7573775  58.1576562
  39.2093466  95.9164685  58.2141753  39.0325105  97.3935174  58.4951342
  38.6064058  87.6865761  59.3877230  37.8686815  87.1743147  59.7187472
  38.8590832  87.2466143  58.5760506  38.1064078  98.5950272  59.0926380
  38.3987052  99.1555329  58.3738746  38.6162698  98.8878833  59.8479539
  38.7075685  80.4642013  59.9818999  39.0134562  79.6039377  59.6944914
  39.4328290  81.0559633  59.7817993  25.0000041  90.8672700  58.3700597
  24.8024441  90.2742061  57.6451663  24.4446705  90.5624910  59.0876536
  32.9796765  90.7595806  60.4895190  33.0345375  89.8069643  60.4137667
  32.1687967  90.9155245  60.9736488  34.1287959  94.6875929  51.7273473
  33.6907389  93.9711788  51.2679110  34.8698400  94.9152044  51.1658565
  30.9189125  89.3772866  58.2485569  30.1056990  89.6767037  58.6550761
  31.4148119  88.9828555  58.9660051  33.0697703  99.3730623  60.1819833
  33.0273882  99.5991469  59.2528366  33.9860402  99.1393998  60.3305635
  36.5163337  89.8414691  67.0800463  36.8712724  90.0686164  67.9394928
  37.1635468  90.1733067  66.4577718  42.2461074  92.9633126  57.7849792
  42.1078972  93.1534722  56.8570981  41.8897292  93.7252509  58.2417843
  30.4103200  86.9491222  63.8646804  31.0502579  86.8079981  63.1669767
  29.5780730  86.6625735  63.4885406  42.2730453  95.0309653  62.7961063
  42.7066960  94.9384943  63.6444117  42.9862034  95.0067154  62.1581079
  31.1863504  96.2493652  59.9781796  31.9804102  95.7543972  59.7764371
  30.4755196  95.7211515  59.6149502  36.0058348  98.6311748  64.3294164
  36.0595370  99.2002684  65.0971880  35.1373129  98.8013633  63.9648201
  27.4946267  90.3936734  56.0541549  26.5643855  90.3321189  56.2711511
  27.5903739  89.8712687  55.2578190  27.4131816  86.9191547  58.6419791
  27.6738633  87.8336880  58.5328951  28.2348988  86.4515989  58.7916403
  28.8856741  88.3329304  65.8118615  29.5579795  88.1246666  65.1631264
  28.0586528  88.1351390  65.3723847  43.1346003  95.0733354  65.3293949
  43.3281893  95.9779165  65.5753224  43.0346621  94.6140773  66.1632534
  34.7882313  84.9591245  67.8284276  34.1410229  85.6581194  67.7348752
  35.5583329  85.3927389  68.1960524  38.1961111  95.2240097  70.9034829
  38.0446618  94.9950649  69.9864913  38.1865791  96.1810698  70.9166174
  34.9646448  92.7972010  65.8881096  35.8938508  92.9483169  65.7150063
  34.5437478  92.8856030  65.0329742  33.7634780  96.8222674  63.6579633
  33.6245865  96.4541458  64.5305571  32.9749376  97.3370313  63.4863591
  34.3582932 101.9231770  55.0005170  34.5334687 101.4519814  55.8150793
  33.6715720 102.5497537  55.2286431  35.3139995  96.2004277  61.0468471
  34.9789827  96.1605047  61.9426121  34.8143940  95.5348993  60.5738881
  29.2884239  91.6071907  66.5721052  29.1504037  90.8752146  67.1732591
  30.1989162  91.5180807  66.2905240  38.2499186  93.5460311  51.3205531
  37.6328357  92.8207139  51.2238583  37.7815675  94.3069671  50.9772605
  31.9166539  91.3191866  66.0604732  32.6266158  90.6785058  66.0191350
  31.8735848  91.5704761  66.9830913  39.9053318  98.2559219  68.9811311
  39.8465864  97.5718440  68.3141894  40.3072836  98.9978209  68.5291937
  30.6295473  88.3057084  67.8800371  30.0932830  87.8547822  68.5321968
  30.0412182  88.4402993  67.1370836  28.9244017 105.0721133  61.7745030
  29.1640615 105.7039657  62.4524049  28.0813213 104.7209173  62.0610389
  30.0397732  87.7645735  50.4426835  29.1627199  87.6434536  50.0789082
  30.5155485  86.9731814  50.1905724  39.9070725  96.2198803  67.2125291
  39.0197504  95.8824725  67.3351690  40.4769276  95.4881835  67.4494056
  21.5599872  92.5522895  60.5368342  22.2470912  92.2384625  59.9489357
  21.4048001  93.4564260  60.2635594  26.3634595  87.4413092  64.9653366
  26.2792783  86.8338761  64.2303776  25.5417301  87.9322110  64.9662862
  33.4371879 100.8800256  64.1786534  33.3642050 101.6855227  64.6905839
  32.9949272 101.0792221  63.3534555  33.2261658 100.1172026  57.6889356
  32.4429180 100.6593706  57.7827580  33.9254404 100.6346005  58.0883597
  36.5358308  85.9266655  60.3323561  37.0327008  85.1736617  60.0124631
  35.7645290  85.9630972  59.7666770  44.3888066  91.6307021  61.9741852
  44.3777942  92.5131736  61.6035786  43.5205445  91.2778572  61.7796389
  35.8970562 100.7787090  66.3344693  36.6098534 101.4134555  66.2620594
  35.4060591 100.8750956  65.5184694  37.6188089  94.6838342  57.9061984
  36.6844368  94.8039805  57.7366689  37.7964758  93.7810809  57.6421994
  33.1193277  88.0684038  60.0595246  32.7491065  87.5155079  60.7476151
  33.6152370  87.4642172  59.5070246  41.0060641  90.5255662  58.4412018
  41.4721093  91.3583653  58.3672321  41.4568141  90.0600643  59.1457277
  30.9482476  98.5281533  67.1550263  31.6491935  99.1618016  67.3079658
  30.4777591  98.8696265  66.3945903  39.0736872  96.8699483  55.4398170
  39.3496716  96.7556078  56.3492045  38.2041370  96.4716968  55.4010344
  38.9777303  82.8936249  62.4802920  38.0640383  83.1240475  62.6485127
  39.4070405  82.9774693  63.3316952  38.7483762  91.0826141  64.9802814
  38.0955212  91.3302048  64.3255267  39.1264142  90.2690279  64.6465291
  35.7090936 101.1185834  59.0830984  35.8913330 100.3007490  59.5458736
  36.5323922 101.3353526  58.6455874  36.0433101 100.0454019  56.3446033
  36.5720868  99.5346474  55.7316195  36.3061321  99.7296549  57.2091566
  34.7971335  91.8245952  71.4668851  34.1211972  91.7240081  72.1371226
  35.6198969  91.6685165  71.9304848  26.5450194  98.0617888  64.0881366
  27.1303631  97.3161576  64.2209270  26.3475032  98.3721845  64.9718030
  29.3988849 101.0969136  59.1043809  28.7299224 101.5815263  58.6207849
  29.2601719 101.3438356  60.0187187  21.1367849  90.6323488  62.8085809
  21.1751948  90.0987079  63.6022927  20.6308141  90.1058694  62.1896786
  33.5394118 103.1312879  65.7026467  34.0912426 103.2944501  66.4675552
  33.8800311 103.7217317  65.0306492  28.5158611  85.4788029  66.3048352
  28.5799937  86.3402860  65.8925749  28.4525731  84.8662031  65.5720710
  27.9910883  87.5511161  69.9521386  28.6182922  87.1688239  70.5658910
  27.1338802  87.3325363  70.3177078  38.3904992  97.9574137  71.5575121
  38.9344896  98.5704095  71.0630076  37.8091837  98.5153715  72.0742134
  24.7676426  89.3587591  55.8839741  25.0629867  88.4498269  55.8306794
  23.8664462  89.3375330  55.5620743  36.6762505 101.0794855  62.6890149
  36.5513644 100.2784594  62.1801095  37.3341596 101.5741048  62.2004119
  28.2970673  87.4343587  61.8667289  27.5757259  88.0479555  61.7274763
  29.0863929  87.9701352  61.7883935  38.7397413  98.8803875  64.3169699
  37.7927749  98.7609226  64.2448026  39.0880186  97.9926373  64.3995961
  31.0996987  84.7698014  68.1407941  31.6231388  85.0160310  68.9034250
  30.8809320  85.6018048  67.7211078  26.4964268  87.0401688  56.0079066
  26.1676974  86.1599067  55.8254172  26.8503638  86.9849357  56.8955455
  35.7443847  98.6756591  60.5174051  35.5968809  97.7473298  60.6981621
  36.5697340  98.6976682  60.0331127  29.6106091  87.3274658  56.3754544
  29.9502163  87.8560579  55.6533152  30.0578211  87.6655064  57.1513110
  39.3477968  99.4985150  61.6038924  40.2724516  99.2928011  61.4663375
  39.1793272  99.2501551  62.5128266  32.3049532  85.7111709  65.8257612
  31.9646352  84.9119522  66.2278291  31.5988538  86.0113420  65.2534445
  32.9566004  82.7961021  64.2784935  33.7792073  82.3221499  64.1563825
  33.2004067  83.5751505  64.7783621  31.5974238  85.8249280  54.5747836
  32.3182601  86.2030532  54.0711553  30.9739542  86.5438156  54.6782814
  35.7405361  86.5294429  55.5106169  35.9568975  87.4119066  55.2094997
  35.2599428  86.1380642  54.7811811  30.4804582  89.4880142  62.0876913
  30.3349163  89.8020445  62.9801195  30.0029786  90.1065042  61.5347812
  32.3400965  86.4782690  62.1357803  32.3262534  85.5823783  61.7990101
  33.0573393  86.4853354  62.7696089  34.1927096  86.9120030  64.1810930
  33.9344874  87.8337101  64.1795261  33.6612136  86.5150465  64.8711394
  39.1373285 100.0170817  56.9601016  39.3110162  99.4517240  56.2074868
  39.6302176 100.8171712  56.7780506  24.9550244  92.0285486  65.0264574
  24.4103713  92.8045294  65.1584849  25.8329594  92.3756291  64.8683696
  31.7437861  85.3597070  57.4045373  31.8653772  84.4313716  57.6036260
  31.4539903  85.3735756  56.4923688  34.6129052  83.0451981  60.5412093
  34.6350748  83.1091314  59.5864072  35.0297111  82.2056489  60.7352599
  44.9912676  92.7807240  58.5791315  45.4343822  92.0314565  58.1810439
  44.1139186  92.7717376  58.1965047  40.1248457  99.3337582  54.0597914
  40.8199362  99.9544274  54.2785229  40.4671607  98.4832933  54.3350292
  25.7416266  91.1555382  67.9194731  24.9998002  91.3038018  68.5059362
  25.4209011  91.4163648  67.0561481  42.0239880  96.7837287  55.5885245
  42.5491204  97.1224560  54.8634565  41.9362233  95.8484302  55.4048379
  33.6859929 100.6971361  67.7175121  33.9947055 100.4520507  68.5897821
  34.4835411 100.9017999  67.2293991  33.7080541 102.8509270  59.9480498
  33.2685531 102.3585649  60.6413355  34.4588658 102.3082238  59.7072573
  26.1872880  99.0420811  59.9505126  27.0130900  98.7424583  59.5703769
  25.8366932  98.2728434  60.3994915  31.1554413  98.3947279  62.0202799
  30.5334422  97.7317984  61.7205027  31.8259280  98.4208411  61.3376447
  24.3881485  96.9607138  60.9094059  23.5513393  96.5329312  60.7278061
  24.3605130  97.1539581  61.8464851  31.2278941  86.8729067  71.6135306
  31.2767096  87.7491190  71.2313075  31.7701455  86.3306461  71.0406949
  41.7133786  97.4170191  70.8936443  40.9229330  97.3994330  70.3540942
  41.4767141  97.9558484  71.6485479  41.8331661  94.2662657  68.2069171
  41.8829666  94.1012665  69.1484694  41.7245585  93.3989916  67.8167052
  30.7167920  96.9451203  55.4961260  30.8656040  97.6286667  54.8427933
  31.5234364  96.9256293  56.0110716  39.1235424  90.2493585  69.5228478
  40.0245287  90.1100050  69.2312476  39.1983398  90.4148040  70.4626655
  33.4578229  87.6260440  68.3681664  32.5881539  87.9194006  68.0964253
  33.6937709  88.2100885  69.0888928  43.3349858  96.6859599  68.4511193
  43.0434667  97.0489579  69.2874654  42.7221989  95.9726607  68.2724525
  44.5345541  94.2512478  60.9713763  45.3692432  94.6902282  61.1351323
  44.6704669  93.7751132  60.1522009  41.5837046  91.8092213  66.9191251
  42.0591168  92.0019860  66.1110102  40.6602612  91.8651399  66.6734634
  28.4720553  92.9716380  56.5022329  28.2266595  92.0678710  56.7002539
  28.6416468  92.9733531  55.5601807  36.1617263  83.8440057  65.8847085
  36.6799207  84.5801084  65.5593573  35.8072396  84.1504050  66.7193844
  27.7416201  88.7044738  54.0008490  27.0485446  88.7789093  53.3448526
  27.4967952  87.9405082  54.5230007  36.4129857  80.2640339  61.4047981
  36.6931611  79.5963528  62.0308408  37.1980464  80.4569435  60.8922645
  34.2163326  99.4399333  52.9673007  33.6437293 100.0589520  52.5143479
  34.7896119  99.9898695  53.5012929  40.2838715  88.6857973  65.1519556
  41.2356138  88.7856071  65.1731780  40.1142166  87.8936242  65.6617641
  38.3053095  85.7713557  65.3378957  37.7103027  86.0518569  64.6425446
  38.0202792  86.2607457  66.1095698  37.4360585  99.7236483  54.0981590
  38.3691259  99.6582045  54.3014465  37.3483798 100.5592750  53.6396122
  40.0648602  99.0402354  51.0585537  39.9862234  98.7062217  51.9521295
  40.8858269  99.5324122  51.0577010  42.7626793  91.9064093  64.2661856
  42.7303113  90.9680094  64.4521540  43.3727417  91.9848130  63.5327681
  34.6010124  90.7760146  50.3089060  35.5469229  90.6466354  50.3777478
  34.2224369  90.0374808  50.7858488  42.9121282  88.6975136  64.3120139
  42.3960330  87.9133593  64.1250068  43.7961230  88.3693853  64.4766659
  40.5732009  82.4416152  60.2715952  40.3756830  82.1331240  61.1559284
  41.1831714  83.1677791  60.4013882  48.5803343  92.9680100  63.4067893
  49.3106732  92.7065388  63.9675596  47.9710289  92.2308822  63.4469961
  46.6618640  91.1087962  64.0042344  45.9351804  90.9743927  63.3958835
  46.2465927  91.4164791  64.8099062  34.4848817  94.8277892  71.7689717
  35.4051826  95.0056491  71.9629763  34.4498400  93.8833937  71.6169416
  32.7853041  88.7010122  50.2443945  31.8784497  88.4043235  50.3206659
  33.0629022  88.4039940  49.3778231  23.7030982  90.0216486  60.6942992
  23.3833766  89.1681794  60.4017366  23.1564410  90.2365064  61.4500959
  27.4810889  92.7378927  64.4112498  27.6996899  93.6696035  64.4300532
  27.8936663  92.3786901  65.1967302  34.4015107  83.2447012  56.3988186
  33.5915835  82.8994097  56.7743433  35.0899524  82.9354556  56.9875798
  36.3305655  82.3225059  58.0212483  36.8836694  82.7420512  58.6802506
  36.5675742  81.3960807  58.0635439  32.3538755  88.3112133  73.8015247
  32.2535481  89.2606489  73.7327338  32.1360297  87.9830371  72.9291317
  31.5551826  85.5597058  50.3855924  32.4170990  85.8851956  50.6451742
  31.7402170  84.7728553  49.8728990  23.5719242  93.6419397  62.6636113
  22.8782713  93.2273350  62.1506068  24.3192233  93.6839934  62.0669532
  39.7084462  84.4325584  57.5291147  39.1283131  85.0910388  57.1469200
  39.4420395  83.6102929  57.1178565  38.1588029  83.8330642  59.7312468
  38.6587807  83.9447176  58.9226787  38.8023637  83.5291695  60.3713276
  32.2170025  91.7409271  72.6180309  31.7337106  92.5409631  72.8244198
  32.3030964  91.7517216  71.6647753  25.4855984  93.5737651  60.5402128
  25.4626672  93.6725338  59.5884011  25.7956621  94.4202802  60.8619294
  28.1443362  95.6313806  64.6548742  29.0986616  95.5997748  64.5878674
  27.9455886  95.1704430  65.4698968  28.7342744  94.2014922  67.2219540
  29.5535633  94.6959001  67.2454377  29.0079552  93.2846890  67.1937108
  38.4909340  86.5925674  56.5847496  37.6035195  86.8775325  56.3667690
  38.9063329  86.4319438  55.7374773  41.8423877  86.6172195  60.3001835
  42.6184267  87.1068648  60.5726452  41.1172011  87.0430250  60.7573704
  44.2796435  87.3299815  61.3575776  44.8740926  87.0895551  60.6469084
  44.3523019  86.6106945  61.9849312  26.4993591 101.1733426  61.6718940
  26.3648059 100.4133826  61.1056938  26.0825653 101.8974325  61.2047729
  37.6352554  96.3570349  50.6795516  38.3388404  96.5620352  51.2953171
  36.9115203  96.9247111  50.9444599  38.4650364  92.1080210  56.7997786
  38.4085566  92.5648762  55.9605418  39.0178707  91.3470895  56.6220629
  42.2755170  87.8969942  57.6247905  42.0192104  87.4966578  58.4556113
  41.6508038  88.6113736  57.4998044  46.5867508  90.6366015  60.1319197
  46.0267066  90.7059205  60.9050759  45.9811011  90.4607000  59.4118693
  29.6562717 102.0702743  61.8837383  29.5395101 103.0148175  61.7816073
  28.8355163 101.7676304  62.2723182  39.5439251  96.7952878  52.7293976
  40.3784855  96.3634077  52.5471450  39.3823594  96.6234892  53.6570870
  39.1985143  93.2984992  54.0950315  39.1433947  93.1329263  53.1538759
  38.5731199  94.0061025  54.2512505  23.9877658  88.5353056  67.9211737
  24.6336522  88.0252010  68.4098962  23.7794810  89.2721738  68.4955162
  36.5131051  95.6033903  73.4203878  37.3822210  95.7774556  73.0590513
  36.0337802  96.4228320  73.2979607  32.5081269  82.7993101  53.6735633
  32.4959939  83.7434941  53.8303904  33.4004691  82.6163246  53.3795095
  30.6817231 102.7231004  65.0993311  31.5844478 102.7554615  65.4159806
  30.4554601 101.7931455  65.1139647  32.4370833 101.4761991  61.7603390
  31.4866464 101.4763853  61.6467762  32.7403319 100.7294726  61.2439425
  36.3233388  79.3935877  57.9281570  35.5565784  78.8394364  58.0738253
  36.7344093  79.4657746  58.7895722  28.3275149  85.6820673  72.0186751
  29.1906611  85.3257478  72.2290076  27.7540560  85.3434568  72.7062156
  48.1723526 107.3122529  62.8249152  48.8101936 107.1929277  62.1212492
  48.0544369 108.2603373  62.8837105  44.9813233 107.2649958  62.7610677
  44.6431744 107.1491022  61.8731212  45.8503001 106.8641123  62.7411683
  40.8400048 109.1185434  58.7507568  40.2764913 109.0275371  57.9823856
  40.7252443 108.2985338  59.2310061  45.4633016 108.4184809  68.7196883
  45.4521656 108.0237608  67.8477386  45.6253655 107.6850882  69.3130654
  38.3864480 110.6136626  61.5891789  39.1785772 110.2727450  61.1738088
  38.6261130 110.7231601  62.5093942  46.4199607 112.7856402  54.0622033
  45.7687587 113.3710482  53.6756047  47.2143970 113.3162597  54.1217070
  40.3455234 109.8745539  54.4609167  41.1186110 109.3274526  54.3222043
  40.6980633 110.7389788  54.6723629  42.1840277 111.2021921  67.6676067
  41.8930143 112.1067552  67.5522733  42.8197261 111.2438449  68.3820136
  43.1096484 108.5798770  64.2577426  43.7060056 108.3554792  63.5434389
  43.1671455 107.8383515  64.8602874  42.6821512 106.0338205  52.0927617
  42.9347033 105.5119726  51.3311080  41.7446071 105.8704350  52.1954301
  47.7264795 105.0373983  59.9002360  48.5127884 104.6193406  59.5492777
  47.9903499 105.9420075  60.0684009  47.8974872 110.4746834  54.5991017
  47.2620705 110.5481460  55.3111922  47.5672279 111.0640432  53.9210097
  53.1273222 104.9749216  60.8035339  53.8598394 104.4048433  61.0373168
  52.3712578 104.5870817  61.2441845  42.4017801 107.9366311  54.2951992
  42.2854059 107.2611214  54.9633076  42.5120061 107.4498685  53.4784145
  44.7449342 107.3976458  57.9998681  44.3807549 106.8707079  58.7111603
  45.6016458 107.0074927  57.8265167  50.6498642  98.6870791  65.2629948
  50.3181967  99.5566202  65.0391163  50.0544256  98.3707075  65.9423978
  44.3854829 102.4266358  52.9960030  44.5529231 103.2946594  53.3630501
  44.1951998 102.5893639  52.0721319  47.1430162 110.8883337  64.6625860
  46.8430885 111.7908375  64.5541668  46.7981221 110.6215520  65.5147013
  40.5942643 107.3397133  60.6962565  39.6693140 107.2073348  60.9040256
  40.8427057 108.1191353  61.1932507  50.5427306 103.4065877  62.3423298
  49.6344183 103.3381285  62.0482059  50.4914901 103.8837822  63.1705123
  44.3644050 104.8824015  53.9806697  44.2443675 105.3281066  54.8192177
  43.6696638 105.2309333  53.4220235  37.9551454 106.9830407  61.5306354
  38.0843836 107.2364886  62.4445766  37.2748906 107.5758115  61.2111009
  42.1250942 117.6527657  57.6296828  42.0474971 118.6035482  57.7085309
  41.5212585 117.3073529  58.2871754  44.6168171 104.8255522  70.2858195
  43.8401505 105.3849442  70.2761060  45.2558734 105.3112305  70.8073065
  52.4088952 101.6082315  64.1201172  51.7663332 101.9014848  63.4740966
  51.9043881 101.4935235  64.9254368  50.0629116 105.3545488  54.8087031
  50.9746972 105.5872875  54.6334728  49.5538763 105.9382533  54.2462109
  42.8714544 107.6340976  69.8476162  43.6129228 108.1726020  69.5710986
  42.1651529 108.2607264  70.0047714  48.3469883 109.7770116  68.4448323
  48.7553239 109.3352527  67.7002956  47.6247145 109.2022744  68.6982516
  44.7000953 104.7142723  65.8181880  45.5462149 105.1382136  65.9616529
  44.6399591 104.0576347  66.5120443  48.6698698 110.3371307  62.2000612
  48.0407560 110.5017021  61.4976680  48.2824360 110.7512916  62.9711576
  52.5487930 111.2725745  59.5544976  51.8638968 111.6524646  59.0042009
  52.6331779 111.8821071  60.2876924  47.8500399 102.3747091  67.4763054
  47.6061331 103.1289152  66.9397330  48.1260329 102.7532439  68.3110301
  49.8038862 108.9185704  66.1540320  50.0155757 109.5617464  65.4774701
  49.7568610 108.0848020  65.6862250  47.4065090 101.5303524  63.0576892
  46.5449569 101.8284778  63.3493629  47.4327525 101.7473923  62.1257924
  44.2226660 110.0745715  59.4650697  44.6865005 110.3533418  58.6755320
  43.9583458 109.1729159  59.2823788  41.1150741 109.6217196  62.4030461
  41.6852098 110.0504465  61.7647945  41.7058853 109.3399781  63.1014646
  43.1595546 106.1968867  56.2740263  43.8619589 106.6489911  56.7414189
  42.8276174 105.5552686  56.9020156  41.6075907 104.7880624  70.6491472
  40.9774568 105.4696905  70.8826869  41.5011995 104.6763705  69.7044610
  36.9020880 104.4552420  61.5757396  36.1119934 104.7109948  61.0997507
  37.3932127 105.2700758  61.6809437  50.9184689 111.7957659  64.3262677
  51.7402133 111.3937846  64.0445359  50.9147092 111.6925893  65.2778793
  38.8535625 104.8196999  58.5340873  38.0566789 104.9315693  59.0524368
  38.6261217 105.1583651  57.6681763  44.6841293 111.3441702  66.4823387
  44.7485725 111.8062110  67.3181559  43.9752217 110.7139067  66.6105697
  35.1858583 104.7082910  64.0072387  35.4366621 105.5929920  64.2729963
  35.7218131 104.5287512  63.2347479  59.0090683 108.1396408  60.6747648
  58.2554391 107.5703806  60.5191653  59.1438224 108.1059072  61.6218283
  44.3989311 113.0109810  56.3502368  44.2634985 113.8561346  56.7787216
  44.9399123 113.2129088  55.5868302  40.8856650  99.0901390  73.0116723
  40.4923596  98.5367588  73.6864367  41.7022791  99.4011968  73.4023240
  37.8518708 110.5285248  56.9230293  38.3643229 111.3228498  57.0735857
  38.5041421 109.8311538  56.8563894  39.6613593 113.6451004  59.0053046
  39.8380221 114.5668969  58.8174030  40.4570426 113.3309423  59.4347426
  43.8024611 100.5059269  70.6036980  44.5434325 101.1066422  70.5241442
  44.0342534  99.7636907  70.0455022  38.9465949 105.6915636  68.8815209
  38.8319464 104.7900893  69.1822308  38.0910467 105.9379333  68.5300026
  46.0257787 113.6333376  70.4802710  45.5821641 112.8469755  70.1623614
  46.6875001 113.8212527  69.8146601  40.7844908 115.1629178  65.0063388
  41.3352333 115.0346241  64.2340382  39.9456384 115.4624067  64.6558281
  48.1239025 113.9136176  68.5084111  48.1057500 114.7345057  68.0164380
  49.0458945 113.7890252  68.7334252  44.5812079 111.4280306  69.3507619
  45.1140416 110.6668594  69.1206927  44.0526160 111.1353958  70.0931774
  47.7481774  96.5340372  64.8801261  47.4046044  97.4242013  64.8040372
  48.1160737  96.3442029  64.0170846  35.8167625 108.8573902  57.6989863
  36.6542847 109.2670911  57.4823571  35.9945892 107.9173344  57.6690057
  47.7132057 106.5248983  53.3873696  47.1978680 107.2953587  53.6262084
  47.4409365 105.8514119  54.0106758  45.2979168 101.3698684  58.4458935
  44.4420764 100.9805534  58.2664573  45.7106120 101.4490644  57.5858720
  46.8278315  98.9045027  62.8450494  46.3243110  98.8675162  62.0318300
  47.1208921  99.8137770  62.9047151  43.0721200  98.9883757  61.8516676
  43.9374197  98.7926565  61.4922566  43.1398709  98.7594108  62.7786033
  52.6866331 109.2781338  55.3226870  51.9095774 108.9392497  54.8782032
  53.3657812 109.2833961  54.6481835  47.5018360 104.3976075  55.2133477
  47.1968496 104.7122224  56.0643621  48.4548802 104.4757495  55.2560810
  45.9464792 110.5566298  56.8626431  45.4186153 109.8219058  56.5499669
  45.4452295 111.3340975  56.6166400  50.9257638 108.7515319  61.9793478
  50.2681312 109.4414580  62.0673606  51.7298037 109.1411751  62.3227464
  40.6783519 101.2185965  59.2233043  41.2527271 100.9961146  58.4906236
  41.2654502 101.2874659  59.9761644  49.7363097 107.1059691  60.0297420
  50.2494978 107.7389683  60.5319129  50.3864321 106.5060887  59.6640780
  41.0053107 103.2490426  53.2428928  40.1690419 103.5865112  53.5638203
  40.8657876 103.1139405  52.3056065  42.9806187  98.0927213  57.9508112
  42.3270600  97.7776231  57.3264727  42.9386661  97.4702954  58.6767935
  44.0917392 108.3746509  49.8661404  43.1844454 108.1435762  50.0652553
  44.5888424 107.5784128  50.0535386  46.9985471 117.0844016  52.7858091
  46.3247170 117.3875712  53.3943048  47.3851293 117.8873096  52.4363548
  46.2143928 104.5809147  62.2755760  45.2966489 104.8024094  62.1177448
  46.6304071 104.6555457  61.4167467  46.9978975 105.9800563  57.4058440
  47.7450794 106.4921960  57.0965562  47.2670565 105.6584615  58.2662834
  45.2705625 108.4759103  54.3885395  44.3616845 108.1918136  54.4857864
  45.3000709 108.8958182  53.5288701  50.5024893 112.0865693  58.1576562
  50.0487220 111.2456603  58.2141753  49.8718860 112.7227091  58.4951342
  49.4457812 103.0157679  59.3877230  48.7080569 102.5035065  59.7187472
  49.6984586 102.5758061  58.5760506  48.9457832 113.9242190  59.0926380
  49.2380807 114.4847247  58.3738746  49.4556453 114.2170751  59.8479539
  49.5469440  95.7933931  59.9818999  49.8528317  94.9331294  59.6944914
  50.2722045  96.3851551  59.7817993  35.8393796 106.1964618  58.3700597
  35.6418196 105.6033978  57.6451663  35.2840460 105.8916828  59.0876536
  43.8190520 106.0887724  60.4895190  43.8739129 105.1361560  60.4137667
  43.0081722 106.2447163  60.9736488  44.9681713 110.0167847  51.7273473
  44.5301143 109.3003706  51.2679110  45.7092154 110.2443962  51.1658565
  41.7582879 104.7064784  58.2485569  40.9450745 105.0058954  58.6550761
  42.2541874 104.3120473  58.9660051  43.9091457 114.7022541  60.1819833
  43.8667636 114.9283387  59.2528366  44.8254156 114.4685915  60.3305635
  47.3557091 105.1706608  67.0800463  47.7106479 105.3978081  67.9394928
  48.0029222 105.5024985  66.4577718  53.0854828 108.2925044  57.7849792
  52.9472727 108.4826640  56.8570981  52.7291047 109.0544427  58.2417843
  41.2496954 102.2783139  63.8646804  41.8896334 102.1371898  63.1669767
  40.4174485 101.9917653  63.4885406  53.1124208 110.3601571  62.7961063
  53.5460714 110.2676860  63.6444117  53.8255788 110.3359072  62.1581079
  42.0257258 111.5785570  59.9781796  42.8197857 111.0835890  59.7764371
  41.3148950 111.0503433  59.6149502  46.8452103 113.9603665  64.3294164
  46.8989125 114.5294602  65.0971880  45.9766884 114.1305550  63.9648201
  38.3340022 105.7228651  56.0541549  37.4037610 105.6613107  56.2711511
  38.4297494 105.2004604  55.2578190  38.2525571 102.2483464  58.6419791
  38.5132388 103.1628798  58.5328951  39.0742743 101.7807907  58.7916403
  39.7250496 103.6621221  65.8118615  40.3973549 103.4538584  65.1631264
  38.8980282 103.4643307  65.3723847  53.9739757 110.4025272  65.3293949
  54.1675647 111.3071082  65.5753224  53.8740375 109.9432691  66.1632534
  45.6276068 100.2883162  67.8284276  44.9803983 100.9873112  67.7348752
  46.3977083 100.7219306  68.1960524  49.0354866 110.5532015  70.9034829
  48.8840372 110.3242566  69.9864913  49.0259545 111.5102616  70.9166174
  45.8040202 108.1263927  65.8881096  46.7332262 108.2775087  65.7150063
  45.3831232 108.2147948  65.0329742  44.6028534 112.1514592  63.6579633
  44.4639620 111.7833376  64.5305571  43.8143130 112.6662231  63.4863591
  45.1976686 117.2523688  55.0005170  45.3728442 116.7811731  55.8150793
  44.5109474 117.8789454  55.2286431  46.1533749 111.5296194  61.0468471
  45.8183582 111.4896964  61.9426121  45.6537695 110.8640910  60.5738881
  40.1277993 106.9363824  66.5721052  39.9897791 106.2044063  67.1732591
  41.0382917 106.8472725  66.2905240  49.0892941 108.8752229  51.3205531
  48.4722112 108.1499057  51.2238583  48.6209429 109.6361589  50.9772605
  42.7560294 106.6483784  66.0604732  43.4659912 106.0076976  66.0191350
  42.7129602 106.8996679  66.9830913  50.7447073 113.5851137  68.9811311
  50.6859619 112.9010357  68.3141894  51.1466591 114.3270127  68.5291937
  41.4689228 103.6349002  67.8800371  40.9326585 103.1839740  68.5321968
  40.8805936 103.7694910  67.1370836  40.8791487 103.0937653  50.4426835
  40.0020953 102.9726454  50.0789082  41.3549240 102.3023731  50.1905724
  50.7464480 111.5490721  67.2125291  49.8591259 111.2116643  67.3351690
  51.3163031 110.8173752  67.4494056  32.3993627 107.8814813  60.5368342
  33.0864667 107.5676543  59.9489357  32.2441756 108.7856177  60.2635594
  37.2028349 102.7705009  64.9653366  37.1186538 102.1630679  64.2303776
  36.3811055 103.2614028  64.9662862  44.2765633 116.2092173  64.1786534
  44.2035805 117.0147145  64.6905839  43.8343026 116.4084139  63.3534555
  44.0655413 115.4463943  57.6889356  43.2822935 115.9885624  57.7827580
  44.7648158 115.9637923  58.0883597  47.3752063 101.2558573  60.3323561
  47.8720762 100.5028535  60.0124631  46.6039044 101.2922889  59.7666770
  55.2281820 106.9598938  61.9741852  55.2171697 107.8423654  61.6035786
  54.3599200 106.6070489  61.7796389  46.7364317 116.1079007  66.3344693
  47.4492289 116.7426472  66.2620594  46.2454345 116.2042873  65.5184694
  48.4581844 110.0130260  57.9061984  47.5238122 110.1331723  57.7366689
  48.6358512 109.1102727  57.6421994  43.9587032 103.3975956  60.0595246
  43.5884819 102.8446996  60.7476151  44.4546124 102.7934089  59.5070246
  51.8454395 105.8547579  58.4412018  52.3114847 106.6875571  58.3672321
  52.2961895 105.3892561  59.1457277  41.7876230 113.8573451  67.1550263
  42.4885690 114.4909934  67.3079658  41.3171345 114.1988182  66.3945903
  49.9130626 112.1991401  55.4398170  50.1890470 112.0847995  56.3492045
  49.0435125 111.8008885  55.4010344  49.8171058  98.2228166  62.4802920
  48.9034138  98.4532393  62.6485127  50.2464159  98.3066610  63.3316952
  49.5877516 106.4118058  64.9802814  48.9348966 106.6593966  64.3255267
  49.9657896 105.5982196  64.6465291  46.5484690 116.4477751  59.0830984
  46.7307085 115.6299407  59.5458736  47.3717676 116.6645444  58.6455874
  46.8826856 115.3745937  56.3446033  47.4114622 114.8638391  55.7316195
  47.1455075 115.0588467  57.2091566  45.6365089 107.1537869  71.4668851
  44.9605726 107.0531999  72.1371226  46.4592723 106.9977083  71.9304848
  37.3843948 113.3909806  64.0881366  37.9697385 112.6453494  64.2209270
  37.1868787 113.7013763  64.9718030  40.2382604 116.4261053  59.1043809
  39.5692979 116.9107181  58.6207849  40.0995473 116.6730274  60.0187187
  31.9761603 105.9615406  62.8085809  32.0145703 105.4278997  63.6022927
  31.4701896 105.4350612  62.1896786  44.3787872 118.4604797  65.7026467
  44.9306180 118.6236418  66.4675552  44.7194066 119.0509235  65.0306492
  39.3552365 100.8079947  66.3048352  39.4193692 101.6694778  65.8925749
  39.2919486 100.1953948  65.5720710  38.8304638 102.8803079  69.9521386
  39.4576677 102.4980156  70.5658910  37.9732557 102.6617281  70.3177078
  49.2298746 113.2866054  71.5575121  49.7738650 113.8996013  71.0630076
  48.6485591 113.8445633  72.0742134  35.6070181 104.6879508  55.8839741
  35.9023622 103.7790187  55.8306794  34.7058216 104.6667248  55.5620743
  47.5156259 116.4086772  62.6890149  47.3907399 115.6076512  62.1801095
  48.1735351 116.9032966  62.2004119  39.1364428 102.7635505  61.8667289
  38.4151013 103.3771473  61.7274763  39.9257683 103.2993270  61.7883935
  49.5791168 114.2095792  64.3169699  48.6321503 114.0901144  64.2448026
  49.9273941 113.3218290  64.3995961  41.9390741 100.0989931  68.1407941
  42.4625143 100.3452228  68.9034250  41.7203074 100.9309966  67.7211078
  37.3358022 102.3693606  56.0079066  37.0070728 101.4890985  55.8254172
  37.6897393 102.3141275  56.8955455  46.5837601 114.0048509  60.5174051
  46.4362564 113.0765216  60.6981621  47.4091095 114.0268599  60.0331127
  40.4499845 102.6566576  56.3754544  40.7895918 103.1852497  55.6533152
  40.8971966 102.9946982  57.1513110  50.1871723 114.8277067  61.6038924
  51.1118270 114.6219929  61.4663375  50.0187026 114.5793469  62.5128266
  43.1443286 101.0403626  65.8257612  42.8040107 100.2411440  66.2278291
  42.4382292 101.3405337  65.2534445  43.7959758  98.1252939  64.2784935
  44.6185827  97.6513417  64.1563825  44.0397822  98.9043423  64.7783621
  42.4367993 101.1541197  54.5747836  43.1576355 101.5322450  54.0711553
  41.8133297 101.8730074  54.6782814  46.5799115 101.8586346  55.5106169
  46.7962730 102.7410984  55.2094997  46.0993183 101.4672560  54.7811811
  41.3198337 104.8172060  62.0876913  41.1742918 105.1312363  62.9801195
  40.8423540 105.4356960  61.5347812  43.1794720 101.8074607  62.1357803
  43.1656288 100.9115701  61.7990101  43.8967148 101.8145271  62.7696089
  45.0320850 102.2411948  64.1810930  44.7738628 103.1629018  64.1795261
  44.5005891 101.8442382  64.8711394  49.9767039 115.3462735  56.9601016
  50.1503917 114.7809157  56.2074868  50.4695930 116.1463630  56.7780506
  35.7943999 107.3577404  65.0264574  35.2497467 108.1337212  65.1584849
  36.6723349 107.7048208  64.8683696  42.5831616 100.6888988  57.4045373
  42.7047527  99.7605634  57.6036260  42.2933658 100.7027674  56.4923688
  45.4522806  98.3743898  60.5412093  45.4744503  98.4383231  59.5864072
  45.8690865  97.5348407  60.7352599  55.8306430 108.1099158  58.5791315
  56.2737576 107.3606483  58.1810439  54.9532941 108.1009294  58.1965047
  50.9642212 114.6629499  54.0597914  51.6593116 115.2836192  54.2785229
  51.3065362 113.8124850  54.3350292  36.5810021 106.4847300  67.9194731
  35.8391757 106.6329936  68.5059362  36.2602765 106.7455566  67.0561481
  52.8633635 112.1129205  55.5885245  53.3884959 112.4516478  54.8634565
  52.7755987 111.1776220  55.4048379  44.5253683 116.0263278  67.7175121
  44.8340810 115.7812425  68.5897821  45.3229165 116.2309917  67.2293991
  44.5474296 118.1801188  59.9480498  44.1079286 117.6877567  60.6413355
  45.2982412 117.6374156  59.7072573  37.0266634 114.3712729  59.9505126
  37.8524654 114.0716501  59.5703769  36.6760686 113.6020351  60.3994915
  41.9948168 113.7239197  62.0202799  41.3728177 113.0609902  61.7205027
  42.6653035 113.7500329  61.3376447  35.2275240 112.2899055  60.9094059
  34.3907148 111.8621230  60.7278061  35.1998885 112.4831499  61.8464851
  42.0672695 102.2020985  71.6135306  42.1160851 103.0783108  71.2313075
  42.6095209 101.6598378  71.0406949  52.5527541 112.7462108  70.8936443
  51.7623085 112.7286247  70.3540942  52.3160895 113.2850402  71.6485479
  52.6725416 109.5954575  68.2069171  52.7223421 109.4304582  69.1484694
  52.5639339 108.7281834  67.8167052  41.5561675 112.2743120  55.4961260
  41.7049795 112.9578585  54.8427933  42.3628118 112.2548211  56.0110716
  49.9629178 105.5785503  69.5228478  50.8639041 105.4391968  69.2312476
  50.0377153 105.7439958  70.4626655  44.2971984 102.9552358  68.3681664
  43.4275293 103.2485924  68.0964253  44.5331464 103.5392803  69.0888928
  54.1743613 112.0151516  68.4511193  53.8828421 112.3781497  69.2874654
  53.5615744 111.3018525  68.2724525  55.3739295 109.5804396  60.9713763
  56.2086186 110.0194200  61.1351323  55.5098424 109.1043049  60.1522009
  52.4230801 107.1384131  66.9191251  52.8984923 107.3311777  66.1110102
  51.4996366 107.1943317  66.6734634  39.3114308 108.3008298  56.5022329
  39.0660349 107.3970628  56.7002539  39.4810222 108.3025449  55.5601807
  47.0011017  99.1731974  65.8847085  47.5192961  99.9093001  65.5593573
  46.6466150  99.4795968  66.7193844  38.5809955 104.0336656  54.0008490
  37.8879200 104.1081011  53.3448526  38.3361707 103.2696999  54.5230007
  47.2523612  95.5932257  61.4047981  47.5325365  94.9255446  62.0308408
  48.0374219  95.7861353  60.8922645  45.0557080 114.7691251  52.9673007
  44.4831047 115.3881438  52.5143479  45.6289874 115.3190613  53.5012929
  51.1232470 104.0149891  65.1519556  52.0749893 104.1147989  65.1731780
  50.9535920 103.2228160  65.6617641  49.1446849 101.1005474  65.3378957
  48.5496782 101.3810487  64.6425446  48.8596546 101.5899375  66.1095698
  48.2754340 115.0528401  54.0981590  49.2085013 114.9873963  54.3014465
  48.1877553 115.8884668  53.6396122  50.9042357 114.3694271  51.0585537
  50.8255988 114.0354135  51.9521295  51.7252023 114.8616039  51.0577010
  53.6020548 107.2356011  64.2661856  53.5696868 106.2972011  64.4521540
  54.2121171 107.3140047  63.5327681  45.4403879 106.1052064  50.3089060
  46.3862983 105.9758272  50.3777478  45.0618124 105.3666726  50.7858488
  53.7515036 104.0267054  64.3120139  53.2354085 103.2425511  64.1250068
  54.6354985 103.6985771  64.4766659  51.4125763  97.7708070  60.2715952
  51.2150584  97.4623158  61.1559284  52.0225469  98.4969709  60.4013882
  59.4197098 108.2972018  63.4067893  60.1500486 108.0357306  63.9675596
  58.8104043 107.5600739  63.4469961  57.5012395 106.4379880  64.0042344
  56.7745558 106.3035845  63.3958835  57.0859682 106.7456709  64.8099062
  45.3242571 110.1569810  71.7689717  46.2445581 110.3348409  71.9629763
  45.2892154 109.2125855  71.6169416  43.6246796 104.0302040  50.2443945
  42.7178251 103.7335153  50.3206659  43.9022777 103.7331858  49.3778231
  34.5424736 105.3508403  60.6942992  34.2227520 104.4973712  60.4017366
  33.9958164 105.5656982  61.4500959  38.3204644 108.0670844  64.4112498
  38.5390653 108.9987952  64.4300532  38.7330418 107.7078819  65.1967302
  45.2408861  98.5738930  56.3988186  44.4309590  98.2286015  56.7743433
  45.9293278  98.2646473  56.9875798  47.1699410  97.6516977  58.0212483
  47.7230448  98.0712430  58.6802506  47.4069496  96.7252725  58.0635439
  43.1932509 103.6404050  73.8015247  43.0929236 104.5898407  73.7327338
  42.9754051 103.3122289  72.9291317  42.3945580 100.8888975  50.3855924
  43.2564744 101.2143874  50.6451742  42.5795925 100.1020471  49.8728990
  34.4112996 108.9711315  62.6636113  33.7176468 108.5565268  62.1506068
  35.1585987 109.0131851  62.0669532  50.5478217  99.7617502  57.5291147
  49.9676886 100.4202306  57.1469200  50.2814150  98.9394846  57.1178565
  48.9981783  99.1622559  59.7312468  49.4981562  99.2739094  58.9226787
  49.6417391  98.8583612  60.3713276  43.0563779 107.0701189  72.6180309
  42.5730861 107.8701549  72.8244198  43.1424718 107.0809134  71.6647753
  36.3249739 108.9029569  60.5402128  36.3020427 109.0017256  59.5884011
  36.6350375 109.7494720  60.8619294  38.9837117 110.9605724  64.6548742
  39.9380370 110.9289666  64.5878674  38.7849640 110.4996347  65.4698968
  39.5736499 109.5306840  67.2219540  40.3929388 110.0250918  67.2454377
  39.8473306 108.6138808  67.1937108  49.3303095 101.9217592  56.5847496
  48.4428950 102.2067243  56.3667690  49.7457084 101.7611355  55.7374773
  52.6817631 101.9464113  60.3001835  53.4578021 102.4360566  60.5726452
  51.9565765 102.3722167  60.7573704  55.1190190 102.6591732  61.3575776
  55.7134680 102.4187468  60.6469084  55.1916773 101.9398863  61.9849312
  37.3387345 116.5025343  61.6718940  37.2041813 115.7425744  61.1056938
  36.9219408 117.2266243  61.2047729  48.4746308 111.6862267  50.6795516
  49.1782158 111.8912269  51.2953171  47.7508957 112.2539029  50.9444599
  49.3044119 107.4372128  56.7997786  49.2479320 107.8940679  55.9605418
  49.8572461 106.6762813  56.6220629  53.1148925 103.2261860  57.6247905
  52.8585859 102.8258496  58.4556113  52.4901793 103.9405654  57.4998044
  57.4261262 105.9657933  60.1319197  56.8660820 106.0351122  60.9050759
  56.8204766 105.7898918  59.4118693  40.4956471 117.3994660  61.8837383
  40.3788855 118.3440093  61.7816073  39.6748917 117.0968222  62.2723182
  50.3833006 112.1244796  52.7293976  51.2178610 111.6925994  52.5471450
  50.2217349 111.9526810  53.6570870  50.0378898 108.6276909  54.0950315
  49.9827702 108.4621181  53.1538759  49.4124953 109.3352942  54.2512505
  34.8271413 103.8644974  67.9211737  35.4730277 103.3543928  68.4098962
  34.6188564 104.6013655  68.4955162  47.3524805 110.9325821  73.4203878
  48.2215965 111.1066473  73.0590513  46.8731557 111.7520238  73.2979607
  43.3475023  98.1285018  53.6735633  43.3353693  99.0726858  53.8303904
  44.2398445  97.9455164  53.3795095  41.5210985 118.0522922  65.0993311
  42.4238232 118.0846532  65.4159806  41.2948355 117.1223373  65.1139647
  43.2764587 116.8053909  61.7603390  42.3260218 116.8055770  61.6467762
  43.5797073 116.0586643  61.2439425  47.1627143  94.7227795  57.9281570
  46.3959539  94.1686282  58.0738253  47.5737848  94.7949664  58.7895722
  39.1668904 101.0112591  72.0186751  40.0300365 100.6549396  72.2290076
  38.5934315 100.6726486  72.7062156  59.0117281 122.6414447  62.8249152
  59.6495691 122.5221194  62.1212492  58.8938124 123.5895291  62.8837105
  55.8206987 122.5941875  62.7610677  55.4825499 122.4782940  61.8731212
  56.6896755 122.1933040  62.7411683  56.3026770 123.7476727  68.7196883
  56.2915411 123.3529525  67.8477386  56.4647410 123.0142800  69.3130654
  53.5215267 121.3630123  52.0927617  53.7740787 120.8411644  51.3311080
  52.5839826 121.1996268  52.1954301  58.5658549 120.3665901  59.9002360
  59.3521639 119.9485324  59.5492777  58.8297254 121.2711993  60.0684009
  63.9666976 120.3041134  60.8035339  64.6992148 119.7340351  61.0373168
  63.2106332 119.9162735  61.2441845  55.5843096 122.7268376  57.9998681
  55.2201303 122.1998997  58.7111603  56.4410212 122.3366845  57.8265167
  61.4892397 114.0162708  65.2629948  61.1575722 114.8858119  65.0391163
  60.8938010 113.6998992  65.9423978  55.2248583 117.7558275  52.9960030
  55.3922986 118.6238512  53.3630501  55.0345752 117.9185557  52.0721319
  61.3821060 118.7357794  62.3423298  60.4737937 118.6673203  62.0482059
  61.3308656 119.2129739  63.1705123  55.2037804 120.2115933  53.9806697
  55.0837429 120.6572984  54.8192177  54.5090392 120.5601251  53.4220235
  55.4561926 120.1547440  70.2858195  54.6795260 120.7141360  70.2761060
  56.0952489 120.6404223  70.8073065  63.2482707 116.9374233  64.1201172
  62.6057087 117.2306766  63.4740966  62.7437635 116.8227153  64.9254368
  60.9022870 120.6837406  54.8087031  61.8140726 120.9164793  54.6334728
  60.3932517 121.2674450  54.2462109  59.1863638 125.1062034  68.4448323
  59.5946994 124.6644444  67.7002956  58.4640899 124.5314661  68.6982516
  55.5394708 120.0434641  65.8181880  56.3855903 120.4674054  65.9616529
  55.4793346 119.3868265  66.5120443  58.6894153 117.7039009  67.4763054
  58.4455085 118.4581069  66.9397330  58.9654084 118.0824357  68.3110301
  60.6432616 124.2477621  66.1540320  60.8549511 124.8909381  65.4774701
  60.5962364 123.4139938  65.6862250  58.2458845 116.8595442  63.0576892
  57.3843324 117.1576696  63.3493629  58.2721280 117.0765841  62.1257924
  53.9989300 121.5260785  56.2740263  54.7013344 121.9781829  56.7414189
  53.6669929 120.8844604  56.9020156  52.4469662 120.1172542  70.6491472
  51.8168323 120.7988822  70.8826869  52.3405750 120.0055623  69.7044610
  47.7414634 119.7844338  61.5757396  46.9513688 120.0401866  61.0997507
  48.2325882 120.5992675  61.6809437  49.6929380 120.1488917  58.5340873
  48.8960543 120.2607611  59.0524368  49.4654972 120.4875569  57.6681763
  69.8484437 123.4688325  60.6747648  69.0948145 122.8995723  60.5191653
  69.9831978 123.4350990  61.6218283  51.7250405 114.4193307  73.0116723
  51.3317350 113.8659506  73.6864367  52.5416545 114.7303886  73.4023240
  54.6418366 115.8351186  70.6036980  55.3828079 116.4358340  70.5241442
  54.8736288 115.0928824  70.0455022  49.7859704 121.0207554  68.8815209
  49.6713219 120.1192811  69.1822308  48.9304221 121.2671251  68.5300026
  58.5875529 111.8632289  64.8801261  58.2439798 112.7533931  64.8040372
  58.9554491 111.6733947  64.0170846  58.5525811 121.8540901  53.3873696
  58.0372435 122.6245505  53.6262084  58.2803120 121.1806037  54.0106758
  56.1372922 116.6990601  58.4458935  55.2814519 116.3097452  58.2664573
  56.5499874 116.7782562  57.5858720  57.6672069 114.2336945  62.8450494
  57.1636865 114.1967080  62.0318300  57.9602676 115.1429687  62.9047151
  53.9114955 114.3175674  61.8516676  54.7767952 114.1218483  61.4922566
  53.9792464 114.0886026  62.7786033  63.5260085 124.6073255  55.3226870
  62.7489528 124.2684415  54.8782032  64.2051566 124.6125878  54.6481835
  58.3412115 119.7267993  55.2133477  58.0362250 120.0414142  56.0643621
  59.2942557 119.8049413  55.2560810  61.7651392 124.0807236  61.9793478
  61.1075067 124.7706498  62.0673606  62.5691792 124.4703668  62.3227464
  51.5177274 116.5477882  59.2233043  52.0921026 116.3253064  58.4906236
  52.1048256 116.6166577  59.9761644  60.5756851 122.4351609  60.0297420
  61.0888733 123.0681601  60.5319129  61.2258075 121.8352805  59.6640780
  51.8446861 118.5782343  53.2428928  51.0084173 118.9157030  53.5638203
  51.7051631 118.4431323  52.3056065  53.8199942 113.4219131  57.9508112
  53.1664354 113.1068148  57.3264727  53.7780416 112.7994872  58.6767935
  54.9311147 123.7038426  49.8661404  54.0238208 123.4727680  50.0652553
  55.4282179 122.9076045  50.0535386  57.0537682 119.9101065  62.2755760
  56.1360243 120.1316012  62.1177448  57.4697826 119.9847375  61.4167467
  57.8372730 121.3092480  57.4058440  58.5844549 121.8213878  57.0965562
  58.1064319 120.9876533  58.2662834  56.1099380 123.8051021  54.3885395
  55.2010599 123.5210054  54.4857864  56.1394464 124.2250100  53.5288701
  60.2851567 118.3449597  59.3877230  59.5474324 117.8326983  59.7187472
  60.5378340 117.9049978  58.5760506  60.3863194 111.1225849  59.9818999
  60.6922071 110.2623212  59.6944914  61.1115799 111.7143469  59.7817993
  54.6584274 121.4179642  60.4895190  54.7132884 120.4653478  60.4137667
  53.8475476 121.5739081  60.9736488  52.5976634 120.0356701  58.2485569
  51.7844499 120.3350872  58.6550761  53.0935628 119.6412390  58.9660051
  58.1950846 120.4998526  67.0800463  58.5500233 120.7269999  67.9394928
  58.8422977 120.8316903  66.4577718  63.9248583 123.6216962  57.7849792
  63.7866481 123.8118558  56.8570981  63.5684801 124.3836345  58.2417843
  52.0890709 117.6075057  63.8646804  52.7290088 117.4663816  63.1669767
  51.2568239 117.3209570  63.4885406  63.9517962 125.6893489  62.7961063
  64.3854469 125.5968778  63.6444117  64.6649543 125.6650989  62.1581079
  49.1733776 121.0520569  56.0541549  48.2431364 120.9905025  56.2711511
  49.2691248 120.5296522  55.2578190  49.0919325 117.5775382  58.6419791
  49.3526142 118.4920715  58.5328951  49.9136497 117.1099824  58.7916403
  50.5644250 118.9913139  65.8118615  51.2367304 118.7830501  65.1631264
  49.7374037 118.7935225  65.3723847  64.8133512 125.7317189  65.3293949
  65.0069402 126.6363000  65.5753224  64.7134130 125.2724609  66.1632534
  56.4669822 115.6175080  67.8284276  55.8197737 116.3165030  67.7348752
  57.2370838 116.0511224  68.1960524  56.6433957 123.4555845  65.8881096
  57.5726017 123.6067005  65.7150063  56.2224987 123.5439866  65.0329742
  50.9671748 122.2655742  66.5721052  50.8291546 121.5335981  67.1732591
  51.8776671 122.1764642  66.2905240  59.9286695 124.2044146  51.3205531
  59.3115866 123.4790975  51.2238583  59.4603184 124.9653507  50.9772605
  53.5954048 121.9775701  66.0604732  54.3053667 121.3368894  66.0191350
  53.5523357 122.2288596  66.9830913  52.3082982 118.9640919  67.8800371
  51.7720339 118.5131658  68.5321968  51.7199691 119.0986828  67.1370836
  51.7185241 118.4229571  50.4426835  50.8414708 118.3018371  50.0789082
  52.1942994 117.6315649  50.1905724  48.0422104 118.0996927  64.9653366
  47.9580292 117.4922597  64.2303776  47.2204810 118.5905945  64.9662862
  58.2145817 116.5850491  60.3323561  58.7114517 115.8320453  60.0124631
  57.4432799 116.6214807  59.7666770  66.0675575 122.2890856  61.9741852
  66.0565451 123.1715571  61.6035786  65.1992954 121.9362407  61.7796389
  54.7980786 118.7267874  60.0595246  54.4278574 118.1738914  60.7476151
  55.2939879 118.1226007  59.5070246  62.6848149 121.1839497  58.4412018
  63.1508602 122.0167489  58.3672321  63.1355650 120.7184479  59.1457277
  60.6564812 113.5520084  62.4802920  59.7427892 113.7824311  62.6485127
  61.0857914 113.6358528  63.3316952  60.4271271 121.7409976  64.9802814
  59.7742721 121.9885883  64.3255267  60.8051651 120.9274114  64.6465291
  56.4758844 122.4829787  71.4668851  55.7999481 122.3823916  72.1371226
  57.2986478 122.3269001  71.9304848  50.1946120 116.1371864  66.3048352
  50.2587446 116.9986695  65.8925749  50.1313240 115.5245866  65.5720710
  49.6698392 118.2094997  69.9521386  50.2970431 117.8272074  70.5658910
  48.8126311 117.9909199  70.3177078  46.4463935 120.0171426  55.8839741
  46.7417376 119.1082104  55.8306794  45.5451971 119.9959165  55.5620743
  49.9758182 118.0927423  61.8667289  49.2544768 118.7063390  61.7274763
  50.7651438 118.6285187  61.7883935  52.7784496 115.4281849  68.1407941
  53.3018897 115.6744146  68.9034250  52.5596829 116.2601884  67.7211078
  48.1751777 117.6985524  56.0079066  47.8464483 116.8182903  55.8254172
  48.5291147 117.6433192  56.8955455  51.2893600 117.9858493  56.3754544
  51.6289672 118.5144415  55.6533152  51.7365720 118.3238900  57.1513110
  53.9837041 116.3695544  65.8257612  53.6433861 115.5703357  66.2278291
  53.2776047 116.6697255  65.2534445  54.6353513 113.4544857  64.2784935
  55.4579582 112.9805335  64.1563825  54.8791576 114.2335340  64.7783621
  53.2761747 116.4833115  54.5747836  53.9970110 116.8614368  54.0711553
  52.6527051 117.2021992  54.6782814  57.4192870 117.1878264  55.5106169
  57.6356484 118.0702902  55.2094997  56.9386937 116.7964477  54.7811811
  52.1592091 120.1463977  62.0876913  52.0136672 120.4604280  62.9801195
  51.6817295 120.7648878  61.5347812  54.0188474 117.1366525  62.1357803
  54.0050043 116.2407618  61.7990101  54.7360902 117.1437189  62.7696089
  55.8714605 117.5703865  64.1810930  55.6132383 118.4920936  64.1795261
  55.3399645 117.1734300  64.8711394  53.4225370 116.0180905  57.4045373
  53.5441281 115.0897552  57.6036260  53.1327412 116.0319591  56.4923688
  56.2916560 113.7035816  60.5412093  56.3138257 113.7675149  59.5864072
  56.7084619 112.8640325  60.7352599  66.6700185 123.4391075  58.5791315
  67.1131331 122.6898401  58.1810439  65.7926695 123.4301212  58.1965047
  52.9066450 117.5312903  71.6135306  52.9554605 118.4075026  71.2313075
  53.4488964 116.9890296  71.0406949  63.5119170 124.9246492  68.2069171
  63.5617175 124.7596500  69.1484694  63.4033094 124.0573751  67.8167052
  60.8022933 120.9077420  69.5228478  61.7032796 120.7683885  69.2312476
  60.8770907 121.0731875  70.4626655  55.1365738 118.2844275  68.3681664
  54.2669047 118.5777841  68.0964253  55.3725218 118.8684720  69.0888928
  66.2133050 124.9096314  60.9713763  67.0479941 125.3486118  61.1351323
  66.3492178 124.4334967  60.1522009  63.2624555 122.4676049  66.9191251
  63.7378677 122.6603695  66.1110102  62.3390121 122.5235234  66.6734634
  57.8404772 114.5023892  65.8847085  58.3586716 115.2384919  65.5593573
  57.4859905 114.8087885  66.7193844  49.4203710 119.3628573  54.0008490
  48.7272955 119.4372928  53.3448526  49.1755461 118.5988917  54.5230007
  58.0917366 110.9224175  61.4047981  58.3719120 110.2547364  62.0308408
  58.8767973 111.1153270  60.8922645  61.9626224 119.3441809  65.1519556
  62.9143647 119.4439906  65.1731780  61.7929675 118.5520077  65.6617641
  59.9840604 116.4297392  65.3378957  59.3890536 116.7102405  64.6425446
  59.6990301 116.9191293  66.1095698  64.4414302 122.5647928  64.2661856
  64.4090622 121.6263929  64.4521540  65.0514926 122.6431965  63.5327681
  56.2797633 121.4343981  50.3089060  57.2256738 121.3050189  50.3777478
  55.9011878 120.6958643  50.7858488  64.5908791 119.3558972  64.3120139
  64.0747839 118.5717428  64.1250068  65.4748739 119.0277688  64.4766659
  62.2519518 113.0999987  60.2715952  62.0544339 112.7915076  61.1559284
  62.8619223 113.8261626  60.4013882  70.2590852 123.6263935  63.4067893
  70.9894241 123.3649223  63.9675596  69.6497798 122.8892657  63.4469961
  68.3406149 121.7671798  64.0042344  67.6139313 121.6327763  63.3958835
  67.9253436 122.0748626  64.8099062  54.4640550 119.3593958  50.2443945
  53.5572006 119.0627070  50.3206659  54.7416531 119.0623776  49.3778231
  56.0802616 113.9030847  56.3988186  55.2703344 113.5577932  56.7743433
  56.7687033 113.5938391  56.9875798  58.0093164 112.9808894  58.0212483
  58.5624203 113.4004348  58.6802506  58.2463251 112.0544642  58.0635439
  54.0326263 118.9695968  73.8015247  53.9322990 119.9190325  73.7327338
  53.8147806 118.6414207  72.9291317  53.2339335 116.2180893  50.3855924
  54.0958499 116.5435791  50.6451742  53.4189679 115.4312389  49.8728990
  61.3871971 115.0909419  57.5291147  60.8070640 115.7494223  57.1469200
  61.1207904 114.2686764  57.1178565  59.8375538 114.4914477  59.7312468
  60.3375316 114.6031012  58.9226787  60.4811146 114.1875530  60.3713276
  53.8957534 122.3993107  72.6180309  53.4124615 123.1993467  72.8244198
  53.9818473 122.4101052  71.6647753  60.1696849 117.2509510  56.5847496
  59.2822704 117.5359160  56.3667690  60.5850838 117.0903273  55.7374773
  63.5211385 117.2756031  60.3001835  64.2971776 117.7652483  60.5726452
  62.7959520 117.7014085  60.7573704  65.9583944 117.9883650  61.3575776
  66.5528435 117.7479386  60.6469084  66.0310528 117.2690781  61.9849312
  60.1437873 122.7664046  56.7997786  60.0873075 123.2232597  55.9605418
  60.6966216 122.0054730  56.6220629  63.9542679 118.5553778  57.6247905
  63.6979613 118.1550413  58.4556113  63.3295547 119.2697572  57.4998044
  68.2655017 121.2949851  60.1319197  67.7054575 121.3643040  60.9050759
  67.6598520 121.1190835  59.4118693  60.8772652 123.9568827  54.0950315
  60.8221456 123.7913098  53.1538759  60.2518708 124.6644860  54.2512505
  45.6665167 119.1936891  67.9211737  46.3124031 118.6835845  68.4098962
  45.4582319 119.9305573  68.4955162  54.1868778 113.4576936  53.6735633
  54.1747448 114.4018776  53.8303904  55.0792200 113.2747081  53.3795095
  58.0020897 110.0519713  57.9281570  57.2353293 109.4978199  58.0738253
  58.4131602 110.1241581  58.7895722  50.0062658 116.3404508  72.0186751
  50.8694120 115.9841313  72.2290076  49.4328069 116.0018403  72.7062156
  69.4269283 127.1924207  64.8801261  69.0833552 128.0825849  64.8040372
  69.7948246 127.0025865  64.0170846  71.2256949 126.4517766  59.9818999
  71.5315826 125.5915130  59.6944914  71.9509554 127.0435386  59.7817993
  71.4958567 128.8812002  62.4802920  70.5821647 129.1116229  62.6485127
  71.9251668 128.9650446  63.3316952  68.9311121 126.2516092  61.4047981
  69.2112874 125.5839281  62.0308408  69.7161728 126.4445188  60.8922645
  73.0913272 128.4291905  60.2715952  72.8938093 128.1206993  61.1559284
  73.7012978 129.1553544  60.4013882  68.8486919 128.3100812  58.0212483
  69.4017957 128.7296265  58.6802506  69.0857005 127.3836560  58.0635439
  68.8414652 125.3811630  57.9281570  68.0747048 124.8270117  58.0738253
  69.2525357 125.4533499  58.7895722   4.8148510  23.0016981  49.5494459
   5.4526920  22.8823729  48.8457799   4.6969353  23.9497825  49.6082411
   1.6238216  22.9544409  49.4855984   1.2856727  22.8385474  48.5976519
   2.4927984  22.5535574  49.4656990   2.1057999  24.1079261  55.4442189
   2.0946640  23.7132059  54.5722693   2.2678638  23.3745334  56.0375961
   3.0624590  28.4750854  40.7867340   2.4112570  29.0604934  40.4001353
   3.8568953  29.0057048  40.8462377   4.3689778  20.7268435  46.6247667
   5.1552867  20.3087858  46.2738084   4.6328482  21.6314527  46.7929315
   4.5399855  26.1641285  41.3236324   3.9045688  26.2375912  42.0357229
   4.2097262  26.7534884  40.6455403   9.7698205  20.6643668  47.5280646
  10.5023377  20.0942885  47.7618475   9.0137561  20.2765269  47.9687151
   1.3874325  23.0870910  44.7243988   1.0232532  22.5601531  45.4356910
   2.2441441  22.6969379  44.5510473   7.2923626  14.3765242  51.9875254
   6.9606950  15.2460653  51.7636469   6.6969239  14.0601526  52.6669285
   1.0279812  18.1160810  39.7205337   1.1954214  18.9841046  40.0875808
   0.8376981  18.2788091  38.7966626   3.7855145  26.5777788  51.3871167
   3.4855868  27.4802827  51.2786974   3.4406205  26.3109972  52.2392320
   7.1852289  19.0960329  49.0668604   6.2769166  19.0275737  48.7727365
   7.1339885  19.5732274  49.8950430   1.2593155  20.5149974  57.0103502
   0.4826489  21.0743894  57.0006366   1.8983718  21.0006757  57.5318372
   9.0513935  17.2976767  50.8446478   8.4088316  17.5909300  50.1986273
   8.5468864  17.1829687  51.6499675   6.7054099  21.0439940  41.5332337
   7.6171955  21.2767327  41.3580035   6.1963746  21.6276984  40.9707416
   4.9894867  25.4664568  55.1693630   5.3978223  25.0246979  54.4248262
   4.2672128  24.8917196  55.4227823   1.3425937  20.4037175  52.5427187
   2.1887132  20.8276588  52.6861836   1.2824574  19.7470799  53.2365750
   5.3123681  26.0265759  48.9245919   4.6832544  26.1911473  48.2221987
   4.9249343  26.4407368  49.6956883   9.1912913  26.9620197  46.2790283
   8.5063951  27.3419098  45.7287316   9.2756763  27.5715523  47.0122230
   4.4925382  18.0641543  54.2008361   4.2486314  18.8183604  53.6642636
   4.7685313  18.4426891  55.0355608   6.4463845  24.6080156  52.8785626
   6.6580740  25.2511915  52.2020007   6.3993593  23.7742472  52.4107556
   4.0490074  17.2197976  49.7822198   3.1874553  17.5179230  50.0738936
   4.0752508  17.4368375  48.8503231   0.8651643  25.7640167  46.1896004
   1.3289989  26.0427870  45.4000626   0.6008441  24.8623611  46.0069095
   7.5609673  27.4852111  51.0507984   8.3827116  27.0832298  50.7690665
   7.5572076  27.3820345  52.0024099   1.3266276  27.0336154  53.2068694
   1.3910709  27.4956562  54.0426866   0.6177200  26.4033519  53.3351004
  15.6515666  23.8290859  47.3992955  14.8979374  23.2598258  47.2436959
  15.7863207  23.7953524  48.3463590   1.0414294  28.7004262  43.0747674
   0.9059969  29.5455797  43.5032522   1.5824106  28.9023539  42.3113608
   2.6682770  29.3227828  57.2048016   2.2246624  28.5364207  56.8868921
   3.3299984  29.5106979  56.5391907   4.7664008  29.6030628  55.2329418
   4.7482484  30.4239509  54.7409687   5.6883928  29.4784703  55.4579559
   1.2237062  27.1174758  56.0752926   1.7565399  26.3563046  55.8452234
   0.6951144  26.8248409  56.8177081   4.3557040  22.2143435  40.1119003
   3.8403664  22.9848039  40.3507390   4.0834349  21.5408571  40.7352064
   9.3291314  24.9675789  42.0472176   8.5520757  24.6286949  41.6027338
  10.0082795  24.9728413  41.3727141   4.1443343  20.0870527  41.9378784
   3.8393479  20.4016676  42.7888927   5.0973785  20.1651947  41.9806117
   2.5889775  26.2460750  43.5871738   2.0611137  25.5113510  43.2744976
   2.0877278  27.0235427  43.3411706   7.5682621  24.4409771  48.7038784
   6.9106296  25.1309032  48.7918913   8.3723020  24.8306203  49.0472771
   6.3788080  22.7954143  46.7542726   6.8919962  23.4284135  47.2564436
   7.0289304  22.1955339  46.3886086   3.6410454  32.7738468  39.5103397
   2.9672153  33.0770164  40.1188355   4.0276276  33.5767548  39.1608854
   2.8568911  20.2703599  49.0001067   1.9391472  20.4918546  48.8422755
   3.2729054  20.3449909  48.1412774   3.6403959  21.6695015  44.1303747
   4.3875778  22.1816412  43.8210869   3.9095548  21.3479067  44.9908140
   1.9130609  24.1653555  41.1130701   1.0041828  23.8812588  41.2103171
   1.9425693  24.5852634  40.2534008   7.1449876  27.7760145  44.8821869
   6.6912203  26.9351055  44.9387059   6.5143843  28.4121543  45.2196649
   6.0882796  18.7052131  46.1122536   5.3505553  18.1929517  46.4432779
   6.3409569  18.2652512  45.3005813   5.5882815  29.6136641  45.8171687
   5.8805790  30.1741699  45.0984053   6.0981436  29.9065202  46.5724846
   1.6106697  25.7062299  38.4518780   1.1726127  24.9898158  37.9924417
   2.3517137  25.9338414  37.8903871   0.5516441  30.3916993  46.9065140
   0.5092619  30.6177839  45.9773672   1.4679139  30.1580367  47.0550941
   3.9982074  20.8601060  53.8045769   4.3531462  21.0872533  54.6640235
   4.6454206  21.1919437  53.1823025   9.7279811  23.9819496  44.5095098
   9.5897710  24.1721092  43.5816288   9.3716030  24.7438879  44.9663149
   9.7549191  26.0496023  49.5206370  10.1885698  25.9571312  50.3689424
  10.4680772  26.0253523  48.8826386   3.4877086  29.6498117  51.0539470
   3.5414108  30.2189053  51.8217186   2.6191867  29.8200002  50.6893508
  10.6164741  26.0919724  52.0539255  10.8100631  26.9965534  52.2998530
  10.5165359  25.6327143  52.8877840   5.6779849  26.2426466  57.6280136
   5.5265356  26.0137018  56.7110220   5.6684529  27.1997068  57.6411481
   2.4465186  23.8158379  52.6126402   3.3757246  23.9669539  52.4395370
   2.0256216  23.9042400  51.7575049   1.8401669  32.9418140  41.7250476
   2.0153425  32.4706183  42.5396099   1.1534457  33.5683906  41.9531737
   2.7958733  27.2190646  47.7713778   2.4608565  27.1791416  48.6671428
   2.2962678  26.5535362  47.2984188   5.7317924  24.5646681  38.0450837
   5.1147095  23.8393509  37.9483890   5.2634413  25.3256041  37.7017912
   7.3872056  29.2745589  55.7056618   7.3284602  28.5904809  55.0387201
   7.7891574  30.0164579  55.2537244   7.3889463  27.2385173  53.9370597
   6.5016242  26.9011095  54.0596996   7.9588014  26.5068204  54.1739363
   4.0177046  16.9453025  47.0568868   4.5145746  16.1922987  46.7369938
   3.2464028  16.9817341  46.4912077  11.8706804  22.6493390  48.6987159
  11.8596680  23.5318106  48.3281092  11.0024183  22.2964941  48.5041696
   3.3789300  31.7973459  53.0589999   4.0917272  32.4320924  52.9865901
   2.8879329  31.8937325  52.2430001   5.1006827  25.7024712  44.6307291
   4.1663106  25.8226174  44.4611995   5.2783495  24.7997179  44.3667301
   8.4879378  21.5442031  45.1657325   8.9539830  22.3770023  45.0917628
   8.9386879  21.0787013  45.8702584   6.5555609  27.8885853  42.1643477
   6.8315453  27.7742447  43.0737351   5.6860108  27.4903337  42.1255650
   6.2302500  22.1012510  51.7048120   5.5773950  22.3488418  51.0500573
   6.6082879  21.2876648  51.3710598   3.1909673  32.1372203  45.8076291
   3.3732068  31.3193859  46.2704043   4.0142659  32.3539896  45.3701181
   3.5251839  31.0640388  43.0691339   4.0539605  30.5532843  42.4561501
   3.7880059  30.7482919  43.9336872   2.2790073  22.8432321  58.1914158
   1.6030710  22.7426451  58.8616533   3.1017706  22.6871535  58.6550155
   1.0212855  34.1499249  52.4271774   1.5731163  34.3130870  53.1920859
   1.3619049  34.7403687  51.7551798   5.8723730  28.9760506  58.2820428
   6.4163634  29.5890464  57.7875383   5.2910575  29.5340085  58.7987441
   4.1581243  32.0981224  49.4135456   4.0332382  31.2970964  48.9046401
   4.8160334  32.5927418  48.9249426   6.2216151  29.8990244  51.0415006
   5.2746487  29.7795595  50.9693333   6.5698924  29.0112742  51.1241267
   3.2262584  29.6942961  47.2419358   3.0787547  28.7659668  47.4226928
   4.0516078  29.7163051  46.7576433   6.8296706  30.5171519  48.3284231
   7.7543254  30.3114381  48.1908682   6.6612010  30.2687920  49.2373572
   3.2224099  17.5480798  42.2351475   3.4387713  18.4305436  41.9340303
   2.7418166  17.1567012  41.5057117   6.6192022  31.0357187  43.6846322
   6.7928900  30.4703609  42.9320175   7.1120914  31.8358082  43.5025812
  12.4731414  23.7993610  45.3036622  12.9162560  23.0500935  44.9055745
  11.5957924  23.7903746  44.9210354   7.6067195  30.3523951  40.7843220
   8.3018100  30.9730644  41.0030535   7.9490345  29.5019302  41.0595598
   9.5058618  27.8023657  42.3130551  10.0309942  28.1410929  41.5879871
   9.4180971  26.8670672  42.1293686   1.1678667  31.7157730  54.4420428
   1.4765793  31.4706877  55.3143127   1.9654149  31.9204369  53.9539298
   1.1899279  33.8695640  46.6725804   0.7504269  33.3772019  47.3658661
   1.9407396  33.3268608  46.4317880   9.1952524  28.4356560  57.6181749
   8.4048068  28.4180699  57.0786249   8.9585879  28.9744854  58.3730786
   9.3150399  25.2849027  54.9314478   9.3648404  25.1199034  55.8730001
   9.2064323  24.4176286  54.5412359   6.6054162  21.2679955  56.2473784
   7.5064024  21.1286420  55.9557782   6.6802136  21.4334410  57.1871962
  10.8168596  27.7045968  55.1756499  10.5253404  28.0675949  56.0119960
  10.2040727  26.9912976  54.9969831  12.0164278  25.2698848  47.6959070
  12.8511170  25.7088652  47.8596630  12.1523407  24.7937501  46.8767315
   9.0655784  22.8278583  53.6436557   9.5409906  23.0206229  52.8355409
   8.1421350  22.8837769  53.3979941   1.6982063  30.4585703  39.6918314
   1.1256030  31.0775890  39.2388786   2.2714857  31.0085064  40.2258236
   7.7657453  19.7044343  51.8764863   8.7174876  19.8042441  51.8977087
   7.5960904  18.9122611  52.3862947   5.7871833  16.7899926  52.0624264
   5.1921765  17.0704939  51.3670752   5.5021529  17.2793827  52.8341005
   4.9179323  30.7422853  40.8226896   5.8509996  30.6768415  41.0259772
   4.8302536  31.5779120  40.3641429   7.5467340  30.0588723  37.7830844
   7.4680971  29.7248587  38.6766602   8.3677007  30.5510491  37.7822316
  10.2445531  22.9250463  50.9907163  10.2121851  21.9866463  51.1766846
  10.8546155  23.0034499  50.2572987   2.0828862  21.7946516  37.0334367
   3.0287967  21.6652724  37.1022785   1.7043107  21.0561177  37.5103795
  10.3940020  19.7161506  51.0365446   9.8779068  18.9319963  50.8495375
  11.2779968  19.3880223  51.2011965   8.0550746  13.4602522  46.9961258
   7.8575568  13.1517610  47.8804590   8.6650452  14.1864160  47.1259188
  16.0622081  23.9866469  50.1313199  16.7925469  23.7251758  50.6920903
  15.4529026  23.2495191  50.1715267  14.1437378  22.1274332  50.7287651
  13.4170542  21.9930297  50.1204142  13.7284665  22.4351161  51.5344369
   1.9667554  25.8464262  58.4935024   2.8870564  26.0242861  58.6875070
   1.9317137  24.9020307  58.3414723   7.1903200  15.4511954  44.2536454
   6.6101869  16.1096758  43.8714506   6.9239133  14.6289298  43.8423872
   5.6406767  14.8517011  46.4557774   6.1406545  14.9633546  45.6472093
   6.2842374  14.5478064  47.0958583   5.9728078  17.6112044  43.3092802
   5.0853933  17.8961695  43.0912997   6.3882067  17.4505807  42.4620079
   9.3242614  17.6358565  47.0247142  10.1003004  18.1255017  47.2971758
   8.5990748  18.0616619  47.4819011  11.7615173  18.3486184  48.0821082
  12.3559664  18.1081920  47.3714390  11.8341757  17.6293315  48.7094618
   5.1171292  27.3756719  37.4040822   5.8207142  27.5806721  38.0198478
   4.3933940  27.9433481  37.6689906   5.9469102  23.1266580  43.5243092
   5.8904303  23.5835131  42.6850725   6.4997444  22.3657265  43.3465935
   9.7573908  18.9156312  44.3493212   9.5010842  18.5152947  45.1801420
   9.1326776  19.6300106  44.2243351  14.0686246  21.6552385  46.8564503
  13.5085804  21.7245574  47.6296065  13.4629749  21.4793370  46.1364000
   7.0257989  27.8139248  39.4539282   7.8603593  27.3820446  39.2716757
   6.8642332  27.6421262  40.3816177   6.6803881  24.3171361  40.8195622
   6.6252685  24.1515633  39.8784066   6.0549936  25.0247394  40.9757811
   3.9949788  26.6220273  60.1449184   4.8640948  26.7960925  59.7835819
   3.5156540  27.4414690  60.0224914  15.6542264  38.3308899  49.5494459
  16.2920674  38.2115646  48.8457799  15.5363107  39.2789743  49.6082411
  12.4631970  38.2836327  49.4855984  12.1250482  38.1677392  48.5976519
  13.3321739  37.8827492  49.4656990   8.3218786  40.1371803  45.4752875
   7.7583651  40.0461740  44.7069162   8.2071181  39.3171708  45.9555367
  12.9451753  39.4371179  55.4442189  12.9340394  39.0423977  54.5722693
  13.1072393  38.7037251  56.0375961   5.8683218  41.6322995  48.3137095
   6.6604510  41.2913820  47.8983394   6.1079868  41.7417970  49.2339248
  13.9018345  43.8042771  40.7867340  13.2506325  44.3896852  40.4001353
  14.6962708  44.3348966  40.8462377   7.8273972  40.8931908  41.1854474
   8.6004848  40.3460895  41.0467350   8.1799371  41.7576158  41.3968935
   9.6659015  42.2208291  54.3921373   9.3748881  43.1253921  54.2768040
  10.3015999  42.2624818  55.1065443  10.5915221  39.5985139  50.9822733
  11.1878794  39.3741162  50.2679696  10.6490193  38.8569885  51.5848181
  10.1640250  37.0524574  38.8172924  10.4165770  36.5306096  38.0556387
   9.2264809  36.8890720  38.9199607  15.2083533  36.0560353  46.6247667
  15.9946622  35.6379776  46.2738084  15.4722237  36.9606445  46.7929315
  15.3793610  41.4933203  41.3236324  14.7439443  41.5667830  42.0357229
  15.0491016  42.0826802  40.6455403  20.6091960  35.9935586  47.5280646
  21.3417132  35.4234803  47.7618475  19.8531315  35.6057186  47.9687151
   9.8836539  38.9552680  41.0197299   9.7672797  38.2797584  41.6878383
   9.9938798  38.4685054  40.2029452  12.2268079  38.4162828  44.7243988
  11.8626287  37.8893448  45.4356910  13.0835195  38.0261297  44.5510473
  18.1317380  29.7057160  51.9875254  17.8000705  30.5752571  51.7636469
  17.5362993  29.3893444  52.6669285  11.8673566  33.4452727  39.7205337
  12.0347969  34.3132964  40.0875808  11.6770736  33.6080009  38.7966626
  14.6248900  41.9069706  51.3871167  14.3249623  42.8094745  51.2786974
  14.2799959  41.6401889  52.2392320   8.0761381  38.3583503  47.4207871
   7.1511878  38.2259717  47.6285563   8.3245794  39.1377722  47.9177814
  18.0246043  34.4252246  49.0668604  17.1162921  34.3567655  48.7727365
  17.9733639  34.9024191  49.8950430  11.8462787  35.9010385  40.7052003
  11.7262413  36.3467435  41.5437484  11.1515376  36.2495702  40.1465542
   5.4370192  38.0016777  48.2551660   5.5662573  38.2551255  49.1691072
   4.7567643  38.5944485  47.9356315   9.6069679  48.6714026  44.3542135
   9.5293709  49.6221852  44.4330615   9.0031323  48.3259899  45.0117061
  12.0986909  35.8441892  57.0103502  11.3220243  36.4035812  57.0006366
  12.7377472  36.3298675  57.5318372  19.8907690  32.6268685  50.8446478
  19.2482070  32.9201218  50.1986273  19.3862618  32.5121605  51.6499675
  17.5447853  36.3731858  41.5332337  18.4565710  36.6059245  41.3580035
  17.0357501  36.9568902  40.9707416  10.3533282  38.6527345  56.5721469
  11.0947966  39.1912389  56.2956292   9.6470267  39.2793634  56.7293020
  15.8288621  40.7956486  55.1693630  16.2371977  40.3538896  54.4248262
  15.1065883  40.2209113  55.4227823  12.1819691  35.7329092  52.5427187
  13.0280886  36.1568506  52.6861836  12.1218329  35.0762717  53.2365750
  16.1517436  41.3557676  48.9245919  15.5226298  41.5203390  48.2221987
  15.7643098  41.7699286  49.6956883  20.0306668  42.2912114  46.2790283
  19.3457706  42.6711016  45.7287316  20.1150517  42.9007441  47.0122230
  15.3319137  33.3933461  54.2008361  15.0880068  34.1475521  53.6642636
  15.6079067  33.7718808  55.0355608  17.2857599  39.9372073  52.8785626
  17.4974495  40.5803833  52.2020007  17.2387348  39.1034390  52.4107556
  14.8883828  32.5489894  49.7822198  14.0268307  32.8471147  50.0738936
  14.9146263  32.7660293  48.8503231  11.7045398  41.0932084  46.1896004
  12.1683743  41.3719787  45.4000626  11.4402196  40.1915529  46.0069095
   8.5969479  40.6403566  49.1275767   9.1670836  41.0690834  48.4893252
   9.1877591  40.3586151  49.8259953  10.6414284  37.2155237  42.9985569
  11.3438327  37.6676280  43.4659496  10.3094912  36.5739056  43.6265462
   9.0894645  35.8066993  57.3736779   8.4593306  36.4883274  57.6072175
   8.9830733  35.6950075  56.4289917   4.3839618  35.4738789  48.3002703
   3.5938672  35.7296318  47.8242813   4.8750865  36.2887127  48.4054743
  18.4003427  42.8144029  51.0507984  19.2220871  42.4124216  50.7690665
  18.3965830  42.7112263  52.0024099   6.3354363  35.8383369  45.2586179
   5.5385526  35.9502063  45.7769675   6.1079955  36.1770021  44.3927070
  12.1660031  42.3628072  53.2068694  12.2304463  42.8248479  54.0426866
  11.4570955  41.7325437  53.3351004   2.6677321  35.7269280  50.7317693
   2.9185359  36.6116290  50.9975269   3.2036869  35.5473881  49.9592785
  11.8808048  44.0296179  43.0747674  11.7453723  44.8747715  43.5032522
  12.4217861  44.2315457  42.3113608   8.3675388  30.1087759  59.7362030
   7.9742334  29.5553958  60.4109674   9.1841528  30.4198338  60.1268547
   5.3337446  41.5471617  43.6475599   5.8461966  42.3414868  43.7981164
   5.9860159  40.8497908  43.5809201   7.1432330  44.6637374  45.7298353
   7.3198959  45.5855338  45.5419337   7.9389164  44.3495793  46.1592732
  11.2843349  31.5245638  57.3282286  12.0253062  32.1252792  57.2486749
  11.5161272  30.7823276  56.7700329   6.4284687  36.7102006  55.6060516
   6.3138202  35.8087263  55.9067615   5.5729205  36.9565702  55.2545332
  13.5076525  44.6519746  57.2048016  13.0640379  43.8656125  56.8868921
  14.1693738  44.8398896  56.5391907   8.2663646  46.1815548  51.7308695
   8.8171071  46.0532611  50.9585689   7.4275122  46.4810437  51.3803588
  15.6057763  44.9322546  55.2329418  15.5876238  45.7531427  54.7409687
  16.5277683  44.8076621  55.4579559  12.0630817  42.4466675  56.0752926
  12.5959154  41.6854964  55.8452234  11.5344898  42.1540327  56.8177081
  15.2300512  27.5526741  51.6046568  14.8864781  28.4428383  51.5285678
  15.5979475  27.3628399  50.7416153   3.2986363  39.8760272  44.4235170
   4.1361585  40.2857280  44.2068878   3.4764630  38.9359714  44.3935364
  15.1950795  37.5435352  40.1119003  14.6797418  38.3139957  40.3507390
  14.9228103  36.8700489  40.7352064  12.7797906  32.3885053  45.1704241
  11.9239502  31.9991904  44.9909880  13.1924857  32.4677014  44.3104027
  14.3097052  29.9231396  49.5695801  13.8061848  29.8861532  48.7563606
  14.6027659  30.8324139  49.6292458  10.5539938  30.0070126  48.5761983
  11.4192935  29.8112935  48.2167872  10.6217447  29.7780478  49.5031340
  20.1685069  40.2967707  42.0472176  19.3914512  39.9578867  41.6027338
  20.8476550  40.3020330  41.3727141  14.9837098  35.4162445  41.9378784
  14.6787233  35.7308594  42.7888927  15.9367540  35.4943864  41.9806117
  13.4283530  41.5752668  43.5871738  12.9004891  40.8405427  43.2744976
  12.9271032  42.3527344  43.3411706  18.4076376  39.7701688  48.7038784
  17.7500050  40.4600950  48.7918913  19.2116775  40.1598120  49.0472771
   8.1602257  32.2372334  45.9478350   8.7346009  32.0147516  45.2151543
   8.7473240  32.3061029  46.7006951  17.2181834  38.1246061  46.7542726
  17.7313716  38.7576053  47.2564436  17.8683058  37.5247257  46.3886086
   8.4871844  34.2676795  39.9674235   7.6509157  34.6051482  40.2883510
   8.3476614  34.1325775  39.0301372  10.4624925  29.1113583  44.6753419
   9.8089337  28.7962600  44.0510034  10.4205399  28.4889323  45.4013242
  11.5736130  39.3932878  36.5906711  10.6663192  39.1622132  36.7897860
  12.0707162  38.5970497  36.7780693  14.4804209  48.1030385  39.5103397
  13.8065907  48.4062082  40.1188355  14.8670031  48.9059466  39.1608854
  13.6962665  35.5995517  49.0001067  12.7785227  35.8210464  48.8422755
  14.1122809  35.6741827  48.1412774  14.4797713  36.9986932  44.1303747
  15.2269532  37.5108329  43.8210869  14.7489303  36.6770985  44.9908140
  12.7524363  39.4945473  41.1130701  11.8435583  39.2104506  41.2103171
  12.7819447  39.9144552  40.2534008  17.9843631  43.1052062  44.8821869
  17.5305958  42.2642972  44.9387059  17.3537597  43.7413461  45.2196649
  16.9276550  34.0344048  46.1122536  16.1899307  33.5221435  46.4432779
  17.1803324  33.5944430  45.3005813  16.4276570  44.9428559  45.8171687
  16.7199544  45.5033616  45.0984053  16.9375190  45.2357120  46.5724846
  17.0288178  26.8120300  46.7064306  17.3347054  25.9517664  46.4190221
  17.7540782  27.4037921  46.5063299   3.3212534  37.2150987  45.0945903
   3.1236933  36.6220348  44.3696970   2.7659198  36.9103197  45.8121842
  11.3009257  37.1074094  47.2140497  11.3557867  36.1547930  47.1382973
  10.4900459  37.2633533  47.6981795  12.4500451  41.0354217  38.4518780
  12.0119881  40.3190076  37.9924417  13.1910892  41.2630331  37.8903871
   9.2401617  35.7251153  44.9730875   8.4269483  36.0245324  45.3796068
   9.7360611  35.3306842  45.6905358  11.3910195  45.7208910  46.9065140
  11.3486374  45.9469757  45.9773672  12.3072894  45.4872285  47.0550941
  14.8375829  36.1892978  53.8045769  15.1925217  36.4164451  54.6640235
  15.4847960  36.5211355  53.1823025  20.5673566  39.3111414  44.5095098
  20.4291464  39.5013010  43.5816288  20.2109785  40.0730796  44.9663149
   8.7315692  33.2969509  50.5892110   9.3715071  33.1558268  49.8915074
   7.8993223  33.0104022  50.2130712  20.5942945  41.3787941  49.5206370
  21.0279452  41.2863230  50.3689424  21.3074526  41.3545441  48.8826386
   9.5075996  42.5971939  46.7027103  10.3016594  42.1022259  46.5009678
   8.7967688  42.0689802  46.3394808  14.3270840  44.9790035  51.0539470
  14.3807863  45.5480971  51.8217186  13.4585622  45.1491920  50.6893508
   5.8158759  36.7415021  42.7786856   4.8856347  36.6799476  42.9956818
   5.9116231  36.2190974  41.9823497   5.7344308  33.2669834  45.3665097
   5.9951126  34.1815167  45.2574258   6.5561481  32.7994276  45.5161710
   7.2069234  34.6807591  52.5363922   7.8792287  34.4724953  51.8876571
   6.3799020  34.4829677  52.0969154  21.4558495  41.4211641  52.0539255
  21.6494385  42.3257452  52.2998530  21.3559113  40.9619060  52.8877840
  13.1094806  31.3069532  54.5529583  12.4622721  32.0059482  54.4594059
  13.8795821  31.7405676  54.9205831  16.5173604  41.5718384  57.6280136
  16.3659110  41.3428936  56.7110220  16.5078283  42.5288985  57.6411481
  13.2858940  39.1450297  52.6126402  14.2151000  39.2961456  52.4395370
  12.8649970  39.2334318  51.7575049  12.0847272  43.1700961  50.3824940
  11.9458358  42.8019746  51.2550878  11.2961868  43.6848601  50.2108898
  12.6795424  48.2710058  41.7250476  12.8547180  47.7998101  42.5396099
  11.9928212  48.8975824  41.9531737  13.6352487  42.5482564  47.7713778
  13.3002320  42.5083334  48.6671428  13.1356433  41.8827280  47.2984188
   7.6096731  37.9550194  53.2966359   7.4716529  37.2230433  53.8977898
   8.5201654  37.8659094  53.0150547  16.5711679  39.8938598  38.0450837
  15.9540849  39.1685426  37.9483890  16.1028167  40.6547959  37.7017912
  10.2379032  37.6670153  52.7850039  10.9478650  37.0263345  52.7436657
  10.1948340  37.9183048  53.7076219  18.2265810  44.6037507  55.7056618
  18.1678357  43.9196727  55.0387201  18.6285329  45.3456497  55.2537244
   8.9507966  34.6535371  54.6045678   8.4145323  34.2026110  55.2567274
   8.3624674  34.7881280  53.8616142   7.2456509  51.4199420  48.4990337
   7.4853107  52.0517945  49.1769355   6.4025706  51.0687460  48.7855696
   8.3610225  34.1124023  37.1672142   7.4839691  33.9912823  36.8034388
   8.8367978  33.3210101  36.9151030  18.2283218  42.5677091  53.9370597
  17.3409996  42.2303012  54.0596996  18.7981769  41.8360122  54.1739363
   4.6847087  33.7891379  51.6898673   4.6005276  33.1817048  50.9549082
   3.8629793  34.2800397  51.6908169  11.7584371  47.2278543  50.9031841
  11.6854542  48.0333514  51.4151145  11.3161764  47.4270509  50.0779862
  11.5474151  46.4650313  44.4134662  10.7641673  47.0071993  44.5072887
  12.2466896  46.9824293  44.8128903  14.8570801  32.2744942  47.0568868
  15.3539500  31.5214905  46.7369938  14.0857782  32.3109259  46.4912077
  22.7100558  37.9785308  48.6987159  22.6990434  38.8610023  48.3281092
  21.8417938  37.6256859  48.5041696  14.2183055  47.1265377  53.0589999
  14.9311027  47.7612842  52.9865901  13.7273083  47.2229243  52.2430001
  15.9400581  41.0316630  44.6307291  15.0056860  41.1518092  44.4611995
  16.1177250  40.1289096  44.3667301  11.4405769  34.4162325  46.7840552
  11.0703557  33.8633366  47.4721458  11.9364862  33.8120459  46.2315552
  19.3273133  36.8733949  45.1657325  19.7933585  37.7061940  45.0917628
  19.7780633  36.4078930  45.8702584   9.2694968  44.8759820  53.8795570
   9.9704428  45.5096303  54.0324964   8.7990083  45.2174552  53.1191209
  17.3949364  43.2177770  42.1643477  17.6709208  43.1034365  43.0737351
  16.5253863  42.8195255  42.1255650  17.2989796  29.2414536  49.2048226
  16.3852875  29.4718763  49.3730433  17.7282897  29.3252980  50.0562259
  17.0696254  37.4304428  51.7048120  16.4167704  37.6780335  51.0500573
  17.4476634  36.6168566  51.3710598  14.0303428  47.4664121  45.8076291
  14.2125822  46.6485777  46.2704043  14.8536414  47.6831813  45.3701181
  14.3645593  46.3932306  43.0691339  14.8933360  45.8824761  42.4561501
  14.6273813  46.0774836  43.9336872  13.1183827  38.1724239  58.1914158
  12.4424464  38.0718368  58.8616533  13.9411461  38.0163453  58.6550155
   4.8662686  44.4096175  50.8126673   5.4516123  43.6639863  50.9454577
   4.6687525  44.7200132  51.6963337   7.7201341  47.4447423  45.8289115
   7.0511717  47.9293550  45.3453155   7.5814211  47.6916643  46.7432494
  11.8606610  49.4791166  52.4271774  12.4124918  49.6422788  53.1920859
  12.2012803  50.0695604  51.7551798   6.8371103  31.8266316  53.0293658
   6.9012430  32.6881147  52.6171056   6.7738223  31.2140318  52.2966017
   6.3123376  33.8989449  56.6766693   6.9395414  33.5166526  57.2904217
   5.4551295  33.6803651  57.0422385  16.7117484  44.3052424  58.2820428
  17.2557388  44.9182382  57.7875383  16.1304329  44.8632002  58.7987441
   3.0888918  35.7065878  42.6085047   3.3842360  34.7976556  42.5552101
   2.1876954  35.6853617  42.2866050  14.9974997  47.4273142  49.4135456
  14.8726137  46.6262882  48.9046401  15.6554088  47.9219335  48.9249426
   6.6183165  33.7821874  48.5912596   5.8969751  34.3957842  48.4520069
   7.4076421  34.3179639  48.5129242  17.0609906  45.2282162  51.0415006
  16.1140241  45.1087513  50.9693333  17.4092679  44.3404660  51.1241267
   9.4209479  31.1176301  54.8653248   9.9443881  31.3638597  55.6279557
   9.2021812  31.9496336  54.4456385   4.8176760  33.3879975  42.7324372
   4.4889466  32.5077354  42.5499478   5.1716131  33.3327644  43.6200762
  14.0656339  45.0234878  47.2419358  13.9181301  44.0951586  47.4226928
  14.8909832  45.0454969  46.7576433   7.9318583  33.6752945  43.0999850
   8.2714656  34.2038867  42.3778459   8.3790704  34.0133351  43.8758417
  17.6690461  45.8463437  48.3284231  18.5937008  45.6406298  48.1908682
  17.5005764  45.5979838  49.2373572  10.6262024  32.0589996  52.5502918
  10.2858844  31.2597809  52.9523598   9.9201030  32.3591707  51.9779751
  11.2778496  29.1439308  51.0030241  12.1004565  28.6699787  50.8809132
  11.5216559  29.9229792  51.5028928   9.9186730  32.1727567  41.2993143
  10.6395093  32.5508820  40.7956860   9.2952034  32.8916444  41.4028121
  14.0617853  32.8772716  42.2351475  14.2781468  33.7597354  41.9340303
  13.5811920  32.4858929  41.5057117   8.8017075  35.8358429  48.8122220
   8.6561655  36.1498732  49.7046501   8.3242278  36.4543329  48.2593118
  10.6613457  32.8260977  48.8603109  10.6475026  31.9302070  48.5235407
  11.3785886  32.8331641  49.4941395  12.5139588  33.2598317  50.9056237
  12.2557366  34.1815388  50.9040567  11.9824629  32.8628752  51.5956701
  17.4585777  46.3649104  43.6846322  17.6322654  45.7995527  42.9320175
  17.9514668  47.1649999  43.5025812   3.2762737  38.3763773  51.7509881
   2.7316205  39.1523581  51.8830155   4.1542087  38.7234578  51.5929002
  10.0650353  31.7075357  44.1290680  10.1866265  30.7792004  44.3281567
   9.7752396  31.7214043  43.2168995  12.9341544  29.3930268  47.2657399
  12.9563241  29.4569601  46.3109379  13.3509603  28.5534776  47.4597906
  23.3125168  39.1285527  45.3036622  23.7556314  38.3792853  44.9055745
  22.4351678  39.1195664  44.9210354  18.4460949  45.6815869  40.7843220
  19.1411854  46.3022561  41.0030535  18.7884100  44.8311220  41.0595598
   4.0628759  37.5033670  54.6440038   3.3210495  37.6516305  55.2304668
   3.7421503  37.7641935  53.7806787  20.3452373  43.1315574  42.3130551
  20.8703697  43.4702847  41.5879871  20.2574725  42.1962590  42.1293686
  12.0072421  47.0449648  54.4420428  12.3159548  46.7998795  55.3143127
  12.8047903  47.2496286  53.9539298  12.0293033  49.1987558  46.6725804
  11.5898024  48.7063936  47.3658661  12.7801150  48.6560525  46.4317880
   4.5085372  45.3899098  46.6750433   5.3343392  45.0902870  46.2949076
   4.1579424  44.6206721  47.1240221   9.4766905  44.7425567  48.7448106
   8.8546915  44.0796272  48.4450334  10.1471772  44.7686699  48.0621754
   2.7093977  43.3085425  47.6339366   1.8725886  42.8807599  47.4523367
   2.6817623  43.5017868  48.5710157   9.5491433  33.2207355  58.3380612
   9.5979588  34.0969478  57.9558382  10.0913947  32.6784748  57.7652255
  20.0346279  43.7648478  57.6181749  19.2441822  43.7472617  57.0786249
  19.7979633  44.3036772  58.3730786  20.1544154  40.6140944  54.9314478
  20.2042159  40.4490952  55.8730001  20.0458077  39.7468203  54.5412359
   9.0380412  43.2929490  42.2206567   9.1868533  43.9764954  41.5673239
   9.8446856  43.2734580  42.7356022  17.4447916  36.5971872  56.2473784
  18.3457779  36.4578337  55.9557782  17.5195891  36.7626327  57.1871962
  11.7790721  33.9738727  55.0926971  10.9094031  34.2672293  54.8209559
  12.0150202  34.5579172  55.8134234  21.6562350  43.0337886  55.1756499
  21.3647159  43.3967866  56.0119960  21.0434482  42.3204894  54.9969831
  19.9049539  38.1570500  53.6436557  20.3803660  38.3498147  52.8355409
  18.9815104  38.2129686  53.3979941   6.7933045  39.3194668  43.2267636
   6.5479087  38.4156998  43.4247846   6.9628960  39.3211818  42.2847114
  14.4829755  30.1918344  52.6092391  15.0011699  30.9279371  52.2838880
  14.1284888  30.4982337  53.4439150   6.0628693  35.0523025  40.7253797
   5.3697938  35.1267380  40.0693833   5.8180445  34.2883369  41.2475314
  14.7342349  26.6118627  48.1293288  15.0144103  25.9441816  48.7553714
  15.5192956  26.8047722  47.6167952  12.5375818  45.7877620  39.6918314
  11.9649785  46.4067808  39.2388786  13.1108612  46.3376982  40.2258236
  18.6051208  35.0336261  51.8764863  19.5568631  35.1334358  51.8977087
  18.4354658  34.2414529  52.3862947  16.6265587  32.1191844  52.0624264
  16.0315519  32.3996856  51.3670752  16.3415284  32.6085745  52.8341005
  15.7573078  46.0714771  40.8226896  16.6903751  46.0060332  41.0259772
  15.6696290  46.9071037  40.3641429  18.3861094  45.3880641  37.7830844
  18.3074726  45.0540505  38.6766602  19.2070761  45.8802409  37.7822316
  21.0839286  38.2542380  50.9907163  21.0515606  37.3158381  51.1766846
  21.6939909  38.3326417  50.2572987  12.9222616  37.1238433  37.0334367
  13.8681721  36.9944641  37.1022785  12.5436861  36.3853095  37.5103795
  21.2333774  35.0453424  51.0365446  20.7172823  34.2611880  50.8495375
  22.1173723  34.7172140  51.2011965  18.8944501  28.7894439  46.9961258
  18.6969322  28.4809527  47.8804590  19.5044207  29.5156078  47.1259188
  24.9831132  37.4566250  50.7287651  24.2564296  37.3222215  50.1204142
  24.5678419  37.7643078  51.5344369  12.8061309  41.1756179  58.4935024
  13.7264318  41.3534778  58.6875070  12.7710892  40.2312225  58.3414723
  11.1065534  35.0488410  36.9689252  10.1996989  34.7521522  37.0451965
  11.3841515  34.7518228  36.1023538   2.0243474  36.3694773  47.4188298
   1.7046258  35.5160081  47.1262672   1.4776902  36.5843351  48.1746266
   5.8023381  39.0857214  51.1357805   6.0209391  40.0174322  51.1545839
   6.2149155  38.7265188  51.9212609  12.7227599  29.5925299  43.1233493
  11.9128328  29.2472384  43.4988739  13.4112016  29.2832843  43.7121105
  14.6518148  28.6703346  44.7457790  15.2049186  29.0898800  45.4047813
  14.8888234  27.7439094  44.7880746  10.6751247  34.6590420  60.5260554
  10.5747974  35.6084777  60.4572645  10.4572789  34.3308659  59.6536624
   9.8764318  31.9075345  37.1101231  10.7383482  32.2330243  37.3697048
  10.0614662  31.1206841  36.5974297   1.8931734  39.9897684  49.3881420
   1.1995205  39.5751637  48.8751374   2.6404725  40.0318221  48.7914839
  18.0296955  30.7803871  44.2536454  17.4495624  31.4388675  43.8714506
  17.7632887  29.9581216  43.8423872  16.4800521  30.1808929  46.4557774
  16.9800299  30.2925464  45.6472093  17.1236129  29.8769982  47.0958583
  10.5382517  38.0887559  59.3425615  10.0549599  38.8887919  59.5489504
  10.6243456  38.0995503  58.3893059   3.8068476  39.9215938  47.2647435
   3.7839165  40.0203626  46.3129318   4.1169113  40.7681089  47.5864601
   6.4655854  41.9792093  51.3794049   7.4199108  41.9476036  51.3123981
   6.2668378  41.5182717  52.1944275   7.0555236  40.5493209  53.9464847
   7.8748125  41.0437288  53.9699684   7.3292044  39.6325177  53.9182414
  16.8121833  32.9403962  43.3092802  15.9247688  33.2253612  43.0912997
  17.2275822  32.7797725  42.4620079  20.1636369  32.9650483  47.0247142
  20.9396759  33.4546935  47.2971758  19.4384503  33.3908537  47.4819011
  22.6008927  33.6778102  48.0821082  23.1953418  33.4373838  47.3714390
  22.6735511  32.9585232  48.7094618   4.8206083  47.5211713  48.3964247
   4.6860551  46.7612114  47.8302245   4.4038145  48.2452613  47.9293036
  15.9565046  42.7048636  37.4040822  16.6600896  42.9098639  38.0198478
  15.2327695  43.2725398  37.6689906  16.7862856  38.4558498  43.5243092
  16.7298058  38.9127049  42.6850725  17.3391199  37.6949182  43.3465935
  20.5967662  34.2448229  44.3493212  20.3404597  33.8444865  45.1801420
  19.9720530  34.9592023  44.2243351  24.9080000  36.9844303  46.8564503
  24.3479558  37.0537492  47.6296065  24.3023504  36.8085287  46.1364000
   7.9775209  48.4181030  48.6082690   7.8607593  49.3626462  48.5061380
   7.1567655  48.1154591  48.9968489  17.8651744  43.1431166  39.4539282
  18.6997347  42.7112364  39.2716757  17.7036086  42.9713179  40.3816177
  17.5197636  39.6463279  40.8195622  17.4646440  39.4807550  39.8784066
  16.8943691  40.3539312  40.9757811   2.3090151  34.8831343  54.6457044
   2.9549014  34.3730297  55.1344269   2.1007302  35.6200025  55.2200469
  14.8343543  41.9512191  60.1449184  15.7034703  42.1252843  59.7835819
  14.3550294  42.7706608  60.0224914  10.8293761  29.1471388  40.3980940
  10.8172431  30.0913228  40.5549211  11.7217183  28.9641533  40.1040401
   9.0029723  49.0709292  51.8238618   9.9056970  49.1032902  52.1405113
   8.7767093  48.1409743  51.8384954  10.7583325  47.8240278  48.4848697
   9.8078956  47.8242140  48.3713069  11.0615811  47.0773013  47.9684731
  14.6445881  25.7414164  44.6526877  13.8778276  25.1872651  44.7983559
  15.0556586  25.8136033  45.5141028   6.6487642  32.0298960  58.7432058
   7.5119103  31.6735765  58.9535383   6.0753052  31.6912855  59.4307462
  26.4936019  53.6600817  49.5494459  27.1314429  53.5407564  48.8457799
  26.3756862  54.6081661  49.6082411  23.3025725  53.6128245  49.4855984
  22.9644236  53.4969309  48.5976519  24.1715493  53.2119410  49.4656990
  19.1612541  55.4663721  45.4752875  18.5977406  55.3753658  44.7069162
  19.0464936  54.6463626  45.9555367  23.7845508  54.7663096  55.4442189
  23.7734149  54.3715895  54.5722693  23.9466147  54.0329169  56.0375961
  16.7076973  56.9614913  48.3137095  17.4998264  56.6205737  47.8983394
  16.9473623  57.0709888  49.2339248  24.7412099  59.1334689  40.7867340
  24.0900079  59.7188769  40.4001353  25.5356462  59.6640884  40.8462377
  18.6667726  56.2223826  41.1854474  19.4398602  55.6752813  41.0467350
  19.0193125  57.0868075  41.3968935  20.5052769  57.5500208  54.3921373
  20.2142635  58.4545839  54.2768040  21.1409753  57.5916736  55.1065443
  21.4308976  54.9277057  50.9822733  22.0272548  54.7033079  50.2679696
  21.4883947  54.1861802  51.5848181  21.0034004  52.3816492  38.8172924
  21.2559525  51.8598013  38.0556387  20.0658563  52.2182638  38.9199607
  26.0477287  51.3852270  46.6247667  26.8340376  50.9671694  46.2738084
  26.3115991  52.2898363  46.7929315  26.2187364  56.8225121  41.3236324
  25.5833197  56.8959747  42.0357229  25.8884771  57.4118720  40.6455403
  20.7230293  54.2844598  41.0197299  20.6066551  53.6089501  41.6878383
  20.8332553  53.7976972  40.2029452  23.0661834  53.7454745  44.7243988
  22.7020041  53.2185366  45.4356910  23.9228950  53.3553214  44.5510473
  22.7067321  48.7744645  39.7205337  22.8741723  49.6424881  40.0875808
  22.5164490  48.9371927  38.7966626  25.4642654  57.2361624  51.3871167
  25.1643377  58.1386663  51.2786974  25.1193714  56.9693807  52.2392320
  18.9155136  53.6875421  47.4207871  17.9905632  53.5551635  47.6285563
  19.1639549  54.4669640  47.9177814  28.8639798  49.7544164  49.0668604
  27.9556675  49.6859572  48.7727365  28.8127394  50.2316109  49.8950430
  22.6856542  51.2302302  40.7052003  22.5656167  51.6759353  41.5437484
  21.9909130  51.5787620  40.1465542  16.2763947  53.3308694  48.2551660
  16.4056328  53.5843173  49.1691072  15.5961398  53.9236402  47.9356315
  20.4463434  64.0005944  44.3542135  20.3687464  64.9513769  44.4330615
  19.8425078  63.6551817  45.0117061  22.9380664  51.1733810  57.0103502
  22.1613998  51.7327730  57.0006366  23.5771227  51.6590593  57.5318372
  30.7301444  47.9560602  50.8446478  30.0875825  48.2493136  50.1986273
  30.2256373  47.8413523  51.6499675  28.3841608  51.7023776  41.5332337
  29.2959464  51.9351162  41.3580035  27.8751255  52.2860820  40.9707416
  21.1927036  53.9819263  56.5721469  21.9341720  54.5204307  56.2956292
  20.4864021  54.6085552  56.7293020  26.6682376  56.1248403  55.1693630
  27.0765732  55.6830814  54.4248262  25.9459637  55.5501031  55.4227823
  23.0213446  51.0621010  52.5427187  23.8674641  51.4860424  52.6861836
  22.9612083  50.4054634  53.2365750  26.9911190  56.6849594  48.9245919
  26.3620053  56.8495308  48.2221987  26.6036852  57.0991204  49.6956883
  26.1712891  48.7225379  54.2008361  25.9273823  49.4767439  53.6642636
  26.4472822  49.1010726  55.0355608  28.1251354  55.2663991  52.8785626
  28.3368249  55.9095751  52.2020007  28.0781102  54.4326307  52.4107556
  25.7277583  47.8781812  49.7822198  24.8662062  48.1763065  50.0738936
  25.7540017  48.0952210  48.8503231  22.5439152  56.4224002  46.1896004
  23.0077498  56.7011705  45.4000626  22.2795950  55.5207447  46.0069095
  19.4363233  55.9695484  49.1275767  20.0064590  56.3982752  48.4893252
  20.0271345  55.6878068  49.8259953  21.4808038  52.5447154  42.9985569
  22.1832082  52.9968198  43.4659496  21.1488667  51.9030973  43.6265462
  19.9288400  51.1358911  57.3736779  19.2987060  51.8175192  57.6072175
  19.8224488  51.0241993  56.4289917  15.2233372  50.8030707  48.3002703
  14.4332426  51.0588236  47.8242813  15.7144620  51.6179045  48.4054743
  29.2397182  58.1435946  51.0507984  30.0614625  57.7416134  50.7690665
  29.2359585  58.0404180  52.0024099  17.1748118  51.1675286  45.2586179
  16.3779281  51.2793981  45.7769675  16.9473710  51.5061939  44.3927070
  23.0053785  57.6919990  53.2068694  23.0698218  58.1540397  54.0426866
  22.2964709  57.0617355  53.3351004  13.5071075  51.0561198  50.7317693
  13.7579114  51.9408208  50.9975269  14.0430624  50.8765799  49.9592785
  22.7201803  59.3588097  43.0747674  22.5847478  60.2039633  43.5032522
  23.2611615  59.5607375  42.3113608  19.2069142  45.4379677  59.7362030
  18.8136088  44.8845876  60.4109674  20.0235283  45.7490255  60.1268547
  16.1731200  56.8763535  43.6475599  16.6855721  57.6706785  43.7981164
  16.8253913  56.1789826  43.5809201  17.9826085  59.9929291  45.7298353
  18.1592713  60.9147256  45.5419337  18.7782918  59.6787711  46.1592732
  22.1237103  46.8537556  57.3282286  22.8646817  47.4544709  57.2486749
  22.3555026  46.1115194  56.7700329  17.2678441  52.0393923  55.6060516
  17.1531957  51.1379181  55.9067615  16.4122959  52.2857620  55.2545332
  24.3470279  59.9811664  57.2048016  23.9034133  59.1948042  56.8868921
  25.0087493  60.1690814  56.5391907  19.1057400  61.5107465  51.7308695
  19.6564826  61.3824529  50.9585689  18.2668876  61.8102354  51.3803588
  26.4451517  60.2614464  55.2329418  26.4269993  61.0823345  54.7409687
  27.3671437  60.1368539  55.4579559  22.9024571  57.7758593  56.0752926
  23.4352908  57.0146881  55.8452234  22.3738653  57.4832245  56.8177081
  14.1380117  55.2052189  44.4235170  14.9755339  55.6149198  44.2068878
  14.3158385  54.2651632  44.3935364  26.0344549  52.8727270  40.1119003
  25.5191173  53.6431875  40.3507390  25.7621858  52.1992406  40.7352064
  23.6191660  47.7176971  45.1704241  22.7633256  47.3283821  44.9909880
  24.0318612  47.7968932  44.3104027  25.1490807  45.2523314  49.5695801
  24.6455602  45.2153449  48.7563606  25.4421414  46.1616057  49.6292458
  21.3933693  45.3362044  48.5761983  22.2586689  45.1404853  48.2167872
  21.4611202  45.1072396  49.5031340  25.8230852  50.7454362  41.9378784
  25.5180988  51.0600511  42.7888927  26.7761294  50.8235782  41.9806117
  24.2677284  56.9044586  43.5871738  23.7398646  56.1697345  43.2744976
  23.7664787  57.6819262  43.3411706  18.9996012  47.5664252  45.9478350
  19.5739764  47.3439433  45.2151543  19.5866994  47.6352946  46.7006951
  28.0575589  53.4537979  46.7542726  28.5707471  54.0867971  47.2564436
  28.7076813  52.8539174  46.3886086  19.3265599  49.5968713  39.9674235
  18.4902911  49.9343399  40.2883510  19.1870369  49.4617693  39.0301372
  21.3018679  44.4405501  44.6753419  20.6483092  44.1254518  44.0510034
  21.2599154  43.8181241  45.4013242  22.4129884  54.7224796  36.5906711
  21.5056946  54.4914049  36.7897860  22.9100916  53.9262415  36.7780693
  25.3197963  63.4322303  39.5103397  24.6459662  63.7354000  40.1188355
  25.7063785  64.2351383  39.1608854  24.5356420  50.9287434  49.0001067
  23.6178981  51.1502381  48.8422755  24.9516563  51.0033745  48.1412774
  25.3191468  52.3278850  44.1303747  26.0663287  52.8400247  43.8210869
  25.5883057  52.0062903  44.9908140  23.5918118  54.8237391  41.1130701
  22.6829337  54.5396423  41.2103171  23.6213202  55.2436469  40.2534008
  28.8237385  58.4343980  44.8821869  28.3699712  57.5934890  44.9387059
  28.1931352  59.0705379  45.2196649  27.7670305  49.3635966  46.1122536
  27.0293062  48.8513352  46.4432779  28.0197078  48.9236348  45.3005813
  27.2670324  60.2720477  45.8171687  27.5593299  60.8325534  45.0984053
  27.7768945  60.5649038  46.5724846  14.1606288  52.5442905  45.0945903
  13.9630688  51.9512265  44.3696970  13.6052952  52.2395115  45.8121842
  22.1403012  52.4366011  47.2140497  22.1951622  51.4839848  47.1382973
  21.3294214  52.5925450  47.6981795  23.2894206  56.3646134  38.4518780
  22.8513635  55.6481993  37.9924417  24.0304646  56.5922249  37.8903871
  20.0795372  51.0543071  44.9730875  19.2663237  51.3537242  45.3796068
  20.5754366  50.6598760  45.6905358  22.2303950  61.0500828  46.9065140
  22.1880128  61.2761674  45.9773672  23.1466648  60.8164203  47.0550941
  25.6769583  51.5184895  53.8045769  26.0318971  51.7456369  54.6640235
  26.3241715  51.8503272  53.1823025  19.5709446  48.6261427  50.5892110
  20.2108826  48.4850186  49.8915074  18.7386977  48.3395940  50.2130712
  20.3469750  57.9263857  46.7027103  21.1410349  57.4314177  46.5009678
  19.6361443  57.3981720  46.3394808  25.1664595  60.3081952  51.0539470
  25.2201617  60.8772889  51.8217186  24.2979376  60.4783837  50.6893508
  16.6552514  52.0706939  42.7786856  15.7250102  52.0091394  42.9956818
  16.7509986  51.5482891  41.9823497  16.5738063  48.5961751  45.3665097
  16.8344880  49.5107085  45.2574258  17.3955235  48.1286194  45.5161710
  18.0462988  50.0099509  52.5363922  18.7186042  49.8016871  51.8876571
  17.2192775  49.8121595  52.0969154  23.9488560  46.6361450  54.5529583
  23.3016475  47.3351399  54.4594059  24.7189576  47.0697594  54.9205831
  27.3567358  56.9010302  57.6280136  27.2052865  56.6720853  56.7110220
  27.3472038  57.8580903  57.6411481  24.1252695  54.4742214  52.6126402
  25.0544755  54.6253374  52.4395370  23.7043725  54.5626235  51.7575049
  22.9241026  58.4992879  50.3824940  22.7852112  58.1311663  51.2550878
  22.1355623  59.0140518  50.2108898  23.5189178  63.6001975  41.7250476
  23.6940934  63.1290019  42.5396099  22.8321966  64.2267742  41.9531737
  24.4746242  57.8774482  47.7713778  24.1396074  57.8375252  48.6671428
  23.9750187  57.2119198  47.2984188  18.4490485  53.2842112  53.2966359
  18.3110283  52.5522350  53.8977898  19.3595409  53.1951012  53.0150547
  27.4105433  55.2230516  38.0450837  26.7934604  54.4977344  37.9483890
  26.9421922  55.9839876  37.7017912  21.0772786  52.9962071  52.7850039
  21.7872405  52.3555263  52.7436657  21.0342094  53.2474966  53.7076219
  29.0659565  59.9329424  55.7056618  29.0072111  59.2488644  55.0387201
  29.4679083  60.6748414  55.2537244  19.7901720  49.9827289  54.6045678
  19.2539077  49.5318027  55.2567274  19.2018429  50.1173198  53.8616142
  18.0850264  66.7491338  48.4990337  18.3246862  67.3809862  49.1769355
  17.2419460  66.3979378  48.7855696  19.2003979  49.4415940  37.1672142
  18.3233445  49.3204741  36.8034388  19.6761732  48.6502019  36.9151030
  29.0676972  57.8969008  53.9370597  28.1803751  57.5594930  54.0596996
  29.6375523  57.1652039  54.1739363  10.7206119  54.2293100  47.2613649
  11.4077159  53.9154830  46.6734664  10.5654248  55.1334465  46.9880900
  15.5240841  49.1183297  51.6898673  15.4399030  48.5108966  50.9549082
  14.7023548  49.6092315  51.6908169  22.5978126  62.5570461  50.9031841
  22.5248297  63.3625432  51.4151145  22.1555519  62.7562426  50.0779862
  22.3867905  61.7942231  44.4134662  21.6035427  62.3363911  44.5072887
  23.0860650  62.3116210  44.8128903  25.6964555  47.6036860  47.0568868
  26.1933255  46.8506822  46.7369938  24.9251537  47.6401177  46.4912077
  25.0576809  62.4557295  53.0589999  25.7704781  63.0904759  52.9865901
  24.5666838  62.5521161  52.2430001  26.7794336  56.3608547  44.6307291
  25.8450615  56.4810010  44.4611995  26.9571004  55.4581014  44.3667301
  22.2799524  49.7454243  46.7840552  21.9097312  49.1925283  47.4721458
  22.7758616  49.1412377  46.2315552  30.1666887  52.2025867  45.1657325
  30.6327339  53.0353858  45.0917628  30.6174388  51.7370848  45.8702584
  20.1088723  60.2051738  53.8795570  20.8098182  60.8388221  54.0324964
  19.6383838  60.5466470  53.1191209  28.2343118  58.5469688  42.1643477
  28.5102962  58.4326282  43.0737351  27.3647617  58.1487173  42.1255650
  27.9090009  52.7596346  51.7048120  27.2561459  53.0072253  51.0500573
  28.2870388  51.9460484  51.3710598  24.8697182  62.7956039  45.8076291
  25.0519577  61.9777695  46.2704043  25.6930168  63.0123731  45.3701181
  25.2039348  61.7224224  43.0691339  25.7327114  61.2116678  42.4561501
  25.4667567  61.4066754  43.9336872  23.9577582  53.5016157  58.1914158
  23.2818219  53.4010286  58.8616533  24.7805215  53.3455370  58.6550155
  15.7056441  59.7388093  50.8126673  16.2909877  58.9931781  50.9454577
  15.5081279  60.0492050  51.6963337  18.5595096  62.7739341  45.8289115
  17.8905471  63.2585468  45.3453155  18.4207966  63.0208561  46.7432494
  10.2974095  52.3093693  49.5331116  10.3358195  51.7757284  50.3268234
   9.7914388  51.7828899  48.9142093  22.7000364  64.8083084  52.4271774
  23.2518672  64.9714706  53.1920859  23.0406558  65.3987522  51.7551798
  17.6764858  47.1558234  53.0293658  17.7406184  48.0173065  52.6171056
  17.6131978  46.5432236  52.2966017  17.1517130  49.2281366  56.6766693
  17.7789169  48.8458444  57.2904217  16.2945049  49.0095568  57.0422385
  27.5511239  59.6344342  58.2820428  28.0951143  60.2474300  57.7875383
  26.9698084  60.1923920  58.7987441  13.9282673  51.0357796  42.6085047
  14.2236114  50.1268474  42.5552101  13.0270709  51.0145535  42.2866050
  25.8368752  62.7565060  49.4135456  25.7119891  61.9554799  48.9046401
  26.4947843  63.2511253  48.9249426  17.4576920  49.1113792  48.5912596
  16.7363506  49.7249760  48.4520069  18.2470176  49.6471557  48.5129242
  27.9003660  60.5574080  51.0415006  26.9533996  60.4379431  50.9693333
  28.2486433  59.6696578  51.1241267  20.2603233  46.4468219  54.8653248
  20.7837635  46.6930515  55.6279557  20.0415567  47.2788253  54.4456385
  15.6570515  48.7171893  42.7324372  15.3283221  47.8369272  42.5499478
  16.0109885  48.6619562  43.6200762  24.9050093  60.3526796  47.2419358
  24.7575056  59.4243503  47.4226928  25.7303587  60.3746887  46.7576433
  18.7712338  49.0044863  43.0999850  19.1108410  49.5330784  42.3778459
  19.2184458  49.3425269  43.8758417  28.5084215  61.1755355  48.3284231
  29.4330763  60.9698216  48.1908682  28.3399519  60.9271756  49.2373572
  21.4655779  47.3881914  52.5502918  21.1252599  46.5889727  52.9523598
  20.7594785  47.6883625  51.9779751  22.1172250  44.4731226  51.0030241
  22.9398320  43.9991704  50.8809132  22.3610314  45.2521710  51.5028928
  20.7580485  47.5019485  41.2993143  21.4788847  47.8800737  40.7956860
  20.1345789  48.2208361  41.4028121  24.9011608  48.2064634  42.2351475
  25.1175222  49.0889271  41.9340303  24.4205675  47.8150847  41.5057117
  19.6410829  51.1650347  48.8122220  19.4955410  51.4790650  49.7046501
  19.1636033  51.7835247  48.2593118  21.5007212  48.1552895  48.8603109
  21.4868781  47.2593988  48.5235407  22.2179640  48.1623558  49.4941395
  23.3533343  48.5890235  50.9056237  23.0951121  49.5107306  50.9040567
  22.8218383  48.1920669  51.5956701  28.2979531  61.6941022  43.6846322
  28.4716409  61.1287445  42.9320175  28.7908423  62.4941917  43.5025812
  14.1156491  53.7055691  51.7509881  13.5709959  54.4815499  51.8830155
  14.9935841  54.0526496  51.5929002  20.9044108  47.0367275  44.1290680
  21.0260019  46.1083921  44.3281567  20.6146150  47.0505961  43.2168995
  23.7735298  44.7222185  47.2657399  23.7956995  44.7861519  46.3109379
  24.1903357  43.8826694  47.4597906  29.2854704  61.0107786  40.7843220
  29.9805609  61.6314479  41.0030535  29.6277854  60.1603138  41.0595598
  14.9022513  52.8325587  54.6440038  14.1604249  52.9808223  55.2304668
  14.5815257  53.0933853  53.7806787  31.1846127  58.4607492  42.3130551
  31.7097451  58.7994765  41.5879871  31.0968480  57.5254507  42.1293686
  22.8466176  62.3741566  54.4420428  23.1553302  62.1290712  55.3143127
  23.6441658  62.5788204  53.9539298  22.8686788  64.5279475  46.6725804
  22.4291778  64.0355854  47.3658661  23.6194905  63.9852443  46.4317880
  15.3479127  60.7191016  46.6750433  16.1737147  60.4194788  46.2949076
  14.9973179  59.9498639  47.1240221  20.3160660  60.0717484  48.7448106
  19.6940669  59.4088189  48.4450334  20.9865527  60.0978616  48.0621754
  13.5487732  58.6377343  47.6339366  12.7119640  58.2099517  47.4523367
  13.5211377  58.8309786  48.5710157  20.3885187  48.5499272  58.3380612
  20.4373343  49.4261395  57.9558382  20.9307702  48.0076665  57.7652255
  30.8740033  59.0940396  57.6181749  30.0835577  59.0764534  57.0786249
  30.6373388  59.6328689  58.3730786  30.9937908  55.9432862  54.9314478
  31.0435913  55.7782869  55.8730001  30.8851832  55.0760121  54.5412359
  19.8774167  58.6221408  42.2206567  20.0262287  59.3056872  41.5673239
  20.6840610  58.6026498  42.7356022  28.2841671  51.9263790  56.2473784
  29.1851533  51.7870255  55.9557782  28.3589645  52.0918245  57.1871962
  22.6184476  49.3030645  55.0926971  21.7487785  49.5964211  54.8209559
  22.8543956  49.8871090  55.8134234  32.4956105  58.3629804  55.1756499
  32.2040913  58.7259784  56.0119960  31.8828236  57.6496812  54.9969831
  30.7443293  53.4862418  53.6436557  31.2197415  53.6790064  52.8355409
  29.8208859  53.5421604  53.3979941  17.6326800  54.6486585  43.2267636
  17.3872842  53.7448915  43.4247846  17.8022714  54.6503736  42.2847114
  25.3223510  45.5210262  52.6092391  25.8405454  46.2571289  52.2838880
  24.9678642  45.8274255  53.4439150  16.9022447  50.3814943  40.7253797
  16.2091692  50.4559298  40.0693833  16.6574199  49.6175287  41.2475314
  23.3769572  61.1169538  39.6918314  22.8043539  61.7359725  39.2388786
  23.9502366  61.6668900  40.2258236  29.4444962  50.3628178  51.8764863
  30.3962385  50.4626276  51.8977087  29.2748413  49.5706447  52.3862947
  27.4659342  47.4483761  52.0624264  26.8709274  47.7288774  51.3670752
  27.1809038  47.9377662  52.8341005  26.5966832  61.4006688  40.8226896
  27.5297505  61.3352250  41.0259772  26.5090045  62.2362955  40.3641429
  29.2254849  60.7172559  37.7830844  29.1468480  60.3832422  38.6766602
  30.0464516  61.2094327  37.7822316  23.7616371  52.4530351  37.0334367
  24.7075476  52.3236559  37.1022785  23.3830616  51.7145013  37.5103795
  32.0727529  50.3745341  51.0365446  31.5566577  49.5903798  50.8495375
  32.9567477  50.0464058  51.2011965  23.6455063  56.5048097  58.4935024
  24.5658073  56.6826696  58.6875070  23.6104646  55.5604142  58.3414723
  21.9459288  50.3780327  36.9689252  21.0390743  50.0813440  37.0451965
  22.2235269  50.0810145  36.1023538  12.8637228  51.6986691  47.4188298
  12.5440013  50.8451999  47.1262672  12.3170657  51.9135269  48.1746266
  16.6417136  54.4149132  51.1357805  16.8603146  55.3466240  51.1545839
  17.0542910  54.0557106  51.9212609  23.5621354  44.9217217  43.1233493
  22.7522082  44.5764302  43.4988739  24.2505771  44.6124761  43.7121105
  25.4911902  43.9995264  44.7457790  26.0442941  44.4190717  45.4047813
  25.7281988  43.0731012  44.7880746  21.5145001  49.9882337  60.5260554
  21.4141728  50.9376694  60.4572645  21.2966543  49.6600576  59.6536624
  20.7158073  47.2367263  37.1101231  21.5777237  47.5622161  37.3697048
  20.9008417  46.4498758  36.5974297  12.7325488  55.3189602  49.3881420
  12.0388960  54.9043555  48.8751374  13.4798479  55.3610139  48.7914839
  28.8690709  46.1095789  44.2536454  28.2889378  46.7680593  43.8714506
  28.6026642  45.2873134  43.8423872  27.3194275  45.5100847  46.4557774
  27.8194054  45.6217381  45.6472093  27.9629883  45.2061900  47.0958583
  21.3776271  53.4179476  59.3425615  20.8943353  54.2179836  59.5489504
  21.4637210  53.4287421  58.3893059  14.6462231  55.2507856  47.2647435
  14.6232919  55.3495543  46.3129318  14.9562867  56.0973007  47.5864601
  17.3049609  57.3084011  51.3794049  18.2592862  57.2767953  51.3123981
  17.1062132  56.8474635  52.1944275  17.8948991  55.8785127  53.9464847
  18.7141880  56.3729206  53.9699684  18.1685799  54.9617095  53.9182414
  27.6515587  48.2695879  43.3092802  26.7641442  48.5545530  43.0912997
  28.0669576  48.1089643  42.4620079  31.0030123  48.2942400  47.0247142
  31.7790513  48.7838853  47.2971758  30.2778257  48.7200455  47.4819011
  15.6599838  62.8503630  48.3964247  15.5254306  62.0904031  47.8302245
  15.2431900  63.5744530  47.9293036  26.7958801  58.0340554  37.4040822
  27.4994651  58.2390557  38.0198478  26.0721449  58.6017316  37.6689906
  27.6256611  53.7850415  43.5243092  27.5691812  54.2418967  42.6850725
  28.1784953  53.0241100  43.3465935  18.8168963  63.7472948  48.6082690
  18.7001348  64.6918380  48.5061380  17.9961410  63.4446509  48.9968489
  28.7045498  58.4723083  39.4539282  29.5391102  58.0404282  39.2716757
  28.5429841  58.3005097  40.3816177  28.3591390  54.9755197  40.8195622
  28.3040194  54.8099468  39.8784066  27.7337445  55.6831229  40.9757811
  13.1483905  50.2123261  54.6457044  13.7942769  49.7022215  55.1344269
  12.9401056  50.9491943  55.2200469  25.6737297  57.2804108  60.1449184
  26.5428457  57.4544761  59.7835819  25.1944049  58.0998525  60.0224914
  21.6687516  44.4763306  40.3980940  21.6566185  45.4205145  40.5549211
  22.5610938  44.2933451  40.1040401  19.8423478  64.4001209  51.8238618
  20.7450724  64.4324820  52.1405113  19.6160848  63.4701660  51.8384954
  21.5977080  63.1532196  48.4848697  20.6472711  63.1534058  48.3713069
  21.9009566  62.4064931  47.9684731  17.4881396  47.3590878  58.7432058
  18.3512858  47.0027683  58.9535383  16.9146807  47.0204773  59.4307462
  37.3329773  68.9892734  49.5494459  37.9708183  68.8699482  48.8457799
  37.2150616  69.9373578  49.6082411  34.1419479  68.9420162  49.4855984
  33.8037991  68.8261227  48.5976519  35.0109248  68.5411328  49.4656990
  30.0006295  70.7955639  45.4752875  29.4371160  70.7045576  44.7069162
  29.8858690  69.9755543  45.9555367  34.6239262  70.0955014  55.4442189
  34.6127903  69.7007812  54.5722693  34.7859902  69.3621087  56.0375961
  27.5470727  72.2906830  48.3137095  28.3392019  71.9497655  47.8983394
  27.7867377  72.4001805  49.2339248  35.5805854  74.4626607  40.7867340
  34.9293834  75.0480687  40.4001353  36.3750217  74.9932801  40.8462377
  29.5061481  71.5515744  41.1854474  30.2792357  71.0044731  41.0467350
  29.8586880  72.4159993  41.3968935  31.3446524  72.8792126  54.3921373
  31.0536390  73.7837757  54.2768040  31.9803508  72.9208654  55.1065443
  32.2702730  70.2568974  50.9822733  32.8666303  70.0324997  50.2679696
  32.3277702  69.5153720  51.5848181  31.8427759  67.7108410  38.8172924
  32.0953279  67.1889931  38.0556387  30.9052318  67.5474555  38.9199607
  36.8871042  66.7144188  46.6247667  37.6734131  66.2963611  46.2738084
  37.1509746  67.6190280  46.7929315  37.0581119  72.1517038  41.3236324
  36.4226952  72.2251665  42.0357229  36.7278525  72.7410637  40.6455403
  42.2879469  66.6519421  47.5280646  43.0204641  66.0818638  47.7618475
  41.5318824  66.2641022  47.9687151  31.5624048  69.6136516  41.0197299
  31.4460306  68.9381419  41.6878383  31.6726307  69.1268890  40.2029452
  33.9055588  69.0746663  44.7243988  33.5413796  68.5477284  45.4356910
  34.7622704  68.6845132  44.5510473  39.8104889  60.3640995  51.9875254
  39.4788214  61.2336406  51.7636469  39.2150502  60.0477279  52.6669285
  33.5461075  64.1036563  39.7205337  33.7135478  64.9716799  40.0875808
  33.3558245  64.2663844  38.7966626  36.3036409  72.5653541  51.3871167
  36.0037132  73.4678580  51.2786974  35.9587468  72.2985725  52.2392320
  29.7548890  69.0167338  47.4207871  28.8299387  68.8843552  47.6285563
  30.0033303  69.7961558  47.9177814  39.7033552  65.0836082  49.0668604
  38.7950430  65.0151490  48.7727365  39.6521148  65.5608027  49.8950430
  33.5250296  66.5594220  40.7052003  33.4049922  67.0051271  41.5437484
  32.8302885  66.9079538  40.1465542  27.1157701  68.6600612  48.2551660
  27.2450082  68.9135091  49.1691072  26.4355152  69.2528320  47.9356315
  31.2857188  79.3297862  44.3542135  31.2081218  80.2805687  44.4330615
  30.6818832  78.9843734  45.0117061  33.7774418  66.5025727  57.0103502
  33.0007752  67.0619647  57.0006366  34.4164981  66.9882510  57.5318372
  41.5695199  63.2852520  50.8446478  40.9269579  63.5785053  50.1986273
  41.0650127  63.1705440  51.6499675  39.2235362  67.0315693  41.5332337
  40.1353219  67.2643080  41.3580035  38.7145010  67.6152737  40.9707416
  32.0320790  69.3111181  56.5721469  32.7735475  69.8496225  56.2956292
  31.3257776  69.9377469  56.7293020  37.5076130  71.4540321  55.1693630
  37.9159486  71.0122732  54.4248262  36.7853392  70.8792949  55.4227823
  33.8607200  66.3912928  52.5427187  34.7068395  66.8152341  52.6861836
  33.8005838  65.7346552  53.2365750  37.8304945  72.0141512  48.9245919
  37.2013807  72.1787226  48.2221987  37.4430607  72.4283121  49.6956883
  41.7094177  72.9495950  46.2790283  41.0245215  73.3294851  45.7287316
  41.7938026  73.5591276  47.0122230  37.0106646  64.0517296  54.2008361
  36.7667577  64.8059357  53.6642636  37.2866576  64.4302644  55.0355608
  38.9645108  70.5955909  52.8785626  39.1762004  71.2387668  52.2020007
  38.9174857  69.7618225  52.4107556  36.5671337  63.2073729  49.7822198
  35.7055816  63.5054983  50.0738936  36.5933772  63.4244128  48.8503231
  33.3832907  71.7515920  46.1896004  33.8471252  72.0303623  45.4000626
  33.1189705  70.8499364  46.0069095  30.2756988  71.2987401  49.1275767
  30.8458345  71.7274670  48.4893252  30.8665100  71.0169986  49.8259953
  32.3201793  67.8739072  42.9985569  33.0225836  68.3260116  43.4659496
  31.9882421  67.2322891  43.6265462  30.7682154  66.4650829  57.3736779
  30.1380815  67.1467110  57.6072175  30.6618242  66.3533910  56.4289917
  26.0627127  66.1322625  48.3002703  25.2726181  66.3880153  47.8242813
  26.5538374  66.9470963  48.4054743  40.0790936  73.4727864  51.0507984
  40.9008380  73.0708051  50.7690665  40.0753339  73.3696098  52.0024099
  28.0141872  66.4967204  45.2586179  27.2173035  66.6085898  45.7769675
  27.7867464  66.8353856  44.3927070  33.8447540  73.0211907  53.2068694
  33.9091972  73.4832315  54.0426866  33.1358464  72.3909272  53.3351004
  24.3464830  66.3853115  50.7317693  24.5972868  67.2700125  50.9975269
  24.8824378  66.2057717  49.9592785  48.1696929  69.8166612  47.3992955
  47.4160638  69.2474011  47.2436959  48.3044470  69.7829277  48.3463590
  33.5595557  74.6880015  43.0747674  33.4241232  75.5331551  43.5032522
  34.1005370  74.8899292  42.3113608  30.0462897  60.7671595  59.7362030
  29.6529843  60.2137793  60.4109674  30.8629037  61.0782173  60.1268547
  27.0124955  72.2055453  43.6475599  27.5249475  72.9998703  43.7981164
  27.6647668  71.5081743  43.5809201  28.8219839  75.3221209  45.7298353
  28.9986468  76.2439174  45.5419337  29.6176673  75.0079628  46.1592732
  32.9630858  62.1829474  57.3282286  33.7040571  62.7836627  57.2486749
  33.1948781  61.4407112  56.7700329  28.1072196  67.3685841  55.6060516
  27.9925711  66.4671098  55.9067615  27.2516714  67.6149538  55.2545332
  35.1864034  75.3103581  57.2048016  34.7427888  74.5239960  56.8868921
  35.8481247  75.4982732  56.5391907  29.9451155  76.8399383  51.7308695
  30.4958580  76.7116446  50.9585689  29.1062631  77.1394272  51.3803588
  37.2845272  75.5906381  55.2329418  37.2663747  76.4115262  54.7409687
  38.2065192  75.4660456  55.4579559  33.7418326  73.1050511  56.0752926
  34.2746663  72.3438799  55.8452234  33.2132407  72.8124163  56.8177081
  36.9088021  58.2110577  51.6046568  36.5652290  59.1012218  51.5285678
  37.2766983  58.0212234  50.7416153  24.9773871  70.5344107  44.4235170
  25.8149094  70.9441115  44.2068878  25.1552139  69.5943549  44.3935364
  36.8738304  68.2019188  40.1119003  36.3584927  68.9723792  40.3507390
  36.6015612  67.5284324  40.7352064  34.4585415  63.0468889  45.1704241
  33.6027011  62.6575739  44.9909880  34.8712366  63.1260849  44.3104027
  35.9884561  60.5815232  49.5695801  35.4849357  60.5445367  48.7563606
  36.2815168  61.4907975  49.6292458  41.8472578  70.9551542  42.0472176
  41.0702021  70.6162702  41.6027338  42.5264059  70.9604166  41.3727141
  36.6624607  66.0746280  41.9378784  36.3574742  66.3892429  42.7888927
  37.6155049  66.1527700  41.9806117  35.1071039  72.2336503  43.5871738
  34.5792400  71.4989263  43.2744976  34.6058541  73.0111180  43.3411706
  40.0863885  70.4285524  48.7038784  39.4287559  71.1184785  48.7918913
  40.8904284  70.8181956  49.0472771  29.8389766  62.8956169  45.9478350
  30.4133518  62.6731351  45.2151543  30.4260749  62.9644864  46.7006951
  38.8969343  68.7829896  46.7542726  39.4101225  69.4159888  47.2564436
  39.5470567  68.1831092  46.3886086  30.1659353  64.9260630  39.9674235
  29.3296666  65.2635317  40.2883510  30.0264123  64.7909610  39.0301372
  32.1412434  59.7697418  44.6753419  31.4876846  59.4546436  44.0510034
  32.0992908  59.1473159  45.4013242  33.2523639  70.0516713  36.5906711
  32.3450701  69.8205967  36.7897860  33.7494671  69.2554333  36.7780693
  36.1591718  78.7614221  39.5103397  35.4853416  79.0645917  40.1188355
  36.5457540  79.5643301  39.1608854  35.3750174  66.2579352  49.0001067
  34.4572736  66.4794299  48.8422755  35.7910318  66.3325662  48.1412774
  36.1585222  67.6570768  44.1303747  36.9057041  68.1692165  43.8210869
  36.4276812  67.3354820  44.9908140  34.4311872  70.1529308  41.1130701
  33.5223092  69.8688341  41.2103171  34.4606956  70.5728387  40.2534008
  39.6631140  73.7635898  44.8821869  39.2093467  72.9226808  44.9387059
  39.0325106  74.3997296  45.2196649  38.6064059  64.6927884  46.1122536
  37.8686816  64.1805270  46.4432779  38.8590833  64.2528265  45.3005813
  38.1064079  75.6012395  45.8171687  38.3987053  76.1617452  45.0984053
  38.6162699  75.8940956  46.5724846  25.0000043  67.8734822  45.0945903
  24.8024442  67.2804183  44.3696970  24.4446707  67.5687033  45.8121842
  32.9796766  67.7657929  47.2140497  33.0345376  66.8131765  47.1382973
  32.1687968  67.9217368  47.6981795  34.1287960  71.6938052  38.4518780
  33.6907390  70.9773911  37.9924417  34.8698401  71.9214167  37.8903871
  30.9189126  66.3834989  44.9730875  30.1056992  66.6829159  45.3796068
  31.4148120  65.9890677  45.6905358  33.0697704  76.3792746  46.9065140
  33.0273883  76.6053592  45.9773672  33.9860403  76.1456120  47.0550941
  36.5163338  66.8476813  53.8045769  36.8712726  67.0748286  54.6640235
  37.1635469  67.1795190  53.1823025  42.2461075  69.9695249  44.5095098
  42.1078973  70.1596845  43.5816288  41.8897294  70.7314632  44.9663149
  30.4103201  63.9553344  50.5892110  31.0502580  63.8142103  49.8915074
  29.5780732  63.6687858  50.2130712  42.2730454  72.0371776  49.5206370
  42.7066961  71.9447065  50.3689424  42.9862035  72.0129276  48.8826386
  31.1863505  73.2555775  46.7027103  31.9804103  72.7606095  46.5009678
  30.4755197  72.7273638  46.3394808  36.0058349  75.6373870  51.0539470
  36.0595372  76.2064806  51.8217186  35.1373131  75.8075755  50.6893508
  27.4946268  67.3998856  42.7786856  26.5643856  67.3383312  42.9956818
  27.5903740  66.8774809  41.9823497  27.4131817  63.9253669  45.3665097
  27.6738635  64.8399002  45.2574258  28.2348990  63.4578112  45.5161710
  28.8856743  65.3391426  52.5363922  29.5579796  65.1308788  51.8876571
  28.0586529  65.1413512  52.0969154  43.1346004  72.0795477  52.0539255
  43.3281894  72.9841287  52.2998530  43.0346622  71.6202896  52.8877840
  34.7882315  61.9653367  54.5529583  34.1410230  62.6643317  54.4594059
  35.5583330  62.3989511  54.9205831  38.1961113  72.2302219  57.6280136
  38.0446619  72.0012771  56.7110220  38.1865792  73.1872821  57.6411481
  34.9646449  69.8034132  52.6126402  35.8938509  69.9545292  52.4395370
  34.5437479  69.8918153  51.7575049  33.7634781  73.8284797  50.3824940
  33.6245867  73.4603581  51.2550878  32.9749377  74.3432436  50.2108898
  34.3582933  78.9293893  41.7250476  34.5334689  78.4581936  42.5396099
  33.6715721  79.5559659  41.9531737  35.3139996  73.2066399  47.7713778
  34.9789829  73.1667169  48.6671428  34.8143942  72.5411115  47.2984188
  29.2884240  68.6134029  53.2966359  29.1504038  67.8814268  53.8977898
  30.1989163  68.5242929  53.0150547  38.2499188  70.5522434  38.0450837
  37.6328358  69.8269262  37.9483890  37.7815676  71.3131794  37.7017912
  31.9166541  68.3253989  52.7850039  32.6266159  67.6847181  52.7436657
  31.8735849  68.5766883  53.7076219  39.9053319  75.2621342  55.7056618
  39.8465865  74.5780562  55.0387201  40.3072838  76.0040332  55.2537244
  30.6295475  65.3119207  54.6045678  30.0932832  64.8609945  55.2567274
  30.0412183  65.4465115  53.8616142  28.9244018  82.0783256  48.4990337
  29.1640616  82.7101780  49.1769355  28.0813215  81.7271296  48.7855696
  30.0397734  64.7707858  37.1672142  29.1627200  64.6496659  36.8034388
  30.5155487  63.9793936  36.9151030  39.9070727  73.2260926  53.9370597
  39.0197505  72.8886848  54.0596996  40.4769278  72.4943957  54.1739363
  21.5599874  69.5585018  47.2613649  22.2470914  69.2446748  46.6734664
  21.4048002  70.4626382  46.9880900  26.3634596  64.4475214  51.6898673
  26.2792785  63.8400884  50.9549082  25.5417302  64.9384233  51.6908169
  33.4371880  77.8862378  50.9031841  33.3642051  78.6917350  51.4151145
  32.9949273  78.0854344  50.0779862  33.2261660  77.1234148  44.4134662
  32.4429182  77.6655828  44.5072887  33.9254405  77.6408128  44.8128903
  36.5358310  62.9328778  47.0568868  37.0327009  62.1798740  46.7369938
  35.7645291  62.9693094  46.4912077  44.3888067  68.6369143  48.6987159
  44.3777943  69.5193859  48.3281092  43.5205447  68.2840694  48.5041696
  35.8970564  77.7849212  53.0589999  36.6098536  78.4196677  52.9865901
  35.4060592  77.8813078  52.2430001  37.6188090  71.6900465  44.6307291
  36.6844369  71.8101927  44.4611995  37.7964759  70.7872932  44.3667301
  33.1193278  65.0746161  46.7840552  32.7491066  64.5217201  47.4721458
  33.6152371  64.4704294  46.2315552  41.0060642  67.5317784  45.1657325
  41.4721094  68.3645776  45.0917628  41.4568142  67.0662766  45.8702584
  30.9482477  75.5343656  53.8795570  31.6491937  76.1680139  54.0324964
  30.4777592  75.8758387  53.1191209  39.0736873  73.8761606  42.1643477
  39.3496717  73.7618200  43.0737351  38.2041372  73.4779090  42.1255650
  38.9777305  59.8998371  49.2048226  38.0640384  60.1302598  49.3730433
  39.4070406  59.9836815  50.0562259  38.7483763  68.0888263  51.7048120
  38.0955213  68.3364171  51.0500573  39.1264143  67.2752401  51.3710598
  35.7090937  78.1247956  45.8076291  35.8913331  77.3069612  46.2704043
  36.5323923  78.3415649  45.3701181  36.0433102  77.0516142  43.0691339
  36.5720869  76.5408596  42.4561501  36.3061322  76.7358672  43.9336872
  34.7971336  68.8308074  58.1914158  34.1211973  68.7302204  58.8616533
  35.6198970  68.6747288  58.6550155  26.5450195  75.0680011  50.8126673
  27.1303632  74.3223699  50.9454577  26.3475034  75.3783968  51.6963337
  29.3988850  78.1031258  45.8289115  28.7299226  78.5877386  45.3453155
  29.2601720  78.3500479  46.7432494  21.1367850  67.6385611  49.5331116
  21.1751949  67.1049202  50.3268234  20.6308143  67.1120817  48.9142093
  33.5394119  80.1375002  52.4271774  34.0912427  80.3006623  53.1920859
  33.8800312  80.7279440  51.7551798  28.5158612  62.4850152  53.0293658
  28.5799939  63.3464982  52.6171056  28.4525732  61.8724153  52.2966017
  27.9910885  64.5573284  56.6766693  28.6182923  64.1750361  57.2904217
  27.1338804  64.3387486  57.0422385  38.3904993  74.9636259  58.2820428
  38.9344897  75.5766218  57.7875383  37.8091838  75.5215838  58.7987441
  24.7676427  66.3649713  42.6085047  25.0629869  65.4560392  42.5552101
  23.8664463  66.3437453  42.2866050  36.6762506  78.0856977  49.4135456
  36.5513646  77.2846717  48.9046401  37.3341597  78.5803171  48.9249426
  28.2970674  64.4405710  48.5912596  27.5757260  65.0541677  48.4520069
  29.0863930  64.9763475  48.5129242  38.7397415  75.8865997  51.0415006
  37.7927750  75.7671349  50.9693333  39.0880188  74.9988495  51.1241267
  31.0996988  61.7760136  54.8653248  31.6231390  62.0222433  55.6279557
  30.8809321  62.6080171  54.4456385  26.4964269  64.0463811  42.7324372
  26.1676975  63.1661190  42.5499478  26.8503640  63.9911480  43.6200762
  35.7443848  75.6818714  47.2419358  35.5968810  74.7535421  47.4226928
  36.5697341  75.7038804  46.7576433  29.6106092  64.3336781  43.0999850
  29.9502165  64.8622702  42.3778459  30.0578213  64.6717187  43.8758417
  39.3477970  76.5047272  48.3284231  40.2724517  76.2990134  48.1908682
  39.1793273  76.2563673  49.2373572  32.3049533  62.7173831  52.5502918
  31.9646353  61.9181644  52.9523598  31.5988539  63.0175542  51.9779751
  31.5974239  62.8311402  41.2993143  32.3182602  63.2092655  40.7956860
  30.9739543  63.5500279  41.4028121  35.7405362  63.5356551  42.2351475
  35.9568977  64.4181189  41.9340303  35.2599429  63.1442765  41.5057117
  30.4804584  66.4942264  48.8122220  30.3349164  66.8082567  49.7046501
  30.0029787  67.1127165  48.2593118  32.3400966  63.4844812  48.8603109
  32.3262535  62.5885906  48.5235407  33.0573395  63.4915476  49.4941395
  34.1927097  63.9182153  50.9056237  33.9344875  64.8399223  50.9040567
  33.6612138  63.5212587  51.5956701  39.1373286  77.0232940  43.6846322
  39.3110163  76.4579362  42.9320175  39.6302177  77.8233835  43.5025812
  24.9550246  69.0347609  51.7509881  24.4103714  69.8107417  51.8830155
  25.8329596  69.3818413  51.5929002  31.7437862  62.3659193  44.1290680
  31.8653774  61.4375839  44.3281567  31.4539905  62.3797879  43.2168995
  44.9912677  69.7869363  45.3036622  45.4343823  69.0376688  44.9055745
  44.1139187  69.7779499  44.9210354  40.1248458  76.3399704  40.7843220
  40.8199363  76.9606397  41.0030535  40.4671609  75.4895055  41.0595598
  25.7416268  68.1617505  54.6440038  24.9998004  68.3100140  55.2304668
  25.4209012  68.4225771  53.7806787  42.0239882  73.7899410  42.3130551
  42.5491206  74.1286682  41.5879871  41.9362234  72.8546425  42.1293686
  33.6859930  77.7033483  54.4420428  33.9947057  77.4582630  55.3143127
  34.4835412  77.9080122  53.9539298  33.7080542  79.8571393  46.6725804
  33.2685533  79.3647772  47.3658661  34.4588659  79.3144361  46.4317880
  26.1872881  76.0482934  46.6750433  27.0130901  75.7486706  46.2949076
  25.8366933  75.2790556  47.1240221  31.1554414  75.4009402  48.7448106
  30.5334424  74.7380107  48.4450334  31.8259281  75.4270534  48.0621754
  24.3881486  73.9669260  47.6339366  23.5513395  73.5391435  47.4523367
  24.3605132  74.1601704  48.5710157  31.2278942  63.8791190  58.3380612
  31.2767097  64.7553313  57.9558382  31.7701456  63.3368583  57.7652255
  41.7133788  74.4232313  57.6181749  40.9229331  74.4056452  57.0786249
  41.4767142  74.9620607  58.3730786  41.8331663  71.2724780  54.9314478
  41.8829668  71.1074787  55.8730001  41.7245586  70.4052039  54.5412359
  30.7167921  73.9513325  42.2206567  30.8656042  74.6348790  41.5673239
  31.5234365  73.9318415  42.7356022  39.1235425  67.2555708  56.2473784
  40.0245288  67.1162173  55.9557782  39.1983400  67.4210163  57.1871962
  33.4578230  64.6322562  55.0926971  32.5881540  64.9256129  54.8209559
  33.6937711  65.2163007  55.8134234  43.3349859  73.6921721  55.1756499
  43.0434668  74.0551702  56.0119960  42.7221991  72.9788729  54.9969831
  44.5345542  71.2574601  47.6959070  45.3692433  71.6964405  47.8596630
  44.6704671  70.7813254  46.8767315  41.5837048  68.8154336  53.6436557
  42.0591169  69.0081982  52.8355409  40.6602613  68.8713522  53.3979941
  28.4720554  69.9778503  43.2267636  28.2266596  69.0740833  43.4247846
  28.6416469  69.9795653  42.2847114  36.1617264  60.8502179  52.6092391
  36.6799208  61.5863206  52.2838880  35.8072397  61.1566173  53.4439150
  27.7416202  65.7106861  40.7253797  27.0485447  65.7851216  40.0693833
  27.4967954  64.9467204  41.2475314  34.2163327  76.4461456  39.6918314
  33.6437294  77.0651643  39.2388786  34.7896121  76.9960818  40.2258236
  40.2838717  65.6920096  51.8764863  41.2356140  65.7918194  51.8977087
  40.1142167  64.8998364  52.3862947  38.3053096  62.7775679  52.0624264
  37.7103028  63.0580692  51.3670752  38.0202793  63.2669580  52.8341005
  37.4360587  76.7298606  40.8226896  38.3691260  76.6644168  41.0259772
  37.3483799  77.5654873  40.3641429  40.0648603  76.0464476  37.7830844
  39.9862235  75.7124340  38.6766602  40.8858270  76.5386244  37.7822316
  42.7626795  68.9126216  50.9907163  42.7303115  67.9742216  51.1766846
  43.3727418  68.9910252  50.2572987  34.6010125  67.7822269  37.0334367
  35.5469230  67.6528477  37.1022785  34.2224370  67.0436930  37.5103795
  42.9121283  65.7037259  51.0365446  42.3960332  64.9195716  50.8495375
  43.7961232  65.3755976  51.2011965  48.5803344  69.9742222  50.1313199
  49.3106733  69.7127511  50.6920903  47.9710290  69.2370944  50.1715267
  46.6618641  68.1150085  50.7287651  45.9351805  67.9806050  50.1204142
  46.2465928  68.4226914  51.5344369  34.4848818  71.8340015  58.4935024
  35.4051827  72.0118614  58.6875070  34.4498401  70.8896060  58.3414723
  32.7853043  65.7072245  36.9689252  31.8784498  65.4105358  37.0451965
  33.0629024  65.4102063  36.1023538  23.7030983  67.0278608  47.4188298
  23.3833767  66.1743917  47.1262672  23.1564411  67.2427187  48.1746266
  27.4810890  69.7441049  51.1357805  27.6996900  70.6758157  51.1545839
  27.8936664  69.3849024  51.9212609  32.3538756  65.3174255  60.5260554
  32.2535483  66.2668612  60.4572645  32.1360298  64.9892494  59.6536624
  31.5551827  62.5659180  37.1101231  32.4170991  62.8914078  37.3697048
  31.7402171  61.7790676  36.5974297  23.5719243  70.6481520  49.3881420
  22.8782714  70.2335473  48.8751374  24.3192234  70.6902056  48.7914839
  39.7084464  61.4387707  44.2536454  39.1283133  62.0972511  43.8714506
  39.4420396  60.6165051  43.8423872  38.1588030  60.8392764  46.4557774
  38.6587808  60.9509299  45.6472093  38.8023638  60.5353817  47.0958583
  32.2170026  68.7471394  59.3425615  31.7337108  69.5471754  59.5489504
  32.3030965  68.7579339  58.3893059  25.4855985  70.5799774  47.2647435
  25.4626674  70.6787461  46.3129318  25.7956622  71.4264924  47.5864601
  28.1443363  72.6375929  51.3794049  29.0986617  72.6059871  51.3123981
  27.9455887  72.1766552  52.1944275  28.7342745  71.2077045  53.9464847
  29.5535634  71.7021123  53.9699684  29.0079553  70.2909013  53.9182414
  38.4909342  63.5987797  43.3092802  37.6035197  63.8837448  43.0912997
  38.9063331  63.4381560  42.4620079  41.8423878  63.6234318  47.0247142
  42.6184268  64.1130770  47.2971758  41.1172012  64.0492372  47.4819011
  44.2796436  64.3361937  48.0821082  44.8740927  64.0957673  47.3714390
  44.3523020  63.6169068  48.7094618  26.4993592  78.1795548  48.3964247
  26.3648060  77.4195949  47.8302245  26.0825654  78.9036448  47.9293036
  37.6352555  73.3632472  37.4040822  38.3388405  73.5682474  38.0198478
  36.9115204  73.9309234  37.6689906  38.4650365  69.1142333  43.5243092
  38.4085567  69.5710884  42.6850725  39.0178708  68.3533018  43.3465935
  42.2755171  64.9032065  44.3493212  42.0192106  64.5028700  45.1801420
  41.6508039  65.6175859  44.2243351  46.5867509  67.6428138  46.8564503
  46.0267067  67.7121327  47.6296065  45.9811013  67.4669123  46.1364000
  29.6562718  79.0764865  48.6082690  29.5395102  80.0210298  48.5061380
  28.8355164  78.7738427  48.9968489  39.5439253  73.8015001  39.4539282
  40.3784856  73.3696199  39.2716757  39.3823595  73.6297015  40.3816177
  39.1985145  70.3047114  40.8195622  39.1433948  70.1391386  39.8784066
  38.5731200  71.0123147  40.9757811  23.9877660  65.5415179  54.6457044
  24.6336523  65.0314133  55.1344269  23.7794811  66.2783860  55.2200469
  36.5131052  72.6096026  60.1449184  37.3822212  72.7836678  59.7835819
  36.0337803  73.4290443  60.0224914  32.5081270  59.8055223  40.3980940
  32.4959940  60.7497063  40.5549211  33.4004692  59.6225369  40.1040401
  30.6817232  79.7293127  51.8238618  31.5844479  79.7616737  52.1405113
  30.4554602  78.7993578  51.8384954  32.4370834  78.4824114  48.4848697
  31.4866465  78.4825975  48.3713069  32.7403320  77.7356848  47.9684731
  28.3275151  62.6882796  58.7432058  29.1906612  62.3319601  58.9535383
  27.7540561  62.3496690  59.4307462  48.1723528  84.3184652  49.5494459
  48.8101938  84.1991399  48.8457799  48.0544370  85.2665496  49.6082411
  44.9813234  84.2712080  49.4855984  44.6431745  84.1553145  48.5976519
  45.8503002  83.8703245  49.4656990  40.8400050  86.1247557  45.4752875
  40.2764915  86.0337493  44.7069162  40.7252445  85.3047461  45.9555367
  45.4633017  85.4246932  55.4442189  45.4521658  85.0299730  54.5722693
  45.6253656  84.6913004  56.0375961  38.3864482  87.6198748  48.3137095
  39.1785773  87.2789573  47.8983394  38.6261132  87.7293723  49.2339248
  46.4199608  89.7918524  40.7867340  45.7687588  90.3772605  40.4001353
  47.2143971  90.3224719  40.8462377  40.3455235  86.8807661  41.1854474
  41.1186111  86.3336648  41.0467350  40.6980634  87.7451911  41.3968935
  42.1840278  88.2084044  54.3921373  41.8930144  89.1129674  54.2768040
  42.8197262  88.2500571  55.1065443  43.1096485  85.5860892  50.9822733
  43.7060057  85.3616915  50.2679696  43.1671456  84.8445638  51.5848181
  42.6821513  83.0400327  38.8172924  42.9347034  82.5181849  38.0556387
  41.7446072  82.8766473  38.9199607  47.7264796  82.0436106  46.6247667
  48.5127885  81.6255529  46.2738084  47.9903500  82.9482198  46.7929315
  47.8974873  87.4808956  41.3236324  47.2620706  87.5543583  42.0357229
  47.5672280  88.0702555  40.6455403  53.1273223  81.9811339  47.5280646
  53.8598395  81.4110556  47.7618475  52.3712579  81.5932940  47.9687151
  42.4017802  84.9428433  41.0197299  42.2854060  84.2673337  41.6878383
  42.5120062  84.4560807  40.2029452  44.7449343  84.4038581  44.7243988
  44.3807550  83.8769202  45.4356910  45.6016459  84.0137050  44.5510473
  50.6498644  75.6932913  51.9875254  50.3181968  76.5628324  51.7636469
  50.0544257  75.3769197  52.6669285  44.3854830  79.4328480  39.7205337
  44.5529232  80.3008717  40.0875808  44.1951999  79.5955762  38.7966626
  47.1430163  87.8945459  51.3871167  46.8430886  88.7970498  51.2786974
  46.7981223  87.6277642  52.2392320  40.5942645  84.3459256  47.4207871
  39.6693141  84.2135470  47.6285563  40.8427058  85.1253475  47.9177814
  50.5427307  80.4127999  49.0668604  49.6344184  80.3443408  48.7727365
  50.4914903  80.8899944  49.8950430  44.3644051  81.8886138  40.7052003
  44.2443676  82.3343189  41.5437484  43.6696639  82.2371455  40.1465542
  37.9551456  83.9892530  48.2551660  38.0843837  84.2427008  49.1691072
  37.2748907  84.5820238  47.9356315  42.1250943  94.6589780  44.3542135
  42.0474973  95.6097605  44.4330615  41.5212586  94.3135652  45.0117061
  44.6168173  81.8317645  57.0103502  43.8401507  82.3911565  57.0006366
  45.2558736  82.3174428  57.5318372  52.4088953  78.6144438  50.8446478
  51.7663334  78.9076971  50.1986273  51.9043882  78.4997358  51.6499675
  50.0629117  82.3607611  41.5332337  50.9746973  82.5934998  41.3580035
  49.5538764  82.9444655  40.9707416  42.8714545  84.6403098  56.5721469
  43.6129229  85.1788142  56.2956292  42.1651530  85.2669387  56.7293020
  48.3469885  86.7832239  55.1693630  48.7553241  86.3414649  54.4248262
  47.6247146  86.2084866  55.4227823  44.7000955  81.7204846  52.5427187
  45.5462150  82.1444259  52.6861836  44.6399592  81.0638470  53.2365750
  48.6698699  87.3433429  48.9245919  48.0407562  87.5079144  48.2221987
  48.2824361  87.7575039  49.6956883  52.5487931  88.2787867  46.2790283
  51.8638969  88.6586769  45.7287316  52.6331780  88.8883194  47.0122230
  47.8500400  79.3809214  54.2008361  47.6061332  80.1351274  53.6642636
  48.1260331  79.7594561  55.0355608  49.8038863  85.9247826  52.8785626
  50.0155758  86.5679586  52.2020007  49.7568611  85.0910143  52.4107556
  47.4065092  78.5365647  49.7822198  46.5449571  78.8346900  50.0738936
  47.4327526  78.7536046  48.8503231  44.2226661  87.0807837  46.1896004
  44.6865007  87.3595540  45.4000626  43.9583459  86.1791282  46.0069095
  41.1150742  86.6279319  49.1275767  41.6852099  87.0566587  48.4893252
  41.7058854  86.3461904  49.8259953  43.1595547  83.2030990  42.9985569
  43.8619591  83.6552034  43.4659496  42.8276176  82.5614809  43.6265462
  41.6075909  81.7942746  57.3736779  40.9774569  82.4759027  57.6072175
  41.5011997  81.6825828  56.4289917  36.9020881  81.4614542  48.3002703
  36.1119935  81.7172071  47.8242813  37.3932129  82.2762880  48.4054743
  50.9184691  88.8019782  51.0507984  51.7402134  88.3999969  50.7690665
  50.9147094  88.6988016  52.0024099  38.8535627  81.8259122  45.2586179
  38.0566790  81.9377816  45.7769675  38.6261219  82.1645774  44.3927070
  44.6841294  88.3503825  53.2068694  44.7485727  88.8124232  54.0426866
  43.9752218  87.7201190  53.3351004  35.1858584  81.7145033  50.7317693
  35.4366623  82.5992043  50.9975269  35.7218133  81.5349634  49.9592785
  59.0090684  85.1458530  47.3992955  58.2554392  84.5765928  47.2436959
  59.1438225  85.1121195  48.3463590  44.3989312  90.0171932  43.0747674
  44.2634987  90.8623468  43.5032522  44.9399124  90.2191210  42.3113608
  40.8856651  76.0963512  59.7362030  40.4923597  75.5429711  60.4109674
  41.7022792  76.4074091  60.1268547  37.8518709  87.5347370  43.6475599
  38.3643230  88.3290621  43.7981164  38.5041422  86.8373661  43.5809201
  39.6613594  90.6513127  45.7298353  39.8380222  91.5731091  45.5419337
  40.4570427  90.3371546  46.1592732  43.8024612  77.5121391  57.3282286
  44.5434326  78.1128545  57.2486749  44.0342535  76.7699029  56.7700329
  38.9465950  82.6977759  55.6060516  38.8319466  81.7963016  55.9067615
  38.0910468  82.9441455  55.2545332  46.0257788  90.6395499  57.2048016
  45.5821642  89.8531878  56.8868921  46.6875002  90.8274649  56.5391907
  40.7844909  92.1691301  51.7308695  41.3352334  92.0408364  50.9585689
  39.9456385  92.4686190  51.3803588  48.1239026  90.9198299  55.2329418
  48.1057502  91.7407180  54.7409687  49.0458946  90.7952374  55.4579559
  44.5812080  88.4342428  56.0752926  45.1140417  87.6730717  55.8452234
  44.0526162  88.1416080  56.8177081  47.7481775  73.5402494  51.6046568
  47.4046045  74.4304136  51.5285678  48.1160738  73.3504152  50.7416153
  35.8167626  85.8636025  44.4235170  36.6542848  86.2733033  44.2068878
  35.9945894  84.9235467  44.3935364  47.7132058  83.5311105  40.1119003
  47.1978682  84.3015710  40.3507390  47.4409367  82.8576242  40.7352064
  45.2979169  78.3760806  45.1704241  44.4420765  77.9867657  44.9909880
  45.7106121  78.4552767  44.3104027  46.8278316  75.9107149  49.5695801
  46.3243111  75.8737285  48.7563606  47.1208923  76.8199892  49.6292458
  43.0721202  75.9945879  48.5761983  43.9374198  75.7988688  48.2167872
  43.1398711  75.7656231  49.5031340  52.6866332  86.2843460  42.0472176
  51.9095775  85.9454620  41.6027338  53.3657813  86.2896083  41.3727141
  47.5018361  81.4038198  41.9378784  47.1968497  81.7184347  42.7888927
  48.4548803  81.4819617  41.9806117  45.9464793  87.5628421  43.5871738
  45.4186155  86.8281180  43.2744976  45.4452296  88.3403097  43.3411706
  50.9257639  85.7577441  48.7038784  50.2681314  86.4476703  48.7918913
  51.7298038  86.1473873  49.0472771  40.6783521  78.2248087  45.9478350
  41.2527273  78.0023269  45.2151543  41.2654503  78.2936782  46.7006951
  49.7363098  84.1121814  46.7542726  50.2494980  84.7451806  47.2564436
  50.3864322  83.5123010  46.3886086  41.0053108  80.2552548  39.9674235
  40.1690420  80.5927235  40.2883510  40.8657877  80.1201528  39.0301372
  42.9806188  75.0989336  44.6753419  42.3270601  74.7838353  44.0510034
  42.9386663  74.4765077  45.4013242  44.0917393  85.3808631  36.5906711
  43.1844455  85.1497885  36.7897860  44.5888425  84.5846250  36.7780693
  46.9985472  94.0906138  39.5103397  46.3247171  94.3937835  40.1188355
  47.3851294  94.8935219  39.1608854  46.2143929  81.5871270  49.0001067
  45.2966490  81.8086217  48.8422755  46.6304072  81.6617580  48.1412774
  46.9978977  82.9862685  44.1303747  47.7450796  83.4984082  43.8210869
  47.2670566  82.6646738  44.9908140  45.2705627  85.4821226  41.1130701
  44.3616846  85.1980259  41.2103171  45.3000711  85.9020305  40.2534008
  50.5024894  89.0927815  44.8821869  50.0487221  88.2518725  44.9387059
  49.8718861  89.7289214  45.2196649  49.4457814  80.0219802  46.1122536
  48.7080571  79.5097188  46.4432779  49.6984587  79.5820183  45.3005813
  48.9457833  90.9304312  45.8171687  49.2380808  91.4909369  45.0984053
  49.4556454  91.2232873  46.5724846  49.5469441  72.7996054  46.7064306
  49.8528318  71.9393417  46.4190221  50.2722046  73.3913674  46.5063299
  35.8393797  83.2026740  45.0945903  35.6418197  82.6096101  44.3696970
  35.2840461  82.8978950  45.8121842  43.8190521  83.0949847  47.2140497
  43.8739131  82.1423683  47.1382973  43.0081723  83.2509286  47.6981795
  44.9681715  87.0229970  38.4518780  44.5301144  86.3065829  37.9924417
  45.7092155  87.2506084  37.8903871  41.7582881  81.7126906  44.9730875
  40.9450746  82.0121077  45.3796068  42.2541875  81.3182595  45.6905358
  43.9091459  91.7084663  46.9065140  43.8667637  91.9345510  45.9773672
  44.8254157  91.4748038  47.0550941  47.3557092  82.1768731  53.8045769
  47.7106480  82.4040204  54.6640235  48.0029224  82.5087108  53.1823025
  53.0854829  85.2987167  44.5095098  52.9472728  85.4888763  43.5816288
  52.7291048  86.0606550  44.9663149  41.2496955  79.2845262  50.5892110
  41.8896335  79.1434021  49.8915074  40.4174486  78.9979775  50.2130712
  53.1124209  87.3663694  49.5206370  53.5460716  87.2738983  50.3689424
  53.8255790  87.3421194  48.8826386  42.0257259  88.5847692  46.7027103
  42.8197858  88.0898012  46.5009678  41.3148952  88.0565555  46.3394808
  46.8452104  90.9665788  51.0539470  46.8989126  91.5356724  51.8217186
  45.9766885  91.1367673  50.6893508  38.3340023  82.7290774  42.7786856
  37.4037611  82.6675230  42.9956818  38.4297495  82.2066727  41.9823497
  38.2525572  79.2545587  45.3665097  38.5132389  80.1690920  45.2574258
  39.0742744  78.7870029  45.5161710  39.7250497  80.6683344  52.5363922
  40.3973551  80.4600706  51.8876571  38.8980284  80.4705430  52.0969154
  53.9739758  87.4087394  52.0539255  54.1675649  88.3133205  52.2998530
  53.8740377  86.9494813  52.8877840  45.6276069  77.2945285  54.5529583
  44.9803984  77.9935235  54.4594059  46.3977085  77.7281429  54.9205831
  49.0354867  87.5594137  57.6280136  48.8840374  87.3304689  56.7110220
  49.0259547  88.5164739  57.6411481  45.8040204  85.1326050  52.6126402
  46.7332264  85.2837209  52.4395370  45.3831234  85.2210071  51.7575049
  44.6028535  89.1576714  50.3824940  44.4639621  88.7895499  51.2550878
  43.8143132  89.6724354  50.2108898  45.1976687  94.2585811  41.7250476
  45.3728443  93.7873854  42.5396099  44.5109475  94.8851577  41.9531737
  46.1533751  88.5358317  47.7713778  45.8183583  88.4959087  48.6671428
  45.6537696  87.8703033  47.2984188  40.1277994  83.9425947  53.2966359
  39.9897792  83.2106186  53.8977898  41.0382918  83.8534847  53.0150547
  49.0892942  85.8814351  38.0450837  48.4722113  85.1561179  37.9483890
  48.6209431  86.6423712  37.7017912  42.7560295  83.6545906  52.7850039
  43.4659914  83.0139099  52.7436657  42.7129603  83.9058801  53.7076219
  50.7447074  90.5913260  55.7056618  50.6859620  89.9072480  55.0387201
  51.1466592  91.3332250  55.2537244  41.4689229  80.6411124  54.6045678
  40.9326586  80.1901863  55.2567274  40.8805938  80.7757033  53.8616142
  39.7637773  97.4075174  48.4990337  40.0034371  98.0393698  49.1769355
  38.9206969  97.0563214  48.7855696  40.8791488  80.0999776  37.1672142
  40.0020954  79.9788576  36.8034388  41.3549241  79.3085854  36.9151030
  50.7464481  88.5552844  53.9370597  49.8591260  88.2178765  54.0596996
  51.3163032  87.8235875  54.1739363  32.3993628  84.8876935  47.2613649
  33.0864668  84.5738665  46.6734664  32.2441757  85.7918300  46.9880900
  37.2028350  79.7767132  51.6898673  37.1186539  79.1692801  50.9549082
  36.3811057  80.2676150  51.6908169  44.2765634  93.2154296  50.9031841
  44.2035806  94.0209267  51.4151145  43.8343028  93.4146262  50.0779862
  44.0655414  92.4526066  44.4134662  43.2822936  92.9947746  44.5072887
  44.7648159  92.9700046  44.8128903  47.3752064  78.2620695  47.0568868
  47.8720764  77.5090658  46.7369938  46.6039046  78.2985012  46.4912077
  55.2281822  83.9661061  48.6987159  55.2171698  84.8485776  48.3281092
  54.3599201  83.6132612  48.5041696  46.7364318  93.1141130  53.0589999
  47.4492290  93.7488595  52.9865901  46.2454347  93.2104996  52.2430001
  48.4581845  87.0192383  44.6307291  47.5238124  87.1393845  44.4611995
  48.6358513  86.1164849  44.3667301  43.9587033  80.4038078  46.7840552
  43.5884820  79.8509119  47.4721458  44.4546125  79.7996212  46.2315552
  51.8454396  82.8609702  45.1657325  52.3114848  83.6937694  45.0917628
  52.2961897  82.3954684  45.8702584  41.7876232  90.8635573  53.8795570
  42.4885691  91.4972056  54.0324964  41.3171347  91.2050305  53.1191209
  49.9130627  89.2053523  42.1643477  50.1890471  89.0910118  43.0737351
  49.0435126  88.8071008  42.1255650  49.8171059  75.2290289  49.2048226
  48.9034139  75.4594516  49.3730433  50.2464160  75.3128733  50.0562259
  49.5877518  83.4180181  51.7048120  48.9348968  83.6656088  51.0500573
  49.9657897  82.6044319  51.3710598  46.5484691  93.4539874  45.8076291
  46.7307086  92.6361530  46.2704043  47.3717677  93.6707566  45.3701181
  46.8826857  92.3808059  43.0691339  47.4114623  91.8700514  42.4561501
  47.1455076  92.0650589  43.9336872  45.6365091  84.1599992  58.1914158
  44.9605728  84.0594121  58.8616533  46.4592724  84.0039206  58.6550155
  37.3843950  90.3971928  50.8126673  37.9697386  89.6515616  50.9454577
  37.1868788  90.7075885  51.6963337  40.2382605  93.4323176  45.8289115
  39.5692980  93.9169304  45.3453155  40.0995475  93.6792396  46.7432494
  31.9761604  82.9677529  49.5331116  32.0145704  82.4341119  50.3268234
  31.4701897  82.4412734  48.9142093  44.3787873  95.4666919  52.4271774
  44.9306181  95.6298541  53.1920859  44.7194067  96.0571357  51.7551798
  39.3552367  77.8142069  53.0293658  39.4193693  78.6756900  52.6171056
  39.2919487  77.2016071  52.2966017  38.8304639  79.8865202  56.6766693
  39.4576678  79.5042279  57.2904217  37.9732558  79.6679404  57.0422385
  49.2298748  90.2928177  58.2820428  49.7738652  90.9058135  57.7875383
  48.6485593  90.8507755  58.7987441  35.6070182  81.6941631  42.6085047
  35.9023623  80.7852309  42.5552101  34.7058218  81.6729370  42.2866050
  47.5156261  93.4148895  49.4135456  47.3907400  92.6138635  48.9046401
  48.1735352  93.9095088  48.9249426  39.1364429  79.7697627  48.5912596
  38.4151015  80.3833595  48.4520069  39.9257685  80.3055392  48.5129242
  49.5791169  91.2157915  51.0415006  48.6321505  91.0963266  50.9693333
  49.9273942  90.3280413  51.1241267  41.9390742  77.1052054  54.8653248
  42.4625144  77.3514350  55.6279557  41.7203076  77.9372089  54.4456385
  37.3358023  79.3755729  42.7324372  37.0070730  78.4953107  42.5499478
  37.6897394  79.3203397  43.6200762  46.5837602  91.0110631  47.2419358
  46.4362565  90.0827339  47.4226928  47.4091096  91.0330722  46.7576433
  40.4499847  79.6628698  43.0999850  40.7895919  80.1914620  42.3778459
  40.8971967  80.0009104  43.8758417  50.1871724  91.8339190  48.3284231
  51.1118272  91.6282051  48.1908682  50.0187028  91.5855591  49.2373572
  43.1443287  78.0465749  52.5502918  42.8040108  77.2473562  52.9523598
  42.4382294  78.3467460  51.9779751  43.7959759  75.1315061  51.0030241
  44.6185829  74.6575540  50.8809132  44.0397823  75.9105545  51.5028928
  42.4367994  78.1603320  41.2993143  43.1576356  78.5384573  40.7956860
  41.8133298  78.8792197  41.4028121  46.5799117  78.8648469  42.2351475
  46.7962731  79.7473107  41.9340303  46.0993184  78.4734682  41.5057117
  41.3198338  81.8234182  48.8122220  41.1742919  82.1374485  49.7046501
  40.8423542  82.4419082  48.2593118  43.1794721  78.8136730  48.8603109
  43.1656290  77.9177823  48.5235407  43.8967149  78.8207394  49.4941395
  45.0320852  79.2474070  50.9056237  44.7738629  80.1691141  50.9040567
  44.5005892  78.8504505  51.5956701  49.9767040  92.3524857  43.6846322
  50.1503918  91.7871280  42.9320175  50.4695932  93.1525752  43.5025812
  35.7944000  84.3639526  51.7509881  35.2497468  85.1399334  51.8830155
  36.6723350  84.7110331  51.5929002  42.5831617  77.6951110  44.1290680
  42.7047528  76.7667757  44.3281567  42.2933659  77.7089796  43.2168995
  45.4522807  75.3806021  47.2657399  45.4744504  75.4445354  46.3109379
  45.8690866  74.5410529  47.4597906  55.8306432  85.1161280  45.3036622
  56.2737578  84.3668606  44.9055745  54.9532942  85.1071417  44.9210354
  50.9642213  91.6691622  40.7843220  51.6593118  92.2898314  41.0030535
  51.3065363  90.8186973  41.0595598  36.5810022  83.4909423  54.6440038
  35.8391758  83.6392058  55.2304668  36.2602766  83.7517688  53.7806787
  52.8633636  89.1191327  42.3130551  53.3884960  89.4578600  41.5879871
  52.7755989  88.1838343  42.1293686  44.5253685  93.0325401  54.4420428
  44.8340811  92.7874548  55.3143127  45.3229167  93.2372039  53.9539298
  44.5474297  95.1863311  46.6725804  44.1079287  94.6939689  47.3658661
  45.2982414  94.6436278  46.4317880  37.0266636  91.3774851  46.6750433
  37.8524656  91.0778623  46.2949076  36.6760688  90.6082474  47.1240221
  41.9948169  90.7301320  48.7448106  41.3728178  90.0672025  48.4450334
  42.6653036  90.7562452  48.0621754  35.2275241  89.2961178  47.6339366
  34.3907149  88.8683352  47.4523367  35.1998886  89.4893621  48.5710157
  42.0672696  79.2083108  58.3380612  42.1160852  80.0845231  57.9558382
  42.6095211  78.6660501  57.7652255  52.5527542  89.7524231  57.6181749
  51.7623086  89.7348370  57.0786249  52.3160897  90.2912525  58.3730786
  52.6725417  86.6016697  54.9314478  52.7223422  86.4366705  55.8730001
  52.5639340  85.7343956  54.5412359  41.5561676  89.2805243  42.2206567
  41.7049796  89.9640707  41.5673239  42.3628119  89.2610333  42.7356022
  49.9629180  82.5847625  56.2473784  50.8639042  82.4454090  55.9557782
  50.0377154  82.7502080  57.1871962  44.2971985  79.9614480  55.0926971
  43.4275294  80.2548046  54.8209559  44.5331465  80.5454925  55.8134234
  54.1743614  89.0213639  55.1756499  53.8828422  89.3843619  56.0119960
  53.5615745  88.3080647  54.9969831  55.3739296  86.5866519  47.6959070
  56.2086188  87.0256323  47.8596630  55.5098425  86.1105172  46.8767315
  52.4230802  84.1446253  53.6436557  52.8984924  84.3373900  52.8355409
  51.4996368  84.2005439  53.3979941  39.3114309  85.3070421  43.2267636
  39.0660351  84.4032751  43.4247846  39.4810223  85.3087571  42.2847114
  47.0011019  76.1794097  52.6092391  47.5192963  76.9155124  52.2838880
  46.6466151  76.4858090  53.4439150  38.5809956  81.0398778  40.7253797
  37.8879201  81.1143133  40.0693833  38.3361708  80.2759122  41.2475314
  47.2523613  72.5994380  48.1293288  47.5325367  71.9317569  48.7553714
  48.0374220  72.7923475  47.6167952  45.0557081  91.7753373  39.6918314
  44.4831048  92.3943561  39.2388786  45.6289875  92.3252735  40.2258236
  51.1232471  81.0212014  51.8764863  52.0749894  81.1210111  51.8977087
  50.9535922  80.2290282  52.3862947  49.1446851  78.1067597  52.0624264
  48.5496783  78.3872610  51.3670752  48.8596547  78.5961498  52.8341005
  48.2754341  92.0590524  40.8226896  49.2085014  91.9936085  41.0259772
  48.1877554  92.8946790  40.3641429  50.9042358  91.3756394  37.7830844
  50.8255989  91.0416258  38.6766602  51.7252025  91.8678162  37.7822316
  53.6020549  84.2418133  50.9907163  53.5696869  83.3034134  51.1766846
  54.2121173  84.3202170  50.2572987  45.4403880  83.1114186  37.0334367
  46.3862985  82.9820394  37.1022785  45.0618125  82.3728848  37.5103795
  53.7515037  81.0329177  51.0365446  53.2354086  80.2487633  50.8495375
  54.6354986  80.7047893  51.2011965  51.4125764  74.7770192  46.9961258
  51.2150586  74.4685280  47.8804590  52.0225470  75.5031831  47.1259188
  59.4197099  85.3034140  50.1313199  60.1500487  85.0419428  50.6920903
  58.8104044  84.5662862  50.1715267  57.5012396  83.4442003  50.7287651
  56.7745560  83.3097968  50.1204142  57.0859683  83.7518831  51.5344369
  45.3242572  87.1631932  58.4935024  46.2445582  87.3410531  58.6875070
  45.2892155  86.2187978  58.3414723  43.6246797  81.0364163  36.9689252
  42.7178252  80.7397275  37.0451965  43.9022778  80.7393981  36.1023538
  34.5424737  82.3570526  47.4188298  34.2227522  81.5035834  47.1262672
  33.9958166  82.5719104  48.1746266  38.3204645  85.0732967  51.1357805
  38.5390655  86.0050075  51.1545839  38.7330419  84.7140941  51.9212609
  45.2408863  75.5801052  43.1233493  44.4309591  75.2348137  43.4988739
  45.9293280  75.2708596  43.7121105  47.1699411  74.6579099  44.7457790
  47.7230450  75.0774553  45.4047813  47.4069497  73.7314847  44.7880746
  43.1932510  80.6466173  60.5260554  43.0929237  81.5960530  60.4572645
  42.9754052  80.3184412  59.6536624  42.3945582  77.8951098  37.1101231
  43.2564746  78.2205996  37.3697048  42.5795926  77.1082594  36.5974297
  34.4112997  85.9773438  49.3881420  33.7176469  85.5627390  48.8751374
  35.1585988  86.0193974  48.7914839  50.5478218  76.7679624  44.2536454
  49.9676887  77.4264428  43.8714506  50.2814151  75.9456969  43.8423872
  48.9981784  76.1684682  46.4557774  49.4981563  76.2801217  45.6472093
  49.6417392  75.8645735  47.0958583  43.0563780  84.0763312  59.3425615
  42.5730862  84.8763672  59.5489504  43.1424719  84.0871257  58.3893059
  36.3249740  85.9091691  47.2647435  36.3020428  86.0079379  46.3129318
  36.6350376  86.7556842  47.5864601  38.9837118  87.9667846  51.3794049
  39.9380371  87.9351789  51.3123981  38.7849641  87.5058470  52.1944275
  39.5736500  86.5368962  53.9464847  40.3929389  87.0313041  53.9699684
  39.8473308  85.6200931  53.9182414  49.3303096  78.9279715  43.3092802
  48.4428951  79.2129365  43.0912997  49.7457085  78.7673478  42.4620079
  52.6817632  78.9526236  47.0247142  53.4578022  79.4422688  47.2971758
  51.9565766  79.3784290  47.4819011  55.1190191  79.6653855  48.0821082
  55.7134682  79.4249591  47.3714390  55.1916775  78.9460985  48.7094618
  37.3387347  93.5087466  48.3964247  37.2041815  92.7487867  47.8302245
  36.9219409  94.2328366  47.9293036  48.4746310  88.6924389  37.4040822
  49.1782160  88.8974392  38.0198478  47.7508958  89.2601151  37.6689906
  49.3044120  84.4434251  43.5243092  49.2479321  84.9002802  42.6850725
  49.8572462  83.6824935  43.3465935  53.1148926  80.2323982  44.3493212
  52.8585860  79.8320618  45.1801420  52.4901794  80.9467776  44.2243351
  57.4261264  82.9720056  46.8564503  56.8660822  83.0413245  47.6296065
  56.8204767  82.7961040  46.1364000  40.4956472  94.4056783  48.6082690
  40.3788857  95.3502215  48.5061380  39.6748919  94.1030344  48.9968489
  50.3833007  89.1306919  39.4539282  51.2178611  88.6988117  39.2716757
  50.2217350  88.9588932  40.3816177  50.0378899  85.6339032  40.8195622
  49.9827703  85.4683303  39.8784066  49.4124954  86.3415065  40.9757811
  34.8271414  80.8707096  54.6457044  35.4730278  80.3606050  55.1344269
  34.6188565  81.6075778  55.2200469  47.3524806  87.9387944  60.1449184
  48.2215966  88.1128596  59.7835819  46.8731558  88.7582361  60.0224914
  43.3475025  75.1347141  40.3980940  43.3353694  76.0788981  40.5549211
  44.2398447  74.9517286  40.1040401  41.5210987  95.0585045  51.8238618
  42.4238233  95.0908655  52.1405113  41.2948357  94.1285496  51.8384954
  43.2764589  93.8116031  48.4848697  42.3260220  93.8117893  48.3713069
  43.5797075  93.0648766  47.9684731  47.1627144  71.7289918  44.6526877
  46.3959540  71.1748404  44.7983559  47.5737849  71.8011786  45.5141028
  39.1668905  78.0174713  58.7432058  40.0300367  77.6611518  58.9535383
  38.5934316  77.6788608  59.4307462  59.0117282  99.6476570  49.5494459
  59.6495692  99.5283317  48.8457799  58.8938125 100.5957414  49.6082411
  55.8206988  99.6003998  49.4855984  55.4825500  99.4845062  48.5976519
  56.6896757  99.1995163  49.4656990  51.6793804 101.4539474  45.4752875
  51.1158669 101.3629411  44.7069162  51.5646199 100.6339379  45.9555367
  56.3026771 100.7538850  55.4442189  56.2915412 100.3591648  54.5722693
  56.4647411 100.0204922  56.0375961  49.2258236 102.9490666  48.3137095
  50.0179528 102.6081490  47.8983394  49.4654886 103.0585641  49.2339248
  57.2593363 105.1210442  40.7867340  56.6081343 105.7064522  40.4001353
  58.0537726 105.6516637  40.8462377  51.1848990 102.2099579  41.1854474
  51.9579866 101.6628566  41.0467350  51.5374389 103.0743828  41.3968935
  53.0234033 103.5375961  54.3921373  52.7323898 104.4421592  54.2768040
  53.6591017 103.5792489  55.1065443  53.9490239 100.9152810  50.9822733
  54.5453812 100.6908832  50.2679696  54.0065211 100.1737555  51.5848181
  53.5215268  98.3692245  38.8172924  53.7740788  97.8473766  38.0556387
  52.5839827  98.2058391  38.9199607  58.5658551  97.3728024  46.6247667
  59.3521640  96.9547447  46.2738084  58.8297255  98.2774116  46.7929315
  58.7368628 102.8100874  41.3236324  58.1014461 102.8835500  42.0357229
  58.4066034 103.3994473  40.6455403  63.9666978  97.3103257  47.5280646
  64.6992150  96.7402474  47.7618475  63.2106333  96.9224857  47.9687151
  53.2411557 100.2720351  41.0197299  53.1247815  99.5965255  41.6878383
  53.3513816  99.7852725  40.2029452  55.5843097  99.7330498  44.7243988
  55.2201305  99.2061119  45.4356910  56.4410213  99.3428967  44.5510473
  61.4892398  91.0224831  51.9875254  61.1575723  91.8920242  51.7636469
  60.8938011  90.7061115  52.6669285  55.2248584  94.7620398  39.7205337
  55.3922987  95.6300634  40.0875808  55.0345753  94.9247680  38.7966626
  57.9823918 103.2237377  51.3871167  57.6824641 104.1262416  51.2786974
  57.6374977 102.9569560  52.2392320  51.4336399  99.6751174  47.4207871
  50.5086896  99.5427388  47.6285563  51.6820812 100.4545393  47.9177814
  61.3821061  95.7419917  49.0668604  60.4737939  95.6735325  48.7727365
  61.3308657  96.2191862  49.8950430  55.2037805  97.2178055  40.7052003
  55.0837430  97.6635106  41.5437484  54.5090394  97.5663373  40.1465542
  48.7945210  99.3184447  48.2551660  48.9237591  99.5718926  49.1691072
  48.1142661  99.9112155  47.9356315  52.9644697 109.9881697  44.3542135
  52.8868727 110.9389522  44.4330615  52.3606341 109.6427570  45.0117061
  55.4561927  97.1609563  57.0103502  54.6795261  97.7203483  57.0006366
  56.0952490  97.6466346  57.5318372  60.9022871  97.6899529  41.5332337
  61.8140728  97.9226915  41.3580035  60.3932519  98.2736573  40.9707416
  53.7108299  99.9695016  56.5721469  54.4522984 100.5080060  56.2956292
  53.0045285 100.5961305  56.7293020  59.1863639 102.1124156  55.1693630
  59.5946995 101.6706567  54.4248262  58.4640901 101.5376784  55.4227823
  55.5394709  97.0496763  52.5427187  56.3855904  97.4736177  52.6861836
  55.4793347  96.3930388  53.2365750  59.5092454 102.6725347  48.9245919
  58.8801316 102.8371061  48.2221987  59.1218116 103.0866957  49.6956883
  63.3881686 103.6079785  46.2790283  62.7032724 103.9878686  45.7287316
  63.4725535 104.2175112  47.0122230  58.6894154  94.7101132  54.2008361
  58.4455086  95.4643192  53.6642636  58.9654085  95.0886479  55.0355608
  60.6432617 101.2539744  52.8785626  60.8549512 101.8971504  52.2020007
  60.5962366 100.4202060  52.4107556  58.2458846  93.8657565  49.7822198
  57.3843325  94.1638818  50.0738936  58.2721281  94.0827963  48.8503231
  55.0620416 102.4099755  46.1896004  55.5258761 102.6887458  45.4000626
  54.7977214 101.5083200  46.0069095  51.9544497 101.9571237  49.1275767
  52.5245854 102.3858505  48.4893252  52.5452609 101.6753821  49.8259953
  53.9989302  98.5322908  42.9985569  54.7013345  98.9843951  43.4659496
  53.6669930  97.8906726  43.6265462  52.4469663  97.1234664  57.3736779
  51.8168324  97.8050945  57.6072175  52.3405751  97.0117746  56.4289917
  47.7414636  96.7906460  48.3002703  46.9513690  97.0463989  47.8242813
  48.2325883  97.6054798  48.4054743  61.7578445 104.1311699  51.0507984
  62.5795889 103.7291887  50.7690665  61.7540848 104.0279934  52.0024099
  49.6929381  97.1551039  45.2586179  48.8960544  97.2669734  45.7769675
  49.4654973  97.4937692  44.3927070  55.5235049 103.6795743  53.2068694
  55.5879481 104.1416150  54.0426866  54.8145973 103.0493108  53.3351004
  46.0252339  97.0436951  50.7317693  46.2760377  97.9283961  50.9975269
  46.5611887  96.8641552  49.9592785  69.8484438 100.4750448  47.3992955
  69.0948147  99.9057846  47.2436959  69.9831979 100.4413112  48.3463590
  55.2383066 105.3463850  43.0747674  55.1028741 106.1915386  43.5032522
  55.7792879 105.5483128  42.3113608  48.6912464 102.8639288  43.6475599
  49.2036984 103.6582538  43.7981164  49.3435177 102.1665579  43.5809201
  50.5007348 105.9805044  45.7298353  50.6773977 106.9023009  45.5419337
  51.2964182 105.6663464  46.1592732  49.7859705  98.0269676  55.6060516
  49.6713220  97.1254934  55.9067615  48.9304223  98.2733373  55.2545332
  56.8651543 105.9687417  57.2048016  56.4215397 105.1823795  56.8868921
  57.5268756 106.1566567  56.5391907  51.6238664 107.4983218  51.7308695
  52.1746089 107.3700282  50.9585689  50.7850140 107.7978107  51.3803588
  58.9632781 106.2490217  55.2329418  58.9451256 107.0699098  54.7409687
  59.8852701 106.1244292  55.4579559  55.4205835 103.7634346  56.0752926
  55.9534172 103.0022634  55.8452234  54.8919916 103.4707998  56.8177081
  58.5875530  88.8694412  51.6046568  58.2439799  89.7596054  51.5285678
  58.9554492  88.6796070  50.7416153  46.6561380 101.1927942  44.4235170
  47.4936602 101.6024951  44.2068878  46.8339648 100.2527385  44.3935364
  58.5525813  98.8603023  40.1119003  58.0372436  99.6307628  40.3507390
  58.2803121  98.1868159  40.7352064  56.1372924  93.7052724  45.1704241
  55.2814520  93.3159574  44.9909880  56.5499875  93.7844685  44.3104027
  57.6672070  91.2399067  49.5695801  57.1636866  91.2029202  48.7563606
  57.9602677  92.1491810  49.6292458  53.9114956  91.3237797  48.5761983
  54.7767953  91.1280606  48.2167872  53.9792465  91.0948149  49.5031340
  63.5260087 101.6135378  42.0472176  62.7489529 101.2746537  41.6027338
  64.2051568 101.6188001  41.3727141  58.3412116  96.7330115  41.9378784
  58.0362251  97.0476264  42.7888927  59.2942558  96.8111535  41.9806117
  56.7858548 102.8920339  43.5871738  56.2579909 102.1573098  43.2744976
  56.2846050 103.6695015  43.3411706  61.7651394 101.0869359  48.7038784
  61.1075068 101.7768620  48.7918913  62.5691793 101.4765791  49.0472771
  51.5177275  93.5540005  45.9478350  52.0921027  93.3315186  45.2151543
  52.1048258  93.6228699  46.7006951  60.5756852  99.4413732  46.7542726
  61.0888734 100.0743724  47.2564436  61.2258076  98.8414927  46.3886086
  51.8446862  95.5844466  39.9674235  51.0084175  95.9219152  40.2883510
  51.7051632  95.4493446  39.0301372  53.8199943  90.4281254  44.6753419
  53.1664355  90.1130271  44.0510034  53.7780417  89.8056994  45.4013242
  54.9311148 100.7100549  36.5906711  54.0238210 100.4789802  36.7897860
  55.4282180  99.9138168  36.7780693  57.8379227 109.4198056  39.5103397
  57.1640925 109.7229753  40.1188355  58.2245049 110.2227136  39.1608854
  57.0537683  96.9163187  49.0001067  56.1360245  97.1378134  48.8422755
  57.4697827  96.9909498  48.1412774  57.8372731  98.3154603  44.1303747
  58.5844550  98.8276000  43.8210869  58.1064321  97.9938656  44.9908140
  56.1099381 100.8113144  41.1130701  55.2010600 100.5272176  41.2103171
  56.1394465 101.2312222  40.2534008  61.3418649 104.4219733  44.8821869
  60.8880976 103.5810643  44.9387059  60.7112615 105.0581132  45.2196649
  60.2851568  95.3511719  46.1122536  59.5474325  94.8389105  46.4432779
  60.5378342  94.9112101  45.3005813  59.7851588 106.2596230  45.8171687
  60.0774562 106.8201287  45.0984053  60.2950208 106.5524791  46.5724846
  60.3863196  88.1287971  46.7064306  60.6922072  87.2685335  46.4190221
  61.1115800  88.7205591  46.5063299  46.6787552  98.5318658  45.0945903
  46.4811951  97.9388018  44.3696970  46.1234216  98.2270868  45.8121842
  54.6584275  98.4241764  47.2140497  54.7132885  97.4715601  47.1382973
  53.8475477  98.5801203  47.6981795  55.8075469 102.3521887  38.4518780
  55.3694899 101.6357746  37.9924417  56.5485910 102.5798002  37.8903871
  52.5976635  97.0418824  44.9730875  51.7844501  97.3412995  45.3796068
  53.0935629  96.6474513  45.6905358  54.7485213 107.0376581  46.9065140
  54.7061392 107.2637427  45.9773672  55.6647912 106.8039956  47.0550941
  58.1950847  97.5060648  53.8045769  58.5500235  97.7332122  54.6640235
  58.8422978  97.8379025  53.1823025  63.9248584 100.6279084  44.5095098
  63.7866482 100.8180680  43.5816288  63.5684803 101.3898467  44.9663149
  52.0890710  94.6137180  50.5892110  52.7290089  94.4725939  49.8915074
  51.2568240  94.3271693  50.2130712  63.9517963 102.6955611  49.5206370
  64.3854470 102.6030900  50.3689424  64.6649544 102.6713112  48.8826386
  52.8651014 103.9139610  46.7027103  53.6591612 103.4189930  46.5009678
  52.1542706 103.3857473  46.3394808  57.6845858 106.2957705  51.0539470
  57.7382881 106.8648642  51.8217186  56.8160640 106.4659591  50.6893508
  49.1733777  98.0582692  42.7786856  48.2431365  97.9967147  42.9956818
  49.2691249  97.5358644  41.9823497  49.0919326  94.5837505  45.3665097
  49.3526144  95.4982838  45.2574258  49.9136499  94.1161947  45.5161710
  50.5644252  95.9975262  52.5363922  51.2367305  95.7892624  51.8876571
  49.7374038  95.7997348  52.0969154  56.4669824  92.6237203  54.5529583
  55.8197739  93.3227152  54.4594059  57.2370839  93.0573347  54.9205831
  56.6433958 100.4617968  52.6126402  57.5726018 100.6129127  52.4395370
  56.2224988 100.5501988  51.7575049  55.4422290 104.4868632  50.3824940
  55.3033376 104.1187416  51.2550878  54.6536886 105.0016271  50.2108898
  56.0370442 109.5877728  41.7250476  56.2122198 109.1165772  42.5396099
  55.3503230 110.2143495  41.9531737  56.9927505 103.8650235  47.7713778
  56.6577338 103.8251005  48.6671428  56.4931451 103.1994951  47.2984188
  50.9671749  99.2717865  53.2966359  50.8291547  98.5398104  53.8977898
  51.8776672  99.1826765  53.0150547  59.9286697 101.2106269  38.0450837
  59.3115867 100.4853097  37.9483890  59.4603185 101.9715629  37.7017912
  53.5954050  98.9837824  52.7850039  54.3053668  98.3431016  52.7436657
  53.5523358  99.2350719  53.7076219  61.5840828 105.9205177  55.7056618
  61.5253374 105.2364397  55.0387201  61.9860347 106.6624167  55.2537244
  52.3082984  95.9703042  54.6045678  51.7720341  95.5193780  55.2567274
  51.7199692  96.1048951  53.8616142  50.6031527 112.7367091  48.4990337
  50.8428125 113.3685615  49.1769355  49.7600724 112.3855131  48.7855696
  51.7185243  95.4291693  37.1672142  50.8414709  95.3080494  36.8034388
  52.1942996  94.6377772  36.9151030  61.5858236 103.8844761  53.9370597
  60.6985014 103.5470683  54.0596996  62.1556787 103.1527793  54.1739363
  43.2387383 100.2168853  47.2613649  43.9258423  99.9030583  46.6734664
  43.0835511 101.1210218  46.9880900  48.0422105  95.1059050  51.6898673
  47.9580294  94.4984719  50.9549082  47.2204811  95.5968068  51.6908169
  55.1159389 108.5446214  50.9031841  55.0429560 109.3501185  51.4151145
  54.6736782 108.7438179  50.0779862  54.9049169 107.7817984  44.4134662
  54.1216690 108.3239664  44.5072887  55.6041914 108.2991963  44.8128903
  58.2145819  93.5912613  47.0568868  58.7114518  92.8382575  46.7369938
  57.4432800  93.6276930  46.4912077  66.0675576  99.2952979  48.6987159
  66.0565452 100.1777694  48.3281092  65.1992956  98.9424529  48.5041696
  57.5758072 108.4433048  53.0589999  58.2886045 109.0780512  52.9865901
  57.0848101 108.5396914  52.2430001  59.2975599 102.3484300  44.6307291
  58.3631878 102.4685763  44.4611995  59.4752268 101.4456767  44.3667301
  54.7980787  95.7329996  46.7840552  54.4278575  95.1801036  47.4721458
  55.2939880  95.1288130  46.2315552  62.6848151  98.1901620  45.1657325
  63.1508603  99.0229611  45.0917628  63.1355651  97.7246601  45.8702584
  52.6269986 106.1927491  53.8795570  53.3279446 106.8263974  54.0324964
  52.1565101 106.5342223  53.1191209  60.7524382 104.5345441  42.1643477
  61.0284226 104.4202035  43.0737351  59.8828881 104.1362926  42.1255650
  60.6564813  90.5582207  49.2048226  59.7427893  90.7886433  49.3730433
  61.0857915  90.6420651  50.0562259  60.4271272  98.7472099  51.7048120
  59.7742722  98.9948006  51.0500573  60.8051652  97.9336237  51.3710598
  57.3878446 108.7831792  45.8076291  57.5700840 107.9653448  46.2704043
  58.2111432 108.9999484  45.3701181  57.7220611 107.7099977  43.0691339
  58.2508378 107.1992431  42.4561501  57.9848831 107.3942507  43.9336872
  56.4758845  99.4891910  58.1914158  55.7999482  99.3886039  58.8616533
  57.2986479  99.3331123  58.6550155  48.2237704 105.7263846  50.8126673
  48.8091141 104.9807534  50.9454577  48.0262543 106.0367803  51.6963337
  51.0776359 108.7615094  45.8289115  50.4086735 109.2461221  45.3453155
  50.9389229 109.0084314  46.7432494  42.8155359  98.2969446  49.5331116
  42.8539458  97.7633037  50.3268234  42.3095652  97.7704652  48.9142093
  55.2181628 110.7958837  52.4271774  55.7699936 110.9590459  53.1920859
  55.5587821 111.3863275  51.7551798  50.1946121  93.1433987  53.0293658
  50.2587448  94.0048818  52.6171056  50.1313241  92.5307989  52.2966017
  49.6698394  95.2157119  56.6766693  50.2970432  94.8334197  57.2904217
  48.8126313  94.9971321  57.0422385  60.0692502 105.6220095  58.2820428
  60.6132406 106.2350053  57.7875383  59.4879347 106.1799673  58.7987441
  46.4463936  97.0233549  42.6085047  46.7417377  96.1144227  42.5552101
  45.5451972  97.0021288  42.2866050  58.3550015 108.7440813  49.4135456
  58.2301155 107.9430552  48.9046401  59.0129106 109.2387006  48.9249426
  49.9758183  95.0989545  48.5912596  49.2544769  95.7125513  48.4520069
  50.7651439  95.6347310  48.5129242  60.4184924 106.5449833  51.0415006
  59.4715259 106.4255184  50.9693333  60.7667697 105.6572331  51.1241267
  52.7784497  92.4343972  54.8653248  53.3018899  92.6806268  55.6279557
  52.5596830  93.2664006  54.4456385  48.1751778  94.7047646  42.7324372
  47.8464484  93.8245025  42.5499478  48.5291149  94.6495315  43.6200762
  57.4231357 106.3402549  47.2419358  57.2756319 105.4119256  47.4226928
  58.2484850 106.3622640  46.7576433  51.2893601  94.9920616  43.0999850
  51.6289674  95.5206537  42.3778459  51.7365722  95.3301022  43.8758417
  61.0265479 107.1631108  48.3284231  61.9512026 106.9573969  48.1908682
  60.8580782 106.9147509  49.2373572  53.9837042  93.3757667  52.5502918
  53.6433862  92.5765480  52.9523598  53.2776048  93.6759378  51.9779751
  54.6353514  90.4606979  51.0030241  55.4579583  89.9867457  50.8809132
  54.8791577  91.2397463  51.5028928  53.2761748  93.4895238  41.2993143
  53.9970111  93.8676490  40.7956860  52.6527052  94.2084114  41.4028121
  57.4192871  94.1940387  42.2351475  57.6356486  95.0765024  41.9340303
  56.9386938  93.8026600  41.5057117  52.1592093  97.1526100  48.8122220
  52.0136673  97.4666403  49.7046501  51.6817296  97.7711000  48.2593118
  54.0188475  94.1428648  48.8603109  54.0050044  93.2469741  48.5235407
  54.7360904  94.1499312  49.4941395  55.8714606  94.5765988  50.9056237
  55.6132384  95.4983059  50.9040567  55.3399647  94.1796423  51.5956701
  60.8160795 107.6816775  43.6846322  60.9897672 107.1163198  42.9320175
  61.3089686 108.4817670  43.5025812  46.6337755  99.6931444  51.7509881
  46.0891223 100.4691252  51.8830155  47.5117105 100.0402249  51.5929002
  53.4225371  93.0243028  44.1290680  53.5441283  92.0959674  44.3281567
  53.1327414  93.0381714  43.2168995  56.2916562  90.7097938  47.2657399
  56.3138259  90.7737272  46.3109379  56.7084621  89.8702447  47.4597906
  66.6700186 100.4453198  45.3036622  67.1131332  99.6960523  44.9055745
  65.7926696 100.4363334  44.9210354  61.8035967 106.9983539  40.7843220
  62.4986872 107.6190232  41.0030535  62.1459118 106.1478891  41.0595598
  47.4203777  98.8201340  54.6440038  46.6785513  98.9683976  55.2304668
  47.0996521  99.0809606  53.7806787  63.7027391 104.4483245  42.3130551
  64.2278715 104.7870518  41.5879871  63.6149743 103.5130260  42.1293686
  55.3647439 108.3617319  54.4420428  55.6734566 108.1166465  55.3143127
  56.1622921 108.5663957  53.9539298  55.3868051 110.5155228  46.6725804
  54.9473042 110.0231607  47.3658661  56.1376168 109.9728196  46.4317880
  47.8660390 106.7066769  46.6750433  48.6918410 106.4070541  46.2949076
  47.5154442 105.9374392  47.1240221  52.8341923 106.0593237  48.7448106
  52.2121933 105.3963942  48.4450334  53.5046790 106.0854369  48.0621754
  46.0668995 104.6253096  47.6339366  45.2300904 104.1975270  47.4523367
  46.0392641 104.8185539  48.5710157  52.3955430 104.6097161  42.2206567
  52.5443551 105.2932625  41.5673239  53.2021874 104.5902251  42.7356022
  55.1365739  95.2906398  55.0926971  54.2669049  95.5839964  54.8209559
  55.3725220  95.8746843  55.8134234  66.2133051 101.9158436  47.6959070
  67.0479942 102.3548240  47.8596630  66.3492180 101.4397090  46.8767315
  50.1508063 100.6362338  43.2267636  49.9054105  99.7324668  43.4247846
  50.3203978 100.6379489  42.2847114  57.8404773  91.5086015  52.6092391
  58.3586717  92.2447042  52.2838880  57.4859906  91.8150008  53.4439150
  49.4203711  96.3690696  40.7253797  48.7272956  96.4435051  40.0693833
  49.1755463  95.6051040  41.2475314  58.0917367  87.9286297  48.1293288
  58.3719121  87.2609486  48.7553714  58.8767974  88.1215393  47.6167952
  55.8950836 107.1045291  39.6918314  55.3224803 107.7235478  39.2388786
  56.4683630 107.6544653  40.2258236  61.9626226  96.3503931  51.8764863
  62.9143649  96.4502029  51.8977087  61.7929676  95.5582200  52.3862947
  59.9840605  93.4359514  52.0624264  59.3890537  93.7164527  51.3670752
  59.6990302  93.9253415  52.8341005  59.1148096 107.3882441  40.8226896
  60.0478769 107.3228003  41.0259772  59.0271308 108.2238708  40.3641429
  61.7436112 106.7048312  37.7830844  61.6649744 106.3708175  38.6766602
  62.5645779 107.1970080  37.7822316  64.4414303  99.5710051  50.9907163
  64.4090624  98.6326052  51.1766846  65.0514927  99.6494088  50.2572987
  56.2797634  98.4406104  37.0334367  57.2256739  98.3112312  37.1022785
  55.9011879  97.7020766  37.5103795  62.2519519  90.1062110  46.9961258
  62.0544340  89.7977198  47.8804590  62.8619224  90.8323749  47.1259188
  56.1636327 102.4923850  58.4935024  57.0839336 102.6702449  58.6875070
  56.1285910 101.5479895  58.3414723  54.4640551  96.3656080  36.9689252
  53.5572007  96.0689193  37.0451965  54.7416533  96.0685898  36.1023538
  45.3818492  97.6862444  47.4188298  45.0621276  96.8327752  47.1262672
  44.8351920  97.9011022  48.1746266  49.1598399 100.4024885  51.1357805
  49.3784409 101.3341993  51.1545839  49.5724173 100.0432859  51.9212609
  56.0802617  90.9092970  43.1233493  55.2703346  90.5640055  43.4988739
  56.7687034  90.6000514  43.7121105  58.0093166  89.9871017  44.7457790
  58.5624204  90.4066470  45.4047813  58.2463252  89.0606765  44.7880746
  53.2339336  93.2243016  37.1101231  54.0958500  93.5497914  37.3697048
  53.4189680  92.4374511  36.5974297  45.2506752 101.3065355  49.3881420
  44.5570223 100.8919308  48.8751374  45.9979743 101.3485892  48.7914839
  61.3871973  92.0971542  44.2536454  60.8070642  92.7556346  43.8714506
  61.1207905  91.2748887  43.8423872  59.8375539  91.4976600  46.4557774
  60.3375317  91.6093134  45.6472093  60.4811147  91.1937653  47.0958583
  53.8957535  99.4055229  59.3425615  53.4124617 100.2055589  59.5489504
  53.9818474  99.4163174  58.3893059  47.1643494 101.2383609  47.2647435
  47.1414183 101.3371296  46.3129318  47.4744131 102.0848760  47.5864601
  49.8230872 103.2959764  51.3794049  50.7774126 103.2643706  51.3123981
  49.6243396 102.8350388  52.1944275  50.4130254 101.8660880  53.9464847
  51.2323143 102.3604959  53.9699684  50.6867062 100.9492848  53.9182414
  60.1696851  94.2571632  43.3092802  59.2822706  94.5421283  43.0912997
  60.5850840  94.0965396  42.4620079  63.5211387  94.2818153  47.0247142
  64.2971777  94.7714606  47.2971758  62.7959521  94.7076208  47.4819011
  48.1781101 108.8379384  48.3964247  48.0435569 108.0779784  47.8302245
  47.7613163 109.5620283  47.9293036  59.3140064 104.0216307  37.4040822
  60.0175914 104.2266310  38.0198478  58.5902713 104.5893069  37.6689906
  60.1437874  99.7726168  43.5243092  60.0873076 100.2294720  42.6850725
  60.6966217  99.0116853  43.3465935  63.9542680  95.5615900  44.3493212
  63.6979615  95.1612536  45.1801420  63.3295548  96.2759694  44.2243351
  68.2655018  98.3011973  46.8564503  67.7054576  98.3705163  47.6296065
  67.6598521  98.1252958  46.1364000  51.3350227 109.7348701  48.6082690
  51.2182611 110.6794133  48.5061380  50.5142673 109.4322262  48.9968489
  61.2226761 104.4598836  39.4539282  62.0572365 104.0280035  39.2716757
  61.0611104 104.2880850  40.3816177  60.8772654 100.9630950  40.8195622
  60.8221457 100.7975221  39.8784066  60.2518709 101.6706982  40.9757811
  45.6665169  96.1999014  54.6457044  46.3124032  95.6897968  55.1344269
  45.4582320  96.9367696  55.2200469  58.1918561 103.2679861  60.1449184
  59.0609720 103.4420514  59.7835819  57.7125312 104.0874278  60.0224914
  54.1868779  90.4639059  40.3980940  54.1747449  91.4080898  40.5549211
  55.0792201  90.2809204  40.1040401  52.3604741 110.3876962  51.8238618
  53.2631988 110.4200573  52.1405113  52.1342111 109.4577413  51.8384954
  54.1158343 109.1407949  48.4848697  53.1653974 109.1409811  48.3713069
  54.4190829 108.3940684  47.9684731  58.0020899  87.0581835  44.6526877
  57.2353294  86.5040322  44.7983559  58.4131604  87.1303704  45.5141028
  50.0062660  93.3466631  58.7432058  50.8694121  92.9903436  58.9535383
  49.4328070  93.0080526  59.4307462  69.8511037 114.9768487  49.5494459
  70.4889447 114.8575235  48.8457799  69.7331879 115.9249331  49.6082411
  66.6600743 114.9295915  49.4855984  66.3219254 114.8136980  48.5976519
  67.5290511 114.5287081  49.4656990  62.5187559 116.7831392  45.4752875
  61.9552424 116.6921329  44.7069162  62.4039954 115.9631296  45.9555367
  67.1420526 116.0830767  55.4442189  67.1309167 115.6883565  54.5722693
  67.3041165 115.3496840  56.0375961  60.0651990 118.2782583  48.3137095
  60.8573282 117.9373408  47.8983394  60.3048641 118.3877559  49.2339248
  68.0987117 120.4502360  40.7867340  67.4475097 121.0356440  40.4001353
  68.8931480 120.9808554  40.8462377  62.0242744 117.5391497  41.1854474
  62.7973620 116.9920484  41.0467350  62.3768143 118.4035746  41.3968935
  63.8627787 118.8667879  54.3921373  63.5717653 119.7713510  54.2768040
  64.4984771 118.9084407  55.1065443  64.7883994 116.2444728  50.9822733
  65.3847566 116.0200750  50.2679696  64.8458965 115.5029473  51.5848181
  64.3609022 113.6984163  38.8172924  64.6134543 113.1765684  38.0556387
  63.4233581 113.5350308  38.9199607  69.4052305 112.7019941  46.6247667
  70.1915394 112.2839364  46.2738084  69.6691009 113.6066033  46.7929315
  69.5762382 118.1392792  41.3236324  68.9408215 118.2127418  42.0357229
  69.2459789 118.7286390  40.6455403  74.8060732 112.6395174  47.5280646
  75.5385904 112.0694391  47.7618475  74.0500088 112.2516775  47.9687151
  64.0805311 115.6012269  41.0197299  63.9641569 114.9257172  41.6878383
  64.1907571 115.1144643  40.2029452  66.4236852 115.0622416  44.7243988
  66.0595059 114.5353037  45.4356910  67.2803968 114.6720885  44.5510473
  72.3286153 106.3516749  51.9875254  71.9969477 107.2212159  51.7636469
  71.7331766 106.0353033  52.6669285  66.0642339 110.0912316  39.7205337
  66.2316741 110.9592552  40.0875808  65.8739508 110.2539597  38.7966626
  68.8217672 118.5529295  51.3871167  68.5218395 119.4554333  51.2786974
  68.4768732 118.2861478  52.2392320  62.2730154 115.0043091  47.4207871
  61.3480650 114.8719305  47.6285563  62.5214567 115.7837311  47.9177814
  72.2214816 111.0711835  49.0668604  71.3131693 111.0027243  48.7727365
  72.1702412 111.5483780  49.8950430  66.0431560 112.5469973  40.7052003
  65.9231185 112.9927024  41.5437484  65.3484148 112.8955291  40.1465542
  59.6338965 114.6476365  48.2551660  59.7631346 114.9010844  49.1691072
  58.9536416 115.2404073  47.9356315  63.8038452 125.3173615  44.3542135
  63.7262482 126.2681440  44.4330615  63.2000095 124.9719487  45.0117061
  66.2955682 112.4901480  57.0103502  65.5189016 113.0495400  57.0006366
  66.9346245 112.9758263  57.5318372  74.0876462 109.2728273  50.8446478
  73.4450843 109.5660806  50.1986273  73.5831391 109.1581193  51.6499675
  71.7416626 113.0191446  41.5332337  72.6534482 113.2518833  41.3580035
  71.2326273 113.6028490  40.9707416  64.5502054 115.2986934  56.5721469
  65.2916738 115.8371978  56.2956292  63.8439039 115.9253222  56.7293020
  70.0257394 117.4416074  55.1693630  70.4340750 116.9998485  54.4248262
  69.3034655 116.8668702  55.4227823  66.3788464 112.3788681  52.5427187
  67.2249659 112.8028094  52.6861836  66.3187101 111.7222305  53.2365750
  70.3486208 118.0017265  48.9245919  69.7195071 118.1662979  48.2221987
  69.9611870 118.4158874  49.6956883  74.2275440 118.9371703  46.2790283
  73.5426478 119.3170604  45.7287316  74.3119289 119.5467029  47.0122230
  69.5287909 110.0393049  54.2008361  69.2848841 110.7935110  53.6642636
  69.8047839 110.4178397  55.0355608  71.4826372 116.5831662  52.8785626
  71.6943267 117.2263421  52.2020007  71.4356120 115.7493978  52.4107556
  69.0852601 109.1949482  49.7822198  68.2237080 109.4930736  50.0738936
  69.1115035 109.4119881  48.8503231  65.9014170 117.7391673  46.1896004
  66.3652516 118.0179376  45.4000626  65.6370968 116.8375117  46.0069095
  62.7938251 117.2863154  49.1275767  63.3639608 117.7150423  48.4893252
  63.3846363 117.0045739  49.8259953  64.8383056 113.8614825  42.9985569
  65.5407100 114.3135869  43.4659496  64.5063685 113.2198644  43.6265462
  63.2863418 112.4526582  57.3736779  62.6562078 113.1342863  57.6072175
  63.1799506 112.3409663  56.4289917  58.5808390 112.1198378  48.3002703
  57.7907444 112.3755906  47.8242813  59.0719638 112.9346716  48.4054743
  72.5972200 119.4603617  51.0507984  73.4189643 119.0583804  50.7690665
  72.5934603 119.3571851  52.0024099  60.5323136 112.4842957  45.2586179
  59.7354299 112.5961651  45.7769675  60.3048728 112.8229609  44.3927070
  66.3628803 119.0087660  53.2068694  66.4273236 119.4708068  54.0426866
  65.6539727 118.3785025  53.3351004  56.8646093 112.3728868  50.7317693
  57.1154132 113.2575878  50.9975269  57.4005642 112.1933470  49.9592785
  80.6878193 115.8042366  47.3992955  79.9341901 115.2349764  47.2436959
  80.8225734 115.7705030  48.3463590  66.0776821 120.6755768  43.0747674
  65.9422496 121.5207304  43.5032522  66.6186633 120.8775045  42.3113608
  62.5644160 106.7547348  59.7362030  62.1711106 106.2013546  60.4109674
  63.3810301 107.0657926  60.1268547  59.5306218 118.1931206  43.6475599
  60.0430739 118.9874456  43.7981164  60.1828931 117.4957496  43.5809201
  61.3401103 121.3096962  45.7298353  61.5167731 122.2314927  45.5419337
  62.1357936 120.9955381  46.1592732  65.4812121 108.1705227  57.3282286
  66.2221835 108.7712380  57.2486749  65.7130044 107.4282865  56.7700329
  60.6253459 113.3561594  55.6060516  60.5106975 112.4546851  55.9067615
  59.7697977 113.6025291  55.2545332  67.7045297 121.2979334  57.2048016
  67.2609151 120.5115713  56.8868921  68.3662511 121.4858485  56.5391907
  62.4632418 122.8275136  51.7308695  63.0139843 122.6992199  50.9585689
  61.6243894 123.1270025  51.3803588  69.8026535 121.5782134  55.2329418
  69.7845011 122.3991015  54.7409687  70.7246455 121.4536209  55.4579559
  66.2599589 119.0926264  56.0752926  66.7927926 118.3314552  55.8452234
  65.7313670 118.7999916  56.8177081  69.4269284 104.1986330  51.6046568
  69.0833554 105.0887971  51.5285678  69.7948247 104.0087987  50.7416153
  57.4955135 116.5219860  44.4235170  58.3330357 116.9316869  44.2068878
  57.6733403 115.5819302  44.3935364  69.3919567 114.1894941  40.1119003
  68.8766191 114.9599545  40.3507390  69.1196876 113.5160077  40.7352064
  66.9766678 109.0344642  45.1704241  66.1208274 108.6451492  44.9909880
  67.3893630 109.1136602  44.3104027  68.5065825 106.5690985  49.5695801
  68.0030620 106.5321120  48.7563606  68.7996432 107.4783728  49.6292458
  64.7508711 106.6529715  48.5761983  65.6161707 106.4572523  48.2167872
  64.8186220 106.4240066  49.5031340  74.3653841 116.9427295  42.0472176
  73.5883284 116.6038455  41.6027338  75.0445322 116.9479919  41.3727141
  69.1805870 112.0622033  41.9378784  68.8756006 112.3768182  42.7888927
  70.1336312 112.1403453  41.9806117  67.6252302 118.2212256  43.5871738
  67.0973664 117.4865016  43.2744976  67.1239805 118.9986933  43.3411706
  72.6045148 116.4161277  48.7038784  71.9468823 117.1060538  48.7918913
  73.4085547 116.8057709  49.0472771  62.3571030 108.8831922  45.9478350
  62.9314782 108.6607104  45.2151543  62.9442012 108.9520617  46.7006951
  71.4150607 114.7705649  46.7542726  71.9282489 115.4035641  47.2564436
  72.0651831 114.1706845  46.3886086  62.6840617 110.9136384  39.9674235
  61.8477929 111.2511070  40.2883510  62.5445386 110.7785363  39.0301372
  64.6593697 105.7573171  44.6753419  64.0058110 105.4422189  44.0510034
  64.6174172 105.1348912  45.4013242  65.7704902 116.0392466  36.5906711
  64.8631964 115.8081720  36.7897860  66.2675934 115.2430086  36.7780693
  68.6772981 124.7489974  39.5103397  68.0034680 125.0521670  40.1188355
  69.0638803 125.5519054  39.1608854  67.8931438 112.2455105  49.0001067
  66.9753999 112.4670052  48.8422755  68.3091581 112.3201415  48.1412774
  68.6766486 113.6446521  44.1303747  69.4238304 114.1567918  43.8210869
  68.9458075 113.3230573  44.9908140  66.9493136 116.1405061  41.1130701
  66.0404355 115.8564094  41.2103171  66.9788220 116.5604140  40.2534008
  72.1812403 119.7511651  44.8821869  71.7274730 118.9102561  44.9387059
  71.5506370 120.3873049  45.2196649  71.1245323 110.6803637  46.1122536
  70.3868079 110.1681023  46.4432779  71.3772096 110.2404018  45.3005813
  70.6245342 121.5888148  45.8171687  70.9168317 122.1493205  45.0984053
  71.1343963 121.8816709  46.5724846  71.2256950 103.4579889  46.7064306
  71.5315827 102.5977252  46.4190221  71.9509555 104.0497509  46.5063299
  57.5181306 113.8610575  45.0945903  57.3205706 113.2679936  44.3696970
  56.9627970 113.5562786  45.8121842  65.4978030 113.7533682  47.2140497
  65.5526640 112.8007518  47.1382973  64.6869232 113.9093121  47.6981795
  66.6469224 117.6813805  38.4518780  66.2088653 116.9649664  37.9924417
  67.3879664 117.9089920  37.8903871  63.4370390 112.3710742  44.9730875
  62.6238255 112.6704912  45.3796068  63.9329384 111.9766430  45.6905358
  65.5878968 122.3668499  46.9065140  65.5455146 122.5929345  45.9773672
  66.5041666 122.1331873  47.0550941  69.0344601 112.8352566  53.8045769
  69.3893989 113.0624039  54.6640235  69.6816733 113.1670943  53.1823025
  74.7642338 115.9571002  44.5095098  74.6260237 116.1472598  43.5816288
  74.4078557 116.7190385  44.9663149  62.9284464 109.9429097  50.5892110
  63.5683844 109.8017856  49.8915074  62.0961995 109.6563611  50.2130712
  74.7911718 118.0247529  49.5206370  75.2248225 117.9322818  50.3689424
  75.5043299 118.0005030  48.8826386  63.7044768 119.2431528  46.7027103
  64.4985367 118.7481848  46.5009678  62.9936461 118.7149391  46.3394808
  68.5239613 121.6249623  51.0539470  68.5776635 122.1940559  51.8217186
  67.6554394 121.7951508  50.6893508  60.0127532 113.3874609  42.7786856
  59.0825120 113.3259065  42.9956818  60.1085004 112.8650562  41.9823497
  59.9313081 109.9129422  45.3665097  60.1919898 110.8274755  45.2574258
  60.7530253 109.4453865  45.5161710  61.4038006 111.3267179  52.5363922
  62.0761060 111.1184542  51.8876571  60.5767793 111.1289265  52.0969154
  75.6527267 118.0671230  52.0539255  75.8463158 118.9717040  52.2998530
  75.5527886 117.6078649  52.8877840  67.3063578 107.9529120  54.5529583
  66.6591493 108.6519070  54.4594059  68.0764594 108.3865264  54.9205831
  70.7142376 118.2177972  57.6280136  70.5627883 117.9888524  56.7110220
  70.7047056 119.1748574  57.6411481  67.4827713 115.7909885  52.6126402
  68.4119773 115.9421045  52.4395370  67.0618743 115.8793906  51.7575049
  66.2816044 119.8160550  50.3824940  66.1427130 119.4479334  51.2550878
  65.4930641 120.3308189  50.2108898  66.8764196 124.9169646  41.7250476
  67.0515952 124.4457689  42.5396099  66.1896984 125.5435412  41.9531737
  67.8321259 119.1942152  47.7713778  67.4971092 119.1542922  48.6671428
  67.3325205 118.5286868  47.2984188  61.8065503 114.6009782  53.2966359
  61.6685301 113.8690021  53.8977898  62.7170427 114.5118682  53.0150547
  70.7680451 116.5398187  38.0450837  70.1509622 115.8145015  37.9483890
  70.2996940 117.3007547  37.7017912  64.4347804 114.3129742  52.7850039
  65.1447423 113.6722934  52.7436657  64.3917112 114.5642637  53.7076219
  72.4234583 121.2497095  55.7056618  72.3647129 120.5656315  55.0387201
  72.8254101 121.9916085  55.2537244  63.1476738 111.2994960  54.6045678
  62.6114095 110.8485698  55.2567274  62.5593447 111.4340868  53.8616142
  62.5578997 110.7583611  37.1672142  61.6808463 110.6372412  36.8034388
  63.0336750 109.9669689  36.9151030  72.4251990 119.2136679  53.9370597
  71.5378769 118.8762601  54.0596996  72.9950541 118.4819710  54.1739363
  54.0781137 115.5460771  47.2613649  54.7652177 115.2322501  46.6734664
  53.9229266 116.4502135  46.9880900  58.8815859 110.4350967  51.6898673
  58.7974048 109.8276637  50.9549082  58.0598566 110.9259986  51.6908169
  65.9553143 123.8738131  50.9031841  65.8823315 124.6793103  51.4151145
  65.5130537 124.0730097  50.0779862  65.7442923 123.1109901  44.4134662
  64.9610445 123.6531582  44.5072887  66.4435668 123.6283881  44.8128903
  69.0539573 108.9204531  47.0568868  69.5508273 108.1674493  46.7369938
  68.2826555 108.9568847  46.4912077  76.9069331 114.6244896  48.6987159
  76.8959207 115.5069612  48.3281092  76.0386710 114.2716447  48.5041696
  68.4151827 123.7724965  53.0589999  69.1279799 124.4072430  52.9865901
  67.9241856 123.8688831  52.2430001  70.1369354 117.6776218  44.6307291
  69.2025633 117.7977680  44.4611995  70.3146022 116.7748685  44.3667301
  65.6374542 111.0621914  46.7840552  65.2672329 110.5092954  47.4721458
  66.1333634 110.4580047  46.2315552  73.5241905 113.5193537  45.1657325
  73.9902357 114.3521529  45.0917628  73.9749406 113.0538519  45.8702584
  63.4663741 121.5219409  53.8795570  64.1673200 122.1555892  54.0324964
  62.9958856 121.8634140  53.1191209  71.5918136 119.8637359  42.1643477
  71.8677980 119.7493953  43.0737351  70.7222635 119.4654843  42.1255650
  71.4958568 105.8874124  49.2048226  70.5821648 106.1178351  49.3730433
  71.9251669 105.9712568  50.0562259  71.2665026 114.0764016  51.7048120
  70.6136477 114.3239924  51.0500573  71.6445406 113.2628154  51.3710598
  68.2272200 124.1123709  45.8076291  68.4094595 123.2945365  46.2704043
  69.0505186 124.3291402  45.3701181  68.5614366 123.0391895  43.0691339
  69.0902132 122.5284349  42.4561501  68.8242585 122.7234425  43.9336872
  67.3152599 114.8183827  58.1914158  66.6393237 114.7177957  58.8616533
  68.1380233 114.6623041  58.6550155  59.0631459 121.0555764  50.8126673
  59.6484895 120.3099452  50.9454577  58.8656297 121.3659721  51.6963337
  61.9170114 124.0907011  45.8289115  61.2480489 124.5753139  45.3453155
  61.7782983 124.3376232  46.7432494  53.6549113 113.6261364  49.5331116
  53.6933213 113.0924955  50.3268234  53.1489406 113.0996570  48.9142093
  66.0575382 126.1250755  52.4271774  66.6093690 126.2882376  53.1920859
  66.3981576 126.7155193  51.7551798  61.0339876 108.4725905  53.0293658
  61.0981202 109.3340735  52.6171056  60.9706996 107.8599906  52.2966017
  60.5092148 110.5449037  56.6766693  61.1364187 110.1626114  57.2904217
  59.6520067 110.3263239  57.0422385  70.9086257 120.9512012  58.2820428
  71.4526161 121.5641971  57.7875383  70.3273102 121.5091591  58.7987441
  57.2857691 112.3525466  42.6085047  57.5811132 111.4436145  42.5552101
  56.3845727 112.3313206  42.2866050  69.1943770 124.0732730  49.4135456
  69.0694909 123.2722470  48.9046401  69.8522861 124.5678924  48.9249426
  60.8151938 110.4281463  48.5912596  60.0938524 111.0417430  48.4520069
  61.6045194 110.9639228  48.5129242  71.2578678 121.8741750  51.0415006
  70.3109014 121.7547102  50.9693333  71.6061451 120.9864248  51.1241267
  63.6178251 107.7635889  54.8653248  64.1412653 108.0098186  55.6279557
  63.3990585 108.5955924  54.4456385  59.0145532 110.0339564  42.7324372
  58.6858239 109.1536943  42.5499478  59.3684903 109.9787233  43.6200762
  68.2625111 121.6694467  47.2419358  68.1150074 120.7411174  47.4226928
  69.0878605 121.6914557  46.7576433  62.1287356 110.3212534  43.0999850
  62.4683428 110.8498455  42.3778459  62.5759476 110.6592940  43.8758417
  71.8659233 122.4923025  48.3284231  72.7905781 122.2865887  48.1908682
  71.6974537 122.2439426  49.2373572  64.8230796 108.7049584  52.5502918
  64.4827617 107.9057397  52.9523598  64.1169803 109.0051295  51.9779751
  65.4747268 105.7898897  51.0030241  66.2973338 105.3159375  50.8809132
  65.7185332 106.5689381  51.5028928  64.1155503 108.8187155  41.2993143
  64.8363865 109.1968408  40.7956860  63.4920807 109.5376032  41.4028121
  68.2586626 109.5232304  42.2351475  68.4750240 110.4056942  41.9340303
  67.7780693 109.1318518  41.5057117  62.9985847 112.4818017  48.8122220
  62.8530428 112.7958321  49.7046501  62.5211051 113.1002918  48.2593118
  64.8582230 109.4720565  48.8603109  64.8443799 108.5761659  48.5235407
  65.5754658 109.4791229  49.4941395  66.7108361 109.9057906  50.9056237
  66.4526138 110.8274976  50.9040567  66.1793401 109.5088340  51.5956701
  71.6554549 123.0108693  43.6846322  71.8291427 122.4455115  42.9320175
  72.1483441 123.8109588  43.5025812  57.4731509 115.0223362  51.7509881
  56.9284977 115.7983170  51.8830155  58.3510859 115.3694166  51.5929002
  64.2619126 108.3534946  44.1290680  64.3835037 107.4251592  44.3281567
  63.9721168 108.3673632  43.2168995  67.1310316 106.0389856  47.2657399
  67.1532013 106.1029189  46.3109379  67.5478375 105.1994365  47.4597906
  77.5093941 115.7745116  45.3036622  77.9525087 115.0252441  44.9055745
  76.6320451 115.7655252  44.9210354  72.6429722 122.3275457  40.7843220
  73.3380627 122.9482150  41.0030535  72.9852872 121.4770808  41.0595598
  58.2597531 114.1493258  54.6440038  57.5179267 114.2975893  55.2304668
  57.9390275 114.4101524  53.7806787  74.5421145 119.7775163  42.3130551
  75.0672469 120.1162435  41.5879871  74.4543498 118.8422178  42.1293686
  66.2041194 123.6909236  54.4420428  66.5128320 123.4458383  55.3143127
  67.0016676 123.8955875  53.9539298  66.2261806 125.8447146  46.6725804
  65.7866796 125.3523525  47.3658661  66.9769923 125.3020114  46.4317880
  58.7054145 122.0358687  46.6750433  59.5312165 121.7362459  46.2949076
  58.3548197 121.2666309  47.1240221  63.6735678 121.3885155  48.7448106
  63.0515687 120.7255860  48.4450334  64.3440545 121.4146287  48.0621754
  56.9062750 119.9545013  47.6339366  56.0694658 119.5267188  47.4523367
  56.8786395 120.1477457  48.5710157  63.7460205 109.8666943  58.3380612
  63.7948361 110.7429066  57.9558382  64.2882720 109.3244336  57.7652255
  74.2315051 120.4108066  57.6181749  73.4410595 120.3932205  57.0786249
  73.9948406 120.9496360  58.3730786  74.3512926 117.2600533  54.9314478
  74.4010931 117.0950540  55.8730001  74.2426849 116.3927792  54.5412359
  63.2349185 119.9389078  42.2206567  63.3837305 120.6224543  41.5673239
  64.0415628 119.9194168  42.7356022  71.6416689 113.2431461  56.2473784
  72.5426551 113.1037926  55.9557782  71.7164663 113.4085916  57.1871962
  65.9759494 110.6198315  55.0926971  65.1062803 110.9131882  54.8209559
  66.2118974 111.2038760  55.8134234  75.8531123 119.6797474  55.1756499
  75.5615931 120.0427455  56.0119960  75.2403254 118.9664483  54.9969831
  77.0526805 117.2450354  47.6959070  77.8873697 117.6840158  47.8596630
  77.1885934 116.7689007  46.8767315  74.1018311 114.8030089  53.6436557
  74.5772433 114.9957735  52.8355409  73.1783877 114.8589275  53.3979941
  60.9901818 115.9654256  43.2267636  60.7447860 115.0616586  43.4247846
  61.1597732 115.9671406  42.2847114  68.6798528 106.8377932  52.6092391
  69.1980472 107.5738959  52.2838880  68.3253660 107.1441926  53.4439150
  60.2597465 111.6982614  40.7253797  59.5666710 111.7726969  40.0693833
  60.0149217 110.9342957  41.2475314  68.9311122 103.2578215  48.1293288
  69.2112876 102.5901404  48.7553714  69.7161729 103.4507311  47.6167952
  66.7344590 122.4337209  39.6918314  66.1618557 123.0527396  39.2388786
  67.3077384 122.9836571  40.2258236  72.8019980 111.6795849  51.8764863
  73.7537403 111.7793947  51.8977087  72.6323431 110.8874117  52.3862947
  70.8234360 108.7651432  52.0624264  70.2284292 109.0456445  51.3670752
  70.5384056 109.2545333  52.8341005  69.9541850 122.7174359  40.8226896
  70.8872523 122.6519921  41.0259772  69.8665063 123.5530626  40.3641429
  72.5829867 122.0340229  37.7830844  72.5043498 121.7000093  38.6766602
  73.4039534 122.5261997  37.7822316  75.2808058 114.9001969  50.9907163
  75.2484378 113.9617969  51.1766846  75.8908682 114.9786005  50.2572987
  67.1191389 113.7698022  37.0334367  68.0650494 113.6404230  37.1022785
  66.7405634 113.0312684  37.5103795  75.4302546 111.6913012  51.0365446
  74.9141595 110.9071469  50.8495375  76.3142495 111.3631729  51.2011965
  73.0913273 105.4354028  46.9961258  72.8938095 105.1269116  47.8804590
  73.7012979 106.1615667  47.1259188  81.0984608 115.9617975  50.1313199
  81.8287996 115.7003264  50.6920903  80.4891553 115.2246697  50.1715267
  79.1799905 114.1025838  50.7287651  78.4533069 113.9681803  50.1204142
  78.7647192 114.4102667  51.5344369  67.0030081 117.8215768  58.4935024
  67.9233091 117.9994367  58.6875070  66.9679664 116.8771813  58.3414723
  65.3034306 111.6947998  36.9689252  64.3965761 111.3981111  37.0451965
  65.5810287 111.3977816  36.1023538  56.2212246 113.0154361  47.4188298
  55.9015031 112.1619670  47.1262672  55.6745675 113.2302940  48.1746266
  59.9992154 115.7316802  51.1357805  60.2178164 116.6633910  51.1545839
  60.4117928 115.3724777  51.9212609  66.9196372 106.2384888  43.1233493
  66.1097100 105.8931973  43.4988739  67.6080789 105.9292431  43.7121105
  68.8486920 105.3162935  44.7457790  69.4017959 105.7358388  45.4047813
  69.0857006 104.3898683  44.7880746  64.8720019 111.3050008  60.5260554
  64.7716746 112.2544365  60.4572645  64.6541561 110.9768247  59.6536624
  64.0733091 108.5534933  37.1101231  64.9352255 108.8789832  37.3697048
  64.2583435 107.7666429  36.5974297  56.0900506 116.6357273  49.3881420
  55.3963978 116.2211226  48.8751374  56.8373497 116.6777809  48.7914839
  72.2265727 107.4263460  44.2536454  71.6464396 108.0848264  43.8714506
  71.9601660 106.6040804  43.8423872  70.6769293 106.8268517  46.4557774
  71.1769072 106.9385052  45.6472093  71.3204901 106.5229570  47.0958583
  64.7351289 114.7347147  59.3425615  64.2518371 115.5347507  59.5489504
  64.8212228 114.7455092  58.3893059  58.0037249 116.5675527  47.2647435
  57.9807937 116.6663214  46.3129318  58.3137885 117.4140677  47.5864601
  60.6624627 118.6251682  51.3794049  61.6167880 118.5935624  51.3123981
  60.4637150 118.1642305  52.1944275  61.2524009 117.1952798  53.9464847
  62.0716898 117.6896876  53.9699684  61.5260817 116.2784766  53.9182414
  71.0090605 109.5863550  43.3092802  70.1216460 109.8713201  43.0912997
  71.4244594 109.4257313  42.4620079  74.3605141 109.6110071  47.0247142
  75.1365531 110.1006523  47.2971758  73.6353275 110.0368125  47.4819011
  76.7977700 110.3237690  48.0821082  77.3922191 110.0833426  47.3714390
  76.8704284 109.6044821  48.7094618  59.0174856 124.1671301  48.3964247
  58.8829323 123.4071702  47.8302245  58.6006918 124.8912201  47.9293036
  70.1533819 119.3508225  37.4040822  70.8569669 119.5558227  38.0198478
  69.4296467 119.9184987  37.6689906  70.9831629 115.1018086  43.5243092
  70.9266830 115.5586637  42.6850725  71.5359971 114.3408771  43.3465935
  74.7936435 110.8907818  44.3493212  74.5373369 110.4904454  45.1801420
  74.1689303 111.6051612  44.2243351  79.1048773 113.6303891  46.8564503
  78.5448331 113.6997080  47.6296065  78.4992276 113.4544876  46.1364000
  62.1743981 125.0640618  48.6082690  62.0576366 126.0086051  48.5061380
  61.3536428 124.7614180  48.9968489  72.0620516 119.7890754  39.4539282
  72.8966120 119.3571952  39.2716757  71.9004859 119.6172768  40.3816177
  71.7166408 116.2922867  40.8195622  71.6615212 116.1267139  39.8784066
  71.0912463 116.9998900  40.9757811  56.5058923 111.5290932  54.6457044
  57.1517787 111.0189886  55.1344269  56.2976074 112.2659613  55.2200469
  69.0312315 118.5971779  60.1449184  69.9003475 118.7712431  59.7835819
  68.5519067 119.4166196  60.0224914  65.0262534 105.7930976  40.3980940
  65.0141203 106.7372816  40.5549211  65.9185955 105.6101122  40.1040401
  63.1998496 125.7168880  51.8238618  64.1025742 125.7492490  52.1405113
  62.9735866 124.7869331  51.8384954  64.9552098 124.4699867  48.4848697
  64.0047729 124.4701728  48.3713069  65.2584584 123.7232601  47.9684731
  68.8414653 102.3873753  44.6526877  68.0747049 101.8332240  44.7983559
  69.2525358 102.4595622  45.5141028  60.8456414 108.6758549  58.7432058
  61.7087876 108.3195354  58.9535383  60.2721825 108.3372444  59.4307462
  80.6904791 130.3060405  49.5494459  81.3283201 130.1867152  48.8457799
  80.5725634 131.2541249  49.6082411  77.4994497 130.2587833  49.4855984
  77.1613009 130.1428898  48.5976519  78.3684266 129.8578998  49.4656990
  77.9814280 131.4122685  55.4442189  77.9702921 131.0175483  54.5722693
  78.1434920 130.6788757  56.0375961  75.2002777 129.0276081  38.8172924
  75.4528297 128.5057602  38.0556387  74.2627336 128.8642226  38.9199607
  80.2446060 128.0311859  46.6247667  81.0309149 127.6131282  46.2738084
  80.5084764 128.9357951  46.7929315  85.6454487 127.9687092  47.5280646
  86.3779659 127.3986309  47.7618475  84.8893842 127.5808693  47.9687151
  77.2630606 130.3914334  44.7243988  76.8988814 129.8644955  45.4356910
  78.1197722 130.0012803  44.5510473  83.1679907 121.6808666  51.9875254
  82.8363232 122.5504077  51.7636469  82.5725520 121.3644950  52.6669285
  76.9036093 125.4204233  39.7205337  77.0710496 126.2884470  40.0875808
  76.7133262 125.5831515  38.7966626  83.0608570 126.4003752  49.0668604
  82.1525448 126.3319161  48.7727365  83.0096166 126.8775697  49.8950430
  76.8825314 127.8761891  40.7052003  76.7624939 128.3218942  41.5437484
  76.1877903 128.2247208  40.1465542  77.1349436 127.8193398  57.0103502
  76.3582770 128.3787318  57.0006366  77.7739999 128.3050181  57.5318372
  84.9270217 124.6020191  50.8446478  84.2844597 124.8952724  50.1986273
  84.4225145 124.4873111  51.6499675  82.5810380 128.3483364  41.5332337
  83.4928237 128.5810751  41.3580035  82.0720027 128.9320408  40.9707416
  80.8651148 132.7707992  55.1693630  81.2734504 132.3290402  54.4248262
  80.1428410 132.1960619  55.4227823  77.2182218 127.7080599  52.5427187
  78.0643413 128.1320012  52.6861836  77.1580856 127.0514223  53.2365750
  80.3681663 125.3684967  54.2008361  80.1242595 126.1227027  53.6642636
  80.6441594 125.7470315  55.0355608  82.3220126 131.9123579  52.8785626
  82.5337021 132.5555339  52.2020007  82.2749874 131.0785896  52.4107556
  79.9246355 124.5241400  49.7822198  79.0630834 124.8222653  50.0738936
  79.9508790 124.7411799  48.8503231  75.6776811 129.1906743  42.9985569
  76.3800854 129.6427787  43.4659496  75.3457439 128.5490562  43.6265462
  74.1257172 127.7818499  57.3736779  73.4955833 128.4634780  57.6072175
  74.0193260 127.6701581  56.4289917  69.4202145 127.4490296  48.3002703
  68.6301199 127.7047824  47.8242813  69.9113392 128.2638633  48.4054743
  71.3716890 127.8134875  45.2586179  70.5748053 127.9253569  45.7769675
  71.1442482 128.1521527  44.3927070  73.4037915 122.0839265  59.7362030
  73.0104860 121.5305464  60.4109674  74.2204055 122.3949844  60.1268547
  76.3205876 123.4997144  57.3282286  77.0615589 124.1004298  57.2486749
  76.5523799 122.7574782  56.7700329  71.4647214 128.6853512  55.6060516
  71.3500729 127.7838769  55.9067615  70.6091732 128.9317208  55.2545332
  80.2663039 119.5278247  51.6046568  79.9227308 120.4179889  51.5285678
  80.6342001 119.3379905  50.7416153  80.2313322 129.5186858  40.1119003
  79.7159945 130.2891463  40.3507390  79.9590630 128.8451995  40.7352064
  77.8160433 124.3636559  45.1704241  76.9602029 123.9743410  44.9909880
  78.2287384 124.4428520  44.3104027  79.3459579 121.8982903  49.5695801
  78.8424375 121.8613038  48.7563606  79.6390186 122.8075645  49.6292458
  75.5902465 121.9821632  48.5761983  76.4555462 121.7864441  48.2167872
  75.6579974 121.7531984  49.5031340  80.0199625 127.3913951  41.9378784
  79.7149760 127.7060100  42.7888927  80.9730067 127.4695370  41.9806117
  73.1964784 124.2123840  45.9478350  73.7708536 123.9899022  45.2151543
  73.7835767 124.2812535  46.7006951  82.2544361 130.0997567  46.7542726
  82.7676243 130.7327559  47.2564436  82.9045585 129.4998763  46.3886086
  73.5234371 126.2428301  39.9674235  72.6871684 126.5802988  40.2883510
  73.3839141 126.1077281  39.0301372  75.4987452 121.0865089  44.6753419
  74.8451864 120.7714106  44.0510034  75.4567926 120.4640830  45.4013242
  76.6098657 131.3684384  36.5906711  75.7025719 131.1373638  36.7897860
  77.1069689 130.5722003  36.7780693  78.7325192 127.5747023  49.0001067
  77.8147754 127.7961970  48.8422755  79.1485336 127.6493333  48.1412774
  79.5160240 128.9738438  44.1303747  80.2632059 129.4859836  43.8210869
  79.7851830 128.6522491  44.9908140  77.7886890 131.4696979  41.1130701
  76.8798109 131.1856012  41.2103171  77.8181974 131.8896058  40.2534008
  81.9639077 126.0095555  46.1122536  81.2261834 125.4972941  46.4432779
  82.2165851 125.5695936  45.3005813  82.0650705 118.7871807  46.7064306
  82.3709581 117.9269170  46.4190221  82.7903309 119.3789427  46.5063299
  76.3371784 129.0825600  47.2140497  76.3920394 128.1299436  47.1382973
  75.5262986 129.2385039  47.6981795  74.2764144 127.7002659  44.9730875
  73.4632010 127.9996830  45.3796068  74.7723138 127.3058348  45.6905358
  79.8738356 128.1644484  53.8045769  80.2287744 128.3915957  54.6640235
  80.5210487 128.4962861  53.1823025  73.7678219 125.2721015  50.5892110
  74.4077598 125.1309774  49.8915074  72.9355749 124.9855528  50.2130712
  70.8521286 128.7166527  42.7786856  69.9218874 128.6550983  42.9956818
  70.9478758 128.1942480  41.9823497  70.7706835 125.2421340  45.3665097
  71.0313653 126.1566673  45.2574258  71.5924008 124.7745782  45.5161710
  72.2431761 126.6559097  52.5363922  72.9154814 126.4476459  51.8876571
  71.4161547 126.4581183  52.0969154  78.1457333 123.2821038  54.5529583
  77.4985248 123.9810988  54.4594059  78.9158348 123.7157182  54.9205831
  78.3221467 131.1201803  52.6126402  79.2513527 131.2712962  52.4395370
  77.9012497 131.2085824  51.7575049  72.6459258 129.9301700  53.2966359
  72.5079056 129.1981939  53.8977898  73.5564181 129.8410600  53.0150547
  81.6074206 131.8690104  38.0450837  80.9903376 131.1436932  37.9483890
  81.1390694 132.6299465  37.7017912  75.2741559 129.6421659  52.7850039
  75.9841177 129.0014852  52.7436657  75.2310867 129.8934554  53.7076219
  73.9870493 126.6286877  54.6045678  73.4507850 126.1777616  55.2567274
  73.3987201 126.7632786  53.8616142  73.3972752 126.0875529  37.1672142
  72.5202218 125.9664329  36.8034388  73.8730505 125.2961607  36.9151030
  69.7209614 125.7642885  51.6898673  69.6367803 125.1568554  50.9549082
  68.8992320 126.2551903  51.6908169  79.8933328 124.2496448  47.0568868
  80.3902027 123.4966411  46.7369938  79.1220309 124.2860765  46.4912077
  76.4768296 126.3913831  46.7840552  76.1066084 125.8384872  47.4721458
  76.9727389 125.7871965  46.2315552  84.3635660 128.8485455  45.1657325
  84.8296112 129.6813447  45.0917628  84.8143160 128.3830437  45.8702584
  82.3352322 121.2166042  49.2048226  81.4215402 121.4470269  49.3730433
  82.7645424 121.3004486  50.0562259  82.1058781 129.4055934  51.7048120
  81.4530231 129.6531841  51.0500573  82.4839161 128.5920072  51.3710598
  78.1546354 130.1475745  58.1914158  77.4786991 130.0469874  58.8616533
  78.9773988 129.9914959  58.6550155  71.8733630 123.8017822  53.0293658
  71.9374957 124.6632653  52.6171056  71.8100750 123.1891824  52.2966017
  71.3485903 125.8740955  56.6766693  71.9757941 125.4918032  57.2904217
  70.4913821 125.6555157  57.0422385  68.1251445 127.6817384  42.6085047
  68.4204886 126.7728062  42.5552101  67.2239481 127.6605123  42.2866050
  71.6545692 125.7573380  48.5912596  70.9332278 126.3709348  48.4520069
  72.4438948 126.2931145  48.5129242  74.4572006 123.0927807  54.8653248
  74.9806408 123.3390103  55.6279557  74.2384339 123.9247842  54.4456385
  69.8539287 125.3631482  42.7324372  69.5251993 124.4828860  42.5499478
  70.2078658 125.3079150  43.6200762  72.9681110 125.6504451  43.0999850
  73.3077183 126.1790373  42.3778459  73.4153231 125.9884857  43.8758417
  75.6624551 124.0341502  52.5502918  75.3221371 123.2349315  52.9523598
  74.9563557 124.3343213  51.9779751  76.3141023 121.1190814  51.0030241
  77.1367092 120.6451293  50.8809132  76.5579086 121.8981298  51.5028928
  74.9549257 124.1479073  41.2993143  75.6757620 124.5260326  40.7956860
  74.3314561 124.8667950  41.4028121  79.0980380 124.8524222  42.2351475
  79.3143995 125.7348860  41.9340303  78.6174447 124.4610435  41.5057117
  73.8379602 127.8109935  48.8122220  73.6924182 128.1250238  49.7046501
  73.3604805 128.4294835  48.2593118  75.6975984 124.8012483  48.8603109
  75.6837553 123.9053576  48.5235407  76.4148413 124.8083147  49.4941395
  77.5502115 125.2349823  50.9056237  77.2919893 126.1566894  50.9040567
  77.0187155 124.8380258  51.5956701  75.1012880 123.6826863  44.1290680
  75.2228792 122.7543510  44.3281567  74.8114923 123.6965549  43.2168995
  77.9704071 121.3681774  47.2657399  77.9925768 121.4321107  46.3109379
  78.3872130 120.5286282  47.4597906  74.5853960 125.1958861  58.3380612
  74.6342115 126.0720984  57.9558382  75.1276474 124.6536254  57.7652255
  82.4810443 128.5723378  56.2473784  83.3820306 128.4329843  55.9557782
  82.5558418 128.7377833  57.1871962  76.8153248 125.9490233  55.0926971
  75.9456558 126.2423799  54.8209559  77.0512729 126.5330678  55.8134234
  84.9412066 130.1322007  53.6436557  85.4166187 130.3249653  52.8355409
  84.0177631 130.1881192  53.3979941  79.5192282 122.1669850  52.6092391
  80.0374226 122.9030877  52.2838880  79.1647415 122.4733843  53.4439150
  71.0991220 127.0274531  40.7253797  70.4060465 127.1018886  40.0693833
  70.8542972 126.2634875  41.2475314  79.7704876 118.5870133  48.1293288
  80.0506630 117.9193322  48.7553714  80.5555483 118.7799228  47.6167952
  83.6413735 127.0087767  51.8764863  84.5931158 127.1085864  51.8977087
  83.4717185 126.2166035  52.3862947  81.6628114 124.0943350  52.0624264
  81.0678046 124.3748363  51.3670752  81.3777811 124.5837251  52.8341005
  77.9585143 129.0989939  37.0334367  78.9044248 128.9696147  37.1022785
  77.5799388 128.3604601  37.5103795  86.2696301 127.0204930  51.0365446
  85.7535350 126.2363386  50.8495375  87.1536249 126.6923646  51.2011965
  83.9307028 120.7645945  46.9961258  83.7331849 120.4561033  47.8804590
  84.5406733 121.4907584  47.1259188  76.1428060 127.0239916  36.9689252
  75.2359516 126.7273028  37.0451965  76.4204041 126.7269734  36.1023538
  77.7590126 121.5676805  43.1233493  76.9490855 121.2223890  43.4988739
  78.4474543 121.2584349  43.7121105  79.6880674 120.6454852  44.7457790
  80.2411713 121.0650306  45.4047813  79.9250761 119.7190600  44.7880746
  75.7113774 126.6341926  60.5260554  75.6110501 127.5836283  60.4572645
  75.4935316 126.3060165  59.6536624  74.9126845 123.8826851  37.1101231
  75.7746009 124.2081749  37.3697048  75.0977189 123.0958347  36.5974297
  83.0659482 122.7555377  44.2536454  82.4858151 123.4140181  43.8714506
  82.7995414 121.9332722  43.8423872  81.5163048 122.1560435  46.4557774
  82.0162826 122.2676970  45.6472093  82.1598656 121.8521488  47.0958583
  75.5745044 130.0639065  59.3425615  75.0912125 130.8639425  59.5489504
  75.6605983 130.0747010  58.3893059  81.8484360 124.9155468  43.3092802
  80.9610215 125.2005118  43.0912997  82.2638349 124.7549231  42.4620079
  85.1998896 124.9401989  47.0247142  85.9759286 125.4298441  47.2971758
  84.4747030 125.3660043  47.4819011  87.6371454 125.6529608  48.0821082
  88.2315945 125.4125344  47.3714390  87.7098038 124.9336738  48.7094618
  81.8225383 130.4310004  43.5243092  81.7660585 130.8878555  42.6850725
  82.3753726 129.6700688  43.3465935  85.6330189 126.2199736  44.3493212
  85.3767123 125.8196371  45.1801420  85.0083057 126.9343529  44.2243351
  82.5560163 131.6214785  40.8195622  82.5008966 131.4559056  39.8784066
  81.9306218 132.3290818  40.9757811  67.3452678 126.8582849  54.6457044
  67.9911541 126.3481803  55.1344269  67.1369829 127.5951531  55.2200469
  75.8656288 121.1222894  40.3980940  75.8534958 122.0664734  40.5549211
  76.7579710 120.9393039  40.1040401  79.6808408 117.7165671  44.6526877
  78.9140803 117.1624157  44.7983559  80.0919113 117.7887539  45.5141028
  71.6850169 124.0050466  58.7432058  72.5481630 123.6487271  58.9535383
  71.1115579 123.6664361  59.4307462  15.6542265  15.3371022  36.2739766
  16.2920675  15.2177769  35.5703106  15.5363108  16.2851866  36.3327718
  12.4631972  15.2898450  36.2101290  12.1250483  15.1739514  35.3221825
  13.3321740  14.8889615  36.1902297  12.9451755  16.4433301  42.1687496
  12.9340395  16.0486100  41.2968000  13.1072394  15.7099374  42.7621267
   5.8683219  18.6385118  35.0382402   6.6604511  18.2975942  34.6228701
   6.1079869  18.7480093  35.9584555   9.6659016  19.2270413  41.1166680
   9.3748882  20.1316044  41.0013346  10.3016000  19.2686941  41.8310749
  10.5915223  16.6047262  37.7068040  11.1878795  16.3803284  36.9925002
  10.6490194  15.8632007  38.3093487  20.6091961  12.9997709  34.2525952
  21.3417133  12.4296925  34.4863782  19.8531317  12.6119309  34.6932458
  18.1317381   6.7119283  38.7120561  17.8000706   7.5814694  38.4881776
  17.5362995   6.3955567  39.3914591  14.6248901  18.9131829  38.1116474
  14.3249624  19.8156868  38.0032281  14.2799960  18.6464012  38.9637626
  18.0246045  11.4314369  35.7913911  17.1162922  11.3629777  35.4972672
  17.9733640  11.9086314  36.6195736   9.6069681  25.6776149  31.0787441
   9.5293710  26.6283974  31.1575922   9.0031324  25.3322022  31.7362368
  12.0986910  12.8504014  43.7348808  11.3220245  13.4097935  43.7251673
  12.7377474  13.3360797  44.2563678  19.8907691   9.6330807  37.5691785
  19.2482071   9.9263340  36.9231579  19.3862620   9.5183728  38.3744981
  10.3533283  15.6589468  43.2966775  11.0947967  16.1974512  43.0201599
   9.6470268  16.2855757  43.4538327  15.8288622  17.8018608  41.8938937
  16.2371978  17.3601019  41.1493569  15.1065884  17.2271236  42.1473130
  12.1819692  12.7391215  39.2672494  13.0280888  13.1630629  39.4107143
  12.1218330  12.0824839  39.9611057  16.1517437  18.3619799  35.6491226
  15.5226299  18.5265513  34.9467293  15.7643099  18.7761409  36.4202190
  20.0306669  19.2974237  33.0035589  19.3457707  19.6773138  32.4532623
  20.1150518  19.9069563  33.7367537  15.3319138  10.3995583  40.9253667
  15.0880070  11.1537644  40.3887943  15.6079068  10.7780931  41.7600914
  17.2857601  16.9434196  39.6030933  17.4974496  17.5865956  38.9265314
  17.2387349  16.1096512  39.1352863   8.5969480  17.6465689  35.8521074
   9.1670837  18.0752957  35.2138558   9.1877592  17.3648273  36.5505260
   9.0894647  12.8129116  44.0982085   8.4593307  13.4945397  44.3317482
   8.9830734  12.7012198  43.1535223  18.4003428  19.8206151  37.7753290
  19.2220872  19.4186339  37.4935972  18.3965831  19.7174385  38.7269406
  12.1660032  19.3690195  39.9314001  12.2304464  19.8310602  40.7672173
  11.4570956  18.7387559  40.0596311  26.4909422  16.1644900  34.1238262
  25.7373130  15.5952298  33.9682266  26.6256963  16.1307564  35.0708896
   7.1432332  21.6699496  32.4543659   7.3198960  22.5917461  32.2664643
   7.9389165  21.3557916  32.8838039  13.5076526  21.6581869  43.9293323
  13.0640380  20.8718247  43.6114228  14.1693740  21.8461019  43.2637214
   8.2663647  23.1877670  38.4554002   8.8171072  23.0594733  37.6830996
   7.4275123  23.4872559  38.1048894  15.6057764  21.9384668  41.9574724
  15.5876239  22.7593550  41.4654994  16.5277684  21.8138744  42.1824866
  12.0630818  19.4528798  42.7998233  12.5959155  18.6917086  42.5697541
  11.5344899  19.1602450  43.5422387  18.4076377  16.7763811  35.4284091
  17.7500051  17.4663072  35.5164220  19.2116776  17.1660243  35.7718077
  17.2181836  15.1308184  33.4788033  17.7313717  15.7638175  33.9809743
  17.8683060  14.5309379  33.1131393  13.6962667  12.6057639  35.7246373
  12.7785228  12.8272586  35.5668061  14.1122810  12.6803950  34.8658081
  17.9843632  20.1114185  31.6067175  17.5305959  19.2705095  31.6632366
  17.3537599  20.7475583  31.9441956  16.4276571  21.9490682  32.5416994
  16.7199546  22.5095739  31.8229359  16.9375192  22.2419243  33.2970153
  11.3910196  22.7271033  33.6310447  11.3486375  22.9531879  32.7018979
  12.3072895  22.4934407  33.7796248  14.8375830  13.1955100  40.5291076
  15.1925218  13.4226574  41.3885542  15.4847961  13.5273477  39.9068331
  20.5673567  16.3173536  31.2340405  20.4291466  16.5075132  30.3061594
  20.2109786  17.0792919  31.6908456  20.5942947  18.3850063  36.2451677
  21.0279453  18.2925352  37.0934731  21.3074527  18.3607564  35.6071693
   9.5075997  19.6034062  33.4272409  10.3016596  19.1084382  33.2254984
   8.7967690  19.0751925  33.0640115  14.3270842  21.9852157  37.7784777
  14.3807864  22.5543094  38.5462493  13.4585623  22.1554042  37.4138814
  21.4558496  18.4273764  38.7784562  21.6494386  19.3319574  39.0243837
  21.3559114  17.9681183  39.6123147  16.5173605  18.5780507  44.3525443
  16.3659111  18.3491058  43.4355526  16.5078284  19.5351108  44.3656788
  13.2858941  16.1512419  39.3371709  14.2151001  16.3023579  39.1640676
  12.8649971  16.2396440  38.4820355  12.0847273  20.1763084  37.1070247
  11.9458359  19.8081868  37.9796185  11.2961869  20.6910723  36.9354204
  12.6795425  25.2772180  28.4495783  12.8547181  24.8060223  29.2641406
  11.9928213  25.9037947  28.6777044  13.6352488  19.5544687  34.4959084
  13.3002321  19.5145456  35.3916734  13.1356434  18.8889402  34.0229495
   7.6096732  14.9612317  40.0211666   7.4716530  14.2292555  40.6223205
   8.5201656  14.8721217  39.7395853  10.2379033  14.6732276  39.5095345
  10.9478651  14.0325468  39.4681964  10.1948341  14.9245171  40.4321526
  18.2265812  21.6099629  42.4301924  18.1678358  20.9258849  41.7632507
  18.6285330  22.3518619  41.9782550   7.2456510  28.4261543  35.2235643
   7.4853109  29.0580067  35.9014662   6.4025707  28.0749583  35.5101003
  18.2283219  19.5739213  40.6615904  17.3409998  19.2365135  40.7842303
  18.7981770  18.8422244  40.8984669  11.7584372  24.2340666  37.6277147
  11.6854544  25.0395637  38.1396452  11.3161765  24.4332631  36.8025169
  11.5474152  23.4712436  31.1379969  10.7641674  24.0134116  31.2318193
  12.2466897  23.9886415  31.5374210  22.7100559  14.9847431  35.4232466
  22.6990436  15.8672146  35.0526399  21.8417939  14.6318981  35.2287003
  14.2183056  24.1327500  39.7835306  14.9311028  24.7674964  39.7111207
  13.7273084  24.2291366  38.9675308  15.9400583  18.0378752  31.3552598
  15.0056861  18.1580215  31.1857302  16.1177251  17.1351219  31.0912607
  19.3273134  13.8796071  31.8902632  19.7933586  14.7124063  31.8162934
  19.7780635  13.4141053  32.5947890   9.2694969  21.8821943  40.6040877
   9.9704429  22.5158426  40.7570271   8.7990084  22.2236675  39.8436516
  17.0696255  14.4366550  38.4293427  16.4167706  14.6842458  37.7745880
  17.4476635  13.6230689  38.0955904  14.0303429  24.4726244  32.5321597
  14.2125824  23.6547900  32.9949350  14.8536415  24.6893936  32.0946487
  14.3645595  23.3994429  29.7936646  14.8933361  22.8886883  29.1806808
  14.6273814  23.0836959  30.6582179  13.1183828  15.1786362  44.9159464
  12.4424465  15.0780491  45.5861839  13.9411462  15.0225575  45.3795461
   4.8662687  21.4158298  37.5371979   5.4516124  20.6701986  37.6699884
   4.6687526  21.7262255  38.4208643   7.7201343  24.4509545  32.5534422
   7.0511718  24.9355673  32.0698462   7.5814212  24.6978766  33.4677800
  11.8606611  26.4853289  39.1517080  12.4124919  26.6484910  39.9166165
  12.2012805  27.0757727  38.4797105  16.7117486  21.3114546  45.0065735
  17.2557389  21.9244505  44.5120689  16.1304330  21.8694125  45.5232748
  14.9974998  24.4335264  36.1380762  14.8726138  23.6325004  35.6291708
  15.6554090  24.9281458  35.6494732  17.0609907  22.2344285  37.7660312
  16.1140242  22.1149636  37.6938639  17.4092680  21.3466783  37.8486574
  14.0656340  22.0297001  33.9664665  13.9181303  21.1013708  34.1472235
  14.8909834  22.0517091  33.4821740  17.6690462  22.8525560  35.0529537
  18.5937009  22.6468421  34.9153989  17.5005765  22.6041961  35.9618879
  17.4585778  23.3711227  30.4091629  17.6322656  22.8057649  29.6565481
  17.9514669  24.1712122  30.2271119  23.3125169  16.1347650  32.0281929
  23.7556315  15.3854975  31.6301052  22.4351680  16.1257786  31.6455661
  18.4460951  22.6877991  27.5088527  19.1411855  23.3084684  27.7275842
  18.7884101  21.8373343  27.7840905  20.3452374  20.1377697  29.0375858
  20.8703698  20.4764970  28.3125178  20.2574726  19.2024712  28.8538993
  12.0072423  24.0511771  41.1665735  12.3159549  23.8060917  42.0388434
  12.8047905  24.2558409  40.6784605  12.0293035  26.2049680  33.3971111
  11.5898025  25.7126059  34.0903968  12.7801152  25.6622648  33.1563186
   4.5085374  22.3961221  33.3995739   5.3343393  22.0964993  33.0194383
   4.1579426  21.6268843  33.8485528   9.4766907  21.7487689  35.4693413
   8.8546916  21.0858394  35.1695641  10.1471774  21.7748821  34.7867061
  20.0346280  20.7710601  44.3427056  19.2441824  20.7534739  43.8031555
  19.7979634  21.3098894  45.0976092  20.1544155  17.6203067  41.6559784
  20.2042160  17.4553074  42.5975307  20.0458078  16.7530326  41.2657665
  17.4447917  13.6033995  42.9719091  18.3457780  13.4640460  42.6803089
  17.5195892  13.7688450  43.9117269  11.7790723  10.9800850  41.8172277
  10.9094032  11.2734416  41.5454866  12.0150203  11.5641295  42.5379541
  21.6562352  20.0400008  41.9001806  21.3647160  20.4029989  42.7365267
  21.0434483  19.3267017  41.7215138  22.8558034  17.6052888  34.4204376
  23.6904925  18.0442692  34.5841937  22.9917163  17.1291541  33.6012622
  19.9049540  15.1632623  40.3681864  20.3803662  15.3560269  39.5600715
  18.9815105  15.2191809  40.1225248  18.6051209  12.0398383  38.6010170
  19.5568632  12.1396481  38.6222394  18.4354659  11.2476652  39.1108254
  16.6265588   9.1253966  38.7869570  16.0315521   9.4058979  38.0916059
  16.3415285   9.6147867  39.5586312  21.0839287  15.2604503  37.7152469
  21.0515607  14.3220504  37.9012153  21.6939910  15.3388540  36.9818294
  21.2333775  12.0515546  37.7610752  20.7172824  11.2674003  37.5740681
  22.1173724  11.7234263  37.9257272  26.9015837  16.3220510  36.8558506
  27.6319225  16.0605798  37.4166209  26.2922782  15.5849232  36.8960574
  24.9831134  14.4628372  37.4532957  24.2564297  14.3284337  36.8449449
  24.5678421  14.7705201  38.2589675  12.8061310  18.1818302  45.2180330
  13.7264320  18.3596901  45.4120377  12.7710893  17.2374347  45.0660029
   5.8023383  16.0919337  37.8603111   6.0209393  17.0236444  37.8791145
   6.2149157  15.7327311  38.6457915  10.6751248  11.6652542  47.2505860
  10.5747975  12.6146899  47.1817951  10.4572790  11.3370781  46.3781930
  10.5382518  15.0949681  46.0670922  10.0549600  15.8950041  46.2734811
  10.6243457  15.1057626  45.1138366   6.4655856  18.9854216  38.1039356
   7.4199109  18.9538158  38.0369287   6.2668379  18.5244840  38.9189582
   7.0555238  17.5555332  40.6710153   7.8748127  18.0499411  40.6944991
   7.3292045  16.6387300  40.6427721  20.1636370   9.9712605  33.7492448
  20.9396760  10.4609058  34.0217065  19.4384504  10.3970659  34.2064318
  22.6008929  10.6840224  34.8066389  23.1953419  10.4435960  34.0959697
  22.6735512   9.9647355  35.4339925   4.8206084  24.5273835  35.1209554
   4.6860552  23.7674236  34.5547552   4.4038147  25.2514735  34.6538342
  24.9080001  13.9906425  33.5809810  24.3479559  14.0599615  34.3541372
  24.3023505  13.8147410  32.8609306   7.9775210  25.4243152  35.3327996
   7.8607594  26.3688585  35.2306686   7.1567657  25.1216714  35.7213795
  14.8343544  18.9574313  46.8694491  15.7034704  19.1314966  46.5081126
  14.3550296  19.7768730  46.7470220   9.0029724  26.0771414  38.5483925
   9.9056971  26.1095025  38.8650420   8.7767094  25.1471865  38.5630260
  10.7583326  24.8302401  35.2094003   9.8078957  24.8304262  35.0958376
  11.0615813  24.0835135  34.6930038  26.4936020  30.6662939  36.2739766
  27.1314430  30.5469687  35.5703106  26.3756863  31.6143783  36.3327718
  23.3025726  30.6190367  36.2101290  22.9644238  30.5031432  35.3221825
  24.1715494  30.2181532  36.1902297  19.1612542  32.4725844  32.1998181
  18.5977407  32.3815781  31.4314469  19.0464937  31.6525748  32.6800674
  23.7845509  31.7725219  42.1687496  23.7734150  31.3778017  41.2968000
  23.9466149  31.0391292  42.7621267  16.7076974  33.9677035  35.0382402
  17.4998266  33.6267860  34.6228701  16.9473624  34.0772010  35.9584555
  24.7412101  36.1396811  27.5112646  24.0900080  36.7250892  27.1246660
  25.5356463  36.6703006  27.5707684  18.6667728  33.2285949  27.9099781
  19.4398604  32.6814936  27.7712656  19.0193127  34.0930198  28.1214242
  20.5052770  34.5562331  41.1166680  20.2142636  35.4607962  41.0013346
  21.1409755  34.5978858  41.8310749  21.4308977  31.9339179  37.7068040
  22.0272549  31.7095202  36.9925002  21.4883949  31.1923925  38.3093487
  21.0034006  29.3878615  25.5418230  21.2559526  28.8660136  24.7801693
  20.0658565  29.2244760  25.6444914  26.0477288  28.3914393  33.3492974
  26.8340378  27.9733816  32.9983391  26.3115993  29.2960485  33.5174622
  26.2187366  33.8287243  28.0481631  25.5833199  33.9021870  28.7602535
  25.8884772  34.4180842  27.3700710  31.4485716  28.3289626  34.2525952
  32.1810887  27.7588843  34.4863782  30.6925071  27.9411227  34.6932458
  20.7230294  31.2906721  27.7442605  20.6066552  30.6151624  28.4123690
  20.8332554  30.8039095  26.9274759  23.0661835  30.7516868  31.4489295
  22.7020042  30.2247489  32.1602216  23.9228951  30.3615337  31.2755780
  28.9711136  22.0411200  38.7120561  28.6394461  22.9106611  38.4881776
  28.3756749  21.7247484  39.3914591  22.7067322  25.7806767  26.4450643
  22.8741725  26.6487004  26.8121114  22.5164491  25.9434049  25.5211932
  25.4642655  34.2423746  38.1116474  25.1643378  35.1448785  38.0032281
  25.1193715  33.9755930  38.9637626  18.9155137  30.6937543  34.1453178
  17.9905633  30.5613757  34.3530870  19.1639550  31.4731762  34.6423120
  28.8639799  26.7606287  35.7913911  27.9556677  26.6921695  35.4972672
  28.8127395  27.2378232  36.6195736  22.6856543  28.2364425  27.4297310
  22.5656168  28.6821476  28.2682790  21.9909131  28.5849743  26.8710848
  16.2763948  30.3370817  34.9796967  16.4056329  30.5905296  35.8936379
  15.5961399  30.9298525  34.6601622  20.4463435  41.0068067  31.0787441
  20.3687465  41.9575892  31.1575922  19.8425079  40.6613939  31.7362368
  22.9380665  28.1795932  43.7348808  22.1613999  28.7389852  43.7251673
  23.5771228  28.6652715  44.2563678  30.7301446  24.9622725  37.5691785
  30.0875826  25.2555258  36.9231579  30.2256374  24.8475645  38.3744981
  28.3841609  28.7085898  28.2577644  29.2959465  28.9413285  28.0825342
  27.8751256  29.2922942  27.6952723  21.1927037  30.9881386  43.2966775
  21.9341722  31.5266429  43.0201599  20.4864023  31.6147674  43.4538327
  26.6682377  33.1310526  41.8938937  27.0765733  32.6892937  41.1493569
  25.9459638  32.5563154  42.1473130  23.0213447  28.0683133  39.2672494
  23.8674642  28.4922546  39.4107143  22.9612085  27.4116757  39.9611057
  26.9911192  33.6911717  35.6491226  26.3620054  33.8557431  34.9467293
  26.6036854  34.1053326  36.4202190  30.8700423  34.6266154  33.0035589
  30.1851462  35.0065056  32.4532623  30.9544273  35.2361481  33.7367537
  26.1712892  25.7287501  40.9253667  25.9273824  26.4829562  40.3887943
  26.4472823  26.1072849  41.7600914  28.1251355  32.2726113  39.6030933
  28.3368250  32.9157873  38.9265314  28.0781103  31.4388430  39.1352863
  25.7277584  24.8843934  36.5067505  24.8662063  25.1825188  36.7984243
  25.7540019  25.1014333  35.5748538  22.5439153  33.4286125  32.9141311
  23.0077499  33.7073828  32.1245933  22.2795952  32.5269569  32.7314401
  19.4363234  32.9757606  35.8521074  20.0064592  33.4044875  35.2138558
  20.0271346  32.6940191  36.5505260  21.4808039  29.5509277  29.7230876
  22.1832083  30.0030321  30.1904802  21.1488668  28.9093096  30.3510769
  19.9288401  28.1421034  44.0982085  19.2987062  28.8237315  44.3317482
  19.8224489  28.0304115  43.1535223  15.2233373  27.8092830  35.0248009
  14.4332427  28.0650358  34.5488120  15.7144621  28.6241168  35.1300050
  29.2397183  35.1498069  37.7753290  30.0614627  34.7478256  37.4935972
  29.2359586  35.0466303  38.7269406  17.1748119  28.1737409  31.9831486
  16.3779282  28.2856103  32.5014982  16.9473711  28.5124061  31.1172377
  23.0053786  34.6982112  39.9314001  23.0698219  35.1602519  40.7672173
  22.2964710  34.0679477  40.0596311  13.5071076  28.0623320  37.4563000
  13.7579115  28.9470330  37.7220576  14.0430625  27.8827922  36.6838092
  37.3303176  31.4936817  34.1238262  36.5766884  30.9244215  33.9682266
  37.4650717  31.4599482  35.0708896  22.7201804  36.3650220  29.7992981
  22.5847479  37.2101755  30.2277829  23.2611617  36.5669497  29.0358915
  19.2069144  22.4441800  46.4607336  18.8136089  21.8907998  47.1354980
  20.0235284  22.7552378  46.8513854  16.1731201  33.8825658  30.3720906
  16.6855722  34.6768908  30.5226471  16.8253914  33.1851948  30.3054508
  17.9826086  36.9991414  32.4543659  18.1592715  37.9209379  32.2664643
  18.7782920  36.6849833  32.8838039  22.1237105  23.8599679  44.0527593
  22.8646818  24.4606832  43.9732055  22.3555028  23.1177316  43.4945635
  17.2678443  29.0456046  42.3305822  17.1531958  28.1441303  42.6312921
  16.4122960  29.2919743  41.9790639  24.3470280  36.9873786  43.9293323
  23.9034135  36.2010165  43.6114228  25.0087494  37.1752937  43.2637214
  19.1057402  38.5169588  38.4554002  19.6564827  38.3886651  37.6830996
  18.2668878  38.8164477  38.1048894  26.4451519  37.2676586  41.9574724
  26.4269994  38.0885467  41.4654994  27.3671439  37.1430661  42.1824866
  22.9024573  34.7820716  42.7998233  23.4352909  34.0209004  42.5697541
  22.3738654  34.4894367  43.5422387  26.0694268  19.8880782  38.3291874
  25.7258537  20.7782423  38.2530985  26.4373230  19.6982439  37.4661459
  14.1380118  32.2114312  31.1480477  14.9755340  32.6211320  30.9314184
  14.3158386  31.2713754  31.1180670  26.0344550  29.8789393  26.8364310
  25.5191174  30.6493997  27.0752697  25.7621859  29.2054529  27.4597371
  23.6191661  24.7239093  31.8949548  22.7633258  24.3345944  31.7155187
  24.0318613  24.8031054  31.0349333  25.1490808  22.2585437  36.2941108
  24.6455604  22.2215572  35.4808913  25.4421415  23.1678179  36.3537764
  21.3933694  22.3424166  35.3007289  22.2586691  22.1466975  34.9413179
  21.4611203  22.1134518  36.2276646  31.0078825  32.6321747  28.7717483
  30.2308267  32.2932907  28.3272645  31.6870305  32.6374371  28.0972448
  25.8230854  27.7516485  28.6624091  25.5180989  28.0662634  29.5134234
  26.7761296  27.8297905  28.7051424  24.2677285  33.9106708  30.3117045
  23.7398647  33.1759468  29.9990282  23.7664788  34.6881384  30.0657013
  29.2470131  32.1055729  35.4284091  28.5893806  32.7954990  35.5164220
  30.0510531  32.4952161  35.7718077  18.9996013  24.5726374  32.6723656
  19.5739765  24.3501556  31.9396849  19.5866995  24.6415069  33.4252258
  28.0575590  30.4600101  33.4788033  28.5707472  31.0930093  33.9809743
  28.7076814  29.8601297  33.1131393  19.3265600  26.6030835  26.6919542
  18.4902912  26.9405522  27.0128816  19.1870370  26.4679815  25.7546678
  21.3018681  21.4467623  31.3998726  20.6483093  21.1316640  30.7755340
  21.2599155  20.8243364  32.1258549  22.4129886  31.7286918  23.3152018
  21.5056947  31.4976172  23.5143167  22.9100918  30.9324538  23.5025999
  25.3197964  40.4384426  26.2348704  24.6459663  40.7416122  26.8433662
  25.7063786  41.2413506  25.8854161  24.5356421  27.9349557  35.7246373
  23.6178982  28.1564504  35.5668061  24.9516565  28.0095867  34.8658081
  25.3191469  29.3340973  30.8549054  26.0663288  29.8462370  30.5456176
  25.5883058  29.0125025  31.7153447  23.5918119  31.8299513  27.8376008
  22.6829338  31.5458546  27.9348478  23.6213203  32.2498592  26.9779315
  28.8237386  35.4406103  31.6067175  28.3699714  34.5997013  31.6632366
  28.1931353  36.0767501  31.9441956  27.7670306  26.3698089  32.8367843
  27.0293063  25.8575475  33.1678085  28.0197080  25.9298470  32.0251120
  27.2670326  37.2782599  32.5416994  27.5593300  37.8387657  31.8229359
  27.7768946  37.5711160  33.2970153  27.8681933  19.1474341  33.4309612
  28.1740810  18.2871704  33.1435527  28.5934538  19.7391961  33.2308606
  14.1606289  29.5505027  31.8191210  13.9630689  28.9574388  31.0942277
  13.6052953  29.2457238  32.5367149  22.1403013  29.4428134  33.9385803
  22.1951623  28.4901970  33.8628280  21.3294215  29.5987573  34.4227102
  23.2894207  33.3708257  25.1764086  22.8513637  32.6544116  24.7169724
  24.0304648  33.5984372  24.6149178  20.0795373  28.0605194  31.6976182
  19.2663239  28.3599364  32.1041374  20.5754367  27.6660882  32.4150664
  22.2303951  38.0562951  33.6310447  22.1880130  38.2823797  32.7018979
  23.1466650  37.8226325  33.7796248  25.6769585  28.5247018  40.5291076
  26.0318972  28.7518491  41.3885542  26.3241716  28.8565395  39.9068331
  31.4067322  31.6465454  31.2340405  31.2685220  31.8367050  30.3061594
  31.0503540  32.4084837  31.6908456  19.5709448  25.6323549  37.3137417
  20.2108827  25.4912308  36.6160380  18.7386978  25.3458062  36.9376019
  31.4336701  33.7141981  36.2451677  31.8673208  33.6217270  37.0934731
  32.1468282  33.6899481  35.6071693  20.3469752  34.9325980  33.4272409
  21.1410350  34.4376300  33.2254984  19.6361444  34.4043843  33.0640115
  25.1664596  37.3144075  37.7784777  25.2201618  37.8835011  38.5462493
  24.2979377  37.4845960  37.4138814  16.6552515  29.0769061  29.5032162
  15.7250103  29.0153517  29.7202124  16.7509987  28.5545014  28.7068803
  16.5738064  25.6023874  32.0910404  16.8344881  26.5169207  31.9819564
  17.3955236  25.1348317  32.2407017  18.0462989  27.0161631  39.2609228
  18.7186043  26.8078993  38.6121877  17.2192776  26.8183717  38.8214461
  32.2952251  33.7565682  38.7784562  32.4888141  34.6611492  39.0243837
  32.1952869  33.2973101  39.6123147  23.9488562  23.6423572  41.2774889
  23.3016477  24.3413522  41.1839366  24.7189577  24.0759716  41.6451137
  27.3567359  33.9072424  44.3525443  27.2052866  33.6782976  43.4355526
  27.3472039  34.8643026  44.3656788  24.1252696  31.4804337  39.3371709
  25.0544756  31.6315497  39.1640676  23.7043726  31.5688358  38.4820355
  22.9241028  35.5055002  37.1070247  22.7852113  35.1373786  37.9796185
  22.1355624  36.0202641  36.9354204  23.5189180  40.6064098  28.4495783
  23.6940935  40.1352141  29.2641406  22.8321968  41.2329864  28.6777044
  24.4746243  34.8836604  34.4959084  24.1396075  34.8437374  35.3916734
  23.9750188  34.2181320  34.0229495  18.4490487  30.2904234  40.0211666
  18.3110285  29.5584473  40.6223205  19.3595410  30.2013134  39.7395853
  27.4105434  32.2292639  24.7696144  26.7934605  31.5039467  24.6729197
  26.9421923  32.9901999  24.4263218  21.0772787  30.0024194  39.5095345
  21.7872406  29.3617386  39.4681964  21.0342096  30.2537088  40.4321526
  29.0659566  36.9391547  42.4301924  29.0072112  36.2550767  41.7632507
  29.4679084  37.6810537  41.9782550  19.7901721  26.9889411  41.3290985
  19.2539078  26.5380150  41.9812581  19.2018430  27.1235320  40.5861449
  18.0850265  43.7553461  35.2235643  18.3246863  44.3871985  35.9014662
  17.2419461  43.4041501  35.5101003  29.0676973  34.9031131  40.6615904
  28.1803752  34.5657053  40.7842303  29.6375524  34.1714162  40.8984669
  10.7206120  31.2355223  33.9858955  11.4077160  30.9216953  33.3979971
  10.5654249  32.1396587  33.7126207  15.5240843  26.1245419  38.4143979
  15.4399031  25.5171089  37.6794389  14.7023549  26.6154437  38.4153475
  22.5978127  39.5632583  37.6277147  22.5248298  40.3687555  38.1396452
  22.1555520  39.7624549  36.8025169  22.3867906  38.8004353  31.1379969
  21.6035428  39.3426033  31.2318193  23.0860652  39.3178333  31.5374210
  25.6964556  24.6098983  33.7814174  26.1933256  23.8568945  33.4615244
  24.9251538  24.6463299  33.2157384  33.5494314  30.3139348  35.4232466
  33.5384190  31.1964064  35.0526399  32.6811693  29.9610899  35.2287003
  25.0576810  39.4619417  39.7835306  25.7704782  40.0966882  39.7111207
  24.5666839  39.5583283  38.9675308  26.7794337  33.3670670  31.3552598
  25.8450616  33.4872132  31.1857302  26.9571006  32.4643137  31.0912607
  22.2799525  26.7516366  33.5085859  21.9097313  26.1987406  34.1966764
  22.7758618  26.1474499  32.9560859  30.1666889  29.2087989  31.8902632
  30.6327341  30.0415981  31.8162934  30.6174389  28.7432971  32.5947890
  20.1088724  37.2113861  40.6040877  20.8098183  37.8450344  40.7570271
  19.6383839  37.5528592  39.8436516  28.2343120  35.5531810  28.8888784
  28.5102964  35.4388405  29.7982658  27.3647618  35.1549295  28.8500957
  28.1383551  21.5768576  35.9293533  27.2246631  21.8072803  36.0975740
  28.5676653  21.6607020  36.7807565  27.9090010  29.7658468  38.4293427
  27.2561460  30.0134376  37.7745880  28.2870390  28.9522606  38.0955904
  24.8697184  39.8018161  32.5321597  25.0519578  38.9839817  32.9949350
  25.6930170  40.0185854  32.0946487  25.2039349  38.7286346  29.7936646
  25.7327116  38.2178801  29.1806808  25.4667569  38.4128877  30.6582179
  23.9577583  30.5078279  44.9159464  23.2818220  30.4072409  45.5861839
  24.7805217  30.3517493  45.3795461  15.7056442  36.7450216  37.5371979
  16.2909879  35.9993904  37.6699884  15.5081280  37.0554172  38.4208643
  18.5595097  39.7801463  32.5534422  17.8905472  40.2647591  32.0698462
  18.4207967  40.0270684  33.4677800  10.2974097  29.3155816  36.2576423
  10.3358196  28.7819407  37.0513541   9.7914389  28.7891021  35.6387400
  22.7000366  41.8145207  39.1517080  23.2518674  41.9776828  39.9166165
  23.0406559  42.4049644  38.4797105  17.6764859  24.1620356  39.7538965
  17.7406185  25.0235187  39.3416363  17.6131979  23.5494358  39.0211323
  17.1517131  26.2343489  43.4011999  17.7789170  25.8520566  44.0149523
  16.2945050  26.0157691  43.7667692  27.5511240  36.6406464  45.0065735
  28.0951144  37.2536422  44.5120689  26.9698085  37.1986043  45.5232748
  13.9282674  28.0419918  29.3330354  14.2236115  27.1330597  29.2797408
  13.0270710  28.0207658  29.0111356  25.8368753  39.7627182  36.1380762
  25.7119892  38.9616922  35.6291708  26.4947844  40.2573376  35.6494732
  17.4576921  26.1175915  35.3157903  16.7363507  26.7311882  35.1765376
  18.2470177  26.6533679  35.2374548  27.9003661  37.5636202  37.7660312
  26.9533997  37.4441553  37.6938639  28.2486434  36.6758700  37.8486574
  20.2603235  23.4530341  41.5898554  20.7837637  23.6992638  42.3524864
  20.0415568  24.2850376  41.1701692  15.6570516  25.7234016  29.4569679
  15.3283222  24.8431395  29.2744785  16.0109886  25.6681684  30.3446068
  24.9050095  37.3588918  33.9664665  24.7575057  36.4305626  34.1472235
  25.7303588  37.3809009  33.4821740  18.7712339  26.0106986  29.8245157
  19.1108411  26.5392907  29.1023765  19.2184459  26.3487392  30.6003723
  28.5084216  38.1817477  35.0529537  29.4330764  37.9760339  34.9153989
  28.3399520  37.9333878  35.9618879  21.4655780  24.3944036  39.2748225
  21.1252600  23.5951849  39.6768905  20.7594786  24.6945747  38.7025058
  22.1172252  21.4793349  37.7275548  22.9398321  21.0053827  37.6054438
  22.3610315  22.2583832  38.2274234  20.7580486  24.5081607  28.0238450
  21.4788849  24.8862860  27.5202166  20.1345790  25.2270484  28.1273428
  24.9011609  25.2126756  28.9596782  25.1175223  26.0951394  28.6585610
  24.4205676  24.8212970  28.2302424  19.6410830  28.1712469  35.5367526
  19.4955411  28.4852772  36.4291808  19.1636034  28.7897370  34.9838425
  21.5007213  25.1615017  35.5848416  21.4868782  24.2656111  35.2480714
  22.2179641  25.1685681  36.2186702  23.3533344  25.5952358  37.6301543
  23.0951122  26.5169428  37.6285874  22.8218384  25.1982792  38.3202008
  28.2979533  38.7003145  30.4091629  28.4716410  38.1349567  29.6565481
  28.7908424  39.5004040  30.2271119  14.1156492  30.7117814  38.4755188
  13.5709961  31.4877622  38.6075462  14.9935842  31.0588618  38.3174309
  20.9044109  24.0429398  30.8535986  21.0260020  23.1146044  31.0526874
  20.6146152  24.0568084  29.9414302  23.7735300  21.7284308  33.9902706
  23.7956996  21.7923641  33.0354686  24.1903359  20.8888817  34.1843212
  34.1518924  31.4639568  32.0281929  34.5950070  30.7146893  31.6301052
  33.2745434  31.4549704  31.6455661  29.2854705  38.0169909  27.5088527
  29.9805610  38.6376602  27.7275842  29.6277855  37.1665260  27.7840905
  14.9022514  29.8387710  41.3685345  14.1604250  29.9870345  41.9549975
  14.5815259  30.0995976  40.5052094  31.1846128  35.4669615  29.0375858
  31.7097452  35.8056887  28.3125178  31.0968481  34.5316630  28.8538993
  22.8466177  39.3803688  41.1665735  23.1553303  39.1352835  42.0388434
  23.6441659  39.5850327  40.6784605  22.8686789  41.5341598  33.3971111
  22.4291779  41.0417977  34.0903968  23.6194906  40.9914566  33.1563186
  15.3479128  37.7253139  33.3995739  16.1737148  37.4256911  33.0194383
  14.9973180  36.9560761  33.8485528  20.3160661  37.0779607  35.4693413
  19.6940670  36.4150312  35.1695641  20.9865528  37.1040739  34.7867061
  13.5487733  35.6439465  34.3584673  12.7119641  35.2161640  34.1768674
  13.5211379  35.8371909  35.2955464  20.3885189  25.5561395  45.0625919
  20.4373344  26.4323518  44.6803688  20.9307703  25.0138788  44.4897562
  30.8740034  36.1002518  44.3427056  30.0835578  36.0826657  43.8031555
  30.6373389  36.6390812  45.0976092  30.9937909  32.9494985  41.6559784
  31.0435914  32.7844992  42.5975307  30.8851833  32.0822244  41.2657665
  19.8774168  35.6283530  28.9451873  20.0262288  36.3118995  28.2918546
  20.6840612  35.6088620  29.4601329  28.2841672  28.9325913  42.9719091
  29.1851535  28.7932377  42.6803089  28.3589646  29.0980367  43.9117269
  22.6184477  26.3092767  41.8172277  21.7487787  26.6026333  41.5454866
  22.8543957  26.8933212  42.5379541  33.6951789  32.9344806  34.4204376
  34.5298680  33.3734610  34.5841937  33.8310917  32.4583459  33.6012622
  30.7443294  30.4924541  40.3681864  31.2197416  30.6852187  39.5600715
  29.8208860  30.5483727  40.1225248  17.6326801  31.6548708  29.9512942
  17.3872843  30.7511038  30.1493152  17.8022716  31.6565858  29.0092420
  25.3223511  22.5272384  39.3337698  25.8405455  23.2633411  39.0084186
  24.9678644  22.8336378  40.1684457  16.9022449  27.3877066  27.4499104
  16.2091694  27.4621420  26.7939140  16.6574201  26.6237409  27.9720621
  25.5736105  18.9472667  34.8538594  25.8537859  18.2795856  35.4799021
  26.3586712  19.1401762  34.3413258  23.3769574  38.1231661  26.4163621
  22.8043541  38.7421848  25.9634093  23.9502367  38.6731022  26.9503543
  29.4444963  27.3690301  38.6010170  30.3962386  27.4688398  38.6222394
  29.2748414  26.5768569  39.1108254  27.4659343  24.4545884  38.7869570
  26.8709275  24.7350897  38.0916059  27.1809040  24.9439785  39.5586312
  26.5966833  38.4068811  27.5472203  27.5297507  38.3414373  27.7505079
  26.5090046  39.2425078  27.0886736  29.2254850  37.7234681  24.5076151
  29.1468482  37.3894545  25.4011908  30.0464517  38.2156449  24.5067623
  31.9233041  30.5896421  37.7152469  31.8909361  29.6512421  37.9012153
  32.5333665  30.6680457  36.9818294  23.7616372  29.4592473  23.7579673
  24.7075477  29.3298682  23.8268091  23.3830617  28.7207135  24.2349101
  32.0727530  27.3807464  37.7610752  31.5566578  26.5965921  37.5740681
  32.9567478  27.0526181  37.9257272  29.7338257  21.1248480  33.7206565
  29.5363078  20.8163568  34.6049897  30.3437962  21.8510118  33.8504495
  37.7409591  31.6512427  36.8558506  38.4712980  31.3897715  37.4166209
  37.1316537  30.9141149  36.8960574  35.8224888  29.7920290  37.4532957
  35.0958052  29.6576255  36.8449449  35.4072175  30.0997119  38.2589675
  23.6455065  33.5110220  45.2180330  24.5658074  33.6888819  45.4120377
  23.6104648  32.5666265  45.0660029  21.9459289  27.3842450  23.6934558
  21.0390745  27.0875563  23.7697272  22.2235270  27.0872268  22.8268845
  12.8637230  28.7048813  34.1433605  12.5440014  27.8514121  33.8507979
  12.3170658  28.9197391  34.8991572  16.6417137  31.4211254  37.8603111
  16.8603147  32.3528362  37.8791145  17.0542911  31.0619229  38.6457915
  23.5621355  21.9279340  29.8478800  22.7522083  21.5826425  30.2234046
  24.2505772  21.6186883  30.4366411  25.4911903  21.0057386  31.4703096
  26.0442942  21.4252840  32.1293119  25.7281990  20.0793135  31.5126052
  21.5145003  26.9944460  47.2505860  21.4141729  27.9438817  47.1817951
  21.2966545  26.6662699  46.3781930  12.7325490  32.3251725  36.1126726
  12.0388961  31.9105678  35.5996681  13.4798481  32.3672261  35.5160145
  28.8690710  23.1157912  30.9781761  28.2889379  23.7742716  30.5959813
  28.6026643  22.2935256  30.5669178  27.3194277  22.5162969  33.1803081
  27.8194055  22.6279504  32.3717400  27.9629885  22.2124022  33.8203889
  21.3776273  30.4241599  46.0670922  20.8943354  31.2241959  46.2734811
  21.4637212  30.4349544  45.1138366  14.6462232  32.2569979  33.9892741
  14.6232920  32.3557666  33.0374624  14.9562869  33.1035129  34.3109907
  17.3049610  34.3146134  38.1039356  18.2592864  34.2830076  38.0369287
  17.1062134  33.8536757  38.9189582  17.8948992  32.8847250  40.6710153
  18.7141881  33.3791328  40.6944991  18.1685800  31.9679218  40.6427721
  27.6515588  25.2758002  30.0338109  26.7641443  25.5607653  29.8158304
  28.0669577  25.1151765  29.1865386  31.0030125  25.3004523  33.7492448
  31.7790515  25.7900975  34.0217065  30.2778259  25.7262577  34.2064318
  33.4402683  26.0132142  34.8066389  34.0347174  25.7727878  34.0959697
  33.5129267  25.2939273  35.4339925  15.6599839  39.8565753  35.1209554
  15.5254307  39.0966154  34.5547552  15.2431901  40.5806653  34.6538342
  26.7958802  35.0402677  24.1286129  27.4994652  35.2452679  24.7443784
  26.0721451  35.6079439  24.3935212  27.6256612  30.7912538  30.2488399
  27.5691814  31.2481089  29.4096031  28.1784955  30.0303222  30.0711242
  31.4361418  26.5802270  31.0738519  31.1798352  26.1798905  31.9046726
  30.8114286  27.2946064  30.9488658  35.7473756  29.3198343  33.5809810
  35.1873314  29.3891532  34.3541372  35.1417259  29.1439328  32.8609306
  18.8168965  40.7535070  35.3327996  18.7001349  41.6980503  35.2306686
  17.9961411  40.4508632  35.7213795  28.7045499  35.4785206  26.1784589
  29.5391103  35.0466404  25.9962064  28.5429842  35.3067220  27.1061483
  28.3591391  31.9817319  27.5440928  28.3040195  31.8161591  26.6029372
  27.7337447  32.6893352  27.7003118  13.1483906  27.2185384  41.3702350
  13.7942770  26.7084337  41.8589576  12.9401058  27.9554065  41.9445776
  25.6737299  34.2866231  46.8694491  26.5428458  34.4606883  46.5081126
  25.1944050  35.1060648  46.7470220  21.6687517  21.4825428  27.1226247
  21.6566187  22.4267268  27.2794517  22.5610939  21.2995574  26.8285708
  19.8423479  41.4063332  38.5483925  20.7450726  41.4386942  38.8650420
  19.6160849  40.4763783  38.5630260  21.5977081  40.1594319  35.2094003
  20.6472712  40.1596180  35.0958376  21.9009567  39.4127053  34.6930038
  25.4839636  18.0768205  31.3772183  24.7172032  17.5226691  31.5228866
  25.8950341  18.1490074  32.2386335  17.4881397  24.3653001  45.4677365
  18.3512859  24.0089805  45.6780689  16.9146808  24.0266895  46.1552769
  37.3329774  45.9954857  36.2739766  37.9708184  45.8761604  35.5703106
  37.2150617  46.9435701  36.3327718  34.1419481  45.9482285  36.2101290
  33.8037992  45.8323350  35.3221825  35.0109249  45.5473450  36.1902297
  30.0006296  47.8017761  32.1998181  29.4371161  47.7107698  31.4314469
  29.8858691  46.9817666  32.6800674  27.5470728  49.2968953  35.0382402
  28.3392020  48.9559778  34.6228701  27.7867378  49.4063928  35.9584555
  35.5805855  51.4688729  27.5112646  34.9293835  52.0542810  27.1246660
  36.3750218  51.9994924  27.5707684  29.5061482  48.5577866  27.9099781
  30.2792358  48.0106853  27.7712656  29.8586881  49.4222116  28.1214242
  31.8427760  44.7170532  25.5418230  32.0953281  44.1952054  24.7801693
  30.9052319  44.5536678  25.6444914  36.8871043  43.7206311  33.3492974
  37.6734132  43.3025734  32.9983391  37.1509747  44.6252403  33.5174622
  37.0581120  49.1579161  28.0481631  36.4226953  49.2313788  28.7602535
  36.7278527  49.7472760  27.3700710  42.2879470  43.6581544  34.2525952
  43.0204642  43.0880761  34.4863782  41.5318826  43.2703144  34.6932458
  31.5624049  46.6198638  27.7442605  31.4460307  45.9443542  28.4123690
  31.6726309  46.1331012  26.9274759  33.9055590  46.0808785  31.4489295
  33.5413797  45.5539406  32.1602216  34.7622706  45.6907255  31.2755780
  33.5461077  41.1098685  26.4450643  33.7135479  41.9778922  26.8121114
  33.3558246  41.2725967  25.5211932  29.7548891  46.0229461  34.1453178
  28.8299388  45.8905675  34.3530870  30.0033305  46.8023680  34.6423120
  39.7033554  42.0898204  35.7913911  38.7950431  42.0213613  35.4972672
  39.6521149  42.5670149  36.6195736  33.5250298  43.5656343  27.4297310
  33.4049923  44.0113393  28.2682790  32.8302886  43.9141660  26.8710848
  27.1157702  45.6662734  34.9796967  27.2450084  45.9197213  35.8936379
  26.4355154  46.2590442  34.6601622  31.2857190  56.3359984  31.0787441
  31.2081219  57.2867810  31.1575922  30.6818833  55.9905857  31.7362368
  39.2235364  44.0377816  28.2577644  40.1353220  44.2705203  28.0825342
  38.7145011  44.6214860  27.6952723  32.0320792  46.3173303  43.2966775
  32.7735476  46.8558347  43.0201599  31.3257777  46.9439592  43.4538327
  33.8607201  43.3975050  39.2672494  34.7068397  43.8214464  39.4107143
  33.8005839  42.7408675  39.9611057  37.8304946  49.0203634  35.6491226
  37.2013808  49.1849348  34.9467293  37.4430608  49.4345244  36.4202190
  41.7094178  49.9558072  33.0035589  41.0245216  50.3356974  32.4532623
  41.7938027  50.5653399  33.7367537  38.9645110  47.6018031  39.6030933
  39.1762005  48.2449791  38.9265314  38.9174858  46.7680348  39.1352863
  36.5671338  40.2135852  36.5067505  35.7055818  40.5117105  36.7984243
  36.5933773  40.4306251  35.5748538  33.3832908  48.7578042  32.9141311
  33.8471253  49.0365745  32.1245933  33.1189706  47.8561487  32.7314401
  30.2756989  48.3049524  35.8521074  30.8458346  48.7336792  35.2138558
  30.8665101  48.0232109  36.5505260  32.3201794  44.8801195  29.7230876
  33.0225837  45.3322238  30.1904802  31.9882422  44.2385014  30.3510769
  26.0627128  43.1384747  35.0248009  25.2726182  43.3942276  34.5488120
  26.5538375  43.9533085  35.1300050  40.0790937  50.4789987  37.7753290
  40.9008381  50.0770174  37.4935972  40.0753340  50.3758221  38.7269406
  28.0141873  43.5029327  31.9831486  27.2173037  43.6148021  32.5014982
  27.7867466  43.8415979  31.1172377  24.3464831  43.3915238  37.4563000
  24.5972869  44.2762248  37.7220576  24.8824379  43.2119839  36.6838092
  48.1696931  46.8228735  34.1238262  47.4160639  46.2536133  33.9682266
  48.3044472  46.7891400  35.0708896  33.5595559  51.6942137  29.7992981
  33.4241233  52.5393673  30.2277829  34.1005371  51.8961415  29.0358915
  30.0462898  37.7733717  46.4607336  29.6529844  37.2199916  47.1354980
  30.8629039  38.0844296  46.8513854  27.0124956  49.2117575  30.3720906
  27.5249477  50.0060826  30.5226471  27.6647669  48.5143866  30.3054508
  28.8219841  52.3283332  32.4543659  28.9986469  53.2501296  32.2664643
  29.6176674  52.0141751  32.8838039  28.1072197  44.3747964  42.3305822
  27.9925712  43.4733221  42.6312921  27.2516715  44.6211660  41.9790639
  29.9451156  53.8461505  38.4554002  30.4958581  53.7178569  37.6830996
  29.1062632  54.1456394  38.1048894  24.9773873  47.5406230  31.1480477
  25.8149095  47.9503238  30.9314184  25.1552140  46.6005672  31.1180670
  36.8738305  45.2081310  26.8364310  36.3584928  45.9785915  27.0752697
  36.6015613  44.5346447  27.4597371  34.4585416  40.0531011  31.8949548
  33.6027012  39.6637862  31.7155187  34.8712368  40.1322972  31.0349333
  35.9884563  37.5877354  36.2941108  35.4849358  37.5507490  35.4808913
  36.2815169  38.4970097  36.3537764  32.2327448  37.6716084  35.3007289
  33.0980445  37.4758893  34.9413179  32.3004957  37.4426436  36.2276646
  41.8472579  47.9613665  28.7717483  41.0702022  47.6224825  28.3272645
  42.5264060  47.9666288  28.0972448  36.6624608  43.0808402  28.6624091
  36.3574744  43.3954552  29.5134234  37.6155050  43.1589822  28.7051424
  35.1071040  49.2398626  30.3117045  34.5792401  48.5051385  29.9990282
  34.6058543  50.0173302  30.0657013  40.0863886  47.4347646  35.4284091
  39.4287560  48.1246908  35.5164220  40.8904285  47.8244078  35.7718077
  29.8389767  39.9018292  32.6723656  30.4133519  39.6793474  31.9396849
  30.4260750  39.9706987  33.4252258  38.8969345  45.7892019  33.4788033
  39.4101226  46.4222011  33.9809743  39.5470569  45.1893214  33.1131393
  30.1659355  41.9322753  26.6919542  29.3296667  42.2697440  27.0128816
  30.0264124  41.7971733  25.7546678  32.1412435  36.7759541  31.3998726
  31.4876848  36.4608558  30.7755340  32.0992909  36.1535281  32.1258549
  33.2523640  47.0578836  23.3152018  32.3450702  46.8268089  23.5143167
  33.7494672  46.2616455  23.5025999  36.1591719  55.7676343  26.2348704
  35.4853418  56.0708040  26.8433662  36.5457541  56.5705424  25.8854161
  35.3750176  43.2641475  35.7246373  34.4572737  43.4856422  35.5668061
  35.7910319  43.3387785  34.8658081  36.1585223  44.6632890  30.8549054
  36.9057042  45.1754287  30.5456176  36.4276813  44.3416943  31.7153447
  34.4311874  47.1591431  27.8376008  33.5223093  46.8750464  27.9348478
  34.4606957  47.5790509  26.9779315  39.6631141  50.7698020  31.6067175
  39.2093468  49.9288930  31.6632366  39.0325108  51.4059419  31.9441956
  38.6064060  41.6990006  32.8367843  37.8686817  41.1867393  33.1678085
  38.8590834  41.2590388  32.0251120  38.1064080  52.6074517  32.5416994
  38.3987055  53.1679574  31.8229359  38.6162701  52.9003078  33.2970153
  38.7075688  34.4766258  33.4309612  39.0134565  33.6163622  33.1435527
  39.4328293  35.0683879  33.2308606  25.0000044  44.8796945  31.8191210
  24.8024444  44.2866306  31.0942277  24.4446708  44.5749155  32.5367149
  32.9796768  44.7720052  33.9385803  33.0345377  43.8193888  33.8628280
  32.1687970  44.9279491  34.4227102  34.1287961  48.7000175  25.1764086
  33.6907391  47.9836034  24.7169724  34.8698402  48.9276289  24.6149178
  30.9189127  43.3897111  31.6976182  30.1056993  43.6891282  32.1041374
  31.4148122  42.9952800  32.4150664  33.0697705  53.3854868  33.6310447
  33.0273884  53.6115714  32.7018979  33.9860404  53.1518243  33.7796248
  42.2461076  46.9757372  31.2340405  42.1078975  47.1658968  30.3061594
  41.8897295  47.7376754  31.6908456  30.4103202  40.9615467  37.3137417
  31.0502582  40.8204226  36.6160380  29.5780733  40.6749980  36.9376019
  42.2730456  49.0433899  36.2451677  42.7066962  48.9509188  37.0934731
  42.9862036  49.0191399  35.6071693  31.1863506  50.2617897  33.4272409
  31.9804105  49.7668217  33.2254984  30.4755199  49.7335760  33.0640115
  27.4946270  44.4060979  29.5032162  26.5643858  44.3445434  29.7202124
  27.5903742  43.8836932  28.7068803  27.4131819  40.9315792  32.0910404
  27.6738636  41.8461125  31.9819564  28.2348991  40.4640234  32.2407017
  28.8856744  42.3453549  39.2609228  29.5579797  42.1370911  38.6121877
  28.0586531  42.1475635  38.8214461  43.1346005  49.0857599  38.7784562
  43.3281895  49.9903410  39.0243837  43.0346623  48.6265018  39.6123147
  34.3582934  55.9356016  28.4495783  34.5334690  55.4644059  29.2641406
  33.6715722  56.5621782  28.6777044  35.3139997  50.2128522  34.4959084
  34.9789830  50.1729292  35.3916734  34.8143943  49.5473238  34.0229495
  29.2884241  45.6196152  40.0211666  29.1504039  44.8876391  40.6223205
  30.1989165  45.5305052  39.7395853  38.2499189  47.5584556  24.7696144
  37.6328360  46.8331384  24.6729197  37.7815677  48.3193917  24.4263218
  31.9166542  45.3316111  39.5095345  32.6266160  44.6909303  39.4681964
  31.8735850  45.5829006  40.4321526  30.6295476  42.3181329  41.3290985
  30.0932833  41.8672068  41.9812581  30.0412184  42.4527238  40.5861449
  28.9244019  59.0845378  35.2235643  29.1640618  59.7163903  35.9014662
  28.0813216  58.7333418  35.5101003  30.0397735  41.7769981  23.8917448
  29.1627201  41.6558781  23.5279695  30.5155488  40.9856059  23.6396337
  21.5599875  46.5647140  33.9858955  22.2470915  46.2508870  33.3979971
  21.4048004  47.4688505  33.7126207  26.3634597  41.4537337  38.4143979
  26.2792786  40.8463006  37.6794389  25.5417304  41.9446355  38.4153475
  33.2261661  54.1296271  31.1379969  32.4429183  54.6717951  31.2318193
  33.9254406  54.6470251  31.5374210  36.5358311  39.9390900  33.7814174
  37.0327011  39.1860863  33.4615244  35.7645292  39.9755217  33.2157384
  44.3888068  45.6431266  35.4232466  44.3777945  46.5255981  35.0526399
  43.5205448  45.2902817  35.2287003  37.6188092  48.6962588  31.3552598
  36.6844370  48.8164050  31.1857302  37.7964760  47.7935054  31.0912607
  33.1193280  42.0808283  33.5085859  32.7491067  41.5279324  34.1966764
  33.6152372  41.4766417  32.9560859  41.0060643  44.5379907  31.8902632
  41.4721095  45.3707898  31.8162934  41.4568144  44.0724888  32.5947890
  39.0736874  50.8823728  28.8888784  39.3496718  50.7680323  29.7982658
  38.2041373  50.4841213  28.8500957  38.7483764  45.0950386  38.4293427
  38.0955215  45.3426293  37.7745880  39.1264144  44.2814524  38.0955904
  35.7090938  55.1310079  32.5321597  35.8913333  54.3131735  32.9949350
  36.5323924  55.3477771  32.0946487  36.0433104  54.0578264  29.7936646
  36.5720870  53.5470719  29.1806808  36.3061323  53.7420794  30.6582179
  26.5450196  52.0742133  37.5371979  27.1303633  51.3285821  37.6699884
  26.3475035  52.3846090  38.4208643  29.3988852  55.1093381  32.5534422
  28.7299227  55.5939508  32.0698462  29.2601721  55.3562601  33.4677800
  21.1367851  44.6447734  36.2576423  21.1751951  44.1111324  37.0513541
  20.6308144  44.1182939  35.6387400  28.5158613  39.4912274  39.7538965
  28.5799940  40.3527105  39.3416363  28.4525734  38.8786276  39.0211323
  24.7676429  43.3711836  29.3330354  25.0629870  42.4622514  29.2797408
  23.8664464  43.3499575  29.0111356  36.6762507  55.0919100  36.1380762
  36.5513647  54.2908840  35.6291708  37.3341599  55.5865293  35.6494732
  28.2970676  41.4467832  35.3157903  27.5757261  42.0603800  35.1765376
  29.0863931  41.9825597  35.2374548  38.7397416  52.8928120  37.7660312
  37.7927751  52.7733471  37.6938639  39.0880189  52.0050618  37.8486574
  31.0996989  38.7822259  41.5898554  31.6231391  39.0284555  42.3524864
  30.8809322  39.6142294  41.1701692  26.4964270  41.0525933  29.4569679
  26.1676976  40.1723312  29.2744785  26.8503641  40.9973602  30.3446068
  35.7443849  52.6880836  33.9664665  35.5968812  51.7597544  34.1472235
  36.5697343  52.7100927  33.4821740  29.6106093  41.3398903  29.8245157
  29.9502166  41.8684824  29.1023765  30.0578214  41.6779309  30.6003723
  39.3477971  53.5109395  35.0529537  40.2724518  53.3052256  34.9153989
  39.1793274  53.2625796  35.9618879  32.3049534  39.7235954  39.2748225
  31.9646355  38.9243767  39.6768905  31.5988541  40.0237665  38.7025058
  32.9566006  36.8085266  37.7275548  33.7792075  36.3345745  37.6054438
  33.2004070  37.5875750  38.2274234  31.5974241  39.8373525  28.0238450
  32.3182603  40.2154778  27.5202166  30.9739545  40.5562402  28.1273428
  35.7405363  40.5418674  28.9596782  35.9568978  41.4243312  28.6585610
  35.2599431  40.1504887  28.2302424  30.4804585  43.5004387  35.5367526
  30.3349166  43.8144690  36.4291808  30.0029788  44.1189287  34.9838425
  32.3400968  40.4906935  35.5848416  32.3262536  39.5948028  35.2480714
  33.0573396  40.4977599  36.2186702  34.1927098  40.9244275  37.6301543
  33.9344876  41.8461346  37.6285874  33.6612139  40.5274710  38.3202008
  39.1373287  54.0295062  30.4091629  39.3110165  53.4641485  29.6565481
  39.6302178  54.8295957  30.2271119  24.9550247  46.0409731  38.4755188
  24.4103715  46.8169539  38.6075462  25.8329597  46.3880536  38.3174309
  31.7437864  39.3721315  30.8535986  31.8653775  38.4437961  31.0526874
  31.4539906  39.3860001  29.9414302  34.6129054  37.0576226  33.9902706
  34.6350751  37.1215559  33.0354686  35.0297113  36.2180734  34.1843212
  44.9912678  46.7931485  32.0281929  45.4343824  46.0438810  31.6301052
  44.1139189  46.7841622  31.6455661  40.1248460  53.3461827  27.5088527
  40.8199364  53.9668519  27.7275842  40.4671610  52.4957178  27.7840905
  25.7416269  45.1679628  41.3685345  24.9998005  45.3162263  41.9549975
  25.4209013  45.4287893  40.5052094  42.0239883  50.7961532  29.0375858
  42.5491207  51.1348805  28.3125178  41.9362235  49.8608548  28.8538993
  33.7080544  56.8633516  33.3971111  33.2685534  56.3709894  34.0903968
  34.4588660  56.3206483  33.1563186  26.1872883  53.0545056  33.3995739
  27.0130902  52.7548828  33.0194383  25.8366935  52.2852679  33.8485528
  31.1554416  52.4071525  35.4693413  30.5334425  51.7442230  35.1695641
  31.8259283  52.4332657  34.7867061  24.3881488  50.9731383  34.3584673
  23.5513396  50.5453557  34.1768674  24.3605133  51.1663826  35.2955464
  41.8331664  48.2786902  41.6559784  41.8829669  48.1136910  42.5975307
  41.7245587  47.4114161  41.2657665  30.7167923  50.9575448  28.9451873
  30.8656043  51.6410912  28.2918546  31.5234366  50.9380538  29.4601329
  33.4578232  41.6384685  41.8172277  32.5881541  41.9318251  41.5454866
  33.6937712  42.2225130  42.5379541  43.3349861  50.6983844  41.9001806
  43.0434669  51.0613824  42.7365267  42.7221992  49.9850852  41.7215138
  44.5345543  48.2636724  34.4204376  45.3692434  48.7026528  34.5841937
  44.6704672  47.7875377  33.6012622  41.5837049  45.8216458  40.3681864
  42.0591171  46.0144105  39.5600715  40.6602614  45.8775644  40.1225248
  28.4720556  46.9840626  29.9512942  28.2266598  46.0802956  30.1493152
  28.6416470  46.9857776  29.0092420  27.7416203  42.7168983  27.4499104
  27.0485448  42.7913338  26.7939140  27.4967955  41.9529327  27.9720621
  36.4129860  34.2764585  34.8538594  36.6931613  33.6087774  35.4799021
  37.1980467  34.4693680  34.3413258  34.2163328  53.4523578  26.4163621
  33.6437295  54.0713766  25.9634093  34.7896122  54.0022940  26.9503543
  37.4360588  53.7360729  27.5472203  38.3691261  53.6706290  27.7505079
  37.3483801  54.5716995  27.0886736  40.0648605  53.0526599  24.5076151
  39.9862236  52.7186462  25.4011908  40.8858271  53.5448367  24.5067623
  42.7626796  45.9188338  37.7152469  42.7303116  44.9804339  37.9012153
  43.3727419  45.9972375  36.9818294  34.6010127  44.7884391  23.7579673
  35.5469231  44.6590599  23.8268091  34.2224372  44.0499053  24.2349101
  42.9121284  42.7099382  37.7610752  42.3960333  41.9257838  37.5740681
  43.7961233  42.3818098  37.9257272  40.5732011  36.4540397  33.7206565
  40.3756832  36.1455485  34.6049897  41.1831717  37.1802036  33.8504495
  48.5803346  46.9804345  36.8558506  49.3106734  46.7189633  37.4166209
  47.9710291  46.2433067  36.8960574  46.6618643  45.1212208  37.4532957
  45.9351806  44.9868173  36.8449449  46.2465930  45.4289036  38.2589675
  32.7853044  42.7134368  23.6934558  31.8784499  42.4167480  23.7697272
  33.0629025  42.4164186  22.8268845  23.7030984  44.0340731  34.1433605
  23.3833769  43.1806039  33.8507979  23.1564412  44.2489309  34.8991572
  27.4810892  46.7503172  37.8603111  27.6996901  47.6820280  37.8791145
  27.8936666  46.3911146  38.6457915  34.4015110  37.2571257  29.8478800
  33.5915838  36.9118342  30.2234046  35.0899526  36.9478801  30.4366411
  36.3305658  36.3349304  31.4703096  36.8836696  36.7544758  32.1293119
  36.5675744  35.4085052  31.5126052  31.5551828  39.5721303  23.8346538
  32.4170992  39.8976201  24.0942355  31.7402173  38.7852799  23.3219603
  23.5719244  47.6543642  36.1126726  22.8782716  47.2397595  35.5996681
  24.3192235  47.6964179  35.5160145  39.7084465  38.4449829  30.9781761
  39.1283134  39.1034633  30.5959813  39.4420398  37.6227174  30.5669178
  38.1588031  37.8454887  33.1803081  38.6587810  37.9571421  32.3717400
  38.8023639  37.5415940  33.8203889  25.4855987  47.5861896  33.9892741
  25.4626675  47.6849584  33.0374624  25.7956623  48.4327047  34.3109907
  28.1443365  49.6438051  38.1039356  29.0986618  49.6121994  38.0369287
  27.9455888  49.1828675  38.9189582  28.7342747  48.2139167  40.6710153
  29.5535636  48.7083246  40.6944991  29.0079554  47.2971135  40.6427721
  38.4909343  40.6049920  30.0338109  37.6035198  40.8899570  29.8158304
  38.9063332  40.4443683  29.1865386  41.8423879  40.6296441  33.7492448
  42.6184269  41.1192893  34.0217065  41.1172013  41.0554495  34.2064318
  44.2796438  41.3424060  34.8066389  44.8740928  41.1019796  34.0959697
  44.3523021  40.6231190  35.4339925  26.4993593  55.1857671  35.1209554
  26.3648061  54.4258072  34.5547552  26.0825656  55.9098571  34.6538342
  37.6352556  50.3694594  24.1286129  38.3388406  50.5744597  24.7443784
  36.9115205  50.9371356  24.3935212  38.4650367  46.1204456  30.2488399
  38.4085568  46.5773007  29.4096031  39.0178709  45.3595140  30.0711242
  42.2755173  41.9094187  31.0738519  42.0192107  41.5090823  31.9046726
  41.6508041  42.6237981  30.9488658  46.5867510  44.6490261  33.5809810
  46.0267068  44.7183450  34.3541372  45.9811014  44.4731245  32.8609306
  29.6562719  56.0826988  35.3327996  29.5395103  57.0272420  35.2306686
  28.8355165  55.7800549  35.7213795  39.5439254  50.8077123  26.1784589
  40.3784858  50.3758322  25.9962064  39.3823597  50.6359137  27.1061483
  39.1985146  47.3109237  27.5440928  39.1433950  47.1453508  26.6029372
  38.5731201  48.0185270  27.7003118  23.9877661  42.5477301  41.3702350
  24.6336525  42.0376255  41.8589576  23.7794812  43.2845983  41.9445776
  32.5081271  36.8117346  27.1226247  32.4959941  37.7559186  27.2794517
  33.4004693  36.6287491  26.8285708  30.6817233  56.7355250  38.5483925
  31.5844480  56.7678860  38.8650420  30.4554603  55.8055701  38.5630260
  32.4370835  55.4886236  35.2094003  31.4866466  55.4888098  35.0958376
  32.7403322  54.7418971  34.6930038  36.3233391  33.4060122  31.3772183
  35.5565787  32.8518609  31.5228866  36.7344096  33.4781991  32.2386335
  48.1723529  61.3246775  36.2739766  48.8101939  61.2053522  35.5703106
  48.0544372  62.2727619  36.3327718  44.9813235  61.2774203  36.2101290
  44.6431747  61.1615267  35.3221825  45.8503003  60.8765368  36.1902297
  40.8400051  63.1309679  32.1998181  40.2764916  63.0399616  31.4314469
  40.7252446  62.3109584  32.6800674  45.4633018  62.4309054  42.1687496
  45.4521659  62.0361853  41.2968000  45.6253658  61.6975127  42.7621267
  38.3864483  64.6260871  35.0382402  39.1785775  64.2851695  34.6228701
  38.6261133  64.7355846  35.9584555  46.4199610  66.7980647  27.5112646
  45.7687589  67.3834727  27.1246660  47.2143972  67.3286842  27.5707684
  40.3455237  63.8869784  27.9099781  41.1186113  63.3398771  27.7712656
  40.6980636  64.7514033  28.1214242  42.1840279  65.2146166  41.1166680
  41.8930145  66.1191797  41.0013346  42.8197264  65.2562694  41.8310749
  43.1096486  62.5923015  37.7068040  43.7060058  62.3679037  36.9925002
  43.1671458  61.8507760  38.3093487  42.6821515  60.0462450  25.5418230
  42.9347035  59.5243971  24.7801693  41.7446074  59.8828596  25.6444914
  47.7264797  59.0498228  33.3492974  48.5127887  58.6317652  32.9983391
  47.9903502  59.9544321  33.5174622  47.8974875  64.4871079  28.0481631
  47.2620708  64.5605705  28.7602535  47.5672281  65.0764678  27.3700710
  53.1273224  58.9873462  34.2525952  53.8598396  58.4172678  34.4863782
  52.3712580  58.5995062  34.6932458  42.4017803  61.9490556  27.7442605
  42.2854061  61.2735459  28.4123690  42.5120063  61.4622930  26.9274759
  44.7449344  61.4100703  31.4489295  44.3807551  60.8831324  32.1602216
  45.6016460  61.0199172  31.2755780  50.6498645  52.6995036  38.7120561
  50.3181970  53.5690447  38.4881776  50.0544258  52.3831320  39.3914591
  44.3854831  56.4390603  26.4450643  44.5529234  57.3070839  26.8121114
  44.1952000  56.6017885  25.5211932  47.1430164  64.9007582  38.1116474
  46.8430887  65.8032621  38.0032281  46.7981224  64.6339765  38.9637626
  40.5942646  61.3521379  34.1453178  39.6693142  61.2197593  34.3530870
  40.8427059  62.1315598  34.6423120  50.5427308  57.4190122  35.7913911
  49.6344185  57.3505530  35.4972672  50.4914904  57.8962067  36.6195736
  44.3644052  58.8948260  27.4297310  44.2443677  59.3405311  28.2682790
  43.6696640  59.2433578  26.8710848  37.9551457  60.9954652  34.9796967
  38.0843838  61.2489131  35.8936379  37.2748908  61.5882360  34.6601622
  42.1250944  71.6651902  31.0787441  42.0474974  72.6159727  31.1575922
  41.5212588  71.3197775  31.7362368  52.4088955  55.6206560  37.5691785
  51.7663335  55.9139093  36.9231579  51.9043883  55.5059481  38.3744981
  50.0629118  59.3669734  28.2577644  50.9746974  59.5997120  28.0825342
  49.5538765  59.9506778  27.6952723  42.8714546  61.6465221  43.2966775
  43.6129231  62.1850265  43.0201599  42.1651532  62.2731510  43.4538327
  48.3469886  63.7894361  41.8938937  48.7553242  63.3476772  41.1493569
  47.6247147  63.2146989  42.1473130  44.7000956  58.7266968  39.2672494
  45.5462151  59.1506382  39.4107143  44.6399594  58.0700592  39.9611057
  48.6698701  64.3495552  35.6491226  48.0407563  64.5141266  34.9467293
  48.2824363  64.7637162  36.4202190  52.5487932  65.2849990  33.0035589
  51.8638971  65.6648891  32.4532623  52.6331782  65.8945316  33.7367537
  47.8500401  56.3871336  40.9253667  47.6061333  57.1413397  40.3887943
  48.1260332  56.7656684  41.7600914  49.8038864  62.9309949  39.6030933
  50.0155759  63.5741709  38.9265314  49.7568612  62.0972265  39.1352863
  47.4065093  55.5427769  36.5067505  46.5449572  55.8409023  36.7984243
  47.4327528  55.7598168  35.5748538  44.2226662  64.0869960  32.9141311
  44.6865008  64.3657663  32.1245933  43.9583461  63.1853405  32.7314401
  41.1150743  63.6341442  35.8521074  41.6852101  64.0628710  35.2138558
  41.7058855  63.3524026  36.5505260  43.1595548  60.2093112  29.7230876
  43.8619592  60.6614156  30.1904802  42.8276177  59.5676931  30.3510769
  36.9020882  58.4676665  35.0248009  36.1119936  58.7234194  34.5488120
  37.3932130  59.2825003  35.1300050  50.9184692  65.8081904  37.7753290
  51.7402136  65.4062092  37.4935972  50.9147095  65.7050138  38.7269406
  38.8535628  58.8321244  31.9831486  38.0566791  58.9439939  32.5014982
  38.6261220  59.1707897  31.1172377  44.6841295  65.3565948  39.9314001
  44.7485728  65.8186355  40.7672173  43.9752219  64.7263312  40.0596311
  59.0090685  62.1520653  34.1238262  58.2554393  61.5828051  33.9682266
  59.1438226  62.1183317  35.0708896  44.3989313  67.0234055  29.7992981
  44.2634988  67.8685591  30.2277829  44.9399126  67.2253333  29.0358915
  37.8518710  64.5409493  30.3720906  38.3643231  65.3352743  30.5226471
  38.5041423  63.8435784  30.3054508  39.6613595  67.6575249  32.4543659
  39.8380223  68.5793214  32.2664643  40.4570429  67.3433669  32.8838039
  46.0257789  67.6457622  43.9293323  45.5821644  66.8594000  43.6114228
  46.6875003  67.8336772  43.2637214  40.7844911  69.1753423  38.4554002
  41.3352336  69.0470487  37.6830996  39.9456387  69.4748312  38.1048894
  48.1239028  67.9260421  41.9574724  48.1057503  68.7469303  41.4654994
  49.0458948  67.8014497  42.1824866  44.5812082  65.4404551  42.7998233
  45.1140418  64.6792839  42.5697541  44.0526163  65.1478203  43.5422387
  47.7481777  50.5464617  38.3291874  47.4046046  51.4366259  38.2530985
  48.1160739  50.3566275  37.4661459  35.8167627  62.8698147  31.1480477
  36.6542849  63.2795156  30.9314184  35.9945895  61.9297590  31.1180670
  47.7132059  60.5373228  26.8364310  47.1978683  61.3077833  27.0752697
  47.4409368  59.8638364  27.4597371  45.2979170  55.3822929  31.8949548
  44.4420767  54.9929779  31.7155187  45.7106122  55.4614890  31.0349333
  46.8278317  52.9169272  36.2941108  46.3243113  52.8799407  35.4808913
  47.1208924  53.8262015  36.3537764  43.0721203  53.0008002  35.3007289
  43.9374200  52.8050810  34.9413179  43.1398712  52.7718354  36.2276646
  52.6866333  63.2905583  28.7717483  51.9095776  62.9516742  28.3272645
  53.3657814  63.2958206  28.0972448  47.5018363  58.4100320  28.6624091
  47.1968498  58.7246469  29.5134234  48.4548805  58.4881740  28.7051424
  45.9464794  64.5690543  30.3117045  45.4186156  63.8343303  29.9990282
  45.4452297  65.3465220  30.0657013  50.9257640  62.7639564  35.4284091
  50.2681315  63.4538825  35.5164220  51.7298040  63.1535996  35.7718077
  40.6783522  55.2310210  32.6723656  41.2527274  55.0085391  31.9396849
  41.2654504  55.2998904  33.4252258  49.7363099  61.1183937  33.4788033
  50.2494981  61.7513928  33.9809743  50.3864323  60.5185132  33.1131393
  41.0053109  57.2614671  26.6919542  40.1690421  57.5989357  27.0128816
  40.8657879  57.1263651  25.7546678  42.9806190  52.1051459  31.3998726
  42.3270602  51.7900476  30.7755340  42.9386664  51.4827199  32.1258549
  44.0917395  62.3870754  23.3152018  43.1844456  62.1560007  23.5143167
  44.5888427  61.5908373  23.5025999  46.9985473  71.0968261  26.2348704
  46.3247172  71.3999958  26.8433662  47.3851295  71.8997341  25.8854161
  46.2143930  58.5933392  35.7246373  45.2966491  58.8148339  35.5668061
  46.6304074  58.6679703  34.8658081  46.9978978  59.9924808  30.8549054
  47.7450797  60.5046205  30.5456176  47.2670567  59.6708861  31.7153447
  45.2705628  62.4883349  27.8376008  44.3616847  62.2042381  27.9348478
  45.3000712  62.9082427  26.9779315  50.5024895  66.0989938  31.6067175
  50.0487223  65.2580848  31.6632366  49.8718862  66.7351336  31.9441956
  49.4457815  57.0281924  32.8367843  48.7080572  56.5159310  33.1678085
  49.6984589  56.5882306  32.0251120  48.9457835  67.9366435  32.5416994
  49.2380809  68.4971492  31.8229359  49.4556455  68.2294996  33.2970153
  49.5469442  49.8058176  33.4309612  49.8528319  48.9455540  33.1435527
  50.2722047  50.3975796  33.2308606  35.8393798  60.2088863  31.8191210
  35.6418198  59.6158223  31.0942277  35.2840462  59.9041073  32.5367149
  43.8190522  60.1011969  33.9385803  43.8739132  59.1485806  33.8628280
  43.0081724  60.2571408  34.4227102  44.9681716  64.0292092  25.1764086
  44.5301146  63.3127951  24.7169724  45.7092157  64.2568207  24.6149178
  41.7582882  58.7189029  31.6976182  40.9450747  59.0183199  32.1041374
  42.2541876  58.3244718  32.4150664  43.9091460  68.7146786  33.6310447
  43.8667639  68.9407632  32.7018979  44.8254159  68.4810160  33.7796248
  47.3557094  59.1830853  40.5291076  47.7106481  59.4102327  41.3885542
  48.0029225  59.5149230  39.9068331  53.0854831  62.3049289  31.2340405
  52.9472729  62.4950885  30.3061594  52.7291049  63.0668672  31.6908456
  41.2496957  56.2907384  37.3137417  41.8896336  56.1496144  36.6160380
  40.4174487  56.0041898  36.9376019  53.1124210  64.3725816  36.2451677
  53.5460717  64.2801105  37.0934731  53.8255791  64.3483317  35.6071693
  42.0257261  65.5909815  33.4272409  42.8197859  65.0960135  33.2254984
  41.3148953  65.0627678  33.0640115  46.8452105  67.9727910  37.7784777
  46.8989127  68.5418847  38.5462493  45.9766886  68.1429795  37.4138814
  38.3340024  59.7352897  29.5032162  37.4037612  59.6737352  29.7202124
  38.4297496  59.2128849  28.7068803  38.2525573  56.2607709  32.0910404
  38.5132390  57.1753043  31.9819564  39.0742745  55.7932152  32.2407017
  53.9739760  64.4149517  38.7784562  54.1675650  65.3195327  39.0243837
  53.8740378  63.9556936  39.6123147  45.6276070  54.3007408  41.2774889
  44.9803986  54.9997357  41.1839366  46.3977086  54.7343551  41.6451137
  49.0354868  64.5656260  44.3525443  48.8840375  64.3366811  43.4355526
  49.0259548  65.5226861  44.3656788  45.8040205  62.1388172  39.3371709
  46.7332265  62.2899332  39.1640676  45.3831235  62.2272193  38.4820355
  44.6028537  66.1638837  37.1070247  44.4639622  65.7957621  37.9796185
  43.8143133  66.6786476  36.9354204  45.1976689  71.2647933  28.4495783
  45.3728444  70.7935977  29.2641406  44.5109477  71.8913700  28.6777044
  46.1533752  65.5420440  34.4959084  45.8183584  65.5021210  35.3916734
  45.6537697  64.8765155  34.0229495  49.0892943  62.8876474  24.7696144
  48.4722114  62.1623302  24.6729197  48.6209432  63.6485834  24.4263218
  50.7447075  67.5975382  42.4301924  50.6859621  66.9134602  41.7632507
  51.1466593  68.3394372  41.9782550  39.7637774  74.4137296  35.2235643
  40.0034372  75.0455820  35.9014662  38.9206970  74.0625336  35.5101003
  40.8791489  57.1061898  23.8917448  40.0020956  56.9850699  23.5279695
  41.3549242  56.3147977  23.6396337  50.7464482  65.5614966  40.6615904
  49.8591261  65.2240888  40.7842303  51.3163033  64.8297997  40.8984669
  32.3993629  61.8939058  33.9858955  33.0864669  61.5800788  33.3979971
  32.2441758  62.7980423  33.7126207  44.2765636  70.2216419  37.6277147
  44.2035807  71.0271390  38.1396452  43.8343029  70.4208384  36.8025169
  44.0655415  69.4588189  31.1379969  43.2822937  70.0009869  31.2318193
  44.7648161  69.9762168  31.5374210  47.3752065  55.2682818  33.7814174
  47.8720765  54.5152780  33.4615244  46.6039047  55.3047135  33.2157384
  55.2281823  60.9723184  35.4232466  55.2171699  61.8547899  35.0526399
  54.3599202  60.6194734  35.2287003  46.7364319  70.1203253  39.7835306
  47.4492291  70.7550717  39.7111207  46.2454348  70.2167119  38.9675308
  48.4581846  64.0254505  31.3552598  47.5238125  64.1455968  31.1857302
  48.6358515  63.1226972  31.0912607  43.9587034  57.4100201  33.5085859
  43.5884822  56.8571241  34.1966764  44.4546127  56.8058334  32.9560859
  51.8454398  59.8671825  31.8902632  52.3114850  60.6999816  31.8162934
  52.2961898  59.4016806  32.5947890  41.7876233  67.8697696  40.6040877
  42.4885692  68.5034179  40.7570271  41.3171348  68.2112428  39.8436516
  49.9130629  66.2115646  28.8888784  50.1890473  66.0972240  29.7982658
  49.0435127  65.8133131  28.8500957  49.8171060  52.2352412  35.9293533
  48.9034140  52.4656638  36.0975740  50.2464162  52.3190856  36.7807565
  49.5877519  60.4242303  38.4293427  48.9348969  60.6718211  37.7745880
  49.9657899  59.6106442  38.0955904  46.5484693  70.4601997  32.5321597
  46.7307087  69.6423653  32.9949350  47.3717679  70.6769689  32.0946487
  46.8826858  69.3870182  29.7936646  47.4114625  68.8762636  29.1806808
  47.1455078  69.0712712  30.6582179  45.6365092  61.1662115  44.9159464
  44.9605729  61.0656244  45.5861839  46.4592726  61.0101328  45.3795461
  37.3843951  67.4034051  37.5371979  37.9697388  66.6577739  37.6699884
  37.1868789  67.7138008  38.4208643  40.2382606  70.4385298  32.5534422
  39.5692981  70.9231426  32.0698462  40.0995476  70.6854519  33.4677800
  31.9761606  59.9739651  36.2576423  32.0145705  59.4403242  37.0513541
  31.4701898  59.4474857  35.6387400  44.3787875  72.4729042  39.1517080
  44.9306183  72.6360663  39.9166165  44.7194068  73.0633480  38.4797105
  49.2298749  67.2990300  45.0065735  49.7738653  67.9120258  44.5120689
  48.6485594  67.8569878  45.5232748  35.6070183  58.7003753  29.3330354
  35.9023624  57.7914432  29.2797408  34.7058219  58.6791493  29.0111356
  47.5156262  70.4211018  36.1380762  47.3907401  69.6200757  35.6291708
  48.1735353  70.9157211  35.6494732  39.1364430  56.7759750  35.3157903
  38.4151016  57.3895718  35.1765376  39.9257686  57.3117515  35.2374548
  49.5791170  68.2220038  37.7660312  48.6321506  68.1025389  37.6938639
  49.9273943  67.3342536  37.8486574  37.3358025  56.3817851  29.4569679
  37.0070731  55.5015230  29.2744785  37.6897395  56.3265520  30.3446068
  46.5837604  68.0172754  33.9664665  46.4362566  67.0889461  34.1472235
  47.4091097  68.0392845  33.4821740  40.4499848  56.6690821  29.8245157
  40.7895920  57.1976742  29.1023765  40.8971968  57.0071227  30.6003723
  50.1871725  68.8401313  35.0529537  51.1118273  68.6344174  34.9153989
  50.0187029  68.5917714  35.9618879  43.1443289  55.0527872  39.2748225
  42.8040109  54.2535685  39.6768905  42.4382295  55.3529582  38.7025058
  43.7959761  52.1377184  37.7275548  44.6185830  51.6637662  37.6054438
  44.0397824  52.9167668  38.2274234  42.4367995  55.1665442  28.0238450
  43.1576358  55.5446695  27.5202166  41.8133299  55.8854319  28.1273428
  46.5799118  55.8710591  28.9596782  46.7962732  56.7535229  28.6585610
  46.0993185  55.4796805  28.2302424  43.1794722  55.8198853  35.5848416
  43.1656291  54.9239946  35.2480714  43.8967150  55.8269516  36.2186702
  45.0320853  56.2536193  37.6301543  44.7738631  57.1753264  37.6285874
  44.5005893  55.8566627  38.3202008  49.9767042  69.3586980  30.4091629
  50.1503919  68.7933402  29.6565481  50.4695933  70.1587875  30.2271119
  35.7944001  61.3701649  38.4755188  35.2497470  62.1461457  38.6075462
  36.6723351  61.7172454  38.3174309  42.5831618  54.7013233  30.8535986
  42.7047529  53.7729879  31.0526874  42.2933660  54.7151919  29.9414302
  45.4522809  52.3868143  33.9902706  45.4744505  52.4507476  33.0354686
  45.8690868  51.5472652  34.1843212  55.8306433  62.1223403  32.0281929
  56.2737579  61.3730728  31.6301052  54.9532943  62.1133539  31.6455661
  50.9642214  68.6753744  27.5088527  51.6593119  69.2960437  27.7275842
  51.3065364  67.8249096  27.7840905  52.8633637  66.1253450  29.0375858
  53.3884961  66.4640723  28.3125178  52.7755990  65.1900465  28.8538993
  44.5253686  70.0387524  41.1665735  44.8340812  69.7936670  42.0388434
  45.3229168  70.2434162  40.6784605  44.5474298  72.1925433  33.3971111
  44.1079288  71.7001812  34.0903968  45.2982415  71.6498401  33.1563186
  37.0266637  68.3836974  33.3995739  37.8524657  68.0840746  33.0194383
  36.6760689  67.6144597  33.8485528  41.9948170  67.7363442  35.4693413
  41.3728179  67.0734147  35.1695641  42.6653037  67.7624574  34.7867061
  35.2275242  66.3023301  34.3584673  34.3907150  65.8745475  34.1768674
  35.1998887  66.4955744  35.2955464  52.5527543  66.7586354  44.3427056
  51.7623087  66.7410492  43.8031555  52.3160898  67.2974647  45.0976092
  52.6725418  63.6078820  41.6559784  52.7223423  63.4428827  42.5975307
  52.5639342  62.7406079  41.2657665  41.5561677  66.2867366  28.9451873
  41.7049797  66.9702830  28.2918546  42.3628121  66.2672456  29.4601329
  49.9629181  59.5909748  42.9719091  50.8639044  59.4516213  42.6803089
  50.0377155  59.7564203  43.9117269  44.2971986  56.9676603  41.8172277
  43.4275296  57.2610169  41.5454866  44.5331466  57.5517048  42.5379541
  54.1743615  66.0275761  41.9001806  53.8828424  66.3905742  42.7365267
  53.5615747  65.3142770  41.7215138  55.3739298  63.5928641  34.4204376
  56.2086189  64.0318445  34.5841937  55.5098426  63.1167294  33.6012622
  52.4230803  61.1508376  40.3681864  52.8984925  61.3436022  39.5600715
  51.4996369  61.2067562  40.1225248  39.3114310  62.3132543  29.9512942
  39.0660352  61.4094873  30.1493152  39.4810225  62.3149694  29.0092420
  47.0011020  53.1856220  39.3337698  47.5192964  53.9217247  39.0084186
  46.6466153  53.4920213  40.1684457  38.5809958  58.0460901  27.4499104
  37.8879203  58.1205256  26.7939140  38.3361710  57.2821244  27.9720621
  47.2523614  49.6056502  34.8538594  47.5325368  48.9379691  35.4799021
  48.0374221  49.7985598  34.3413258  45.0557083  68.7815496  26.4163621
  44.4831050  69.4005683  25.9634093  45.6289876  69.3314858  26.9503543
  51.1232472  58.0274136  38.6010170  52.0749895  58.1272234  38.6222394
  50.9535923  57.2352405  39.1108254  49.1446852  55.1129719  38.7869570
  48.5496784  55.3934732  38.0916059  48.8596549  55.6023620  39.5586312
  48.2754342  69.0652646  27.5472203  49.2085016  68.9998208  27.7505079
  48.1877555  69.9008913  27.0886736  50.9042359  68.3818517  24.5076151
  50.8255991  68.0478380  25.4011908  51.7252026  68.8740284  24.5067623
  53.6020550  61.2480256  37.7152469  53.5696870  60.3096257  37.9012153
  54.2121174  61.3264293  36.9818294  45.4403881  60.1176309  23.7579673
  46.3862986  59.9882517  23.8268091  45.0618126  59.3790971  24.2349101
  53.7515039  58.0391299  37.7610752  53.2354087  57.2549756  37.5740681
  54.6354987  57.7110016  37.9257272  51.4125766  51.7832315  33.7206565
  51.2150587  51.4747403  34.6049897  52.0225471  52.5093954  33.8504495
  59.4197100  62.3096263  36.8558506  60.1500489  62.0481551  37.4166209
  58.8104046  61.5724985  36.8960574  57.5012397  60.4504125  37.4532957
  56.7745561  60.3160090  36.8449449  57.0859684  60.7580954  38.2589675
  45.3242574  64.1694055  45.2180330  46.2445583  64.3472654  45.4120377
  45.2892157  63.2250100  45.0660029  43.6246798  58.0426285  23.6934558
  42.7178254  57.7459398  23.7697272  43.9022779  57.7456103  22.8268845
  34.5424739  59.3632649  34.1433605  34.2227523  58.5097957  33.8507979
  33.9958167  59.5781227  34.8991572  45.2408864  52.5863175  29.8478800
  44.4309592  52.2410260  30.2234046  45.9293281  52.2770719  30.4366411
  47.1699412  51.6641222  31.4703096  47.7230451  52.0836675  32.1293119
  47.4069499  50.7376970  31.5126052  42.3945583  54.9013220  23.8346538
  43.2564747  55.2268119  24.0942355  42.5795927  54.1144716  23.3219603
  34.4112999  62.9835560  36.1126726  33.7176470  62.5689513  35.5996681
  35.1585990  63.0256097  35.5160145  50.5478219  53.7741747  30.9781761
  49.9676888  54.4326551  30.5959813  50.2814152  52.9519092  30.5669178
  48.9981786  53.1746805  33.1803081  49.4981564  53.2863339  32.3717400
  49.6417394  52.8707857  33.8203889  43.0563782  61.0825434  46.0670922
  42.5730863  61.8825794  46.2734811  43.1424721  61.0933379  45.1138366
  36.3249741  62.9153814  33.9892741  36.3020429  63.0141501  33.0374624
  36.6350378  63.7618965  34.3109907  38.9837119  64.9729969  38.1039356
  39.9380373  64.9413911  38.0369287  38.7849643  64.5120593  38.9189582
  49.3303097  55.9341837  30.0338109  48.4428952  56.2191488  29.8158304
  49.7457086  55.7735601  29.1865386  52.6817634  55.9588358  33.7492448
  53.4578024  56.4484811  34.0217065  51.9565768  56.3846412  34.2064318
  55.1190192  56.6715977  34.8066389  55.7134683  56.4311713  34.0959697
  55.1916776  55.9523108  35.4339925  37.3387348  70.5149588  35.1209554
  37.2041816  69.7549989  34.5547552  36.9219410  71.2390488  34.6538342
  48.4746311  65.6986512  24.1286129  49.1782161  65.9036514  24.7443784
  47.7508960  66.2663274  24.3935212  49.3044121  61.4496373  30.2488399
  49.2479323  61.9064925  29.4096031  49.8572464  60.6887058  30.0711242
  53.1148927  57.2386105  31.0738519  52.8585861  56.8382741  31.9046726
  52.4901795  57.9529899  30.9488658  57.4261265  59.9782178  33.5809810
  56.8660823  60.0475368  34.3541372  56.8204768  59.8023163  32.8609306
  40.4956474  71.4118905  35.3327996  40.3788858  72.3564338  35.2306686
  39.6748920  71.1092467  35.7213795  50.3833008  66.1369041  26.1784589
  51.2178612  65.7050240  25.9962064  50.2217351  65.9651055  27.1061483
  50.0378900  62.6401154  27.5440928  49.9827704  62.4745426  26.6029372
  49.4124956  63.3477187  27.7003118  47.3524808  64.9450066  46.8694491
  48.2215967  65.1190719  46.5081126  46.8731559  65.7644483  46.7470220
  43.3475026  52.1409263  27.1226247  43.3353696  53.0851103  27.2794517
  44.2398448  51.9579409  26.8285708  41.5210988  72.0647167  38.5483925
  42.4238235  72.0970778  38.8650420  41.2948358  71.1347618  38.5630260
  43.2764590  70.8178154  35.2094003  42.3260221  70.8180015  35.0958376
  43.5797076  70.0710888  34.6930038  47.1627145  48.7352040  31.3772183
  46.3959541  48.1810527  31.5228866  47.5737850  48.8073909  32.2386335
  59.0117283  76.6538692  36.2739766  59.6495693  76.5345440  35.5703106
  58.8938126  77.6019536  36.3327718  55.8206990  76.6066120  36.2101290
  55.4825501  76.4907185  35.3221825  56.6896758  76.2057285  36.1902297
  51.6793805  78.4601597  32.1998181  51.1158670  78.3691534  31.4314469
  51.5646200  77.6401501  32.6800674  56.3026773  77.7600972  42.1687496
  56.2915413  77.3653770  41.2968000  56.4647412  77.0267045  42.7621267
  49.2258237  79.9552788  35.0382402  50.0179529  79.6143613  34.6228701
  49.4654887  80.0647763  35.9584555  57.2593364  82.1272564  27.5112646
  56.6081344  82.7126645  27.1246660  58.0537727  82.6578759  27.5707684
  51.1848991  79.2161702  27.9099781  51.9579867  78.6690689  27.7712656
  51.5374390  80.0805951  28.1214242  53.0234034  80.5438084  41.1166680
  52.7323900  81.4483715  41.0013346  53.6591018  80.5854612  41.8310749
  53.9490241  77.9214932  37.7068040  54.5453813  77.6970955  36.9925002
  54.0065212  77.1799678  38.3093487  53.5215269  75.3754368  25.5418230
  53.7740790  74.8535889  24.7801693  52.5839828  75.2120513  25.6444914
  58.5658552  74.3790146  33.3492974  59.3521641  73.9609569  32.9983391
  58.8297256  75.2836238  33.5174622  58.7368629  79.8162996  28.0481631
  58.1014462  79.8897623  28.7602535  58.4066036  80.4056595  27.3700710
  63.9666979  74.3165379  34.2525952  64.6992151  73.7464596  34.4863782
  63.2106335  73.9286980  34.6932458  53.2411558  77.2782474  27.7442605
  53.1247816  76.6027377  28.4123690  53.3513818  76.7914848  26.9274759
  55.5843099  76.7392621  31.4489295  55.2201306  76.2123242  32.1602216
  56.4410215  76.3491090  31.2755780  61.4892399  68.0286953  38.7120561
  61.1575724  68.8982364  38.4881776  60.8938013  67.7123237  39.3914591
  55.2248586  71.7682521  26.4450643  55.3922988  72.6362757  26.8121114
  55.0345755  71.9309802  25.5211932  57.9823919  80.2299499  38.1116474
  57.6824642  81.1324538  38.0032281  57.6374978  79.9631683  38.9637626
  51.4336400  76.6813296  34.1453178  50.5086897  76.5489510  34.3530870
  51.6820814  77.4607516  34.6423120  61.3821063  72.7482040  35.7913911
  60.4737940  72.6797448  35.4972672  61.3308658  73.2253985  36.6195736
  55.2037807  74.2240178  27.4297310  55.0837432  74.6697229  28.2682790
  54.5090395  74.5725496  26.8710848  48.7945211  76.3246570  34.9796967
  48.9237593  76.5781049  35.8936379  48.1142663  76.9174278  34.6601622
  52.9644699  86.9943820  31.0787441  52.8868728  87.9451645  31.1575922
  52.3606342  86.6489692  31.7362368  55.4561928  74.1671685  43.7348808
  54.6795262  74.7265605  43.7251673  56.0952491  74.6528468  44.2563678
  63.2482709  70.9498478  37.5691785  62.6057089  71.2431011  36.9231579
  62.7437638  70.8351398  38.3744981  60.9022873  74.6961651  28.2577644
  61.8140729  74.9289038  28.0825342  60.3932520  75.2798695  27.6952723
  53.7108301  76.9757139  43.2966775  54.4522985  77.5142183  43.0201599
  53.0045286  77.6023427  43.4538327  59.1863640  79.1186279  41.8938937
  59.5946996  78.6768690  41.1493569  58.4640902  78.5438907  42.1473130
  55.5394710  74.0558886  39.2672494  56.3855906  74.4798299  39.4107143
  55.4793348  73.3992510  39.9611057  59.5092455  79.6787470  35.6491226
  58.8801317  79.8433184  34.9467293  59.1218117  80.0929079  36.4202190
  63.3881687  80.6141908  33.0035589  62.7032725  80.9940809  32.4532623
  63.4725536  81.2237234  33.7367537  58.6894156  71.7163254  40.9253667
  58.4455088  72.4705315  40.3887943  58.9654086  72.0948602  41.7600914
  60.6432619  78.2601867  39.6030933  60.8549514  78.9033626  38.9265314
  60.5962367  77.4264183  39.1352863  58.2458847  70.8719687  36.5067505
  57.3843327  71.1700941  36.7984243  58.2721282  71.0890086  35.5748538
  55.0620417  79.4161878  32.9141311  55.5258762  79.6949581  32.1245933
  54.7977215  78.5145322  32.7314401  51.9544498  78.9633359  35.8521074
  52.5245855  79.3920628  35.2138558  52.5452610  78.6815944  36.5505260
  53.9989303  75.5385030  29.7230876  54.7013346  75.9906074  30.1904802
  53.6669931  74.8968849  30.3510769  52.4469664  74.1296787  44.0982085
  51.8168325  74.8113068  44.3317482  52.3405752  74.0179868  43.1535223
  47.7414637  73.7968583  35.0248009  46.9513691  74.0526111  34.5488120
  48.2325884  74.6116921  35.1300050  61.7578446  81.1373822  37.7753290
  62.5795890  80.7354009  37.4935972  61.7540849  81.0342056  38.7269406
  49.6929382  74.1613162  31.9831486  48.8960546  74.2731856  32.5014982
  49.4654974  74.4999814  31.1172377  55.5235050  80.6857865  39.9314001
  55.5879482  81.1478272  40.7672173  54.8145974  80.0555230  40.0596311
  46.0252340  74.0499073  37.4563000  46.2760378  74.9346083  37.7220576
  46.5611888  73.8703675  36.6838092  69.8484440  77.4812570  34.1238262
  69.0948148  76.9119969  33.9682266  69.9831981  77.4475235  35.0708896
  55.2383068  82.3525973  29.7992981  55.1028742  83.1977508  30.2277829
  55.7792880  82.5545250  29.0358915  51.7250407  68.4317553  46.4607336
  51.3317353  67.8783751  47.1354980  52.5416548  68.7428131  46.8513854
  48.6912465  79.8701411  30.3720906  49.2036986  80.6644661  30.5226471
  49.3435178  79.1727701  30.3054508  50.5007350  82.9867167  32.4543659
  50.6773978  83.9085132  32.2664643  51.2964183  82.6725586  32.8838039
  54.6418368  69.8475432  44.0527593  55.3828082  70.4482585  43.9732055
  54.8736291  69.1053069  43.4945635  49.7859706  75.0331799  42.3305822
  49.6713221  74.1317056  42.6312921  48.9304224  75.2795496  41.9790639
  56.8651544  82.9749539  43.9293323  56.4215398  82.1885918  43.6114228
  57.5268758  83.1628690  43.2637214  51.6238665  84.5045341  38.4554002
  52.1746090  84.3762404  37.6830996  50.7850141  84.8040230  38.1048894
  58.9632782  83.2552339  41.9574724  58.9451257  84.0761220  41.4654994
  59.8852702  83.1306414  42.1824866  55.4205836  80.7696469  42.7998233
  55.9534173  80.0084757  42.5697541  54.8919917  80.4770120  43.5422387
  58.5875531  65.8756535  38.3291874  58.2439801  66.7658176  38.2530985
  58.9554494  65.6858192  37.4661459  46.6561382  78.1990065  31.1480477
  47.4936604  78.6087073  30.9314184  46.8339649  77.2589507  31.1180670
  58.5525814  75.8665146  26.8364310  58.0372437  76.6369750  27.0752697
  58.2803122  75.1930282  27.4597371  56.1372925  70.7114847  31.8949548
  55.2814521  70.3221697  31.7155187  56.5499877  70.7906807  31.0349333
  57.6672072  68.2461190  36.2941108  57.1636867  68.2091325  35.4808913
  57.9602678  69.1553932  36.3537764  53.9114957  68.3299919  35.3007289
  54.7767954  68.1342728  34.9413179  53.9792466  68.1010271  36.2276646
  63.5260088  78.6197500  28.7717483  62.7489531  78.2808660  28.3272645
  64.2051569  78.6250124  28.0972448  58.3412117  73.7392238  28.6624091
  58.0362253  74.0538387  29.5134234  59.2942559  73.8173658  28.7051424
  56.7858549  79.8982461  30.3117045  56.2579910  79.1635221  29.9990282
  56.2846052  80.6757137  30.0657013  61.7651395  78.0931482  35.4284091
  61.1075069  78.7830743  35.5164220  62.5691794  78.4827914  35.7718077
  51.5177276  70.5602127  32.6723656  52.0921028  70.3377309  31.9396849
  52.1048259  70.6290822  33.4252258  60.5756854  76.4475854  33.4788033
  61.0888735  77.0805846  33.9809743  61.2258078  75.8477050  33.1131393
  51.8446864  72.5906588  26.6919542  51.0084176  72.9281275  27.0128816
  51.7051633  72.4555568  25.7546678  53.8199944  67.4343376  31.3998726
  53.1664357  67.1192393  30.7755340  53.7780418  66.8119117  32.1258549
  54.9311149  77.7162671  23.3152018  54.0238211  77.4851925  23.5143167
  55.4282181  76.9200291  23.5025999  57.8379228  86.4260179  26.2348704
  57.1640927  86.7291875  26.8433662  58.2245050  87.2289259  25.8854161
  57.0537685  73.9225310  35.7246373  56.1360246  74.1440257  35.5668061
  57.4697828  73.9971620  34.8658081  57.8372732  75.3216726  30.8549054
  58.5844551  75.8338123  30.5456176  58.1064322  75.0000778  31.7153447
  56.1099382  77.8175266  27.8376008  55.2010602  77.5334299  27.9348478
  56.1394466  78.2374345  26.9779315  61.3418650  81.4281856  31.6067175
  60.8880977  80.5872766  31.6632366  60.7112617  82.0643254  31.9441956
  60.2851569  72.3573842  32.8367843  59.5474326  71.8451228  33.1678085
  60.5378343  71.9174223  32.0251120  59.7851589  83.2658352  32.5416994
  60.0774564  83.8263410  31.8229359  60.2950210  83.5586913  33.2970153
  60.3863197  65.1350094  33.4309612  60.6922074  64.2747457  33.1435527
  61.1115802  65.7267714  33.2308606  46.6787553  75.5380780  31.8191210
  46.4811953  74.9450141  31.0942277  46.1234217  75.2332991  32.5367149
  54.6584277  75.4303887  33.9385803  54.7132886  74.4777723  33.8628280
  53.8475479  75.5863326  34.4227102  55.8075470  79.3584010  25.1764086
  55.3694900  78.6419869  24.7169724  56.5485911  79.5860125  24.6149178
  52.5976636  74.0480947  31.6976182  51.7844502  74.3475117  32.1041374
  53.0935631  73.6536635  32.4150664  54.7485214  84.0438704  33.6310447
  54.7061393  84.2699550  32.7018979  55.6647913  83.8102078  33.7796248
  58.1950848  74.5122771  40.5291076  58.5500236  74.7394244  41.3885542
  58.8422979  74.8441148  39.9068331  63.9248585  77.6341207  31.2340405
  63.7866484  77.8242803  30.3061594  63.5684804  78.3960590  31.6908456
  52.0890711  71.6199302  37.3137417  52.7290091  71.4788061  36.6160380
  51.2568242  71.3333816  36.9376019  63.9517965  79.7017734  36.2451677
  64.3854471  79.6093023  37.0934731  64.6649545  79.6775234  35.6071693
  52.8651015  80.9201733  33.4272409  53.6591614  80.4252053  33.2254984
  52.1542707  80.3919596  33.0640115  57.6845860  83.3019828  37.7784777
  57.7382882  83.8710764  38.5462493  56.8160641  83.4721713  37.4138814
  49.1733779  75.0644814  29.5032162  48.2431367  75.0029270  29.7202124
  49.2691251  74.5420767  28.7068803  49.0919328  71.5899627  32.0910404
  49.3526145  72.5044960  31.9819564  49.9136500  71.1224070  32.2407017
  50.5644253  73.0037384  39.2609228  51.2367306  72.7954746  38.6121877
  49.7374039  72.8059470  38.8214461  64.8133514  79.7441435  38.7784562
  65.0069404  80.6487245  39.0243837  64.7134132  79.2848854  39.6123147
  56.4669825  69.6299325  41.2774889  55.8197740  70.3289275  41.1839366
  57.2370840  70.0635469  41.6451137  59.8748623  79.8948177  44.3525443
  59.7234129  79.6658729  43.4355526  59.8653302  80.8518779  44.3656788
  56.6433959  77.4680090  39.3371709  57.5726019  77.6191250  39.1640676
  56.2224989  77.5564111  38.4820355  55.4422291  81.4930755  37.1070247
  55.3033377  81.1249539  37.9796185  54.6536887  82.0078394  36.9354204
  56.0370443  86.5939851  28.4495783  56.2122199  86.1227894  29.2641406
  55.3503231  87.2205617  28.6777044  56.9927506  80.8712357  34.4959084
  56.6577339  80.8313127  35.3916734  56.4931452  80.2057073  34.0229495
  50.9671750  76.2779987  40.0211666  50.8291548  75.5460226  40.6223205
  51.8776674  76.1888887  39.7395853  59.9286698  78.2168392  24.7696144
  59.3115869  77.4915220  24.6729197  59.4603186  78.9777752  24.4263218
  53.5954051  75.9899947  39.5095345  54.3053669  75.3493139  39.4681964
  53.5523359  76.2412841  40.4321526  61.5840830  82.9267300  42.4301924
  61.5253376  82.2426520  41.7632507  61.9860348  83.6686290  41.9782550
  52.3082985  72.9765164  41.3290985  51.7720342  72.5255903  41.9812581
  51.7199693  73.1111073  40.5861449  50.6031528  89.7429214  35.2235643
  50.8428127  90.3747738  35.9014662  49.7600725  89.3917254  35.5101003
  51.7185244  72.4353816  23.8917448  50.8414710  72.3142617  23.5279695
  52.1942997  71.6439894  23.6396337  61.5858237  80.8906884  40.6615904
  60.6985016  80.5532806  40.7842303  62.1556788  80.1589915  40.8984669
  43.2387384  77.2230976  33.9858955  43.9258424  76.9092706  33.3979971
  43.0835513  78.1272340  33.7126207  48.0422106  72.1121172  38.4143979
  47.9580295  71.5046842  37.6794389  47.2204812  72.6030190  38.4153475
  55.1159390  85.5508336  37.6277147  55.0429562  86.3563308  38.1396452
  54.6736783  85.7500302  36.8025169  54.9049170  84.7880106  31.1379969
  54.1216692  85.3301786  31.2318193  55.6041915  85.3054086  31.5374210
  58.2145820  70.5974736  33.7814174  58.7114519  69.8444698  33.4615244
  57.4432801  70.6339052  33.2157384  66.0675577  76.3015101  35.4232466
  66.0565454  77.1839817  35.0526399  65.1992957  75.9486652  35.2287003
  57.5758074  85.4495170  39.7835306  58.2886046  86.0842635  39.7111207
  57.0848102  85.5459036  38.9675308  59.2975601  79.3546423  31.3552598
  58.3631879  79.4747885  31.1857302  59.4752269  78.4518890  31.0912607
  54.7980789  72.7392119  33.5085859  54.4278576  72.1863159  34.1966764
  55.2939881  72.1350252  32.9560859  62.6848152  75.1963742  31.8902632
  63.1508604  76.0291734  31.8162934  63.1355653  74.7308724  32.5947890
  52.6269987  83.1989614  40.6040877  53.3279447  83.8326097  40.7570271
  52.1565102  83.5404345  39.8436516  60.7524383  81.5407563  28.8888784
  61.0284227  81.4264158  29.7982658  59.8828882  81.1425048  28.8500957
  60.6564815  67.5644329  35.9293533  59.7427895  67.7948556  36.0975740
  61.0857916  67.6482773  36.7807565  60.4271273  75.7534221  38.4293427
  59.7742723  76.0010129  37.7745880  60.8051653  74.9398359  38.0955904
  57.3878447  85.7893914  32.5321597  57.5700842  84.9715570  32.9949350
  58.2111433  86.0061607  32.0946487  57.7220613  84.7162099  29.7936646
  58.2508379  84.2054554  29.1806808  57.9848832  84.4004630  30.6582179
  56.4758846  76.4954032  44.9159464  55.7999483  76.3948162  45.5861839
  57.2986480  76.3393246  45.3795461  48.2237705  82.7325969  37.5371979
  48.8091142  81.9869657  37.6699884  48.0262544  83.0429925  38.4208643
  51.0776361  85.7677216  32.5534422  50.4086736  86.2523344  32.0698462
  50.9389230  86.0146437  33.4677800  42.8155360  75.3031569  36.2576423
  42.8539460  74.7695160  37.0513541  42.3095653  74.7766774  35.6387400
  55.2181629  87.8020960  39.1517080  55.7699937  87.9652581  39.9166165
  55.5587823  88.3925397  38.4797105  50.1946122  70.1496109  39.7538965
  50.2587449  71.0110940  39.3416363  50.1313243  69.5370111  39.0211323
  49.6698395  72.2219242  43.4011999  50.2970434  71.8396319  44.0149523
  48.8126314  72.0033444  43.7667692  60.0692503  82.6282217  45.0065735
  60.6132407  83.2412175  44.5120689  59.4879348  83.1861796  45.5232748
  46.4463938  74.0295671  29.3330354  46.7417379  73.1206350  29.2797408
  45.5451973  74.0083411  29.0111356  58.3550016  85.7502935  36.1380762
  58.2301156  84.9492675  35.6291708  59.0129108  86.2449129  35.6494732
  49.9758185  72.1051668  35.3157903  49.2544770  72.7187635  35.1765376
  50.7651440  72.6409433  35.2374548  60.4184925  83.5511955  37.7660312
  59.4715260  83.4317306  37.6938639  60.7667698  82.6634453  37.8486574
  52.7784498  69.4406094  41.5898554  53.3018900  69.6868391  42.3524864
  52.5596831  70.2726129  41.1701692  48.1751779  71.7109769  29.4569679
  47.8464485  70.8307148  29.2744785  48.5291150  71.6557437  30.3446068
  57.4231358  83.3464672  33.9664665  57.2756321  82.4181379  34.1472235
  58.2484852  83.3684762  33.4821740  51.2893602  71.9982739  29.8245157
  51.6289675  72.5268660  29.1023765  51.7365723  72.3363145  30.6003723
  61.0265480  84.1693230  35.0529537  61.9512027  83.9636092  34.9153989
  60.8580783  83.9209631  35.9618879  53.9837043  70.3819789  39.2748225
  53.6433864  69.5827602  39.6768905  53.2776049  70.6821500  38.7025058
  54.6353515  67.4669102  37.7275548  55.4579584  66.9929580  37.6054438
  54.8791579  68.2459585  38.2274234  53.2761750  70.4957360  28.0238450
  53.9970112  70.8738613  27.5202166  52.6527054  71.2146237  28.1273428
  57.4192872  71.2002509  28.9596782  57.6356487  72.0827147  28.6585610
  56.9386940  70.8088723  28.2302424  52.1592094  74.1588222  35.5367526
  52.0136675  74.4728525  36.4291808  51.6817297  74.7773123  34.9838425
  54.0188477  71.1490770  35.5848416  54.0050045  70.2531864  35.2480714
  54.7360905  71.1561434  36.2186702  55.8714607  71.5828111  37.6301543
  55.6132385  72.5045181  37.6285874  55.3399648  71.1858545  38.3202008
  60.8160796  84.6878898  30.4091629  60.9897674  84.1225320  29.6565481
  61.3089687  85.4879793  30.2271119  46.6337756  76.6993567  38.4755188
  46.0891224  77.4753375  38.6075462  47.5117106  77.0464371  38.3174309
  53.4225373  70.0305151  30.8535986  53.5441284  69.1021797  31.0526874
  53.1327415  70.0443837  29.9414302  56.2916563  67.7160061  33.9902706
  56.3138260  67.7799394  33.0354686  56.7084622  66.8764570  34.1843212
  66.6700187  77.4515321  32.0281929  67.1131333  76.7022646  31.6301052
  65.7926698  77.4425457  31.6455661  61.8035969  84.0045662  27.5088527
  62.4986873  84.6252355  27.7275842  62.1459119  83.1541013  27.7840905
  47.4203778  75.8263463  41.3685345  46.6785514  75.9746098  41.9549975
  47.0996522  76.0871729  40.5052094  63.7027392  81.4545368  29.0375858
  64.2278716  81.7932640  28.3125178  63.6149744  80.5192383  28.8538993
  55.3647440  85.3679441  41.1665735  55.6734567  85.1228588  42.0388434
  56.1622922  85.5726080  40.6784605  55.3868053  87.5217351  33.3971111
  54.9473043  87.0293730  34.0903968  56.1376169  86.9790319  33.1563186
  47.8660391  83.7128892  33.3995739  48.6918411  83.4132664  33.0194383
  47.5154443  82.9436514  33.8485528  52.8341925  83.0655360  35.4693413
  52.2121934  82.4026065  35.1695641  53.5046792  83.0916492  34.7867061
  46.0668997  81.6315218  34.3584673  45.2300905  81.2037393  34.1768674
  46.0392642  81.8247662  35.2955464  52.9066452  71.5437148  45.0625919
  52.9554608  72.4199271  44.6803688  53.4488966  71.0014541  44.4897562
  63.3921298  82.0878271  44.3427056  62.6016842  82.0702410  43.8031555
  63.1554652  82.6266565  45.0976092  63.5119173  78.9370738  41.6559784
  63.5617178  78.7720745  42.5975307  63.4033096  78.0697997  41.2657665
  52.3955432  81.6159283  28.9451873  52.5443552  82.2994748  28.2918546
  53.2021875  81.5964373  29.4601329  60.8022935  74.9201666  42.9719091
  61.7032798  74.7808131  42.6803089  60.8770910  75.0856120  43.9117269
  55.1365741  72.2968520  41.8172277  54.2669050  72.5902086  41.5454866
  55.3725221  72.8808965  42.5379541  65.0137370  81.3567679  41.9001806
  64.7222178  81.7197660  42.7365267  64.4009501  80.6434687  41.7215138
  66.2133052  78.9220559  34.4204376  67.0479943  79.3610363  34.5841937
  66.3492181  78.4459212  33.6012622  63.2624558  76.4800294  40.3681864
  63.7378680  76.6727940  39.5600715  62.3390123  76.5359480  40.1225248
  50.1508065  77.6424461  29.9512942  49.9054106  76.7386791  30.1493152
  50.3203979  77.6441611  29.0092420  57.8404774  68.5148137  39.3337698
  58.3586718  69.2509164  39.0084186  57.4859907  68.8212131  40.1684457
  49.4203712  73.3752819  27.4499104  48.7272957  73.4497174  26.7939140
  49.1755464  72.6113162  27.9720621  58.0917369  64.9348420  34.8538594
  58.3719122  64.2671609  35.4799021  58.8767976  65.1277515  34.3413258
  55.8950837  84.1107414  26.4163621  55.3224804  84.7297601  25.9634093
  56.4683631  84.6606775  26.9503543  61.9626227  73.3566054  38.6010170
  62.9143650  73.4564152  38.6222394  61.7929677  72.5644322  39.1108254
  59.9840606  70.4421637  38.7869570  59.3890539  70.7226650  38.0916059
  59.6990303  70.9315538  39.5586312  59.1148097  84.3944564  27.5472203
  60.0478770  84.3290126  27.7505079  59.0271310  85.2300831  27.0886736
  61.7436114  83.7110434  24.5076151  61.6649745  83.3770298  25.4011908
  62.5645780  84.2032202  24.5067623  64.4414305  76.5772174  37.7152469
  64.4090625  75.6388174  37.9012153  65.0514928  76.6556210  36.9818294
  56.2797636  75.4468227  23.7579673  57.2256740  75.3174435  23.8268091
  55.9011881  74.7082888  24.2349101  64.5908793  73.3683217  37.7610752
  64.0747842  72.5841674  37.5740681  65.4748742  73.0401934  37.9257272
  62.2519520  67.1124233  33.7206565  62.0544341  66.8039321  34.6049897
  62.8619226  67.8385871  33.8504495  70.2590855  77.6388180  36.8558506
  70.9894243  77.3773469  37.4166209  69.6497800  76.9016902  36.8960574
  68.3406152  75.7796043  37.4532957  67.6139315  75.6452008  36.8449449
  67.9253439  76.0872872  38.2589675  56.1636328  79.4985973  45.2180330
  57.0839338  79.6764572  45.4120377  56.1285911  78.5542018  45.0660029
  54.4640553  73.3718203  23.6934558  53.5572008  73.0751316  23.7697272
  54.7416534  73.0748021  22.8268845  45.3818493  74.6924566  34.1433605
  45.0621277  73.8389875  33.8507979  44.8351921  74.9073144  34.8991572
  49.1598401  77.4087007  37.8603111  49.3784410  78.3404115  37.8791145
  49.5724175  77.0494982  38.6457915  56.0802618  67.9155093  29.8478800
  55.2703347  67.5702178  30.2234046  56.7687035  67.6062636  30.4366411
  58.0093167  66.9933139  31.4703096  58.5624205  67.4128593  32.1293119
  58.2463253  66.0668888  31.5126052  54.0326266  72.9820213  47.2505860
  53.9322993  73.9314570  47.1817951  53.8147808  72.6538452  46.3781930
  53.2339337  70.2305138  23.8346538  54.0958501  70.5560036  24.0942355
  53.4189682  69.4436634  23.3219603  45.2506753  78.3127478  36.1126726
  44.5570225  77.8981431  35.5996681  45.9979744  78.3548014  35.5160145
  61.3871974  69.1033665  30.9781761  60.8070643  69.7618469  30.5959813
  61.1207907  68.2811009  30.5669178  59.8375540  68.5038722  33.1803081
  60.3375319  68.6155257  32.3717400  60.4811148  68.1999775  33.8203889
  53.8957536  76.4117352  46.0670922  53.4124618  77.2117712  46.2734811
  53.9818475  76.4225297  45.1138366  47.1643496  78.2445732  33.9892741
  47.1414184  78.3433419  33.0374624  47.4744132  79.0910882  34.3109907
  49.8230874  80.3021887  38.1039356  50.7774127  80.2705829  38.0369287
  49.6243397  79.8412510  38.9189582  50.4130256  78.8723003  40.6710153
  51.2323145  79.3667081  40.6944991  50.6867063  77.9554971  40.6427721
  60.1696852  71.2633755  30.0338109  59.2822707  71.5483406  29.8158304
  60.5850841  71.1027518  29.1865386  63.5211388  71.2880276  33.7492448
  64.2971778  71.7776728  34.0217065  62.7959522  71.7138330  34.2064318
  65.9583947  72.0007895  34.8066389  66.5528437  71.7603631  34.0959697
  66.0310530  71.2815026  35.4339925  48.1781102  85.8441506  35.1209554
  48.0435570  85.0841907  34.5547552  47.7613165  86.5682406  34.6538342
  59.3140065  81.0278430  24.1286129  60.0175915  81.2328432  24.7443784
  58.5902714  81.5955192  24.3935212  60.1437876  76.7788291  30.2488399
  60.0873077  77.2356842  29.4096031  60.6966218  76.0178976  30.0711242
  63.9542682  72.5678023  31.0738519  63.6979616  72.1674658  31.9046726
  63.3295550  73.2821817  30.9488658  68.2655019  75.3074096  33.5809810
  67.7054577  75.3767285  34.3541372  67.6598523  75.1315081  32.8609306
  51.3350228  86.7410823  35.3327996  51.2182612  87.6856256  35.2306686
  50.5142674  86.4384385  35.7213795  61.2226763  81.4660959  26.1784589
  62.0572367  81.0342157  25.9962064  61.0611106  81.2942973  27.1061483
  60.8772655  77.9693072  27.5440928  60.8221459  77.8037344  26.6029372
  60.2518710  78.6769105  27.7003118  45.6665170  73.2061137  41.3702350
  46.3124034  72.6960091  41.8589576  45.4582321  73.9429818  41.9445776
  58.1918562  80.2741984  46.8694491  59.0609722  80.4482636  46.5081126
  57.7125314  81.0936401  46.7470220  54.1868780  67.4701181  27.1226247
  54.1747450  68.4143021  27.2794517  55.0792202  67.2871327  26.8285708
  52.3604742  87.3939085  38.5483925  53.2631989  87.4262695  38.8650420
  52.1342112  86.4639536  38.5630260  54.1158344  86.1470072  35.2094003
  53.1653975  86.1471933  35.0958376  54.4190830  85.4002806  34.6930038
  58.0020900  64.0643958  31.3772183  57.2353296  63.5102444  31.5228866
  58.4131605  64.1365827  32.2386335  50.0062661  70.3528754  45.4677365
  50.8694122  69.9965558  45.6780689  49.4328072  70.0142648  46.1552769
  69.8511038  91.9830610  36.2739766  70.4889448  91.8637357  35.5703106
  69.7331881  92.9311454  36.3327718  66.6600744  91.9358038  36.2101290
  66.3219256  91.8199103  35.3221825  67.5290512  91.5349203  36.1902297
  62.5187560  93.7893514  32.1998181  61.9552425  93.6983451  31.4314469
  62.4039955  92.9693419  32.6800674  67.1420527  93.0892890  42.1687496
  67.1309168  92.6945688  41.2968000  67.3041167  92.3558962  42.7621267
  60.0651992  95.2844706  35.0382402  60.8573284  94.9435531  34.6228701
  60.3048642  95.3939681  35.9584555  68.0987119  97.4564482  27.5112646
  67.4475098  98.0418563  27.1246660  68.8931481  97.9870677  27.5707684
  62.0242746  94.5453619  27.9099781  62.7973622  93.9982606  27.7712656
  62.3768145  95.4097869  28.1214242  63.8627788  95.8730002  41.1166680
  63.5717654  96.7775632  41.0013346  64.4984773  95.9146529  41.8310749
  64.7883995  93.2506850  37.7068040  65.3847567  93.0262873  36.9925002
  64.8458967  92.5091596  38.3093487  64.3609024  90.7046285  25.5418230
  64.6134544  90.1827807  24.7801693  63.4233583  90.5412431  25.6444914
  69.4052306  89.7082064  33.3492974  70.1915396  89.2901487  32.9983391
  69.6691011  90.6128156  33.5174622  69.5762384  95.1454914  28.0481631
  68.9408217  95.2189541  28.7602535  69.2459790  95.7348513  27.3700710
  74.8060733  89.6457297  34.2525952  75.5385905  89.0756514  34.4863782
  74.0500089  89.2578897  34.6932458  64.0805312  92.6074391  27.7442605
  63.9641570  91.9319295  28.4123690  64.1907572  92.1206765  26.9274759
  66.4236853  92.0684539  31.4489295  66.0595060  91.5415159  32.1602216
  67.2803969  91.6783008  31.2755780  72.3286154  83.3578871  38.7120561
  71.9969479  84.2274282  38.4881776  71.7331767  83.0415155  39.3914591
  66.0642340  87.0974438  26.4450643  66.2316743  87.9654675  26.8121114
  65.8739509  87.2601720  25.5211932  68.8217673  95.5591417  38.1116474
  68.5218396  96.4616456  38.0032281  68.4768733  95.2923600  38.9637626
  62.2730155  92.0105214  34.1453178  61.3480651  91.8781428  34.3530870
  62.5214568  92.7899433  34.6423120  72.2214817  88.0773957  35.7913911
  71.3131694  88.0089366  35.4972672  72.1702413  88.5545902  36.6195736
  66.0431561  89.5532096  27.4297310  65.9231186  89.9989146  28.2682790
  65.3484149  89.9017413  26.8710848  59.6338966  91.6538487  34.9796967
  59.7631347  91.9072966  35.8936379  58.9536417  92.2466195  34.6601622
  63.8038453 102.3235737  31.0787441  63.7262483 103.2743563  31.1575922
  63.2000097 101.9781610  31.7362368  66.2955683  89.4963603  43.7348808
  65.5189017  90.0557523  43.7251673  66.9346246  89.9820386  44.2563678
  74.0876464  86.2790396  37.5691785  73.4450844  86.5722929  36.9231579
  73.5831392  86.1643316  38.3744981  71.7416627  90.0253569  28.2577644
  72.6534483  90.2580956  28.0825342  71.2326274  90.6090613  27.6952723
  64.5502055  92.3049056  43.2966775  65.2916740  92.8434100  43.0201599
  63.8439041  92.9315345  43.4538327  70.0257395  94.4478197  41.8938937
  70.4340751  94.0060607  41.1493569  69.3034656  93.8730824  42.1473130
  66.3788465  89.3850803  39.2672494  67.2249660  89.8090217  39.4107143
  66.3187103  88.7284428  39.9611057  70.3486209  95.0079387  35.6491226
  69.7195072  95.1725101  34.9467293  69.9611872  95.4220997  36.4202190
  74.2275441  95.9433825  33.0035589  73.5426480  96.3232727  32.4532623
  74.3119291  96.5529152  33.7367537  69.5287910  87.0455172  40.9253667
  69.2848842  87.7997232  40.3887943  69.8047841  87.4240519  41.7600914
  71.4826373  93.5893784  39.6030933  71.6943268  94.2325544  38.9265314
  71.4356121  92.7556101  39.1352863  69.0852602  86.2011605  36.5067505
  68.2237081  86.4992858  36.7984243  69.1115037  86.4182004  35.5748538
  65.9014171  94.7453795  32.9141311  66.3652517  95.0241498  32.1245933
  65.6370969  93.8437240  32.7314401  62.7938252  94.2925277  35.8521074
  63.3639610  94.7212545  35.2138558  63.3846364  94.0107862  36.5505260
  64.8383057  90.8676948  29.7230876  65.5407101  91.3197991  30.1904802
  64.5063686  90.2260767  30.3510769  63.2863419  89.4588704  44.0982085
  62.6562080  90.1404985  44.3317482  63.1799507  89.3471786  43.1535223
  58.5808391  89.1260500  35.0248009  57.7907445  89.3818029  34.5488120
  59.0719639  89.9408838  35.1300050  72.5972201  96.4665740  37.7753290
  73.4189645  96.0645927  37.4935972  72.5934604  96.3633974  38.7269406
  60.5323137  89.4905080  31.9831486  59.7354300  89.6023774  32.5014982
  60.3048729  89.8291732  31.1172377  66.3628804  96.0149783  39.9314001
  66.4273237  96.4770190  40.7672173  65.6539728  95.3847148  40.0596311
  56.8646094  89.3790991  37.4563000  57.1154133  90.2638001  37.7220576
  57.4005643  89.1995592  36.6838092  80.6878194  92.8104488  34.1238262
  79.9341902  92.2411886  33.9682266  80.8225735  92.7767153  35.0708896
  66.0776822  97.6817890  29.7992981  65.9422497  98.5269426  30.2277829
  66.6186635  97.8837168  29.0358915  62.5644162  83.7609470  46.4607336
  62.1711107  83.2075669  47.1354980  63.3810302  84.0720049  46.8513854
  59.5306219  95.1993328  30.3720906  60.0430740  95.9936579  30.5226471
  60.1828932  94.5019619  30.3054508  61.3401104  98.3159085  32.4543659
  61.5167732  99.2377049  32.2664643  62.1357938  98.0017504  32.8838039
  65.4812123  85.1767349  44.0527593  66.2221836  85.7774502  43.9732055
  65.7130046  84.4344987  43.4945635  60.6253461  90.3623717  42.3305822
  60.5106976  89.4608974  42.6312921  59.7697978  90.6087413  41.9790639
  67.7045298  98.3041457  43.9293323  67.2609153  97.5177835  43.6114228
  68.3662512  98.4920607  43.2637214  62.4632420  99.8337259  38.4554002
  63.0139845  99.7054322  37.6830996  61.6243896 100.1332148  38.1048894
  69.8026536  98.5844257  41.9574724  69.7845012  99.4053138  41.4654994
  70.7246457  98.4598332  42.1824866  66.2599591  96.0988386  42.7998233
  66.7927927  95.3376675  42.5697541  65.7313672  95.8062038  43.5422387
  69.4269286  81.2048452  38.3291874  69.0833555  82.0950094  38.2530985
  69.7948248  81.0150110  37.4661459  57.4955136  93.5281983  31.1480477
  58.3330358  93.9378991  30.9314184  57.6733404  92.5881425  31.1180670
  69.3919568  91.1957063  26.8364310  68.8766192  91.9661668  27.0752697
  69.1196877  90.5222200  27.4597371  66.9766679  86.0406764  31.8949548
  66.1208276  85.6513615  31.7155187  67.3893631  86.1198725  31.0349333
  68.5065826  83.5753107  36.2941108  68.0030622  83.5383243  35.4808913
  68.7996433  84.4845850  36.3537764  64.7508712  83.6591837  35.3007289
  65.6161709  83.4634646  34.9413179  64.8186221  83.4302189  36.2276646
  74.3653842  93.9489418  28.7717483  73.5883285  93.6100578  28.3272645
  75.0445323  93.9542041  28.0972448  69.1805872  89.0684155  28.6624091
  68.8756007  89.3830305  29.5134234  70.1336314  89.1465575  28.7051424
  67.6252303  95.2274379  30.3117045  67.0973665  94.4927138  29.9990282
  67.1239806  96.0049055  30.0657013  72.6045149  93.4223399  35.4284091
  71.9468824  94.1122661  35.5164220  73.4085549  93.8119831  35.7718077
  62.3571031  85.8894045  32.6723656  62.9314783  85.6669227  31.9396849
  62.9442013  85.9582740  33.4252258  71.4150608  91.7767772  33.4788033
  71.9282490  92.4097764  33.9809743  72.0651832  91.1768967  33.1131393
  62.6840618  87.9198506  26.6919542  61.8477930  88.2573193  27.0128816
  62.5445388  87.7847486  25.7546678  64.6593699  82.7635294  31.3998726
  64.0058111  82.4484311  30.7755340  64.6174173  82.1411034  32.1258549
  65.7704904  93.0454589  23.3152018  64.8631965  92.8143843  23.5143167
  66.2675936  92.2492208  23.5025999  68.6772982 101.7552096  26.2348704
  68.0034681 102.0583793  26.8433662  69.0638804 102.5581177  25.8854161
  67.8931439  89.2517228  35.7246373  66.9754000  89.4732175  35.5668061
  68.3091583  89.3263538  34.8658081  68.6766487  90.6508643  30.8549054
  69.4238306  91.1630040  30.5456176  68.9458076  90.3292696  31.7153447
  66.9493137  93.1467184  27.8376008  66.0404356  92.8626217  27.9348478
  66.9788221  93.5666263  26.9779315  72.1812404  96.7573773  31.6067175
  71.7274731  95.9164683  31.6632366  71.5506371  97.3935172  31.9441956
  71.1245324  87.6865759  32.8367843  70.3868081  87.1743146  33.1678085
  71.3772097  87.2466141  32.0251120  70.6245344  98.5950270  32.5416994
  70.9168318  99.1555327  31.8229359  71.1343964  98.8878831  33.2970153
  71.2256951  80.4642011  33.4309612  71.5315828  79.6039375  33.1435527
  71.9509556  81.0559632  33.2308606  57.5181307  90.8672698  31.8191210
  57.3205707  90.2742059  31.0942277  56.9627971  90.5624908  32.5367149
  65.4978031  90.7595805  33.9385803  65.5526641  89.8069641  33.8628280
  64.6869233  90.9155244  34.4227102  66.6469225  94.6875928  25.1764086
  66.2088655  93.9711787  24.7169724  67.3879666  94.9152042  24.6149178
  63.4370391  89.3772864  31.6976182  62.6238256  89.6767035  32.1041374
  63.9329385  88.9828553  32.4150664  65.5878969  99.3730621  33.6310447
  65.5455148  99.5991468  32.7018979  66.5041668  99.1393996  33.7796248
  69.0344603  89.8414689  40.5291076  69.3893990  90.0686162  41.3885542
  69.6816734  90.1733066  39.9068331  74.7642340  92.9633125  31.2340405
  74.6260238  93.1534721  30.3061594  74.4078558  93.7252507  31.6908456
  62.9284466  86.9491220  37.3137417  63.5683845  86.8079979  36.6160380
  62.0961996  86.6625733  36.9376019  74.7911719  95.0309652  36.2451677
  75.2248226  94.9384941  37.0934731  75.5043300  95.0067152  35.6071693
  63.7044770  96.2493650  33.4272409  64.4985368  95.7543970  33.2254984
  62.9936462  95.7211513  33.0640115  68.5239614  98.6311746  37.7784777
  68.5776636  99.2002682  38.5462493  67.6554395  98.8013631  37.4138814
  60.0127533  90.3936732  29.5032162  59.0825121  90.3321187  29.7202124
  60.1085005  89.8712685  28.7068803  59.9313082  86.9191545  32.0910404
  60.1919899  87.8336878  31.9819564  60.7530254  86.4515987  32.2407017
  61.4038007  88.3329302  39.2609228  62.0761061  88.1246664  38.6121877
  60.5767794  88.1351388  38.8214461  75.6527269  95.0733352  38.7784562
  75.8463159  95.9779163  39.0243837  75.5527887  94.6140771  39.6123147
  67.3063579  84.9591243  41.2774889  66.6591495  85.6581193  41.1839366
  68.0764595  85.3927387  41.6451137  70.7142377  95.2240095  44.3525443
  70.5627884  94.9950647  43.4355526  70.7047057  96.1810696  44.3656788
  67.4827714  92.7972008  39.3371709  68.4119774  92.9483167  39.1640676
  67.0618744  92.8856029  38.4820355  66.2816046  96.8222672  37.1070247
  66.1427131  96.4541457  37.9796185  65.4930642  97.3370312  36.9354204
  66.8764198 101.9231769  28.4495783  67.0515953 101.4519812  29.2641406
  66.1896986 102.5497535  28.6777044  67.8321261  96.2004275  34.4959084
  67.4971093  96.1605045  35.3916734  67.3325206  95.5348991  34.0229495
  61.8065505  91.6071905  40.0211666  61.6685303  90.8752144  40.6223205
  62.7170428  91.5180805  39.7395853  70.7680452  93.5460309  24.7696144
  70.1509623  92.8207137  24.6729197  70.2996941  94.3069670  24.4263218
  64.4347805  91.3191864  39.5095345  65.1447424  90.6785056  39.4681964
  64.3917114  91.5704759  40.4321526  72.4234584  98.2559218  42.4301924
  72.3647130  97.5718438  41.7632507  72.8254102  98.9978208  41.9782550
  63.1476739  88.3057082  41.3290985  62.6114096  87.8547821  41.9812581
  62.5593448  88.4402991  40.5861449  61.4425283 105.0721131  35.2235643
  61.6821881 105.7039656  35.9014662  60.5994479 104.7209171  35.5101003
  62.5578998  87.7645734  23.8917448  61.6808465  87.6434534  23.5279695
  63.0336751  86.9731812  23.6396337  72.4251991  96.2198802  40.6615904
  71.5378770  95.8824723  40.7842303  72.9950542  95.4881833  40.8984669
  54.0781138  92.5522893  33.9858955  54.7652178  92.2384623  33.3979971
  53.9229267  93.4564258  33.7126207  58.8815861  87.4413090  38.4143979
  58.7974049  86.8338759  37.6794389  58.0598567  87.9322108  38.4153475
  65.9553145 100.8800254  37.6277147  65.8823316 101.6855225  38.1396452
  65.5130538 101.0792220  36.8025169  65.7442924 100.1172024  31.1379969
  64.9610446 100.6593704  31.2318193  66.4435670 100.6346004  31.5374210
  69.0539574  85.9266653  33.7814174  69.5508274  85.1736616  33.4615244
  68.2826556  85.9630970  33.2157384  76.9069332  91.6307019  35.4232466
  76.8959208  92.5131734  35.0526399  76.0386711  91.2778570  35.2287003
  68.4151828 100.7787088  39.7835306  69.1279800 101.4134553  39.7111207
  67.9241857 100.8750954  38.9675308  70.1369355  94.6838341  31.3552598
  69.2025634  94.8039803  31.1857302  70.3146024  93.7810807  31.0912607
  65.6374543  88.0684036  33.5085859  65.2672331  87.5155077  34.1966764
  66.1333636  87.4642170  32.9560859  73.5241906  90.5255660  31.8902632
  73.9902359  91.3583651  31.8162934  73.9749407  90.0600641  32.5947890
  63.4663742  98.5281531  40.6040877  64.1673201  99.1618014  40.7570271
  62.9958857  98.8696263  39.8436516  71.5918138  96.8699481  28.8888784
  71.8677981  96.7556076  29.7982658  70.7222636  96.4716966  28.8500957
  71.4958569  82.8936247  35.9293533  70.5821649  83.1240474  36.0975740
  71.9251671  82.9774691  36.7807565  71.2665028  91.0826139  38.4293427
  70.6136478  91.3302046  37.7745880  71.6445408  90.2690277  38.0955904
  68.2272202 101.1185832  32.5321597  68.4094596 100.3007488  32.9949350
  69.0505188 101.3353524  32.0946487  68.5614367 100.0454017  29.7936646
  69.0902134  99.5346472  29.1806808  68.8242587  99.7296547  30.6582179
  59.0631460  98.0617886  37.5371979  59.6484897  97.3161574  37.6699884
  58.8656298  98.3721843  38.4208643  61.9170115 101.0969134  32.5534422
  61.2480490 101.5815261  32.0698462  61.7782985 101.3438354  33.4677800
  53.6549115  90.6323487  36.2576423  53.6933214  90.0987077  37.0513541
  53.1489407  90.1058692  35.6387400  66.0575384 103.1312877  39.1517080
  66.6093692 103.2944499  39.9166165  66.3981577 103.7217315  38.4797105
  61.0339877  85.4788027  39.7538965  61.0981203  86.3402858  39.3416363
  60.9706997  84.8662029  39.0211323  60.5092149  87.5511160  43.4011999
  61.1364188  87.1688237  44.0149523  59.6520068  87.3325362  43.7667692
  70.9086258  97.9574135  45.0065735  71.4526162  98.5704093  44.5120689
  70.3273103  98.5153713  45.5232748  57.2857692  89.3587589  29.3330354
  57.5811133  88.4498267  29.2797408  56.3845728  89.3375328  29.0111356
  69.1943771 101.0794853  36.1380762  69.0694910 100.2784593  35.6291708
  69.8522862 101.5741046  35.6494732  60.8151939  87.4343585  35.3157903
  60.0938525  88.0479553  35.1765376  61.6045195  87.9701350  35.2374548
  71.2578679  98.8803873  37.7660312  70.3109015  98.7609224  37.6938639
  71.6061452  97.9926371  37.8486574  63.6178253  84.7698012  41.5898554
  64.1412654  85.0160308  42.3524864  63.3990586  85.6018047  41.1701692
  59.0145534  87.0401686  29.4569679  58.6858240  86.1599065  29.2744785
  59.3684904  86.9849355  30.3446068  68.2625113  98.6756589  33.9664665
  68.1150075  97.7473297  34.1472235  69.0878606  98.6976680  33.4821740
  62.1287357  87.3274656  29.8245157  62.4683429  87.8560578  29.1023765
  62.5759477  87.6655062  30.6003723  71.8659234  99.4985148  35.0529537
  72.7905782  99.2928009  34.9153989  71.6974538  99.2501549  35.9618879
  64.8230798  85.7111707  39.2748225  64.4827618  84.9119520  39.6768905
  64.1169804  86.0113418  38.7025058  65.4747270  82.7961019  37.7275548
  66.2973339  82.3221498  37.6054438  65.7185333  83.5751503  38.2274234
  64.1155504  85.8249278  28.0238450  64.8363867  86.2030531  27.5202166
  63.4920808  86.5438155  28.1273428  68.2586627  86.5294427  28.9596782
  68.4750241  87.4119065  28.6585610  67.7780694  86.1380640  28.2302424
  62.9985848  89.4880140  35.5367526  62.8530429  89.8020443  36.4291808
  62.5211052  90.1065040  34.9838425  64.8582231  86.4782688  35.5848416
  64.8443800  85.5823781  35.2480714  65.5754659  86.4853352  36.2186702
  66.7108362  86.9120028  37.6301543  66.4526140  87.8337099  37.6285874
  66.1793402  86.5150463  38.3202008  71.6554551 100.0170815  30.4091629
  71.8291428  99.4517238  29.6565481  72.1483442 100.8171710  30.2271119
  57.4731510  92.0285484  38.4755188  56.9284979  92.8045292  38.6075462
  58.3510860  92.3756289  38.3174309  64.2619127  85.3597068  30.8535986
  64.3835038  84.4313714  31.0526874  63.9721169  85.3735754  29.9414302
  67.1310317  83.0451979  33.9902706  67.1532014  83.1091312  33.0354686
  67.5478377  82.2056487  34.1843212  77.5093942  92.7807238  32.0281929
  77.9525088  92.0314564  31.6301052  76.6320452  92.7717375  31.6455661
  72.6429723  99.3337580  27.5088527  73.3380628  99.9544272  27.7275842
  72.9852873  98.4832931  27.7840905  58.2597532  91.1555381  41.3685345
  57.5179268  91.3038016  41.9549975  57.9390277  91.4163646  40.5052094
  74.5421146  96.7837285  29.0375858  75.0672470  97.1224558  28.3125178
  74.4543499  95.8484301  28.8538993  66.2041195 100.6971359  41.1665735
  66.5128321 100.4520506  42.0388434  67.0016677 100.9017997  40.6784605
  66.2261807 102.8509269  33.3971111  65.7866797 102.3585647  34.0903968
  66.9769924 102.3082236  33.1563186  58.7054146  99.0420809  33.3995739
  59.5312166  98.7424581  33.0194383  58.3548198  98.2728432  33.8485528
  63.6735679  98.3947278  35.4693413  63.0515688  97.7317983  35.1695641
  64.3440546  98.4208410  34.7867061  56.9062751  96.9607136  34.3584673
  56.0694659  96.5329310  34.1768674  56.8786396  97.1539579  35.2955464
  63.7460207  86.8729066  45.0625919  63.7948362  87.7491188  44.6803688
  64.2882721  86.3306459  44.4897562  74.2315052  97.4170189  44.3427056
  73.4410596  97.3994328  43.8031555  73.9948407  97.9558483  45.0976092
  74.3512927  94.2662655  41.6559784  74.4010932  94.1012663  42.5975307
  74.2426851  93.3989914  41.2657665  63.2349186  96.9451201  28.9451873
  63.3837306  97.6286665  28.2918546  64.0415630  96.9256291  29.4601329
  65.9759495  87.6260438  41.8172277  65.1062804  87.9194004  41.5454866
  66.2118975  88.2100883  42.5379541  75.8531124  96.6859597  41.9001806
  75.5615933  97.0489577  42.7365267  75.2403255  95.9726605  41.7215138
  77.0526807  94.2512477  34.4204376  77.8873698  94.6902281  34.5841937
  77.1885935  93.7751130  33.6012622  60.9901819  92.9716379  29.9512942
  60.7447861  92.0678709  30.1493152  61.1597734  92.9733529  29.0092420
  68.6798529  83.8440055  39.3337698  69.1980473  84.5801082  39.0084186
  68.3253662  84.1504048  40.1684457  60.2597467  88.7044736  27.4499104
  59.5666712  88.7789091  26.7939140  60.0149218  87.9405080  27.9720621
  68.9311123  80.2640338  34.8538594  69.2112877  79.5963527  35.4799021
  69.7161730  80.4569433  34.3413258  66.7344592  99.4399331  26.4163621
  66.1618559 100.0589519  25.9634093  67.3077385  99.9898693  26.9503543
  72.8019981  88.6857972  38.6010170  73.7537404  88.7856069  38.6222394
  72.6323432  87.8936240  39.1108254  70.8234361  85.7713555  38.7869570
  70.2284293  86.0518567  38.0916059  70.5384058  86.2607456  39.5586312
  69.9541851  99.7236482  27.5472203  70.8872525  99.6582043  27.7505079
  69.8665064 100.5592748  27.0886736  72.5829868  99.0402352  24.5076151
  72.5043500  98.7062216  25.4011908  73.4039535  99.5324120  24.5067623
  75.2808059  91.9064091  37.7152469  75.2484379  90.9680092  37.9012153
  75.8908683  91.9848128  36.9818294  67.1191390  90.7760144  23.7579673
  68.0650495  90.6466352  23.8268091  66.7405635  90.0374806  24.2349101
  75.4302548  88.6975135  37.7610752  74.9141596  87.9133591  37.5740681
  76.3142496  88.3693851  37.9257272  73.0913275  82.4416150  33.7206565
  72.8938096  82.1331238  34.6049897  73.7012980  83.1677789  33.8504495
  81.0984609  92.9680098  36.8558506  81.8287998  92.7065386  37.4166209
  80.4891555  92.2308820  36.8960574  79.1799906  91.1087961  37.4532957
  78.4533070  90.9743926  36.8449449  78.7647193  91.4164789  38.2589675
  67.0030083  94.8277890  45.2180330  67.9233092  95.0056489  45.4120377
  66.9679666  93.8833936  45.0660029  65.3034307  88.7010121  23.6934558
  64.3965763  88.4043233  23.7697272  65.5810288  88.4039939  22.8268845
  56.2212248  90.0216484  34.1433605  55.9015032  89.1681792  33.8507979
  55.6745676  90.2365062  34.8991572  59.9992155  92.7378925  37.8603111
  60.2178165  93.6696033  37.8791145  60.4117929  92.3786899  38.6457915
  66.9196373  83.2447010  29.8478800  66.1097101  82.8994095  30.2234046
  67.6080790  82.9354554  30.4366411  68.8486921  82.3225057  31.4703096
  69.4017960  82.7420511  32.1293119  69.0857008  81.3960805  31.5126052
  64.8720020  88.3112131  47.2505860  64.7716747  89.2606488  47.1817951
  64.6541563  87.9830370  46.3781930  64.0733092  85.5597056  23.8346538
  64.9352256  85.8851954  24.0942355  64.2583436  84.7728552  23.3219603
  56.0900508  93.6419395  36.1126726  55.3963979  93.2273348  35.5996681
  56.8373499  93.6839932  35.5160145  72.2265728  84.4325582  30.9781761
  71.6464397  85.0910386  30.5959813  71.9601661  83.6102927  30.5669178
  70.6769295  83.8330640  33.1803081  71.1769073  83.9447175  32.3717400
  71.3204903  83.5291693  33.8203889  58.0037250  93.5737649  33.9892741
  57.9807938  93.6725337  33.0374624  58.3137887  94.4202800  34.3109907
  60.6624628  95.6313804  38.1039356  61.6167882  95.5997747  38.0369287
  60.4637152  95.1704428  38.9189582  61.2524010  94.2014920  40.6710153
  62.0716899  94.6958999  40.6944991  61.5260818  93.2846888  40.6427721
  71.0090606  86.5925673  30.0338109  70.1216461  86.8775323  29.8158304
  71.4244595  86.4319436  29.1865386  74.3605143  86.6172194  33.7492448
  75.1365533  87.1068646  34.0217065  73.6353277  87.0430248  34.2064318
  76.7977701  87.3299813  34.8066389  77.3922192  87.0895549  34.0959697
  76.8704285  86.6106943  35.4339925  59.0174857 101.1733424  35.1209554
  58.8829325 100.4133825  34.5547552  58.6006919 101.8974324  34.6538342
  70.1533820  96.3570347  24.1286129  70.8569670  96.5620350  24.7443784
  69.4296469  96.9247109  24.3935212  70.9831630  92.1080209  30.2488399
  70.9266832  92.5648760  29.4096031  71.5359973  91.3470893  30.0711242
  74.7936436  87.8969940  31.0738519  74.5373370  87.4966576  31.9046726
  74.1689304  88.6113734  30.9488658  79.1048774  90.6366014  33.5809810
  78.5448332  90.7059203  34.3541372  78.4992277  90.4606998  32.8609306
  62.1743983 102.0702741  35.3327996  62.0576367 103.0148173  35.2306686
  61.3536429 101.7676302  35.7213795  72.0620517  96.7952877  26.1784589
  72.8966121  96.3634075  25.9962064  71.9004860  96.6234890  27.1061483
  71.7166409  93.2984990  27.5440928  71.6615213  93.1329261  26.6029372
  71.0912465  94.0061023  27.7003118  56.5058924  88.5353054  41.3702350
  57.1517788  88.0252008  41.8589576  56.2976076  89.2721736  41.9445776
  65.0262535  82.7993099  27.1226247  65.0141205  83.7434939  27.2794517
  65.9185957  82.6163244  26.8285708  63.1998497 102.7231003  38.5483925
  64.1025744 102.7554613  38.8650420  62.9735867 101.7931454  38.5630260
  64.9552099 101.4761989  35.2094003  64.0047730 101.4763851  35.0958376
  65.2584585 100.7294724  34.6930038  68.8414654  79.3935875  31.3772183
  68.0747050  78.8394362  31.5228866  69.2525359  79.4657744  32.2386335
  60.8456415  85.6820671  45.4677365  61.7087877  85.3257476  45.6780689
  60.2721826  85.3434566  46.1552769  80.6904792 107.3122528  36.2739766
  81.3283202 107.1929275  35.5703106  80.5725635 108.2603372  36.3327718
  77.4994499 107.2649956  36.2101290  77.1613010 107.1491020  35.3221825
  78.3684267 106.8641121  36.1902297  73.3581314 109.1185432  32.1998181
  72.7946179 109.0275369  31.4314469  73.2433709 108.2985337  32.6800674
  77.9814282 108.4184807  42.1687496  77.9702922 108.0237606  41.2968000
  78.1434921 107.6850880  42.7621267  70.9045746 110.6136624  35.0382402
  71.6967038 110.2727448  34.6228701  71.1442396 110.7231599  35.9584555
  78.9380873 112.7856400  27.5112646  78.2868853 113.3710480  27.1246660
  79.7325236 113.3162595  27.5707684  72.8636500 109.8745537  27.9099781
  73.6367376 109.3274524  27.7712656  73.2161899 110.7389786  28.1214242
  74.7021543 111.2021919  41.1166680  74.4111409 112.1067550  41.0013346
  75.3378527 111.2438447  41.8310749  75.6277750 108.5798768  37.7068040
  76.2241322 108.3554790  36.9925002  75.6852721 107.8383513  38.3093487
  75.2002778 106.0338203  25.5418230  75.4528299 105.5119724  24.7801693
  74.2627337 105.8704349  25.6444914  80.2446061 105.0373981  33.3492974
  81.0309150 104.6193405  32.9983391  80.5084765 105.9420074  33.5174622
  80.4156138 110.4746832  28.0481631  79.7801971 110.5481458  28.7602535
  80.0853545 111.0640431  27.3700710  85.6454488 104.9749215  34.2525952
  86.3779660 104.4048431  34.4863782  84.8893844 104.5870815  34.6932458
  74.9199067 107.9366309  27.7442605  74.8035325 107.2611212  28.4123690
  75.0301327 107.4498683  26.9274759  77.2630608 107.3976456  31.4489295
  76.8988815 106.8707077  32.1602216  78.1197724 107.0074925  31.2755780
  83.1679908  98.6870789  38.7120561  82.8363233  99.5566200  38.4881776
  82.5725522  98.3707073  39.3914591  76.9036095 102.4266356  26.4450643
  77.0710497 103.2946592  26.8121114  76.7133264 102.5893638  25.5211932
  79.6611428 110.8883335  38.1116474  79.3612151 111.7908374  38.0032281
  79.3162487 110.6215518  38.9637626  73.1123909 107.3397132  34.1453178
  72.1874406 107.2073346  34.3530870  73.3608323 108.1191351  34.6423120
  83.0608572 103.4065875  35.7913911  82.1525449 103.3381283  35.4972672
  83.0096167 103.8837820  36.6195736  76.8825316 104.8824013  27.4297310
  76.7624941 105.3281064  28.2682790  76.1877904 105.2309331  26.8710848
  70.4732720 106.9830405  34.9796967  70.6025102 107.2364884  35.8936379
  69.7930172 107.5758113  34.6601622  74.6432208 117.6527655  31.0787441
  74.5656237 118.6035480  31.1575922  74.0393851 117.3073528  31.7362368
  77.1349437 104.8255521  43.7348808  76.3582771 105.3849441  43.7251673
  77.7740000 105.3112304  44.2563678  84.9270218 101.6082313  37.5691785
  84.2844598 101.9014847  36.9231579  84.4225147 101.4935234  38.3744981
  82.5810382 105.3545487  28.2577644  83.4928238 105.5872873  28.0825342
  82.0720029 105.9382531  27.6952723  75.3895810 107.6340974  43.2966775
  76.1310494 108.1726018  43.0201599  74.6832795 108.2607263  43.4538327
  80.8651149 109.7770114  41.8938937  81.2734505 109.3352525  41.1493569
  80.1428411 109.2022742  42.1473130  77.2182219 104.7142721  39.2672494
  78.0643415 105.1382135  39.4107143  77.1580857 104.0576345  39.9611057
  81.1879964 110.3371305  35.6491226  80.5588826 110.5017019  34.9467293
  80.8005626 110.7512915  36.4202190  85.0669196 111.2725743  33.0035589
  84.3820234 111.6524644  32.4532623  85.1513045 111.8821070  33.7367537
  80.3681665 102.3747090  40.9253667  80.1242597 103.1289150  40.3887943
  80.6441595 102.7532437  41.7600914  82.3220127 108.9185702  39.6030933
  82.5337023 109.5617462  38.9265314  82.2749876 108.0848018  39.1352863
  79.9246356 101.5303523  36.5067505  79.0630835 101.8284776  36.7984243
  79.9508791 101.7473921  35.5748538  76.7407926 110.0745713  32.9141311
  77.2046271 110.3533416  32.1245933  76.4764724 109.1729158  32.7314401
  73.6332007 109.6217195  35.8521074  74.2033364 110.0504463  35.2138558
  74.2240119 109.3399779  36.5505260  75.6776812 106.1968865  29.7230876
  76.3800855 106.6489909  30.1904802  75.3457440 105.5552684  30.3510769
  74.1257173 104.7880622  44.0982085  73.4955834 105.4696903  44.3317482
  74.0193261 104.6763704  43.1535223  69.4202146 104.4552418  35.0248009
  68.6301200 104.7109947  34.5488120  69.9113393 105.2700756  35.1300050
  83.4365955 111.7957657  37.7753290  84.2583399 111.3937845  37.4935972
  83.4328358 111.6925891  38.7269406  71.3716891 104.8196997  31.9831486
  70.5748055 104.9315692  32.5014982  71.1442483 105.1583650  31.1172377
  77.2022559 111.3441701  39.9314001  77.2666991 111.8062108  40.7672173
  76.4933483 110.7139066  40.0596311  67.7039849 104.7082909  37.4563000
  67.9547887 105.5929918  37.7220576  68.2399397 104.5287510  36.6838092
  91.5271948 108.1396406  34.1238262  90.7735657 107.5703804  33.9682266
  91.6619490 108.1059070  35.0708896  76.9170577 113.0109808  29.7992981
  76.7816251 113.8561344  30.2277829  77.4580389 113.2129086  29.0358915
  70.3699974 110.5285246  30.3720906  70.8824494 111.3228496  30.5226471
  71.0222687 109.8311537  30.3054508  72.1794859 113.6451002  32.4543659
  72.3561487 114.5668967  32.2664643  72.9751692 113.3309422  32.8838039
  76.3205877 100.5059267  44.0527593  77.0615591 101.1066420  43.9732055
  76.5523800  99.7636905  43.4945635  71.4647215 105.6915634  42.3305822
  71.3500730 104.7900892  42.6312921  70.6091733 105.9379331  41.9790639
  78.5439053 113.6333375  43.9293323  78.1002907 112.8469753  43.6114228
  79.2056266 113.8212525  43.2637214  73.3026174 115.1629176  38.4554002
  73.8533599 115.0346240  37.6830996  72.4637650 115.4624065  38.1048894
  80.6420291 113.9136175  41.9574724  80.6238766 114.7345056  41.4654994
  81.5640211 113.7890250  42.1824866  77.0993345 111.4280304  42.7998233
  77.6321682 110.6668592  42.5697541  76.5707426 111.1353956  43.5422387
  80.2663040  96.5340370  38.3291874  79.9227309  97.4242012  38.2530985
  80.6342003  96.3442028  37.4661459  68.3348891 108.8573900  31.1480477
  69.1724113 109.2670909  30.9314184  68.5127158 107.9173343  31.1180670
  80.2313323 106.5248981  26.8364310  79.7159946 107.2953586  27.0752697
  79.9590631 105.8514117  27.4597371  77.8160434 101.3698682  31.8949548
  76.9602030 100.9805532  31.7155187  78.2287386 101.4490643  31.0349333
  79.3459580  98.9045025  36.2941108  78.8424376  98.8675160  35.4808913
  79.6390187  99.8137768  36.3537764  75.5902466  98.9883755  35.3007289
  76.4555463  98.7926564  34.9413179  75.6579975  98.7594107  36.2276646
  85.2047597 109.2781336  28.7717483  84.4277040 108.9392495  28.3272645
  85.8839078 109.2833959  28.0972448  80.0199626 104.3976073  28.6624091
  79.7149762 104.7122222  29.5134234  80.9730068 104.4757493  28.7051424
  78.4646058 110.5566296  30.3117045  77.9367419 109.8219056  29.9990282
  77.9633561 111.3340973  30.0657013  83.4438904 108.7515317  35.4284091
  82.7862578 109.4414578  35.5164220  84.2479303 109.1411749  35.7718077
  73.1964785 101.2185963  32.6723656  73.7708537 100.9961144  31.9396849
  73.7835768 101.2874657  33.4252258  82.2544363 107.1059690  33.4788033
  82.7676244 107.7389681  33.9809743  82.9045587 106.5060885  33.1131393
  73.5234373 103.2490424  26.6919542  72.6871685 103.5865110  27.0128816
  73.3839142 103.1139404  25.7546678  75.4987453  98.0927212  31.3998726
  74.8451866  97.7776229  30.7755340  75.4567927  97.4702952  32.1258549
  76.6098658 108.3746507  23.3152018  75.7025720 108.1435760  23.5143167
  77.1069690 107.5784126  23.5025999  78.7325194 104.5809145  35.7246373
  77.8147755 104.8024092  35.5668061  79.1485337 104.6555456  34.8658081
  79.5160241 105.9800561  30.8549054  80.2632060 106.4921958  30.5456176
  79.7851831 105.6584614  31.7153447  77.7886891 108.4759102  27.8376008
  76.8798111 108.1918134  27.9348478  77.8181975 108.8958180  26.9779315
  83.0206159 112.0865691  31.6067175  82.5668486 111.2456601  31.6632366
  82.3900126 112.7227089  31.9441956  81.9639078 103.0157677  32.8367843
  81.2261835 102.5035063  33.1678085  82.2165852 102.5758059  32.0251120
  81.4639098 113.9242188  32.5416994  81.7562072 114.4847245  31.8229359
  81.9737719 114.2170749  33.2970153  82.0650706  95.7933929  33.4309612
  82.3709583  94.9331293  33.1435527  82.7903311  96.3851549  33.2308606
  68.3575062 106.1964616  31.8191210  68.1599462 105.6033976  31.0942277
  67.8021726 105.8916826  32.5367149  76.3371786 106.0887722  33.9385803
  76.3920395 105.1361559  33.8628280  75.5262988 106.2447161  34.4227102
  77.4862979 110.0167845  25.1764086  77.0482409 109.3003704  24.7169724
  78.2273420 110.2443960  24.6149178  74.2764145 104.7064782  31.6976182
  73.4632011 105.0058953  32.1041374  74.7723140 104.3120471  32.4150664
  76.4272723 114.7022539  33.6310447  76.3848902 114.9283385  32.7018979
  77.3435422 114.4685913  33.7796248  79.8738357 105.1706606  40.5291076
  80.2287745 105.3978080  41.3885542  80.5210488 105.5024983  39.9068331
  85.6036094 108.2925042  31.2340405  85.4653993 108.4826638  30.3061594
  85.2472313 109.0544425  31.6908456  73.7678220 102.2783137  37.3137417
  74.4077600 102.1371897  36.6160380  72.9355751 101.9917651  36.9376019
  85.6305474 110.3601569  36.2451677  86.0641980 110.2676858  37.0934731
  86.3437054 110.3359070  35.6071693  74.5438524 111.5785568  33.4272409
  75.3379123 111.0835888  33.2254984  73.8330216 111.0503431  33.0640115
  79.3633369 113.9603663  37.7784777  79.4170391 114.5294600  38.5462493
  78.4948150 114.1305548  37.4138814  70.8521288 105.7228650  29.5032162
  69.9218876 105.6613105  29.7202124  70.9478760 105.2004602  28.7068803
  70.7706837 102.2483462  32.0910404  71.0313654 103.1628796  31.9819564
  71.5924009 101.7807905  32.2407017  72.2431762 103.6621220  39.2609228
  72.9154815 103.4538582  38.6121877  71.4161548 103.4643306  38.8214461
  86.4921023 110.4025270  38.7784562  86.6856913 111.3071080  39.0243837
  86.3921641 109.9432689  39.6123147  78.1457334 100.2883161  41.2774889
  77.4985249 100.9873110  41.1839366  78.9158349 100.7219304  41.6451137
  81.5536132 110.5532013  44.3525443  81.4021638 110.3242564  43.4355526
  81.5440811 111.5102614  44.3656788  78.3221468 108.1263925  39.3371709
  79.2513528 108.2775085  39.1640676  77.9012498 108.2147946  38.4820355
  77.1209800 112.1514590  37.1070247  76.9820886 111.7833374  37.9796185
  76.3324396 112.6662229  36.9354204  77.7157952 117.2523686  28.4495783
  77.8909708 116.7811730  29.2641406  77.0290740 117.8789453  28.6777044
  78.6715015 111.5296193  34.4959084  78.3364848 111.4896963  35.3916734
  78.1718961 110.8640909  34.0229495  72.6459259 106.9363823  40.0211666
  72.5079057 106.2044061  40.6223205  73.5564183 106.8472723  39.7395853
  81.6074207 108.8752227  24.7696144  80.9903378 108.1499055  24.6729197
  81.1390695 109.6361587  24.4263218  75.2741560 106.6483782  39.5095345
  75.9841178 106.0076974  39.4681964  75.2310868 106.8996677  40.4321526
  83.2628339 113.5851135  42.4301924  83.2040885 112.9010355  41.7632507
  83.6647857 114.3270125  41.9782550  73.9870494 103.6349000  41.3290985
  73.4507851 103.1839738  41.9812581  73.3987202 103.7694909  40.5861449
  72.2819037 120.4013049  35.2235643  72.5215636 121.0331573  35.9014662
  71.4388234 120.0501089  35.5101003  73.3972753 103.0937651  23.8917448
  72.5202219 102.9726452  23.5279695  73.8730506 102.3023730  23.6396337
  83.2645746 111.5490719  40.6615904  82.3772525 111.2116641  40.7842303
  83.8344297 110.8173750  40.8984669  64.9174893 107.8814811  33.9858955
  65.6045933 107.5676541  33.3979971  64.7623022 108.7856176  33.7126207
  69.7209615 102.7705008  38.4143979  69.6367804 102.1630677  37.6794389
  68.8992321 103.2614026  38.4153475  76.7946899 116.2092172  37.6277147
  76.7217071 117.0147143  38.1396452  76.3524292 116.4084137  36.8025169
  76.5836679 115.4463942  31.1379969  75.8004201 115.9885622  31.2318193
  77.2829424 115.9637921  31.5374210  79.8933329 101.2558571  33.7814174
  80.3902028 100.5028533  33.4615244  79.1220310 101.2922888  33.2157384
  87.7463086 106.9598937  35.4232466  87.7352963 107.8423652  35.0526399
  86.8780466 106.6070487  35.2287003  79.2545583 116.1079006  39.7835306
  79.9673555 116.7426470  39.7111207  78.7635611 116.2042872  38.9675308
  80.9763110 110.0130258  31.3552598  80.0419388 110.1331721  31.1857302
  81.1539778 109.1102725  31.0912607  76.4768298 103.3975954  33.5085859
  76.1066085 102.8446994  34.1966764  76.9727390 102.7934088  32.9560859
  84.3635661 105.8547578  31.8902632  84.8296113 106.6875569  31.8162934
  84.8143161 105.3892559  32.5947890  74.3057496 113.8573449  40.6040877
  75.0066956 114.4909932  40.7570271  73.8352611 114.1988181  39.8436516
  82.4311892 112.1991399  28.8888784  82.7071736 112.0847993  29.7982658
  81.5616391 111.8008884  28.8500957  82.3352324  98.2228165  35.9293533
  81.4215404  98.4532391  36.0975740  82.7645425  98.3066609  36.7807565
  82.1058782 106.4118057  38.4293427  81.4530232 106.6593964  37.7745880
  82.4839162 105.5982195  38.0955904  79.0665956 116.4477750  32.5321597
  79.2488351 115.6299406  32.9949350  79.8898942 116.6645442  32.0946487
  79.4008122 115.3745935  29.7936646  79.9295888 114.8638389  29.1806808
  79.6636341 115.0588465  30.6582179  78.1546355 107.1537868  44.9159464
  77.4786992 107.0531997  45.5861839  78.9773989 106.9977081  45.3795461
  69.9025214 113.3909804  37.5371979  70.4878651 112.6453492  37.6699884
  69.7050053 113.7013761  38.4208643  72.7563870 116.4261052  32.5534422
  72.0874245 116.9107179  32.0698462  72.6176739 116.6730272  33.4677800
  64.4942869 105.9615404  36.2576423  64.5326969 105.4278995  37.0513541
  63.9883162 105.4350610  35.6387400  76.8969138 118.4604795  39.1517080
  77.4487446 118.6236417  39.9166165  77.2375332 119.0509233  38.4797105
  71.8733631 100.8079945  39.7538965  71.9374958 101.6694776  39.3416363
  71.8100752 100.1953946  39.0211323  71.3485904 102.8803077  43.4011999
  71.9757943 102.4980155  44.0149523  70.4913823 102.6617279  43.7667692
  81.7480012 113.2866053  45.0065735  82.2919916 113.8996011  44.5120689
  81.1666857 113.8445631  45.5232748  68.1251447 104.6879506  29.3330354
  68.4204888 103.7790185  29.2797408  67.2239482 104.6667246  29.0111356
  80.0337525 116.4086771  36.1380762  79.9088665 115.6076510  35.6291708
  80.6916617 116.9032964  35.6494732  71.6545694 102.7635503  35.3157903
  70.9332279 103.3771471  35.1765376  72.4438949 103.2993268  35.2374548
  82.0972434 114.2095791  37.7660312  81.1502769 114.0901142  37.6938639
  82.4455207 113.3218289  37.8486574  74.4572007 100.0989930  41.5898554
  74.9806409 100.3452226  42.3524864  74.2384340 100.9309964  41.1701692
  69.8539288 102.3693604  29.4569679  69.5251994 101.4890983  29.2744785
  70.2078659 102.3141273  30.3446068  79.1018867 114.0048507  33.9664665
  78.9543830 113.0765214  34.1472235  79.9272361 114.0268598  33.4821740
  72.9681111 102.6566574  29.8245157  73.3077184 103.1852495  29.1023765
  73.4153232 102.9946980  30.6003723  82.7052989 114.8277066  35.0529537
  83.6299536 114.6219927  34.9153989  82.5368292 114.5793467  35.9618879
  75.6624552 101.0403625  39.2748225  75.3221373 100.2411438  39.6768905
  74.9563558 101.3405335  38.7025058  76.3141024  98.1252937  37.7275548
  77.1367093  97.6513415  37.6054438  76.5579088  98.9043421  38.2274234
  74.9549259 101.1541196  28.0238450  75.6757621 101.5322448  27.5202166
  74.3314563 101.8730072  28.1273428  79.0980381 101.8586344  28.9596782
  79.3143996 102.7410982  28.6585610  78.6174449 101.4672558  28.2302424
  73.8379603 104.8172058  35.5367526  73.6924183 105.1312361  36.4291808
  73.3604806 105.4356958  34.9838425  75.6975986 101.8074606  35.5848416
  75.6837554 100.9115699  35.2480714  76.4148414 101.8145269  36.2186702
  77.5502116 102.2411946  37.6301543  77.2919894 103.1629017  37.6285874
  77.0187157 101.8442380  38.3202008  82.4948305 115.3462733  30.4091629
  82.6685183 114.7809156  29.6565481  82.9877196 116.1463628  30.2271119
  68.3125265 107.3577402  38.4755188  67.7678733 108.1337210  38.6075462
  69.1904615 107.7048207  38.3174309  75.1012882 100.6888986  30.8535986
  75.2228793  99.7605632  31.0526874  74.8114924 100.7027672  29.9414302
  77.9704072  98.3743896  33.9902706  77.9925769  98.4383230  33.0354686
  78.3872131  97.5348405  34.1843212  88.3487696 108.1099156  32.0281929
  88.7918842 107.3606481  31.6301052  87.4714207 108.1009292  31.6455661
  83.4823478 114.6629497  27.5088527  84.1774382 115.2836190  27.7275842
  83.8246628 113.8124849  27.7840905  69.0991287 106.4847298  41.3685345
  68.3573023 106.6329934  41.9549975  68.7784031 106.7455564  40.5052094
  85.3814901 112.1129203  29.0375858  85.9066225 112.4516476  28.3125178
  85.2937253 111.1776218  28.8538993  77.0434949 116.0263277  41.1665735
  77.3522076 115.7812423  42.0388434  77.8410431 116.2309915  40.6784605
  77.0655561 118.1801186  33.3971111  76.6260552 117.6877565  34.0903968
  77.8163678 117.6374154  33.1563186  69.5447900 114.3712727  33.3995739
  70.3705920 114.0716499  33.0194383  69.1941952 113.6020350  33.8485528
  74.5129434 113.7239195  35.4693413  73.8909443 113.0609900  35.1695641
  75.1834301 113.7500327  34.7867061  67.7456506 112.2899054  34.3584673
  66.9088414 111.8621228  34.1768674  67.7180151 112.4831497  35.2955464
  74.5853961 102.2020983  45.0625919  74.6342117 103.0783106  44.6803688
  75.1276475 101.6598376  44.4897562  85.0708807 112.7462107  44.3427056
  84.2804351 112.7286245  43.8031555  84.8342161 113.2850400  45.0976092
  85.1906682 109.5954573  41.6559784  85.2404687 109.4304580  42.5975307
  85.0820605 108.7281832  41.2657665  74.0742941 112.2743119  28.9451873
  74.2231061 112.9578583  28.2918546  74.8809384 112.2548209  29.4601329
  82.4810444 105.5785501  42.9719091  83.3820307 105.4391966  42.6803089
  82.5558419 105.7439956  43.9117269  76.8153250 102.9552356  41.8172277
  75.9456559 103.2485922  41.5454866  77.0512730 103.5392801  42.5379541
  86.6924879 112.0151514  41.9001806  86.4009687 112.3781495  42.7365267
  86.0797010 111.3018523  41.7215138  87.8920561 109.5804394  34.4204376
  88.7267452 110.0194198  34.5841937  88.0279690 109.1043047  33.6012622
  84.9412067 107.1384129  40.3681864  85.4166189 107.3311775  39.5600715
  84.0177632 107.1943315  40.1225248  71.8295574 108.3008296  29.9512942
  71.5841615 107.3970626  30.1493152  71.9991488 108.3025447  29.0092420
  79.5192283  99.1731973  39.3337698  80.0374227  99.9093000  39.0084186
  79.1647416  99.4795966  40.1684457  71.0991221 104.0336654  27.4499104
  70.4060466 104.1081009  26.7939140  70.8542973 103.2696998  27.9720621
  79.7704878  95.5932255  34.8538594  80.0506631  94.9255444  35.4799021
  80.5555485  95.7861351  34.3413258  77.5738346 114.7691249  26.4163621
  77.0012313 115.3881436  25.9634093  78.1471140 115.3190611  26.9503543
  83.6413736 104.0149889  38.6010170  84.5931159 104.1147987  38.6222394
  83.4717186 103.2228158  39.1108254  81.6628115 101.1005472  38.7869570
  81.0678048 101.3810485  38.0916059  81.3777812 101.5899373  39.5586312
  80.7935606 115.0528399  27.5472203  81.7266279 114.9873961  27.7505079
  80.7058819 115.8884666  27.0886736  86.1201814 107.2356009  37.7152469
  86.0878134 106.2972010  37.9012153  86.7302437 107.3140046  36.9818294
  77.9585145 106.1052062  23.7579673  78.9044249 105.9758270  23.8268091
  77.5799390 105.3666724  24.2349101  86.2696302 104.0267052  37.7610752
  85.7535351 103.2425509  37.5740681  87.1536251 103.6985769  37.9257272
  83.9307029  97.7708068  33.7206565  83.7331850  97.4623156  34.6049897
  84.5406735  98.4969707  33.8504495  91.9378364 108.2972016  36.8558506
  92.6681752 108.0357304  37.4166209  91.3285309 107.5600738  36.8960574
  90.0193661 106.4379878  37.4532957  89.2926824 106.3035843  36.8449449
  89.6040948 106.7456707  38.2589675  77.8423837 110.1569808  45.2180330
  78.7626847 110.3348407  45.4120377  77.8073420 109.2125853  45.0660029
  76.1428062 104.0302038  23.6934558  75.2359517 103.7335151  23.7697272
  76.4204043 103.7331856  22.8268845  67.0606002 105.3508402  34.1433605
  66.7408786 104.4973710  33.8507979  66.5139430 105.5656980  34.8991572
  70.8385910 108.0670843  37.8603111  71.0571919 108.9987950  37.8791145
  71.2511683 107.7078817  38.6457915  77.7590127  98.5738928  29.8478800
  76.9490856  98.2286013  30.2234046  78.4474544  98.2646472  30.4366411
  79.6880676  97.6516975  31.4703096  80.2411714  98.0712428  32.1293119
  79.9250762  96.7252723  31.5126052  75.7113775 103.6404048  47.2505860
  75.6110502 104.5898405  47.1817951  75.4935317 103.3122287  46.3781930
  74.9126846 100.8888973  23.8346538  75.7746010 101.2143872  24.0942355
  75.0977191 100.1020469  23.3219603  66.9294262 108.9711313  36.1126726
  66.2357734 108.5565266  35.5996681  67.6767253 109.0131850  35.5160145
  83.0659483  99.7617500  30.9781761  82.4858152 100.4202304  30.5959813
  82.7995416  98.9394845  30.5669178  81.5163049  99.1622558  33.1803081
  82.0162828  99.2739092  32.3717400  82.1598657  98.8583610  33.8203889
  75.5745045 107.0701187  46.0670922  75.0912127 107.8701547  46.2734811
  75.6605984 107.0809132  45.1138366  68.8431005 108.9029567  33.9892741
  68.8201693 109.0017254  33.0374624  69.1531641 109.7494718  34.3109907
  71.5018383 110.9605722  38.1039356  72.4561636 110.9289664  38.0369287
  71.3030906 110.4996346  38.9189582  72.0917765 109.5306838  40.6710153
  72.9110654 110.0250917  40.6944991  72.3654572 108.6138806  40.6427721
  81.8484361 101.9217590  30.0338109  80.9610216 102.2067241  29.8158304
  82.2638350 101.7611354  29.1865386  85.1998897 101.9464111  33.7492448
  85.9759287 102.4360564  34.0217065  84.4747031 102.3722165  34.2064318
  87.6371456 102.6591731  34.8066389  88.2315946 102.4187466  34.0959697
  87.7098039 101.9398861  35.4339925  69.8568611 116.5025341  35.1209554
  69.7223079 115.7425742  34.5547552  69.4400674 117.2266241  34.6538342
  80.9927574 111.6862265  24.1286129  81.6963424 111.8912267  24.7443784
  80.2690223 112.2539027  24.3935212  81.8225385 107.4372126  30.2488399
  81.7660586 107.8940678  29.4096031  82.3753727 106.6762811  30.0711242
  85.6330191 103.2261858  31.0738519  85.3767125 102.8258494  31.9046726
  85.0083059 103.9405652  30.9488658  89.9442528 105.9657931  33.5809810
  89.3842086 106.0351121  34.3541372  89.3386032 105.7898916  32.8609306
  73.0137737 117.3994658  35.3327996  72.8970121 118.3440091  35.2306686
  72.1930183 117.0968220  35.7213795  82.9014272 112.1244794  26.1784589
  83.7359876 111.6925993  25.9962064  82.7398615 111.9526808  27.1061483
  82.5560164 108.6276908  27.5440928  82.5008968 108.4621179  26.6029372
  81.9306219 109.3352940  27.7003118  67.3452679 103.8644972  41.3702350
  67.9911542 103.3543926  41.8589576  67.1369830 104.6013654  41.9445776
  79.8706071 110.9325819  46.8694491  80.7397231 111.1066472  46.5081126
  79.3912823 111.7520236  46.7470220  75.8656289  98.1285017  27.1226247
  75.8534959  99.0726856  27.2794517  76.7579711  97.9455162  26.8285708
  74.0392251 118.0522920  38.5483925  74.9419498 118.0846531  38.8650420
  73.8129621 117.1223371  38.5630260  75.7945853 116.8053907  35.2094003
  74.8441484 116.8055769  35.0958376  76.0978339 116.0586641  34.6930038
  79.6808409  94.7227793  31.3772183  78.9140805  94.1686280  31.5228866
  80.0919114  94.7949662  32.2386335  71.6850170 101.0112589  45.4677365
  72.5481631 100.6549394  45.6780689  71.1115581 100.6726484  46.1552769
  91.5298547 122.6414445  36.2739766  92.1676957 122.5221193  35.5703106
  91.4119390 123.5895289  36.3327718  88.3388253 122.5941873  36.2101290
  88.0006765 122.4782938  35.3221825  89.2078021 122.1933039  36.1902297
  88.8208036 123.7476725  42.1687496  88.8096677 123.3529523  41.2968000
  88.9828676 123.0142798  42.7621267  81.7439501 125.9428541  35.0382402
  82.5360793 125.6019366  34.6228701  81.9836151 126.0523516  35.9584555
  85.5415297 126.5313837  41.1166680  85.2505163 127.4359468  41.0013346
  86.1772282 126.5730365  41.8310749  86.4671504 123.9090685  37.7068040
  87.0635076 123.6846708  36.9925002  86.5246476 123.1675431  38.3093487
  91.0839815 120.3665899  33.3492974  91.8702905 119.9485322  32.9983391
  91.3478520 121.2711991  33.5174622  94.0073663 114.0162706  38.7120561
  93.6756988 114.8858117  38.4881776  93.4119276 113.6998990  39.3914591
  90.5005182 126.2175252  38.1116474  90.2005905 127.1200291  38.0032281
  90.1556242 125.9507436  38.9637626  83.9517664 122.6689049  34.1453178
  83.0268160 122.5365263  34.3530870  84.2002077 123.4483269  34.6423120
  93.9002326 118.7357793  35.7913911  92.9919203 118.6673201  35.4972672
  93.8489922 119.2129738  36.6195736  81.3126475 122.3122323  34.9796967
  81.4418856 122.5656802  35.8936379  80.6323926 122.9050031  34.6601622
  87.9743192 120.1547438  43.7348808  87.1976526 120.7141358  43.7251673
  88.6133755 120.6404221  44.2563678  95.7663973 116.9374231  37.5691785
  95.1238353 117.2306764  36.9231579  95.2618901 116.8227151  38.3744981
  86.2289564 122.9632892  43.2966775  86.9704249 123.5017936  43.0201599
  85.5226550 123.5899180  43.4538327  91.7044904 125.1062032  41.8938937
  92.1128260 124.6644443  41.1493569  90.9822165 124.5314660  42.1473130
  88.0575974 120.0434639  39.2672494  88.9037169 120.4674052  39.4107143
  87.9974612 119.3868263  39.9611057  91.2075419 117.7039007  40.9253667
  90.9636351 118.4581068  40.3887943  91.4835350 118.0824355  41.7600914
  93.1613882 124.2477620  39.6030933  93.3730777 124.8909379  38.9265314
  93.1143630 123.4139936  39.1352863  90.7640111 116.8595440  36.5067505
  89.9024590 117.1576694  36.7984243  90.7902546 117.0765839  35.5748538
  84.4725761 124.9509112  35.8521074  85.0427118 125.3796381  35.2138558
  85.0633873 124.6691697  36.5505260  84.9650928 120.1172540  44.0982085
  84.3349589 120.7988821  44.3317482  84.8587016 120.0055621  43.1535223
  80.2595900 119.7844336  35.0248009  79.4694954 120.0401864  34.5488120
  80.7507148 120.5992674  35.1300050  82.2110646 120.1488915  31.9831486
  81.4141809 120.2607609  32.5014982  81.9836238 120.4875567  31.1172377
  88.0416313 126.6733618  39.9314001  88.1060746 127.1354026  40.7672173
  87.3327237 126.0430983  40.0596311  78.5433603 120.0374826  37.4563000
  78.7941642 120.9221836  37.7220576  79.0793152 119.8579428  36.6838092
  84.2431671 114.4193306  46.4607336  83.8498616 113.8659504  47.1354980
  85.0597811 114.7303884  46.8513854  87.1599632 115.8351185  44.0527593
  87.9009345 116.4358338  43.9732055  87.3917554 115.0928822  43.4945635
  82.3040970 121.0207552  42.3305822  82.1894485 120.1192809  42.6312921
  81.4485487 121.2671249  41.9790639  84.1419929 130.4921094  38.4554002
  84.6927354 130.3638157  37.6830996  83.3031404 130.7915983  38.1048894
  87.9387100 126.7572222  42.7998233  88.4715436 125.9960510  42.5697541
  87.4101181 126.4645873  43.5422387  91.1056795 111.8632288  38.3291874
  90.7621064 112.7533929  38.2530985  91.4735757 111.6733945  37.4661459
  79.1742645 124.1865818  31.1480477  80.0117867 124.5962826  30.9314184
  79.3520913 123.2465260  31.1180670  88.6554188 116.6990600  31.8949548
  87.7995785 116.3097450  31.7155187  89.0681140 116.7782560  31.0349333
  90.1853335 114.2336943  36.2941108  89.6818131 114.1967078  35.4808913
  90.4783942 115.1429686  36.3537764  86.4296221 114.3175673  35.3007289
  87.2949218 114.1218481  34.9413179  86.4973730 114.0886024  36.2276646
  84.0358540 116.5477880  32.6723656  84.6102292 116.3253062  31.9396849
  84.6229522 116.6166575  33.4252258  86.3381208 113.4219129  31.3998726
  85.6845620 113.1068147  30.7755340  86.2961682 112.7994870  32.1258549
  89.5718948 119.9101063  35.7246373  88.6541509 120.1316010  35.5668061
  89.9879092 119.9847373  34.8658081  92.9044460 111.1225847  33.4309612
  93.2103337 110.2623210  33.1435527  93.6297065 111.7143467  33.2308606
  79.1968816 121.5256533  31.8191210  78.9993216 120.9325894  31.0942277
  78.6415480 121.2208744  32.5367149  87.1765540 121.4179640  33.9385803
  87.2314150 120.4653476  33.8628280  86.3656742 121.5739079  34.4227102
  85.1157900 120.0356700  31.6976182  84.3025765 120.3350870  32.1041374
  85.6116894 119.6412388  32.4150664  90.7132112 120.4998524  40.5291076
  91.0681499 120.7269997  41.3885542  91.3604243 120.8316901  39.9068331
  84.6071975 117.6075055  37.3137417  85.2471354 117.4663814  36.6160380
  83.7749505 117.3209569  36.9376019  81.6100591 117.5775380  32.0910404
  81.8707408 118.4920713  31.9819564  82.4317763 117.1099823  32.2407017
  83.0825516 118.9913137  39.2609228  83.7548570 118.7830499  38.6121877
  82.2555303 118.7935223  38.8214461  88.9851088 115.6175078  41.2774889
  88.3379003 116.3165028  41.1839366  89.7552104 116.0511222  41.6451137
  89.1615223 123.4555843  39.3371709  90.0907283 123.6067003  39.1640676
  88.7406253 123.5439864  38.4820355  87.9603555 127.4806508  37.1070247
  87.8214640 127.1125292  37.9796185  87.1718151 127.9954147  36.9354204
  83.4853014 122.2655740  40.0211666  83.3472812 121.5335979  40.6223205
  84.3957937 122.1764640  39.7395853  86.1135314 121.9775700  39.5095345
  86.8234933 121.3368892  39.4681964  86.0704623 122.2288594  40.4321526
  84.8264248 118.9640918  41.3290985  84.2901605 118.5131656  41.9812581
  84.2380957 119.0986826  40.5861449  75.7568647 123.2106729  33.9858955
  76.4439687 122.8968459  33.3979971  75.6016776 124.1148093  33.7126207
  80.5603370 118.0996925  38.4143979  80.4761558 117.4922595  37.6794389
  79.7386076 118.5905944  38.4153475  90.7327083 116.5850489  33.7814174
  91.2295783 115.8320451  33.4615244  89.9614065 116.6214805  33.2157384
  87.3162052 118.7267872  33.5085859  86.9459840 118.1738912  34.1966764
  87.8121145 118.1226005  32.9560859  85.1451251 129.1865367  40.6040877
  85.8460710 129.8201850  40.7570271  84.6746366 129.5280098  39.8436516
  93.1746078 113.5520082  35.9293533  92.2609158 113.7824309  36.0975740
  93.6039180 113.6358526  36.7807565  92.9452537 121.7409974  38.4293427
  92.2923987 121.9885882  37.7745880  93.3232917 120.9274112  38.0955904
  88.9940110 122.4829785  44.9159464  88.3180747 122.3823915  45.5861839
  89.8167744 122.3268999  45.3795461  80.7418969 128.7201722  37.5371979
  81.3272406 127.9745410  37.6699884  80.5443807 129.0305679  38.4208643
  75.3336624 121.2907322  36.2576423  75.3720723 120.7570913  37.0513541
  74.8276916 120.7642528  35.6387400  82.7127386 116.1371863  39.7538965
  82.7768712 116.9986693  39.3416363  82.6494506 115.5245864  39.0211323
  82.1879658 118.2094995  43.4011999  82.8151697 117.8272072  44.0149523
  81.3307577 117.9909197  43.7667692  78.9645201 120.0171424  29.3330354
  79.2598642 119.1082103  29.2797408  78.0633237 119.9959164  29.0111356
  82.4939448 118.0927421  35.3157903  81.7726034 118.7063388  35.1765376
  83.2832704 118.6285186  35.2374548  85.2965762 115.4281847  41.5898554
  85.8200163 115.6744144  42.3524864  85.0778095 116.2601882  41.1701692
  80.6933043 117.6985522  29.4569679  80.3645749 116.8182901  29.2744785
  81.0472413 117.6433191  30.3446068  83.8074866 117.9858492  29.8245157
  84.1470938 118.5144413  29.1023765  84.2546986 118.3238898  30.6003723
  86.5018307 116.3695542  39.2748225  86.1615127 115.5703355  39.6768905
  85.7957313 116.6697253  38.7025058  87.1534779 113.4544855  37.7275548
  87.9760848 112.9805333  37.6054438  87.3972842 114.2335339  38.2274234
  84.6773357 120.1463975  35.5367526  84.5317938 120.4604278  36.4291808
  84.1998561 120.7648876  34.9838425  86.5369740 117.1366523  35.5848416
  86.5231309 116.2407617  35.2480714  87.2542168 117.1437187  36.2186702
  88.3895871 117.5703864  37.6301543  88.1313649 118.4920934  37.6285874
  87.8580911 117.1734298  38.3202008  79.1519019 122.6869320  38.4755188
  78.6072488 123.4629128  38.6075462  80.0298369 123.0340124  38.3174309
  85.9406636 116.0180904  30.8535986  86.0622547 115.0897550  31.0526874
  85.6508678 116.0319590  29.9414302  88.8097826 113.7035814  33.9902706
  88.8319523 113.7675147  33.0354686  89.2265885 112.8640323  34.1843212
  79.9385041 121.8139216  41.3685345  79.1966777 121.9621851  41.9549975
  79.6177786 122.0747482  40.5052094  78.5850260 127.6190971  34.3584673
  77.7482168 127.1913146  34.1768674  78.5573905 127.8123415  35.2955464
  85.4247716 117.5312901  45.0625919  85.4735871 118.4075024  44.6803688
  85.9670230 116.9890294  44.4897562  93.3204199 120.9077419  42.9719091
  94.2214061 120.7683884  42.6803089  93.3952173 121.0731874  43.9117269
  87.6547004 118.2844273  41.8172277  86.7850313 118.5777839  41.5454866
  87.8906484 118.8684718  42.5379541  95.7805821 122.4676047  40.3681864
  96.2559943 122.6603693  39.5600715  94.8571387 122.5235233  40.1225248
  90.3586038 114.5023890  39.3337698  90.8767982 115.2384917  39.0084186
  90.0041171 114.8087884  40.1684457  90.6098632 110.9224173  34.8538594
  90.8900386 110.2547362  35.4799021  91.3949239 111.1153269  34.3413258
  94.4807490 119.3441807  38.6010170  95.4324913 119.4439905  38.6222394
  94.3110941 118.5520075  39.1108254  92.5021870 116.4297390  38.7869570
  91.9071802 116.7102403  38.0916059  92.2171567 116.9191291  39.5586312
  97.1090057 119.3558970  37.7610752  96.5929105 118.5717427  37.5740681
  97.9930005 119.0277687  37.9257272  94.7700784 113.0999986  33.7206565
  94.5725605 112.7915074  34.6049897  95.3800489 113.8261624  33.8504495
  88.6817592 125.4861726  45.2180330  89.6020601 125.6640325  45.4120377
  88.6467175 124.5417771  45.0660029  77.8999757 120.6800319  34.1433605
  77.5802541 119.8265628  33.8507979  77.3533185 120.8948897  34.8991572
  81.6779664 123.3962760  37.8603111  81.8965674 124.3279868  37.8791145
  82.0905438 123.0370735  38.6457915  88.5983882 113.9030846  29.8478800
  87.7884610 113.5577931  30.2234046  89.2868299 113.5938389  30.4366411
  90.5274430 112.9808892  31.4703096  91.0805469 113.4004346  32.1293119
  90.7644517 112.0544641  31.5126052  86.5507529 118.9695966  47.2505860
  86.4504256 119.9190323  47.1817951  86.3329072 118.6414205  46.3781930
  77.7688017 124.3003231  36.1126726  77.0751488 123.8857184  35.5996681
  78.5161008 124.3423767  35.5160145  92.3556804 114.4914475  33.1803081
  92.8556582 114.6031010  32.3717400  92.9992412 114.1875528  33.8203889
  86.4138800 122.3993105  46.0670922  85.9305881 123.1993465  46.2734811
  86.4999739 122.4101050  45.1138366  79.6824759 124.2321485  33.9892741
  79.6595447 124.3309172  33.0374624  79.9925396 125.0786635  34.3109907
  82.3412137 126.2897640  38.1039356  83.2955391 126.2581582  38.0369287
  82.1424661 125.8288263  38.9189582  82.9311519 124.8598756  40.6710153
  83.7504408 125.3542834  40.6944991  83.2048327 123.9430724  40.6427721
  96.0392651 117.2756029  33.7492448  96.8153042 117.7652481  34.0217065
  95.3140786 117.7014083  34.2064318  78.1846433 119.1936890  41.3702350
  78.8305297 118.6835844  41.8589576  77.9763584 119.9305571  41.9445776
  90.5202163 110.0519711  31.3772183  89.7534559 109.4978198  31.5228866
  90.9312868 110.1241580  32.2386335  82.5243924 116.3404507  45.4677365
  83.3875386 115.9841311  45.6780689  81.9509335 116.0018401  46.1552769
  24.3470282  13.9935909  30.6538630  23.9034136  13.2072287  30.3359534
  25.0087495  14.1815059  29.9882520  26.4451520  14.2738709  28.6820031
  26.4269995  15.0947590  28.1900300  27.3671440  14.1492784  28.9070172
  27.3567361  10.9134547  31.0770749  27.2052867  10.6845099  30.1600833
  27.3472040  11.8705148  31.0902094  29.0659567  13.9453669  29.1547231
  29.0072114  13.2612890  28.4877814  29.4679086  14.6872660  28.7027857
  27.5511241  13.6468587  31.7311041  28.0951145  14.2598545  31.2365996
  26.9698086  14.2048165  32.2478054  30.8740036  13.1064641  31.0672362
  30.0835579  13.0888780  30.5276862  30.6373390  13.6452935  31.8221399
  32.4956108  12.3754049  28.6247113  32.2040916  12.7384029  29.4610574
  31.8828239  11.6621057  28.4460445  25.6737300  11.2928354  33.5939798
  26.5428460  11.4669006  33.2326433  25.1944051  12.1122770  33.4715527
  37.3329776  23.0016980  22.9985072  37.9708186  22.8823727  22.2948412
  37.2150619  23.9497823  23.0573024  34.1419482  22.9544408  22.9346597
  33.8037993  22.8385472  22.0467132  35.0109250  22.5535573  22.9147603
  34.6239265  24.1079259  28.8932803  34.6127906  23.7132058  28.0213306
  34.7859904  23.3745332  29.4866574  27.5470730  26.3031076  21.7627708
  28.3392021  25.9621900  21.3474008  27.7867380  26.4126051  22.6829862
  31.3446526  26.8916371  27.8411987  31.0536392  27.7962002  27.7258653
  31.9803510  26.9332899  28.5556056  32.2702733  24.2693220  24.4313346
  32.8666305  24.0449242  23.7170309  32.3277704  23.5277965  25.0338794
  42.2879471  20.6643667  20.9771259  43.0204643  20.0942883  21.2109088
  41.5318827  20.2765267  21.4177764  39.8104892  14.3765241  25.4365867
  39.4788216  15.2460652  25.2127082  39.2150505  14.0601525  26.1159898
  36.3036411  26.5777787  24.8361780  36.0037134  27.4802825  24.7277587
  35.9587471  26.3109970  25.6882933  39.7033555  19.0960327  22.5159218
  38.7950432  19.0275735  22.2217978  39.6521151  19.5732272  23.3441043
  31.2857191  33.3422107  17.8032748  31.2081221  34.2929932  17.8821228
  30.6818835  32.9967980  18.4607674  33.7774421  20.5149972  30.4594115
  33.0007755  21.0743893  30.4496979  34.4164984  21.0006755  30.9808985
  41.5695201  17.2976765  24.2937091  40.9269582  17.5909298  23.6476886
  41.0650130  17.1829686  25.0990288  32.0320793  23.3235426  30.0212082
  32.7735477  23.8620470  29.7446905  31.3257778  23.9501715  30.1783634
  37.5076133  25.4664566  28.6184243  37.9159489  25.0246977  27.8738876
  36.7853394  24.8917194  28.8718436  33.8607203  20.4037173  25.9917800
  34.7068398  20.8276587  26.1352449  33.8005840  19.7470797  26.6856363
  37.8304947  26.0265757  22.3736532  37.2013810  26.1911471  21.6712600
  37.4430609  26.4407366  23.1447496  41.7094179  26.9620195  19.7280896
  41.0245217  27.3419096  19.1777929  41.7938028  27.5715521  20.4612844
  37.0106648  18.0641541  27.6498974  36.7667580  18.8183602  27.1133250
  37.2866579  18.4426889  28.4846221  38.9645111  24.6080154  26.3276239
  39.1762006  25.2511914  25.6510621  38.9174859  23.7742470  25.8598170
  30.2756990  25.3111647  22.5766381  30.8458347  25.7398915  21.9383865
  30.8665102  25.0294231  23.2750566  30.7682157  20.4775074  30.8227392
  30.1380817  21.1591355  31.0562789  30.6618245  20.3658156  29.8780530
  40.0790939  27.4852109  24.4998597  40.9008382  27.0832296  24.2181278
  40.0753342  27.3820343  25.4514713  33.8447542  27.0336152  26.6559307
  33.9091975  27.4956560  27.4917479  33.1358466  26.4033517  26.7841617
  48.1696932  23.8290858  20.8483568  47.4160640  23.2598256  20.6927573
  48.3044473  23.7953522  21.7954203  30.0462899  14.7795840  33.1852643
  29.6529845  14.2262038  33.8600287  30.8629040  15.0906418  33.5759160
  28.8219842  29.3345454  19.1788966  28.9986470  30.2563419  18.9909950
  29.6176675  29.0203874  19.6083346  32.9630860  16.1953719  30.7772899
  33.7040574  16.7960872  30.6977362  33.1948783  15.4531357  30.2190942
  28.1072198  21.3810086  29.0551129  27.9925714  20.4795343  29.3558228
  27.2516716  21.6273783  28.7035946  35.1864036  29.3227826  30.6538630
  34.7427890  28.5364205  30.3359534  35.8481250  29.5106977  29.9882520
  29.9451157  30.8523628  25.1799308  30.4958583  30.7240691  24.4076302
  29.1062633  31.1518517  24.8294201  37.2845274  29.6030626  28.6820031
  37.2663750  30.4239507  28.1900300  38.2065194  29.4784702  28.9070172
  33.7418328  27.1174756  29.5243539  34.2746665  26.3563044  29.2942847
  33.2132410  26.8248408  30.2667694  40.0863887  24.4409769  22.1529398
  39.4287562  25.1309030  22.2409526  40.8904286  24.8306201  22.4963384
  38.8969346  22.7954142  20.2033339  39.4101228  23.4284133  20.7055049
  39.5470570  22.1955337  19.8376699  35.3750177  20.2703597  22.4491680
  34.4572738  20.4918544  22.2913368  35.7910320  20.3449908  21.5903387
  39.6631142  27.7760143  18.3312482  39.2093469  26.9351053  18.3877673
  39.0325109  28.4121541  18.6687262  38.1064081  29.6136640  19.2662300
  38.3987056  30.1741697  18.5474666  38.6162702  29.9065201  20.0215459
  33.0697707  30.3916991  20.3555753  33.0273885  30.6177837  19.4264285
  33.9860405  30.1580365  20.5041555  36.5163340  20.8601058  27.2536383
  36.8712728  21.0872531  28.1130848  37.1635472  21.1919435  26.6313638
  42.2461077  23.9819494  17.9585712  42.1078976  24.1721090  17.0306901
  41.8897296  24.7438877  18.4153763  42.2730457  26.0496021  22.9696983
  42.7066964  25.9571310  23.8180037  42.9862038  26.0253522  22.3316999
  31.1863507  27.2680020  20.1517716  31.9804106  26.7730340  19.9500291
  30.4755200  26.7397883  19.7885422  36.0058352  29.6498115  24.5030084
  36.0595374  30.2189052  25.2707800  35.1373133  29.8200000  24.1384121
  28.8856745  19.3515672  25.9854535  29.5579799  19.1433034  25.3367184
  28.0586532  19.1537758  25.5459767  43.1346007  26.0919722  25.5029869
  43.3281897  26.9965532  25.7489143  43.0346625  25.6327141  26.3368454
  34.7882317  15.9777612  28.0020196  34.1410232  16.6767562  27.9084672
  35.5583333  16.4113756  28.3696444  38.1961115  26.2426465  31.0770749
  38.0446622  26.0137016  30.1600833  38.1865795  27.1997066  31.0902094
  34.9646452  23.8158377  26.0617016  35.8938512  23.9669537  25.8885983
  34.5437482  23.9042398  25.2065662  33.7634783  27.8409042  23.8315553
  33.6245869  27.4727826  24.7041491  32.9749380  28.3556681  23.6599511
  34.3582935  32.9418138  15.1741090  34.5334691  32.4706181  15.9886712
  33.6715723  33.5683904  15.4022350  35.3139999  27.2190644  21.2204391
  34.9789831  27.1791414  22.1162041  34.8143944  26.5535360  20.7474801
  29.2884242  22.6258275  26.7456972  29.1504040  21.8938513  27.3468511
  30.1989166  22.5367175  26.4641160  31.9166543  22.3378234  26.2340652
  32.6266162  21.6971426  26.1927270  31.8735851  22.5891129  27.1566833
  39.9053322  29.2745587  29.1547231  39.8465868  28.5904807  28.4877814
  40.3072840  30.0164577  28.7027857  30.6295477  19.3243452  28.0536291
  30.0932834  18.8734190  28.7057888  30.0412186  19.4589361  27.3106756
  28.9244021  36.0907501  21.9480950  29.1640619  36.7226025  22.6259968
  28.0813217  35.7395541  22.2346309  39.9070729  27.2385171  27.3861211
  39.0197508  26.9011093  27.5087610  40.4769280  26.5068202  27.6229976
  33.4371883  31.8986623  24.3522454  33.3642054  32.7041595  24.8641758
  32.9949276  32.0978589  23.5270475  33.2261662  31.1358393  17.8625275
  32.4429184  31.6780074  17.9563500  33.9254407  31.6532373  18.2619517
  44.3888070  22.6493388  22.1477772  44.3777946  23.5318104  21.7771705
  43.5205449  22.2964939  21.9532309  35.8970566  31.7973457  26.5080613
  36.6098538  32.4320922  26.4356514  35.4060595  31.8937323  25.6920614
  37.6188093  25.7024710  18.0797904  36.6844372  25.8226173  17.9102609
  37.7964761  24.7997177  17.8157914  41.0060644  21.5442029  18.6147938
  41.4721096  22.3770021  18.5408241  41.4568145  21.0787011  19.3193197
  30.9482480  29.5467901  27.3286183  31.6491939  30.1804384  27.4815578
  30.4777595  29.8882632  26.5681823  38.7483766  22.1012508  25.1538734
  38.0955216  22.3488416  24.4991186  39.1264145  21.2876647  24.8201211
  35.7090939  32.1372202  19.2566904  35.8913334  31.3193858  19.7194656
  36.5323925  32.3539894  18.8191794  36.0433105  31.0640387  16.5181953
  36.5720871  30.5532841  15.9052115  36.3061324  30.7482917  17.3827486
  34.7971339  22.8432319  31.6404771  34.1211976  22.7426449  32.3107146
  35.6198972  22.6871533  32.1040768  26.5450198  29.0804256  24.2617286
  27.1303634  28.3347944  24.3945190  26.3475036  29.3908213  25.1453950
  29.3988853  32.1155503  19.2779728  28.7299228  32.6001631  18.7943768
  29.2601723  32.3624724  20.1923107  33.5394121  34.1499247  25.8762387
  34.0912429  34.3130868  26.6411472  33.8800315  34.7403685  25.2042412
  27.9910887  18.5697529  30.1257306  28.6182926  18.1874607  30.7394830
  27.1338806  18.3511731  30.4912998  38.3904996  28.9760504  31.7311041
  38.9344900  29.5890463  31.2365996  37.8091841  29.5340083  32.2478054
  36.6762509  32.0981222  22.8626069  36.5513648  31.2970962  22.3537014
  37.3341600  32.5927416  22.3740039  38.7397417  29.8990243  24.4905619
  37.7927753  29.7795594  24.4183946  39.0880190  29.0112741  24.5731880
  31.0996990  15.7884381  28.3143861  31.6231392  16.0346678  29.0770170
  30.8809324  16.6204416  27.8946998  35.7443850  29.6942959  20.6909971
  35.5968813  28.7659666  20.8717541  36.5697344  29.7163049  20.2067047
  39.3477972  30.5171517  21.7774844  40.2724520  30.3114379  21.6399295
  39.1793276  30.2687919  22.6864186  32.3049536  16.7298077  25.9993531
  31.9646356  15.9305890  26.4014211  31.5988542  17.0299787  25.4270365
  34.1927100  17.9306398  24.3546850  33.9344878  18.8523468  24.3531181
  33.6612140  17.5336832  25.0447314  39.1373288  31.0357185  17.1336935
  39.3110166  30.4703607  16.3810788  39.6302180  31.8358080  16.9516425
  24.9550248  23.0471854  25.2000494  24.4103716  23.8231662  25.3320769
  25.8329598  23.3942658  25.0419616  44.9912680  23.7993608  18.7527235
  45.4343826  23.0500933  18.3546358  44.1139190  23.7903744  18.3700967
  40.1248461  30.3523949  14.2333834  40.8199366  30.9730642  14.4521148
  40.4671611  29.5019301  14.5086212  25.7416270  22.1741750  28.0930651
  24.9998006  22.3224386  28.6795282  25.4209014  22.4350016  27.2297401
  42.0239884  27.8023655  15.7621165  42.5491208  28.1410928  15.0370485
  41.9362237  26.8670670  15.5784299  33.6859933  31.7157729  27.8911041
  33.9947059  31.4706875  28.7633741  34.4835415  31.9204367  27.4029911
  33.7080545  33.8695638  20.1216418  33.2685535  33.3772017  20.8149274
  34.4588662  33.3268606  19.8808493  26.1872884  30.0607179  20.1241046
  27.0130904  29.7610951  19.7439689  25.8366936  29.2914801  20.5730834
  31.1554417  29.4133647  22.1938719  30.5334426  28.7504352  21.8940947
  31.8259284  29.4394779  21.5112367  31.2278944  17.8915435  31.7871225
  31.2767100  18.7677558  31.4048995  31.7701459  17.3492828  31.2142869
  41.7133790  28.4356558  31.0672362  40.9229334  28.4180697  30.5276862
  41.4767145  28.9744852  31.8221399  41.8331665  25.2849025  28.3805091
  41.8829670  25.1199032  29.3220614  41.7245589  24.4176284  27.9902972
  39.1235428  21.2679953  29.6964398  40.0245290  21.1286418  29.4048396
  39.1983402  21.4334408  30.6362575  33.4578233  18.6446808  28.5417584
  32.5881542  18.9380374  28.2700173  33.6937713  19.2287253  29.2624848
  43.3349862  27.7045966  28.6247113  43.0434670  28.0675947  29.4610574
  42.7221993  26.9912975  28.4460445  44.5345544  25.2698846  21.1449683
  45.3692436  25.7088650  21.3087243  44.6704673  24.7937499  20.3257929
  41.5837050  22.8278581  27.0927171  42.0591172  23.0206227  26.2846022
  40.6602616  22.8837767  26.8470554  36.1617267  14.8626425  26.0583004
  36.6799211  15.5987452  25.7329493  35.8072399  15.1690418  26.8929764
  40.2838719  19.7044341  25.3255476  41.2356142  19.8042439  25.3467700
  40.1142170  18.9122610  25.8353561  38.3053099  16.7899924  25.5114877
  37.7103031  17.0704937  24.8161366  38.0202795  17.2793825  26.2831618
  42.7626797  22.9250461  24.4397776  42.7303117  21.9866462  24.6257460
  43.3727421  23.0034498  23.7063601  42.9121286  19.7161504  24.4856059
  42.3960334  18.9319961  24.2985988  43.7961234  19.3880221  24.6502578
  48.5803347  23.9866468  23.5803813  49.3106735  23.7251756  24.1411516
  47.9710292  23.2495190  23.6205881  46.6618644  22.1274330  24.1778264
  45.9351808  21.9930295  23.5694755  46.2465931  22.4351159  24.9834982
  34.4848820  25.8464260  31.9425637  35.4051830  26.0242859  32.1365683
  34.4498403  24.9020305  31.7905336  27.4810893  23.7565295  24.5848418
  27.6996903  24.6882402  24.6036452  27.8936667  23.3973269  25.3703222
  32.3538758  19.3298500  33.9751167  32.2535485  20.2792857  33.9063258
  32.1360300  19.0016739  33.1027237  32.2170028  22.7595639  32.7916229
  31.7337110  23.5595999  32.9980118  32.3030967  22.7703584  31.8383673
  28.1443366  26.6500174  24.8284662  29.0986619  26.6184116  24.7614594
  27.9455889  26.1890798  25.6434888  28.7342748  25.2201290  27.3955460
  29.5535637  25.7145369  27.4190297  29.0079556  24.3033258  27.3673028
  41.8423880  17.6358563  20.4737755  42.6184270  18.1255016  20.7462372
  41.1172014  18.0616617  20.9309624  44.2796439  18.3486182  21.5311695
  44.8740930  18.1081918  20.8205004  44.3523023  17.6293313  22.1585232
  26.4993595  32.1919793  21.8454860  26.3648063  31.4320194  21.2792858
  26.0825657  32.9160693  21.3783649  46.5867512  21.6552383  20.3055117
  46.0267070  21.7245573  21.0786679  45.9811015  21.4793368  19.5854613
  29.6562720  33.0889110  22.0573303  29.5395105  34.0334543  21.9551993
  28.8355167  32.7862672  22.4459102  23.9877662  19.5539424  28.0947657
  24.6336526  19.0438378  28.5834882  23.7794813  20.2908105  28.6691082
  36.5131054  26.6220271  33.5939798  37.3822214  26.7960924  33.2326433
  36.0337806  27.4414688  33.4715527  30.6817235  33.7417372  25.2729231
  31.5844481  33.7740983  25.5895726  30.4554605  32.8117823  25.2875567
  32.4370837  32.4948359  21.9339310  31.4866468  32.4950220  21.8203682
  32.7403323  31.7481093  21.4175345  28.3275153  16.7007041  32.1922671
  29.1906615  16.3443846  32.4025996  27.7540564  16.3620936  32.8798076
  48.1723530  38.3308897  22.9985072  48.8101940  38.2115645  22.2948412
  48.0544373  39.2789741  23.0573024  44.9813236  38.2836325  22.9346597
  44.6431748  38.1677390  22.0467132  45.8503005  37.8827490  22.9147603
  40.8400052  40.1371802  18.9243488  40.2764917  40.0461739  18.1559776
  40.7252447  39.3171706  19.4045980  45.4633019  39.4371177  28.8932803
  45.4521660  39.0423975  28.0213306  45.6253659  38.7037250  29.4866574
  38.3864484  41.6322993  21.7627708  39.1785776  41.2913818  21.3474008
  38.6261134  41.7417968  22.6829862  46.4199611  43.8042769  14.2357953
  45.7687591  44.3896850  13.8491967  47.2143974  44.3348964  14.2952990
  40.3455238  40.8931907  14.6345087  41.1186114  40.3460894  14.4957963
  40.6980637  41.7576156  14.8459549  42.1840281  42.2208289  27.8411987
  41.8930147  43.1253920  27.7258653  42.8197265  42.2624816  28.5556056
  43.1096487  39.5985137  24.4313346  43.7060060  39.3741160  23.7170309
  43.1671459  38.8569883  25.0338794  42.6821516  37.0524573  12.2663537
  42.9347036  36.5306094  11.5047000  41.7446075  36.8890718  12.3690221
  47.7264799  36.0560351  20.0738280  48.5127888  35.6379774  19.7228697
  47.9903503  36.9606443  20.2419929  47.8974876  41.4933201  14.7726937
  47.2620709  41.5667828  15.4847842  47.5672282  42.0826800  14.0946016
  53.1273226  35.9935584  20.9771259  53.8598398  35.4234801  21.2109088
  52.3712581  35.6057185  21.4177764  42.4017805  38.9552679  14.4687912
  42.2854063  38.2797582  15.1368996  42.5120064  38.4685053  13.6520065
  44.7449345  38.4162826  18.1734601  44.3807553  37.8893447  18.8847523
  45.6016461  38.0261295  18.0001087  50.6498646  29.7057158  25.4365867
  50.3181971  30.5752569  25.2127082  50.0544259  29.3893442  26.1159898
  44.3854832  33.4452725  13.1695950  44.5529235  34.3132962  13.5366421
  44.1952002  33.6080007  12.2457239  47.1430166  41.9069704  24.8361780
  46.8430889  42.8094743  24.7277587  46.7981225  41.6401888  25.6882933
  40.5942647  38.3583501  20.8698485  39.6693144  38.2259715  21.0776176
  40.8427060  39.1377720  21.3668427  50.5427309  34.4252245  22.5159218
  49.6344187  34.3567653  22.2217978  50.4914905  34.9024189  23.3441043
  44.3644053  35.9010383  14.1542617  44.2443679  36.3467434  14.9928097
  43.6696642  36.2495701  13.5956155  37.9551458  38.0016775  21.7042274
  38.0843839  38.2551254  22.6181685  37.2748909  38.5944483  21.3846929
  42.1250945  48.6714025  17.8032748  42.0474975  49.6221850  17.8821228
  41.5212589  48.3259897  18.4607674  44.6168175  35.8441890  30.4594115
  43.8401509  36.4035810  30.4496979  45.2558738  36.3298673  30.9808985
  52.4088956  32.6268683  24.2937091  51.7663336  32.9201216  23.6476886
  51.9043884  32.5121603  25.0990288  50.0629119  36.3731856  14.9822951
  50.9746976  36.6059243  14.8070648  49.5538767  36.9568900  14.4198029
  42.8714547  38.6527343  30.0212082  43.6129232  39.1912387  29.7446905
  42.1651533  39.2793632  30.1783634  48.3469887  40.7956484  28.6184243
  48.7553243  40.3538894  27.8738876  47.6247149  40.2209111  28.8718436
  44.7000957  35.7329091  25.9917800  45.5462152  36.1568504  26.1352449
  44.6399595  35.0762715  26.6856363  48.6698702  41.3557675  22.3736532
  48.0407564  41.5203389  21.6712600  48.2824364  41.7699284  23.1447496
  52.5487934  42.2912112  19.7280896  51.8638972  42.6711014  19.1777929
  52.6331783  42.9007439  20.4612844  47.8500403  33.3933459  27.6498974
  47.6061334  34.1475520  27.1133250  48.1260333  33.7718807  28.4846221
  49.8038865  39.9372071  26.3276239  50.0155761  40.5803831  25.6510621
  49.7568614  39.1034388  25.8598170  47.4065094  32.5489892  23.2312812
  46.5449573  32.8471146  23.5229549  47.4327529  32.7660291  22.2993844
  44.2226664  41.0932083  19.6386617  44.6865009  41.3719786  18.8491240
  43.9583462  40.1915527  19.4559708  41.1150745  40.6403564  22.5766381
  41.6852102  41.0690833  21.9383865  41.7058857  40.3586149  23.2750566
  43.1595550  37.2155235  16.4476182  43.8619593  37.6676279  16.9150109
  42.8276178  36.5739054  17.0756076  41.6075911  35.8066992  30.8227392
  40.9774572  36.4883273  31.0562789  41.5011999  35.6950073  29.8780530
  36.9020884  35.4738788  21.7493316  36.1119938  35.7296316  21.2733427
  37.3932131  36.2887126  21.8545357  50.9184693  42.8144027  24.4998597
  51.7402137  42.4124214  24.2181278  50.9147096  42.7112261  25.4514713
  38.8535629  35.8383367  18.7076793  38.0566792  35.9502061  19.2260288
  38.6261221  36.1770019  17.8417683  44.6841297  42.3628070  26.6559307
  44.7485729  42.8248477  27.4917479  43.9752221  41.7325435  26.7841617
  35.1858587  35.7269278  24.1808307  35.4366625  36.6116288  24.4465883
  35.7218135  35.5473880  23.4083399  59.0090686  39.1582775  20.8483568
  58.2554395  38.5890173  20.6927573  59.1438227  39.1245440  21.7954203
  44.3989314  44.0296178  16.5238288  44.2634989  44.8747713  16.9523135
  44.9399127  44.2315455  15.7604221  40.8856654  30.1087758  33.1852643
  40.4923600  29.5553956  33.8600287  41.7022794  30.4198336  33.5759160
  37.8518712  41.5471616  17.0966213  38.3643232  42.3414866  17.2471777
  38.5041425  40.8497906  17.0299814  39.6613596  44.6637372  19.1788966
  39.8380225  45.5855337  18.9909950  40.4570430  44.3495791  19.6083346
  43.8024615  31.5245637  30.7772899  44.5434328  32.1252790  30.6977362
  44.0342538  30.7823274  30.2190942  38.9465953  36.7102004  29.0551129
  38.8319468  35.8087261  29.3558228  38.0910471  36.9565701  28.7035946
  46.0257791  44.6519744  30.6538630  45.5821645  43.8656123  30.3359534
  46.6875004  44.8398895  29.9882520  40.7844912  46.1815546  25.1799308
  41.3352337  46.0532609  24.4076302  39.9456388  46.4810435  24.8294201
  48.1239029  44.9322544  28.6820031  48.1057504  45.7531425  28.1900300
  49.0458949  44.8076619  28.9070172  44.5812083  42.4466674  29.5243539
  45.1140420  41.6854962  29.2942847  44.0526164  42.1540325  30.2667694
  47.7481778  27.5526740  25.0537181  47.4046047  28.4428381  24.9776292
  48.1160741  27.3628397  24.1906766  35.8167629  39.8760270  17.8725783
  36.6542851  40.2857278  17.6559491  35.9945896  38.9359712  17.8425977
  47.7132061  37.5435351  13.5609616  47.1978684  38.3139955  13.7998004
  47.4409369  36.8700487  14.1842678  45.2979172  32.3885051  18.6194855
  44.4420768  31.9991902  18.4400493  45.7106123  32.4677012  17.7594640
  46.8278318  29.9231395  23.0186414  46.3243114  29.8861530  22.2054220
  47.1208925  30.8324137  23.0783071  43.0721204  30.0070124  22.0252596
  43.9374201  29.8112933  21.6658486  43.1398713  29.7780476  22.9521953
  52.6866335  40.2967705  15.4962790  51.9095778  39.9578865  15.0517952
  53.3657816  40.3020328  14.8217755  47.5018364  35.4162443  15.3869397
  47.1968499  35.7308592  16.2379541  48.4548806  35.4943863  15.4296730
  45.9464796  41.5752666  17.0362351  45.4186157  40.8405426  16.7235589
  45.4452298  42.3527342  16.7902320  50.9257642  39.7701687  22.1529398
  50.2681316  40.4600948  22.2409526  51.7298041  40.1598118  22.4963384
  40.6783523  32.2372332  19.3968963  41.2527275  32.0147514  18.6642156
  41.2654506  32.3061027  20.1497564  49.7363100  38.1246059  20.2033339
  50.2494982  38.7576051  20.7055049  50.3864324  37.5247255  19.8376699
  41.0053110  34.2676793  13.4164848  40.1690423  34.6051480  13.7374123
  40.8657880  34.1325773  12.4791985  42.9806191  29.1113581  18.1244032
  42.3270603  28.7962598  17.5000647  42.9386665  28.4889322  18.8503855
  44.0917396  39.3932876  10.0397324  43.1844458  39.1622130  10.2388473
  44.5888428  38.5970496  10.2271306  46.9985475  48.1030384  12.9594011
  46.3247173  48.4062080  13.5678968  47.3851297  48.9059464  12.6099468
  46.2143931  35.5995515  22.4491680  45.2966493  35.8210462  22.2913368
  46.6304075  35.6741825  21.5903387  46.9978979  36.9986930  17.5794360
  47.7450798  37.5108328  17.2701482  47.2670569  36.6770983  18.4398754
  45.2705629  39.4945471  14.5621314  44.3616849  39.2104504  14.6593784
  45.3000713  39.9144550  13.7024621  50.5024897  43.1052061  18.3312482
  50.0487224  42.2642971  18.3877673  49.8718863  43.7413459  18.6687262
  49.4457816  34.0344047  19.5613150  48.7080573  33.5221433  19.8923392
  49.6984590  33.5944428  18.7496426  48.9457836  44.9428557  19.2662300
  49.2380810  45.5033614  18.5474666  49.4556456  45.2357118  20.0215459
  49.5469444  26.8120299  20.1554919  49.8528320  25.9517662  19.8680834
  50.2722048  27.4037919  19.9553913  35.8393800  37.2150985  18.5436517
  35.6418199  36.6220346  17.8187583  35.2840464  36.9103195  19.2612455
  43.8190523  37.1074092  20.6631110  43.8739133  36.1547928  20.5873586
  43.0081725  37.2633531  21.1472408  44.9681717  41.0354215  11.9009393
  44.5301147  40.3190074  11.4415030  45.7092158  41.2630330  11.3394484
  41.7582883  35.7251152  18.4221489  40.9450749  36.0245322  18.8286681
  42.2541877  35.3306840  19.1395971  43.9091461  45.7208908  20.3555753
  43.8667640  45.9469755  19.4264285  44.8254160  45.4872283  20.5041555
  47.3557095  36.1892976  27.2536383  47.7106483  36.4164449  28.1130848
  48.0029226  36.5211353  26.6313638  53.0854832  39.3111412  17.9585712
  52.9472730  39.5013008  17.0306901  52.7291051  40.0730795  18.4153763
  41.2496958  33.2969507  24.0382724  41.8896337  33.1558266  23.3405687
  40.4174489  33.0104020  23.6621326  53.1124211  41.3787939  22.9696983
  53.5460718  41.2863228  23.8180037  53.8255792  41.3545439  22.3316999
  42.0257262  42.5971937  20.1517716  42.8197860  42.1022258  19.9500291
  41.3148954  42.0689801  19.7885422  46.8452106  44.9790033  24.5030084
  46.8989129  45.5480969  25.2707800  45.9766888  45.1491918  24.1384121
  38.3340025  36.7415019  16.2277469  37.4037613  36.6799475  16.4447431
  38.4297497  36.2190972  15.4314110  38.2525574  33.2669832  18.8155710
  38.5132392  34.1815165  18.7064871  39.0742747  32.7994275  18.9652323
  39.7250500  34.6807589  25.9854535  40.3973553  34.4724951  25.3367184
  38.8980286  34.4829675  25.5459767  53.9739761  41.4211640  25.5029869
  54.1675651  42.3257450  25.7489143  53.8740379  40.9619059  26.3368454
  45.6276072  31.3069530  28.0020196  44.9803987  32.0059480  27.9084672
  46.3977087  31.7405674  28.3696444  49.0354870  41.5718382  31.0770749
  48.8840376  41.3428934  30.1600833  49.0259549  42.5288984  31.0902094
  45.8040206  39.1450295  26.0617016  46.7332266  39.2961455  25.8885983
  45.3831236  39.2334316  25.2065662  44.6028538  43.1700959  23.8315553
  44.4639624  42.8019744  24.7041491  43.8143134  43.6848599  23.6599511
  45.1976690  48.2710056  15.1741090  45.3728446  47.7998099  15.9886712
  44.5109478  48.8975822  15.4022350  46.1533753  42.5482562  21.2204391
  45.8183586  42.5083332  22.1162041  45.6537699  41.8827278  20.7474801
  40.1277997  37.9550192  26.7456972  39.9897795  37.2230431  27.3468511
  41.0382920  37.8659092  26.4641160  49.0892945  39.8938596  11.4941451
  48.4722115  39.1685425  11.3974503  48.6209433  40.6547957  11.1508525
  42.7560298  37.6670152  26.2340652  43.4659916  37.0263344  26.1927270
  42.7129606  37.9183046  27.1566833  50.7447076  44.6037505  29.1547231
  50.6859622  43.9196725  28.4877814  51.1466595  45.3456495  28.7027857
  41.4689232  34.6535369  28.0536291  40.9326589  34.2026108  28.7057888
  40.8805940  34.7881278  27.3106756  39.7637775  51.4199419  21.9480950
  40.0034373  52.0517943  22.6259968  38.9206972  51.0687459  22.2346309
  50.7464484  42.5677089  27.3861211  49.8591262  42.2303011  27.5087610
  51.3163035  41.8360120  27.6229976  32.3993631  38.9001181  20.7104262
  33.0864671  38.5862911  20.1225277  32.2441759  39.8042545  20.4371513
  37.2028353  33.7891377  25.1389286  37.1186542  33.1817047  24.4039696
  36.3811059  34.2800395  25.1398782  44.2765637  47.2278541  24.3522454
  44.2035808  48.0333513  24.8641758  43.8343030  47.4270507  23.5270475
  44.0655417  46.4650311  17.8625275  43.2822939  47.0071991  17.9563500
  44.7648162  46.9824291  18.2619517  47.3752067  32.2744941  20.5059481
  47.8720766  31.5214903  20.1860551  46.6039048  32.3109257  19.9402690
  55.2281824  37.9785306  22.1477772  55.2171700  38.8610022  21.7771705
  54.3599204  37.6256857  21.9532309  46.7364321  47.1265375  26.5080613
  47.4492293  47.7612840  26.4356514  46.2454349  47.2229241  25.6920614
  48.4581847  41.0316628  18.0797904  47.5238126  41.1518090  17.9102609
  48.6358516  40.1289095  17.8157914  43.9587035  34.4162324  20.2331165
  43.5884823  33.8633364  20.9212071  44.4546128  33.8120457  19.6806165
  51.8454399  36.8733947  18.6147938  52.3114851  37.7061939  18.5408241
  52.2961899  36.4078929  19.3193197  41.7876234  44.8759819  27.3286183
  42.4885694  45.5096302  27.4815578  41.3171349  45.2174550  26.5681823
  49.9130630  43.2177768  15.6134090  50.1890474  43.1034363  16.5227964
  49.0435129  42.8195253  15.5746263  49.8171062  29.2414534  22.6538840
  48.9034141  29.4718761  22.8221047  50.2464163  29.3252978  23.5052872
  49.5877520  37.4304426  25.1538734  48.9348970  37.6780334  24.4991186
  49.9657900  36.6168564  24.8201211  46.5484694  47.4664119  19.2566904
  46.7307088  46.6485775  19.7194656  47.3717680  47.6831812  18.8191794
  46.8826859  46.3932304  16.5181953  47.4114626  45.8824759  15.9052115
  47.1455079  46.0774835  17.3827486  45.6365093  38.1724237  31.6404771
  44.9605730  38.0718366  32.3107146  46.4592727  38.0163451  32.1040768
  37.3843952  44.4096174  24.2617286  37.9697389  43.6639862  24.3945190
  37.1868791  44.7200130  25.1453950  40.2382607  47.4447421  19.2779728
  39.5692983  47.9293549  18.7943768  40.0995477  47.6916642  20.1923107
  31.9761607  36.9801774  22.9821729  32.0145706  36.4465365  23.7758847
  31.4701900  36.4536979  22.3632706  44.3787876  49.4791165  25.8762387
  44.9306184  49.6422786  26.6411472  44.7194069  50.0695602  25.2042412
  39.3552369  31.8266314  26.4784272  39.4193696  32.6881145  26.0661669
  39.2919489  31.2140316  25.7456630  38.8304642  33.8989447  30.1257306
  39.4576680  33.5166524  30.7394830  37.9732561  33.6803649  30.4912998
  49.2298750  44.3052422  31.7311041  49.7738654  44.9182380  31.2365996
  48.6485595  44.8632001  32.2478054  35.6070184  35.7065876  16.0575661
  35.9023626  34.7976554  16.0042714  34.7058220  35.6853615  15.7356663
  47.5156263  47.4273140  22.8626069  47.3907403  46.6262880  22.3537014
  48.1735354  47.9219333  22.3740039  39.1364431  33.7821873  22.0403209
  38.4151017  34.3957840  21.9010682  39.9257687  34.3179637  21.9619855
  49.5791172  45.2282160  24.4905619  48.6321507  45.1087511  24.4183946
  49.9273945  44.3404658  24.5731880  41.9390745  31.1176299  28.3143861
  42.4625147  31.3638596  29.0770170  41.7203078  31.9496334  27.8946998
  37.3358026  33.3879974  16.1814986  37.0070732  32.5077353  15.9990092
  37.6897397  33.3327642  17.0691375  46.5837605  45.0234876  20.6909971
  46.4362567  44.0951584  20.8717541  47.4091098  45.0454967  20.2067047
  40.4499849  33.6752943  16.5490463  40.7895922  34.2038865  15.8269072
  40.8971970  34.0133350  17.3249030  50.1871727  45.8463435  21.7774844
  51.1118274  45.6406296  21.6399295  50.0187030  45.5979836  22.6864186
  43.1443290  32.0589994  25.9993531  42.8040110  31.2597807  26.4014211
  42.4382296  32.3591705  25.4270365  43.7959762  29.1439307  24.4520854
  44.6185831  28.6699785  24.3299745  44.0397825  29.9229790  24.9519541
  42.4367996  32.1727565  14.7483756  43.1576359  32.5508818  14.2447473
  41.8133300  32.8916442  14.8518734  46.5799119  32.8772714  15.6842089
  46.7962734  33.7597352  15.3830917  46.0993186  32.4858927  14.9547731
  41.3198341  35.8358427  22.2612833  41.1742921  36.1498730  23.1537115
  40.8423544  36.4543328  21.7083732  43.1794723  32.8260975  22.3093723
  43.1656292  31.9302069  21.9726021  43.8967152  32.8331639  22.9432009
  45.0320854  33.2598315  24.3546850  44.7738632  34.1815386  24.3531181
  44.5005895  32.8628750  25.0447314  49.9767043  46.3649103  17.1336935
  50.1503920  45.7995525  16.3810788  50.4695934  47.1649997  16.9516425
  35.7944003  38.3763772  25.2000494  35.2497471  39.1523580  25.3320769
  36.6723353  38.7234576  25.0419616  42.5831619  31.7075356  17.5781293
  42.7047531  30.7792002  17.7772180  42.2933662  31.7214042  16.6659608
  45.4522810  29.3930266  20.7148013  45.4744507  29.4569599  19.7599992
  45.8690869  28.5534775  20.9088519  55.8306434  39.1285526  18.7527235
  56.2737580  38.3792851  18.3546358  54.9532944  39.1195662  18.3700967
  50.9642215  45.6815867  14.2333834  51.6593120  46.3022560  14.4521148
  51.3065366  44.8311218  14.5086212  36.5810025  37.5033668  28.0930651
  35.8391761  37.6516303  28.6795282  36.2602769  37.7641934  27.2297401
  52.8633639  43.1315573  15.7621165  53.3884963  43.4702845  15.0370485
  52.7755991  42.1962588  15.5784299  44.5253687  47.0449646  27.8911041
  44.8340814  46.7998793  28.7633741  45.3229169  47.2496285  27.4029911
  44.5474299  49.1987556  20.1216418  44.1079290  48.7063935  20.8149274
  45.2982416  48.6560523  19.8808493  37.0266638  45.3899097  20.1241046
  37.8524658  45.0902869  19.7439689  36.6760690  44.6206719  20.5730834
  41.9948171  44.7425565  22.1938719  41.3728181  44.0796270  21.8940947
  42.6653038  44.7686697  21.5112367  35.2275243  43.3085423  21.0829979
  34.3907152  42.8807597  20.9013981  35.1998889  43.5017866  22.0200771
  42.0672699  33.2207353  31.7871225  42.1160854  34.0969476  31.4048995
  42.6095213  32.6784746  31.2142869  52.5527545  43.7648476  31.0672362
  51.7623088  43.7472615  30.5276862  52.3160899  44.3036770  31.8221399
  52.6725420  40.6140943  28.3805091  52.7223425  40.4490950  29.3220614
  52.5639343  39.7468202  27.9902972  41.5561678  43.2929488  15.6697180
  41.7049799  43.9764953  15.0163853  42.3628122  43.2734578  16.1846636
  49.9629182  36.5971871  29.6964398  50.8639045  36.4578335  29.4048396
  50.0377157  36.7626325  30.6362575  44.2971987  33.9738725  28.5417584
  43.4275297  34.2672291  28.2700173  44.5331468  34.5579170  29.2624848
  54.1743616  43.0337884  28.6247113  53.8828425  43.3967865  29.4610574
  53.5615748  42.3204892  28.4460445  55.3739299  40.5990764  21.1449683
  56.2086190  41.0380568  21.3087243  55.5098428  40.1229417  20.3257929
  52.4230805  38.1570499  27.0927171  52.8984926  38.3498145  26.2846022
  51.4996370  38.2129685  26.8470554  39.3114311  39.3194666  16.6758249
  39.0660353  38.4156996  16.8738459  39.4810226  39.3211816  15.7337727
  47.0011021  30.1918342  26.0583004  47.5192965  30.9279369  25.7329493
  46.6466154  30.4982336  26.8929764  38.5809959  35.0523023  14.1744410
  37.8879204  35.1267378  13.5184446  38.3361711  34.2883367  14.6965927
  47.2523615  26.6118625  21.5783901  47.5325369  25.9441814  22.2044328
  48.0374222  26.8047720  21.0658565  45.0557084  45.7877619  13.1408927
  44.4831051  46.4067806  12.6879399  45.6289878  46.3376980  13.6748849
  51.1232474  35.0336259  25.3255476  52.0749897  35.1334356  25.3467700
  50.9535924  34.2414527  25.8353561  49.1446853  32.1191842  25.5114877
  48.5496785  32.3996855  24.8161366  48.8596550  32.6085743  26.2831618
  48.2754344  46.0714769  14.2717510  49.2085017  46.0060330  14.4750385
  48.1877556  46.9071036  13.8132042  50.9042360  45.3880639  11.2321457
  50.8255992  45.0540503  12.1257215  51.7252027  45.8802407  11.2312930
  53.6020552  38.2542378  24.4397776  53.5696872  37.3158379  24.6257460
  54.2121175  38.3326415  23.7063601  45.4403882  37.1238431  10.4824980
  46.3862987  36.9944640  10.5513398  45.0618127  36.3853093  10.9594408
  53.7515040  35.0453422  24.4856059  53.2354089  34.2611879  24.2985988
  54.6354989  34.7172139  24.6502578  51.4125767  28.7894437  20.4451872
  51.2150588  28.4809526  21.3295204  52.0225472  29.5156076  20.5749802
  59.4197101  39.3158385  23.5803813  60.1500490  39.0543673  24.1411516
  58.8104047  38.5787107  23.6205881  57.5012398  37.4566248  24.1778264
  56.7745562  37.3222213  23.5694755  57.0859685  37.7643077  24.9834982
  45.3242575  41.1756178  31.9425637  46.2445584  41.3534777  32.1365683
  45.2892158  40.2312223  31.7905336  43.6246800  35.0488408  10.4179865
  42.7178255  34.7521521  10.4942579  43.9022781  34.7518226   9.5514151
  34.5424740  36.3694771  20.8678911  34.2227524  35.5160079  20.5753285
  33.9958168  36.5843349  21.6236879  38.3204647  39.0857212  24.5848418
  38.5390657  40.0174320  24.6036452  38.7330421  38.7265187  25.3703222
  45.2408865  29.5925298  16.5724106  44.4309594  29.2472383  16.9479352
  45.9293282  29.2832841  17.1611718  47.1699414  28.6703344  18.1948403
  47.7230452  29.0898798  18.8538426  47.4069500  27.7439092  18.2371359
  43.1932513  34.6590418  33.9751167  43.0929240  35.6084775  33.9063258
  42.9754055  34.3308657  33.1027237  34.4113000  39.9897683  22.8372033
  33.7176471  39.5751636  22.3241987  35.1585991  40.0318219  22.2405452
  50.5478221  30.7803870  17.7027067  49.9676890  31.4388674  17.3205120
  50.2814153  29.9581214  17.2914485  48.9981787  30.1808927  19.9048388
  49.4981565  30.2925462  19.0962706  49.6417395  29.8769980  20.5449196
  43.0563783  38.0887557  32.7916229  42.5730865  38.8887917  32.9980118
  43.1424722  38.0995502  31.8383673  36.3249742  39.9215937  20.7138048
  36.3020431  40.0203624  19.7619931  36.6350379  40.7681087  21.0355214
  38.9837120  41.9792092  24.8284662  39.9380374  41.9476034  24.7614594
  38.7849644  41.5182715  25.6434888  39.5736502  40.5493208  27.3955460
  40.3929391  41.0437286  27.4190297  39.8473310  39.6325176  27.3673028
  49.3303099  32.9403960  16.7583416  48.4428954  33.2253611  16.5403610
  49.7457088  32.7797723  15.9110692  52.6817635  32.9650481  20.4737755
  53.4578025  33.4546933  20.7462372  51.9565769  33.3908535  20.9309624
  55.1190193  33.6778100  21.5311695  55.7134684  33.4373836  20.8205004
  55.1916777  32.9585231  22.1585232  37.3387349  47.5211711  21.8454860
  37.2041817  46.7612112  21.2792858  36.9219411  48.2452611  21.3783649
  48.4746312  42.7048635  10.8531436  49.1782162  42.9098637  11.4689091
  47.7508961  43.2725396  11.1180519  49.3044122  38.4558496  16.9733706
  49.2479324  38.9127047  16.1341338  49.8572465  37.6949180  16.7956548
  53.1148928  34.2448228  17.7983825  52.8585863  33.8444863  18.6292033
  52.4901796  34.9592022  17.6733964  57.4261266  36.9844301  20.3055117
  56.8660824  37.0537490  21.0786679  56.8204770  36.8085286  19.5854613
  40.4956475  48.4181028  22.0573303  40.3788859  49.3626461  21.9551993
  39.6748921  48.1154590  22.4459102  50.3833010  43.1431164  12.9029896
  51.2178613  42.7112362  12.7207370  50.2217352  42.9713177  13.8306790
  50.0378902  39.6463277  14.2686235  49.9827705  39.4807549  13.3274679
  49.4124957  40.3539310  14.4248425  34.8271417  34.8831341  28.0947657
  35.4730280  34.3730295  28.5834882  34.6188568  35.6200023  28.6691082
  47.3524809  41.9512189  33.5939798  48.2215969  42.1252841  33.2326433
  46.8731560  42.7706606  33.4715527  43.3475027  29.1471386  13.8471553
  43.3353697  30.0913226  14.0039824  44.2398449  28.9641531  13.5531014
  41.5210989  49.0709290  25.2729231  42.4238236  49.1032900  25.5895726
  41.2948359  48.1409741  25.2875567  43.2764591  47.8240276  21.9339310
  42.3260222  47.8242138  21.8203682  43.5797077  47.0773011  21.4175345
  47.1627147  25.7414163  18.1017490  46.3959542  25.1872649  18.2474172
  47.5737852  25.8136031  18.9631642  39.1668908  32.0298959  32.1922671
  40.0300369  31.6735763  32.4025996  38.5934318  31.6912853  32.8798076
  59.0117285  53.6600815  22.9985072  59.6495695  53.5407562  22.2948412
  58.8938127  54.6081659  23.0573024  55.8206991  53.6128243  22.9346597
  55.4825502  53.4969308  22.0467132  56.6896759  53.2119408  22.9147603
  51.6793807  55.4663719  18.9243488  51.1158672  55.3753656  18.1559776
  51.5646202  54.6463624  19.4045980  56.3026774  54.7663095  28.8932803
  56.2915415  54.3715893  28.0213306  56.4647413  54.0329167  29.4866574
  49.2258239  56.9614911  21.7627708  50.0179530  56.6205736  21.3474008
  49.4654889  57.0709886  22.6829862  57.2593365  59.1334687  14.2357953
  56.6081345  59.7188768  13.8491967  58.0537728  59.6640882  14.2952990
  51.1848992  56.2223824  14.6345087  51.9579868  55.6752811  14.4957963
  51.5374391  57.0868074  14.8459549  53.0234035  57.5500207  27.8411987
  52.7323901  58.4545837  27.7258653  53.6591019  57.5916734  28.5556056
  53.9490242  54.9277055  24.4313346  54.5453814  54.7033077  23.7170309
  54.0065213  54.1861801  25.0338794  53.5215270  52.3816490  12.2663537
  53.7740791  51.8598012  11.5047000  52.5839829  52.2182636  12.3690221
  58.5658553  51.3852269  20.0738280  59.3521642  50.9671692  19.7228697
  58.8297257  52.2898361  20.2419929  58.7368630  56.8225119  14.7726937
  58.1014463  56.8959746  15.4847842  58.4066037  57.4118718  14.0946016
  63.9666980  51.3227502  20.9771259  64.6992152  50.7526719  21.2109088
  63.2106336  50.9349102  21.4177764  53.2411559  54.2844596  14.4687912
  53.1247817  53.6089500  15.1368996  53.3513819  53.7976970  13.6520065
  55.5843100  53.7454743  18.1734601  55.2201307  53.2185364  18.8847523
  56.4410216  53.3553212  18.0001087  61.4892401  45.0349076  25.4365867
  61.1575725  45.9044487  25.2127082  60.8938014  44.7185360  26.1159898
  55.2248587  48.7744643  13.1695950  55.3922989  49.6424880  13.5366421
  55.0345756  48.9371925  12.2457239  57.9823920  57.2361622  24.8361780
  57.6824643  58.1386661  24.7277587  57.6374980  56.9693805  25.6882933
  51.4336402  53.6875419  20.8698485  50.5086898  53.5551633  21.0776176
  51.6820815  54.4669638  21.3668427  61.3821064  49.7544162  22.5159218
  60.4737941  49.6859571  22.2217978  61.3308660  50.2316107  23.3441043
  55.2037808  51.2302301  14.1542617  55.0837433  51.6759351  14.9928097
  54.5090396  51.5787618  13.5956155  48.7945213  53.3308692  21.7042274
  48.9237594  53.5843171  22.6181685  48.1142664  53.9236400  21.3846929
  52.9644700  64.0005942  17.8032748  52.8868730  64.9513767  17.8821228
  52.3606343  63.6551815  18.4607674  55.4561930  51.1733808  30.4594115
  54.6795264  51.7327728  30.4496979  56.0952493  51.6590591  30.9808985
  63.2482710  47.9560601  24.2937091  62.6057091  48.2493134  23.6476886
  62.7437639  47.8413521  25.0990288  60.9022874  51.7023774  14.9822951
  61.8140730  51.9351161  14.8070648  60.3932521  52.2860818  14.4198029
  53.7108302  53.9819261  30.0212082  54.4522986  54.5204305  29.7446905
  53.0045287  54.6085550  30.1783634  59.1863642  56.1248402  28.6184243
  59.5946998  55.6830812  27.8738876  58.4640903  55.5501029  28.8718436
  55.5394712  51.0621008  25.9917800  56.3855907  51.4860422  26.1352449
  55.4793349  50.4054633  26.6856363  59.5092456  56.6849592  22.3736532
  58.8801319  56.8495306  21.6712600  59.1218118  57.0991202  23.1447496
  63.3881688  57.6204030  19.7280896  62.7032726  58.0002931  19.1777929
  63.4725537  58.2299357  20.4612844  58.6894157  48.7225377  27.6498974
  58.4455089  49.4767437  27.1133250  58.9654088  49.1010724  28.4846221
  60.6432620  55.2663989  26.3276239  60.8549515  55.9095749  25.6510621
  60.5962368  54.4326306  25.8598170  58.2458849  47.8781810  23.2312812
  57.3843328  48.1763063  23.5229549  58.2721283  48.0952209  22.2993844
  55.0620418  56.4224000  19.6386617  55.5258764  56.7011703  18.8491240
  54.7977216  55.5207445  19.4559708  51.9544499  55.9695482  22.5766381
  52.5245856  56.3982750  21.9383865  52.5452611  55.6878067  23.2750566
  53.9989304  52.5447153  16.4476182  54.7013348  52.9968196  16.9150109
  53.6669933  51.9030972  17.0756076  52.4469666  51.1358909  30.8227392
  51.8168326  51.8175190  31.0562789  52.3405754  51.0241991  29.8780530
  47.7414638  50.8030705  21.7493316  46.9513692  51.0588234  21.2733427
  48.2325886  51.6179043  21.8545357  61.7578448  58.1435945  24.4998597
  62.5795891  57.7416132  24.2181278  61.7540851  58.0404179  25.4514713
  49.6929384  51.1675285  18.7076793  48.8960547  51.2793979  19.2260288
  49.4654976  51.5061937  17.8417683  55.5235051  57.6919988  26.6559307
  55.5879484  58.1540395  27.4917479  54.8145975  57.0617353  26.7841617
  46.0252341  51.0561196  24.1808307  46.2760380  51.9408206  24.4465883
  46.5611890  50.8765797  23.4083399  69.8484441  54.4874693  20.8483568
  69.0948149  53.9182091  20.6927573  69.9831982  54.4537358  21.7954203
  55.2383069  59.3588095  16.5238288  55.1028744  60.2039631  16.9523135
  55.7792881  59.5607373  15.7604221  51.7250408  45.4379675  33.1852643
  51.3317354  44.8845874  33.8600287  52.5416549  45.7490254  33.5759160
  48.6912466  56.8763533  17.0966213  49.2036987  57.6706784  17.2471777
  49.3435179  56.1789824  17.0299814  50.5007351  59.9929290  19.1788966
  50.6773979  60.9147254  18.9909950  51.2964184  59.6787709  19.6083346
  54.6418369  46.8537554  30.7772899  55.3828083  47.4544707  30.6977362
  54.8736292  46.1115192  30.2190942  49.7859707  52.0393922  29.0551129
  49.6713223  51.1379179  29.3558228  48.9304225  52.2857618  28.7035946
  56.8651545  59.9811662  30.6538630  56.4215399  59.1948040  30.3359534
  57.5268759  60.1690812  29.9882520  51.6238666  61.5107463  25.1799308
  52.1746091  61.3824527  24.4076302  50.7850142  61.8102352  24.8294201
  58.9632783  60.2614462  28.6820031  58.9451259  61.0823343  28.1900300
  59.8852703  60.1368537  28.9070172  55.4205837  57.7758591  29.5243539
  55.9534174  57.0146879  29.2942847  54.8919919  57.4832243  30.2667694
  58.5875532  42.8818657  25.0537181  58.2439802  43.7720299  24.9776292
  58.9554495  42.6920315  24.1906766  46.6561383  55.2052188  17.8725783
  47.4936605  55.6149196  17.6559491  46.8339651  54.2651630  17.8425977
  58.5525815  52.8727268  13.5609616  58.0372439  53.6431873  13.7998004
  58.2803124  52.1992404  14.1842678  56.1372926  47.7176969  18.6194855
  55.2814522  47.3283819  18.4400493  56.5499878  47.7968930  17.7594640
  57.6672073  45.2523312  23.0186414  57.1636868  45.2153448  22.2054220
  57.9602680  46.1616055  23.0783071  53.9114959  45.3362042  22.0252596
  54.7767955  45.1404851  21.6658486  53.9792468  45.1072394  22.9521953
  63.5260089  55.6259623  15.4962790  62.7489532  55.2870782  15.0517952
  64.2051570  55.6312246  14.8217755  58.3412118  50.7454360  15.3869397
  58.0362254  51.0600510  16.2379541  59.2942560  50.8235780  15.4296730
  56.7858550  56.9044584  17.0362351  56.2579912  56.1697343  16.7235589
  56.2846053  57.6819260  16.7902320  61.7651396  55.0993604  22.1529398
  61.1075071  55.7892866  22.2409526  62.5691795  55.4890036  22.4963384
  51.5177278  47.5664250  19.3968963  52.0921030  47.3439432  18.6642156
  52.1048260  47.6352945  20.1497564  60.5756855  53.4537977  20.2033339
  61.0888737  54.0867969  20.7055049  61.2258079  52.8539172  19.8376699
  51.8446865  49.5968711  13.4164848  51.0084177  49.9343398  13.7374123
  51.7051634  49.4617691  12.4791985  53.8199945  44.4405499  18.1244032
  53.1664358  44.1254516  17.5000647  53.7780420  43.8181239  18.8503855
  54.9311150  54.7224794  10.0397324  54.0238212  54.4914047  10.2388473
  55.4282182  53.9262413  10.2271306  57.8379229  63.4322301  12.9594011
  57.1640928  63.7353998  13.5678968  58.2245051  64.2351382  12.6099468
  57.0537686  50.9287432  22.4491680  56.1360247  51.1502379  22.2913368
  57.4697829  51.0033743  21.5903387  57.8372734  52.3278848  17.5794360
  58.5844553  52.8400245  17.2701482  58.1064323  52.0062901  18.4398754
  56.1099384  54.8237389  14.5621314  55.2010603  54.5396422  14.6593784
  56.1394468  55.2436467  13.7024621  61.3418651  58.4343978  18.3312482
  60.8880978  57.5934888  18.3877673  60.7112618  59.0705377  18.6687262
  60.2851571  49.3635964  19.5613150  59.5474328  48.8513351  19.8923392
  60.5378344  48.9236346  18.7496426  59.7851590  60.2720475  19.2662300
  60.0774565  60.8325532  18.5474666  60.2950211  60.5649036  20.0215459
  60.3863198  42.1412216  20.1554919  60.6922075  41.2809580  19.8680834
  61.1115803  42.7329837  19.9553913  46.6787554  52.5442903  18.5436517
  46.4811954  51.9512264  17.8187583  46.1234218  52.2395113  19.2612455
  54.6584278  52.4366009  20.6631110  54.7132888  51.4839846  20.5873586
  53.8475480  52.5925449  21.1472408  55.8075472  56.3646133  11.9009393
  55.3694901  55.6481991  11.4415030  56.5485912  56.5922247  11.3394484
  52.5976638  51.0543069  18.4221489  51.7844503  51.3537240  18.8286681
  53.0935632  50.6598758  19.1395971  54.7485216  61.0500826  20.3555753
  54.7061394  61.2761672  19.4264285  55.6647914  60.8164201  20.5041555
  58.1950849  51.5184894  27.2536383  58.5500237  51.7456367  28.1130848
  58.8422981  51.8503270  26.6313638  63.9248586  54.6403330  17.9585712
  63.7866485  54.8304926  17.0306901  63.5684805  55.4022712  18.4153763
  52.0890712  48.6261425  24.0382724  52.7290092  48.4850184  23.3405687
  51.2568243  48.3395938  23.6621326  63.9517966  56.7079857  22.9696983
  64.3854473  56.6155146  23.8180037  64.6649547  56.6837357  22.3316999
  52.8651016  57.9263855  20.1517716  53.6591615  57.4314175  19.9500291
  52.1542709  57.3981718  19.7885422  57.6845861  60.3081951  24.5030084
  57.7382883  60.8772887  25.2707800  56.8160642  60.4783836  24.1384121
  49.1733780  52.0706937  16.2277469  48.2431368  52.0091392  16.4447431
  49.2691252  51.5482890  15.4314110  49.0919329  48.5961750  18.8155710
  49.3526146  49.5107083  18.7064871  49.9136501  48.1286192  18.9652323
  50.5644254  50.0099507  25.9854535  51.2367308  49.8016869  25.3367184
  49.7374041  49.8121593  25.5459767  64.8133516  56.7503557  25.5029869
  65.0069406  57.6549368  25.7489143  64.7134134  56.2910976  26.3368454
  56.4669826  46.6361448  28.0020196  55.8197741  47.3351397  27.9084672
  57.2370842  47.0697592  28.3696444  59.8748624  56.9010300  31.0770749
  59.7234131  56.6720852  30.1600833  59.8653304  57.8580901  31.0902094
  56.6433961  54.4742213  26.0617016  57.5726021  54.6253372  25.8885983
  56.2224991  54.5626234  25.2065662  55.4422292  58.4992877  23.8315553
  55.3033378  58.1311662  24.7041491  54.6536889  59.0140517  23.6599511
  56.0370444  63.6001974  15.1741090  56.2122200  63.1290017  15.9886712
  55.3503232  64.2267740  15.4022350  56.9927508  57.8774480  21.2204391
  56.6577340  57.8375250  22.1162041  56.4931453  57.2119196  20.7474801
  50.9671751  53.2842110  26.7456972  50.8291549  52.5522349  27.3468511
  51.8776675  53.1951010  26.4641160  59.9286699  55.2230514  11.4941451
  59.3115870  54.4977342  11.3974503  59.4603188  55.9839874  11.1508525
  53.5954052  52.9962069  26.2340652  54.3053671  52.3555261  26.1927270
  53.5523360  53.2474964  27.1566833  61.5840831  59.9329423  29.1547231
  61.5253377  59.2488643  28.4877814  61.9860349  60.6748413  28.7027857
  52.3082986  49.9827287  28.0536291  51.7720343  49.5318026  28.7057888
  51.7199695  50.1173196  27.3106756  50.6031530  66.7491336  21.9480950
  50.8428128  67.3809861  22.6259968  49.7600726  66.3979376  22.2346309
  51.7185245  49.4415938  10.6162755  50.8414711  49.3204739  10.2525002
  52.1942998  48.6502017  10.3641644  61.5858238  57.8969006  27.3861211
  60.6985017  57.5594928  27.5087610  62.1556789  57.1652038  27.6229976
  43.2387385  54.2293098  20.7104262  43.9258425  53.9154828  20.1225277
  43.0835514  55.1334463  20.4371513  48.0422107  49.1183295  25.1389286
  47.9580296  48.5108964  24.4039696  47.2204814  49.6092313  25.1398782
  55.1159391  62.5570459  24.3522454  55.0429563  63.3625430  24.8641758
  54.6736785  62.7562425  23.5270475  54.9049171  61.7942229  17.8625275
  54.1216693  62.3363909  17.9563500  55.6041916  62.3116208  18.2619517
  58.2145821  47.6036858  20.5059481  58.7114521  46.8506821  20.1860551
  57.4432803  47.6401175  19.9402690  66.0675579  53.3077224  22.1477772
  66.0565455  54.1901939  21.7771705  65.1992958  52.9548775  21.9532309
  57.5758075  62.4557293  26.5080613  58.2886047  63.0904758  26.4356514
  57.0848104  62.5521159  25.6920614  59.2975602  56.3608546  18.0797904
  58.3631881  56.4810008  17.9102609  59.4752270  55.4581012  17.8157914
  54.7980790  49.7454241  20.2331165  54.4278577  49.1925282  20.9212071
  55.2939882  49.1412375  19.6806165  62.6848153  52.2025865  18.6147938
  63.1508605  53.0353856  18.5408241  63.1355654  51.7370846  19.3193197
  52.6269989  60.2051736  27.3286183  53.3279448  60.8388219  27.4815578
  52.1565104  60.5466468  26.5681823  60.7524384  58.5469686  15.6134090
  61.0284228  58.4326281  16.5227964  59.8828883  58.1487171  15.5746263
  60.6564816  44.5706452  22.6538840  59.7427896  44.8010679  22.8221047
  61.0857917  44.6544896  23.5052872  60.4271275  52.7596344  25.1538734
  59.7742725  53.0072251  24.4991186  60.8051654  51.9460482  24.8201211
  57.3878448  62.7956037  19.2566904  57.5700843  61.9777693  19.7194656
  58.2111434  63.0123729  18.8191794  57.7220614  61.7224222  16.5181953
  58.2508380  61.2116677  15.9052115  57.9848833  61.4066752  17.3827486
  56.4758848  53.5016155  31.6404771  55.7999485  53.4010284  32.3107146
  57.2986481  53.3455369  32.1040768  48.2237707  59.7388091  24.2617286
  48.8091143  58.9931779  24.3945190  48.0262545  60.0492048  25.1453950
  51.0776362  62.7739339  19.2779728  50.4086737  63.2585466  18.7943768
  50.9389232  63.0208559  20.1923107  42.8155361  52.3093692  22.9821729
  42.8539461  51.7757282  23.7758847  42.3095654  51.7828897  22.3632706
  55.2181630  64.8083082  25.8762387  55.7699938  64.9714704  26.6411472
  55.5587824  65.3987520  25.2042412  50.1946124  47.1558232  26.4784272
  50.2587450  48.0173063  26.0661669  50.1313244  46.5432234  25.7456630
  49.6698396  49.2281365  30.1257306  50.2970435  48.8458442  30.7394830
  48.8126315  49.0095567  30.4912998  60.0692505  59.6344340  31.7311041
  60.6132409  60.2474298  31.2365996  59.4879350  60.1923918  32.2478054
  46.4463939  51.0357794  16.0575661  46.7417380  50.1268472  16.0042714
  45.5451975  51.0145533  15.7356663  58.3550018  62.7565058  22.8626069
  58.2301157  61.9554798  22.3537014  59.0129109  63.2511251  22.3740039
  49.9758186  49.1113790  22.0403209  49.2544772  49.7249758  21.9010682
  50.7651442  49.6471555  21.9619855  60.4184926  60.5574078  24.4905619
  59.4715262  60.4379429  24.4183946  60.7667699  59.6696576  24.5731880
  52.7784499  46.4468217  28.3143861  53.3018901  46.6930513  29.0770170
  52.5596833  47.2788252  27.8946998  48.1751781  48.7171891  16.1814986
  47.8464487  47.8369270  15.9990092  48.5291151  48.6619560  17.0691375
  57.4231359  60.3526794  20.6909971  57.2756322  59.4243502  20.8717541
  58.2484853  60.3746885  20.2067047  51.2893604  49.0044861  16.5490463
  51.6289676  49.5330782  15.8269072  51.7365724  49.3425267  17.3249030
  61.0265481  61.1755353  21.7774844  61.9512029  60.9698214  21.6399295
  60.8580785  60.9271754  22.6864186  53.9837044  47.3881912  25.9993531
  53.6433865  46.5889725  26.4014211  53.2776051  47.6883623  25.4270365
  54.6353516  44.4731224  24.4520854  55.4579586  43.9991703  24.3299745
  54.8791580  45.2521708  24.9519541  53.2761751  47.5019483  14.7483756
  53.9970113  47.8800736  14.2447473  52.6527055  48.2208360  14.8518734
  57.4192874  48.2064632  15.6842089  57.6356488  49.0889270  15.3830917
  56.9386941  47.8150845  14.9547731  52.1592095  51.1650345  22.2612833
  52.0136676  51.4790648  23.1537115  51.6817299  51.7835245  21.7083732
  54.0188478  48.1552893  22.3093723  54.0050047  47.2593986  21.9726021
  54.7360906  48.1623557  22.9432009  55.8714609  48.5890233  24.3546850
  55.6132386  49.5107304  24.3531181  55.3399649  48.1920668  25.0447314
  60.8160797  61.6941020  17.1336935  60.9897675  61.1287443  16.3810788
  61.3089689  62.4941915  16.9516425  46.6337757  53.7055689  25.2000494
  46.0891225  54.4815497  25.3320769  47.5117107  54.0526494  25.0419616
  53.4225374  47.0367273  17.5781293  53.5441285  46.1083919  17.7772180
  53.1327416  47.0505959  16.6659608  56.2916564  44.7222184  20.7148013
  56.3138261  44.7861517  19.7599992  56.7084623  43.8826692  20.9088519
  66.6700189  54.4577443  18.7527235  67.1131335  53.7084768  18.3546358
  65.7926699  54.4487580  18.3700967  61.8035970  61.0107785  14.2333834
  62.4986875  61.6314477  14.4521148  62.1459120  60.1603136  14.5086212
  47.4203779  52.8325586  28.0930651  46.6785515  52.9808221  28.6795282
  47.0996523  53.0933851  27.2297401  63.7027393  58.4607490  15.7621165
  64.2278717  58.7994763  15.0370485  63.6149746  57.5254506  15.5784299
  55.3647442  62.3741564  27.8911041  55.6734568  62.1290711  28.7633741
  56.1622924  62.5788202  27.4029911  55.3868054  64.5279473  20.1216418
  54.9473044  64.0355852  20.8149274  56.1376171  63.9852441  19.8808493
  47.8660393  60.7191014  20.1241046  48.6918413  60.4194786  19.7439689
  47.5154445  59.9498637  20.5730834  52.8341926  60.0717483  22.1938719
  52.2121935  59.4088188  21.8940947  53.5046793  60.0978614  21.5112367
  46.0668998  58.6377341  21.0829979  45.2300906  58.2099515  20.9013981
  46.0392643  58.8309784  22.0200771  52.9066453  48.5499271  31.7871225
  52.9554609  49.4261393  31.4048995  53.4488968  48.0076664  31.2142869
  63.3921299  59.0940394  31.0672362  62.6016843  59.0764533  30.5276862
  63.1554654  59.6328688  31.8221399  63.5119174  55.9432860  28.3805091
  63.5617179  55.7782868  29.3220614  63.4033097  55.0760119  27.9902972
  52.3955433  58.6221406  15.6697180  52.5443553  59.3056870  15.0163853
  53.2021876  58.6026496  16.1846636  60.8022937  51.9263788  29.6964398
  61.7032799  51.7870253  29.4048396  60.8770911  52.0918243  30.6362575
  55.1365742  49.3030643  28.5417584  54.2669051  49.5964209  28.2700173
  55.3725222  49.8871088  29.2624848  65.0137371  58.3629802  28.6247113
  64.7222179  58.7259782  29.4610574  64.4009502  57.6496810  28.4460445
  66.2133053  55.9282682  21.1449683  67.0479945  56.3672486  21.3087243
  66.3492182  55.4521335  20.3257929  63.2624559  53.4862416  27.0927171
  63.7378681  53.6790063  26.2846022  62.3390125  53.5421602  26.8470554
  50.1508066  54.6486584  16.6758249  49.9054108  53.7448914  16.8738459
  50.3203980  54.6503734  15.7337727  57.8404776  45.5210260  26.0583004
  58.3586720  46.2571287  25.7329493  57.4859908  45.8274253  26.8929764
  49.4203713  50.3814941  14.1744410  48.7272958  50.4559296  13.5184446
  49.1755465  49.6175285  14.6965927  58.0917370  41.9410542  21.5783901
  58.3719124  41.2733732  22.2044328  58.8767977  42.1339638  21.0658565
  55.8950838  61.1169536  13.1408927  55.3224805  61.7359723  12.6879399
  56.4683632  61.6668898  13.6748849  61.9626228  50.3628176  25.3255476
  62.9143651  50.4626274  25.3467700  61.7929679  49.5706445  25.8353561
  59.9840608  47.4483760  25.5114877  59.3890540  47.7288772  24.8161366
  59.6990304  47.9377661  26.2831618  59.1148098  61.4006686  14.2717510
  60.0478771  61.3352248  14.4750385  59.0271311  62.2362953  13.8132042
  61.7436115  60.7172557  11.2321457  61.6649746  60.3832420  12.1257215
  62.5645782  61.2094325  11.2312930  64.4414306  53.5834296  24.4397776
  64.4090626  52.6450297  24.6257460  65.0514930  53.6618333  23.7063601
  56.2797637  52.4530349  10.4824980  57.2256742  52.3236557  10.5513398
  55.9011882  51.7145011  10.9594408  64.5908794  50.3745340  24.4856059
  64.0747843  49.5903796  24.2985988  65.4748743  50.0464056  24.6502578
  62.2519521  44.1186355  20.4451872  62.0544343  43.8101443  21.3295204
  62.8619227  44.8447994  20.5749802  70.2590856  54.6450303  23.5803813
  70.9894244  54.3835591  24.1411516  69.6497801  53.9079025  23.6205881
  68.3406153  52.7858166  24.1778264  67.6139317  52.6514131  23.5694755
  67.9253440  53.0934994  24.9834982  56.1636329  56.5048095  31.9425637
  57.0839339  56.6826694  32.1365683  56.1285912  55.5604141  31.7905336
  54.4640554  50.3780326  10.4179865  53.5572009  50.0813438  10.4942579
  54.7416535  50.0810144   9.5514151  45.3818494  51.6986689  20.8678911
  45.0621279  50.8451997  20.5753285  44.8351923  51.9135267  21.6236879
  49.1598402  54.4149130  24.5848418  49.3784412  55.3466238  24.6036452
  49.5724176  54.0557104  25.3703222  56.0802620  44.9217215  16.5724106
  55.2703348  44.5764300  16.9479352  56.7687037  44.6124759  17.1611718
  58.0093168  43.9995262  18.1948403  58.5624207  44.4190715  18.8538426
  58.2463254  43.0731010  18.2371359  54.0326267  49.9882336  33.9751167
  53.9322994  50.9376693  33.9063258  53.8147809  49.6600575  33.1027237
  53.2339339  47.2367261  10.5591844  54.0958503  47.5622159  10.8187662
  53.4189683  46.4498757  10.0464910  45.2506754  55.3189600  22.8372033
  44.5570226  54.9043553  22.3241987  45.9979745  55.3610137  22.2405452
  61.3871975  46.1095787  17.7027067  60.8070644  46.7680591  17.3205120
  61.1207908  45.2873132  17.2914485  59.8375541  45.5100845  19.9048388
  60.3375320  45.6217379  19.0962706  60.4811149  45.2061898  20.5449196
  53.8957537  53.4179475  32.7916229  53.4124619  54.2179835  32.9980118
  53.9818476  53.4287419  31.8383673  47.1643497  55.2507854  20.7138048
  47.1414185  55.3495541  19.7619931  47.4744133  56.0973005  21.0355214
  49.8230875  57.3084009  24.8284662  50.7774128  57.2767952  24.7614594
  49.6243398  56.8474633  25.6434888  50.4130257  55.8785125  27.3955460
  51.2323146  56.3729204  27.4190297  50.6867065  54.9617093  27.3673028
  60.1696853  48.2695878  16.7583416  59.2822708  48.5545528  16.5403610
  60.5850842  48.1089641  15.9110692  63.5211389  48.2942399  20.4737755
  64.2971779  48.7838851  20.7462372  62.7959523  48.7200453  20.9309624
  65.9583948  49.0070018  21.5311695  66.5528439  48.7665754  20.8205004
  66.0310532  48.2877148  22.1585232  48.1781104  62.8503629  21.8454860
  48.0435572  62.0904030  21.2792858  47.7613166  63.5744529  21.3783649
  59.3140067  58.0340552  10.8531436  60.0175917  58.2390555  11.4689091
  58.5902715  58.6017314  11.1180519  60.1437877  53.7850414  16.9733706
  60.0873078  54.2418965  16.1341338  60.6966219  53.0241098  16.7956548
  63.9542683  49.5740145  17.7983825  63.6979617  49.1736781  18.6292033
  63.3295551  50.2883939  17.6733964  68.2655021  52.3136219  20.3055117
  67.7054579  52.3829408  21.0786679  67.6598524  52.1377203  19.5854613
  51.3350229  63.7472946  22.0573303  51.2182614  64.6918378  21.9551993
  50.5142676  63.4446507  22.4459102  61.2226764  58.4723081  12.9029896
  62.0572368  58.0404280  12.7207370  61.0611107  58.3005095  13.8306790
  60.8772656  54.9755195  14.2686235  60.8221460  54.8099466  13.3274679
  60.2518711  55.6831228  14.4248425  45.6665171  50.2123259  28.0947657
  46.3124035  49.7022213  28.5834882  45.4582322  50.9491941  28.6691082
  58.1918563  57.2804107  33.5939798  59.0609723  57.4544759  33.2326433
  57.7125315  58.0998523  33.4715527  54.1868782  44.4763304  13.8471553
  54.1747451  45.4205144  14.0039824  55.0792204  44.2933449  13.5531014
  52.3604744  64.4001208  25.2729231  53.2631990  64.4324818  25.5895726
  52.1342114  63.4701659  25.2875567  54.1158346  63.1532194  21.9339310
  53.1653977  63.1534056  21.8203682  54.4190832  62.4064929  21.4175345
  58.0020901  41.0706080  18.1017490  57.2353297  40.5164567  18.2474172
  58.4131606  41.1427949  18.9631642  50.0062662  47.3590876  32.1922671
  50.8694124  47.0027681  32.4025996  49.4328073  47.0204771  32.8798076
  69.8511039  68.9892733  22.9985072  70.4889449  68.8699480  22.2948412
  69.7331882  69.9373577  23.0573024  66.6600745  68.9420161  22.9346597
  66.3219257  68.8261225  22.0467132  67.5290514  68.5411326  22.9147603
  62.5187561  70.7955637  18.9243488  61.9552426  70.7045574  18.1559776
  62.4039956  69.9755542  19.4045980  67.1420528  70.0955012  28.8932803
  67.1309169  69.7007811  28.0213306  67.3041168  69.3621085  29.4866574
  60.0651993  72.2906829  21.7627708  60.8573285  71.9497653  21.3474008
  60.3048643  72.4001804  22.6829862  68.0987120  74.4626605  14.2357953
  67.4475100  75.0480685  13.8491967  68.8931483  74.9932800  14.2952990
  62.0242747  71.5515742  14.6345087  62.7973623  71.0044729  14.4957963
  62.3768146  72.4159991  14.8459549  63.8627790  72.8792124  27.8411987
  63.5717655  73.7837755  27.7258653  64.4984774  72.9208652  28.5556056
  64.7883996  70.2568973  24.4313346  65.3847569  70.0324995  23.7170309
  64.8458968  69.5153718  25.0338794  64.3609025  67.7108408  12.2663537
  64.6134545  67.1889929  11.5047000  63.4233584  67.5474553  12.3690221
  69.4052308  66.7144186  20.0738280  70.1915397  66.2963610  19.7228697
  69.6691012  67.6190279  20.2419929  69.5762385  72.1517037  14.7726937
  68.9408218  72.2251663  15.4847842  69.2459791  72.7410636  14.0946016
  74.8060735  66.6519420  20.9771259  75.5385907  66.0818636  21.2109088
  74.0500090  66.2641020  21.4177764  64.0805314  69.6136514  14.4687912
  63.9641572  68.9381417  15.1368996  64.1907573  69.1268888  13.6520065
  66.4236854  69.0746661  18.1734601  66.0595062  68.5477282  18.8847523
  67.2803970  68.6845130  18.0001087  72.3286155  60.3640994  25.4365867
  71.9969480  61.2336405  25.2127082  71.7331768  60.0477278  26.1159898
  66.0642341  64.1036561  13.1695950  66.2316744  64.9716797  13.5366421
  65.8739510  64.2663842  12.2457239  68.8217675  72.5653540  24.8361780
  68.5218398  73.4678579  24.7277587  68.4768734  72.2985723  25.6882933
  62.2730156  69.0167337  20.8698485  61.3480653  68.8843551  21.0776176
  62.5214569  69.7961556  21.3668427  72.2214818  65.0836080  22.5159218
  71.3131696  65.0151488  22.2217978  72.1702414  65.5608025  23.3441043
  66.0431562  66.5594218  14.1542617  65.9231187  67.0051269  14.9928097
  65.3484151  66.9079536  13.5956155  59.6338967  68.6600610  21.7042274
  59.7631348  68.9135089  22.6181685  58.9536418  69.2528318  21.3846929
  63.8038454  79.3297860  17.8032748  63.7262484  80.2805685  17.8821228
  63.2000098  78.9843733  18.4607674  66.2955684  66.5025725  30.4594115
  65.5189018  67.0619646  30.4496979  66.9346247  66.9882508  30.9808985
  74.0876465  63.2852518  24.2937091  73.4450845  63.5785051  23.6476886
  73.5831393  63.1705439  25.0990288  71.7416628  67.0315691  14.9822951
  72.6534485  67.2643078  14.8070648  71.2326276  67.6152736  14.4198029
  64.5502056  69.3111179  30.0212082  65.2916741  69.8496223  29.7446905
  63.8439042  69.9377468  30.1783634  70.0257396  71.4540319  28.6184243
  70.4340752  71.0122730  27.8738876  69.3034658  70.8792947  28.8718436
  66.3788466  66.3912926  25.9917800  67.2249661  66.8152340  26.1352449
  66.3187104  65.7346550  26.6856363  70.3486211  72.0141510  22.3736532
  69.7195073  72.1787224  21.6712600  69.9611873  72.4283119  23.1447496
  74.2275443  72.9495948  19.7280896  73.5426481  73.3294849  19.1777929
  74.3119292  73.5591274  20.4612844  69.5287911  64.0517294  27.6498974
  69.2848843  64.8059355  27.1133250  69.8047842  64.4302642  28.4846221
  71.4826374  70.5955907  26.3276239  71.6943269  71.2387667  25.6510621
  71.4356123  69.7618223  25.8598170  69.0852603  63.2073727  23.2312812
  68.2237082  63.5054981  23.5229549  69.1115038  63.4244126  22.2993844
  65.9014173  71.7515918  19.6386617  66.3652518  72.0303621  18.8491240
  65.6370971  70.8499363  19.4559708  62.7938254  71.2987400  22.5766381
  63.3639611  71.7274668  21.9383865  63.3846366  71.0169984  23.2750566
  64.8383059  67.8739070  16.4476182  65.5407102  68.3260114  16.9150109
  64.5063687  67.2322889  17.0756076  63.2863420  66.4650827  30.8227392
  62.6562081  67.1467108  31.0562789  63.1799508  66.3533909  29.8780530
  58.5808393  66.1322623  21.7493316  57.7907447  66.3880152  21.2733427
  59.0719640  66.9470961  21.8545357  72.5972202  73.4727862  24.4998597
  73.4189646  73.0708049  24.2181278  72.5934605  73.3696096  25.4514713
  60.5323138  66.4967202  18.7076793  59.7354301  66.6085897  19.2260288
  60.3048730  66.8353855  17.8417683  66.3628806  73.0211906  26.6559307
  66.4273238  73.4832313  27.4917479  65.6539730  72.3909270  26.7841617
  56.8646096  66.3853113  24.1808307  57.1154134  67.2700123  24.4465883
  57.4005644  66.2057715  23.4083399  80.6878195  69.8166611  20.8483568
  79.9341904  69.2474009  20.6927573  80.8225736  69.7829275  21.7954203
  66.0776823  74.6880013  16.5238288  65.9422498  75.5331549  16.9523135
  66.6186636  74.8899291  15.7604221  62.5644163  60.7671593  33.1852643
  62.1711109  60.2137791  33.8600287  63.3810303  61.0782171  33.5759160
  59.5306221  72.2055451  17.0966213  60.0430741  72.9998701  17.2471777
  60.1828934  71.5081741  17.0299814  61.3401105  75.3221207  19.1788966
  61.5167734  76.2439172  18.9909950  62.1357939  75.0079627  19.6083346
  65.4812124  62.1829472  30.7772899  66.2221837  62.7836625  30.6977362
  65.7130047  61.4407110  30.2190942  60.6253462  67.3685839  29.0551129
  60.5106977  66.4671096  29.3558228  59.7697980  67.6149536  28.7035946
  67.7045300  75.3103580  30.6538630  67.2609154  74.5239958  30.3359534
  68.3662513  75.4982730  29.9882520  62.4632421  76.8399381  25.1799308
  63.0139846  76.7116444  24.4076302  61.6243897  77.1394270  24.8294201
  69.8026538  75.5906379  28.6820031  69.7845013  76.4115260  28.1900300
  70.7246458  75.4660455  28.9070172  66.2599592  73.1050509  29.5243539
  66.7927929  72.3438797  29.2942847  65.7313673  72.8124161  30.2667694
  69.4269287  58.2110575  25.0537181  69.0833556  59.1012217  24.9776292
  69.7948249  58.0212233  24.1906766  57.4955137  70.5344105  17.8725783
  58.3330359  70.9441114  17.6559491  57.6733405  69.5943548  17.8425977
  69.3919570  68.2019186  13.5609616  68.8766193  68.9723791  13.7998004
  69.1196878  67.5284322  14.1842678  66.9766681  63.0468887  18.6194855
  66.1208277  62.6575737  18.4400493  67.3893632  63.1260848  17.7594640
  68.5065827  60.5815230  23.0186414  68.0030623  60.5445365  22.2054220
  68.7996434  61.4907973  23.0783071  64.7508713  60.6653960  22.0252596
  65.6161710  60.4696768  21.6658486  64.8186222  60.4364312  22.9521953
  74.3653844  70.9551541  15.4962790  73.5883286  70.6162700  15.0517952
  75.0445325  70.9604164  14.8217755  69.1805873  66.0746278  15.3869397
  68.8756008  66.3892427  16.2379541  70.1336315  66.1527698  15.4296730
  67.6252305  72.2336501  17.0362351  67.0973666  71.4989261  16.7235589
  67.1239807  73.0111178  16.7902320  72.6045151  70.4285522  22.1529398
  71.9468825  71.1184783  22.2409526  73.4085550  70.8181954  22.4963384
  62.3571032  62.8956168  19.3968963  62.9314784  62.6731349  18.6642156
  62.9442015  62.9644862  20.1497564  71.4150609  68.7829895  20.2033339
  71.9282491  69.4159886  20.7055049  72.0651833  68.1831090  19.8376699
  62.6840619  64.9260629  13.4164848  61.8477932  65.2635315  13.7374123
  62.5445389  64.7909609  12.4791985  64.6593700  59.7697417  18.1244032
  64.0058112  59.4546434  17.5000647  64.6174174  59.1473157  18.8503855
  65.7704905  70.0516712  10.0397324  64.8631967  69.8205965  10.2388473
  66.2675937  69.2554331  10.2271306  68.6772984  78.7614219  12.9594011
  68.0034682  79.0645916  13.5678968  69.0638806  79.5643299  12.6099468
  67.8931440  66.2579350  22.4491680  66.9754002  66.4794297  22.2913368
  68.3091584  66.3325661  21.5903387  68.6766488  67.6570766  17.5794360
  69.4238307  68.1692163  17.2701482  68.9458078  67.3354819  18.4398754
  66.9493138  70.1529307  14.5621314  66.0404357  69.8688339  14.6593784
  66.9788222  70.5728385  13.7024621  72.1812406  73.7635896  18.3312482
  71.7274733  72.9226806  18.3877673  71.5506372  74.3997294  18.6687262
  71.1245325  64.6927882  19.5613150  70.3868082  64.1805268  19.8923392
  71.3772099  64.2528264  18.7496426  70.6245345  75.6012393  19.2662300
  70.9168319  76.1617450  18.5474666  71.1343965  75.8940954  20.0215459
  71.2256953  57.4704134  20.1554919  71.5315829  56.6101497  19.8680834
  71.9509557  58.0621754  19.9553913  57.5181309  67.8734821  18.5436517
  57.3205708  67.2804181  17.8187583  56.9627973  67.5687031  19.2612455
  65.4978032  67.7657927  20.6631110  65.5526642  66.8131764  20.5873586
  64.6869234  67.9217366  21.1472408  66.6469226  71.6938050  11.9009393
  66.2088656  70.9773909  11.4415030  67.3879667  71.9214165  11.3394484
  63.4370392  66.3834987  18.4221489  62.6238258  66.6829157  18.8286681
  63.9329386  65.9890676  19.1395971  65.5878970  76.3792744  20.3555753
  65.5455149  76.6053590  19.4264285  66.5041669  76.1456118  20.5041555
  69.0344604  66.8476811  27.2536383  69.3893992  67.0748284  28.1130848
  69.6816735  67.1795188  26.6313638  74.7642341  69.9695247  17.9585712
  74.6260239  70.1596843  17.0306901  74.4078560  70.7314630  18.4153763
  62.9284467  63.9553342  24.0382724  63.5683846  63.8142102  23.3405687
  62.0961998  63.6687856  23.6621326  74.7911720  72.0371774  22.9696983
  75.2248227  71.9447063  23.8180037  75.5043301  72.0129275  22.3316999
  63.7044771  73.2555773  20.1517716  64.4985369  72.7606093  19.9500291
  62.9936463  72.7273636  19.7885422  68.5239615  75.6373868  24.5030084
  68.5776638  76.2064805  25.2707800  67.6554397  75.8075753  24.1384121
  60.0127534  67.3998855  16.2277469  59.0825122  67.3383310  16.4447431
  60.1085006  66.8774807  15.4314110  59.9313083  63.9253667  18.8155710
  60.1919901  64.8399001  18.7064871  60.7530256  63.4578110  18.9652323
  61.4038009  65.3391425  25.9854535  62.0761062  65.1308787  25.3367184
  60.5767795  65.1413511  25.5459767  75.6527270  72.0795475  25.5029869
  75.8463160  72.9841285  25.7489143  75.5527888  71.6202894  26.3368454
  67.3063581  61.9653365  28.0020196  66.6591496  62.6643315  27.9084672
  68.0764596  62.3989509  28.3696444  70.7142379  72.2302218  31.0770749
  70.5627885  72.0012769  30.1600833  70.7047058  73.1872819  31.0902094
  67.4827715  69.8034130  26.0617016  68.4119775  69.9545290  25.8885983
  67.0618745  69.8918151  25.2065662  66.2816047  73.8284795  23.8315553
  66.1427133  73.4603579  24.7041491  65.4930643  74.3432434  23.6599511
  66.8764199  78.9293891  15.1741090  67.0515955  78.4581934  15.9886712
  66.1896987  79.5559657  15.4022350  67.8321262  73.2066398  21.2204391
  67.4971095  73.1667167  22.1162041  67.3325208  72.5411113  20.7474801
  61.8065506  68.6134028  26.7456972  61.6685304  67.8814266  27.3468511
  62.7170429  68.5242928  26.4641160  70.7680454  70.5522432  11.4941451
  70.1509624  69.8269260  11.3974503  70.2996942  71.3131792  11.1508525
  64.4347807  68.3253987  26.2340652  65.1447425  67.6847179  26.1927270
  64.3917115  68.5766882  27.1566833  72.4234585  75.2621340  29.1547231
  72.3647131  74.5780560  28.4877814  72.8254104  76.0040330  28.7027857
  63.1476741  65.3119205  28.0536291  62.6114098  64.8609943  28.7057888
  62.5593449  65.4465114  27.3106756  61.4425284  82.0783254  21.9480950
  61.6821882  82.7101778  22.6259968  60.5994481  81.7271294  22.2346309
  62.5579000  64.7707856  10.6162755  61.6808466  64.6496657  10.2525002
  63.0336753  63.9793934  10.3641644  72.4251993  73.2260924  27.3861211
  71.5378771  72.8886846  27.5087610  72.9950544  72.4943955  27.6229976
  54.0781140  69.5585016  20.7104262  54.7652180  69.2446746  20.1225277
  53.9229268  70.4626381  20.4371513  58.8815862  64.4475212  25.1389286
  58.7974051  63.8400882  24.4039696  58.0598568  64.9384231  25.1398782
  65.9553146  77.8862376  24.3522454  65.8823317  78.6917348  24.8641758
  65.5130539  78.0854342  23.5270475  65.7442926  77.1234147  17.8625275
  64.9610447  77.6655827  17.9563500  66.4435671  77.6408126  18.2619517
  69.0539576  62.9328776  20.5059481  69.5508275  62.1798738  20.1860551
  68.2826557  62.9693093  19.9402690  76.9069333  68.6369142  22.1477772
  76.8959209  69.5193857  21.7771705  76.0386713  68.2840692  21.9532309
  68.4151829  77.7849211  26.5080613  69.1279802  78.4196675  26.4356514
  67.9241858  77.8813077  25.6920614  70.1369356  71.6900463  18.0797904
  69.2025635  71.8101926  17.9102609  70.3146025  70.7872930  17.8157914
  65.6374544  65.0746159  20.2331165  65.2672332  64.5217199  20.9212071
  66.1333637  64.4704292  19.6806165  73.5241908  67.5317782  18.6147938
  73.9902360  68.3645774  18.5408241  73.9749408  67.0662764  19.3193197
  63.4663743  75.5343654  27.3286183  64.1673203  76.1680137  27.4815578
  62.9958858  75.8758386  26.5681823  71.5918139  73.8761604  15.6134090
  71.8677983  73.7618198  16.5227964  70.7222638  73.4779089  15.5746263
  71.4958570  59.8998369  22.6538840  70.5821650  60.1302596  22.8221047
  71.9251672  59.9836814  23.5052872  71.2665029  68.0888261  25.1538734
  70.6136479  68.3364169  24.4991186  71.6445409  67.2752400  24.8201211
  68.2272203  78.1247955  19.2566904  68.4094597  77.3069611  19.7194656
  69.0505189  78.3415647  18.8191794  68.5614368  77.0516140  16.5181953
  69.0902135  76.5408594  15.9052115  68.8242588  76.7358670  17.3827486
  67.3152602  68.8308072  31.6404771  66.6393239  68.7302202  32.3107146
  68.1380236  68.6747286  32.1040768  59.0631461  75.0680009  24.2617286
  59.6484898  74.3223697  24.3945190  58.8656300  75.3783966  25.1453950
  61.9170116  78.1031256  19.2779728  61.2480492  78.5877384  18.7943768
  61.7782986  78.3500477  20.1923107  53.6549116  67.6385609  22.9821729
  53.6933215  67.1049200  23.7758847  53.1489409  67.1120815  22.3632706
  66.0575385  80.1375000  25.8762387  66.6093693  80.3006621  26.6411472
  66.3981578  80.7279438  25.2042412  61.0339878  62.4850150  26.4784272
  61.0981205  63.3464981  26.0661669  60.9706998  61.8724151  25.7456630
  60.5092151  64.5573282  30.1257306  61.1364189  64.1750360  30.7394830
  59.6520070  64.3387484  30.4912998  70.9086259  74.9636257  31.7311041
  71.4526163  75.5766216  31.2365996  70.3273104  75.5215836  32.2478054
  57.2857693  66.3649711  16.0575661  57.5811134  65.4560390  16.0042714
  56.3845729  66.3437451  15.7356663  69.1943772  78.0856975  22.8626069
  69.0694912  77.2846715  22.3537014  69.8522863  78.5803169  22.3740039
  60.8151940  64.4405708  22.0403209  60.0938526  65.0541676  21.9010682
  61.6045196  64.9763473  21.9619855  71.2578681  75.8865996  24.4905619
  70.3109016  75.7671347  24.4183946  71.6061454  74.9988494  24.5731880
  63.6178254  61.7760134  28.3143861  64.1412656  62.0222431  29.0770170
  63.3990587  62.6080169  27.8946998  59.0145535  64.0463809  16.1814986
  58.6858241  63.1661188  15.9990092  59.3684906  63.9911478  17.0691375
  68.2625114  75.6818712  20.6909971  68.1150076  74.7535419  20.8717541
  69.0878607  75.7038802  20.2067047  62.1287358  64.3336779  16.5490463
  62.4683431  64.8622700  15.8269072  62.5759479  64.6717185  17.3249030
  71.8659236  76.5047270  21.7774844  72.7905783  76.2990132  21.6399295
  71.6974539  76.2563672  22.6864186  64.8230799  62.7173830  25.9993531
  64.4827619  61.9181643  26.4014211  64.1169805  63.0175540  25.4270365
  65.4747271  59.8023142  24.4520854  66.2973340  59.3283620  24.3299745
  65.7185334  60.5813626  24.9519541  64.1155505  62.8311400  14.7483756
  64.8363868  63.2092653  14.2447473  63.4920809  63.5500277  14.8518734
  68.2586628  63.5356549  15.6842089  68.4750243  64.4181187  15.3830917
  67.7780695  63.1442763  14.9547731  62.9985850  66.4942263  22.2612833
  62.8530430  66.8082566  23.1537115  62.5211053  67.1127163  21.7083732
  64.8582232  63.4844811  22.3093723  64.8443801  62.5885904  21.9726021
  65.5754661  63.4915474  22.9432009  66.7108363  63.9182151  24.3546850
  66.4526141  64.8399221  24.3531181  66.1793404  63.5212585  25.0447314
  71.6554552  77.0232938  17.1336935  71.8291429  76.4579360  16.3810788
  72.1483443  77.8233833  16.9516425  57.4731512  69.0347607  25.2000494
  56.9284980  69.8107415  25.3320769  58.3510862  69.3818412  25.0419616
  64.2619128  62.3659191  17.5781293  64.3835040  61.4375837  17.7772180
  63.9721171  62.3797877  16.6659608  67.1310319  60.0514101  20.7148013
  67.1532016  60.1153434  19.7599992  67.5478378  59.2118610  20.9088519
  77.5093943  69.7869361  18.7527235  77.9525089  69.0376686  18.3546358
  76.6320453  69.7779497  18.3700967  72.6429724  76.3399702  14.2333834
  73.3380629  76.9606395  14.4521148  72.9852875  75.4895054  14.5086212
  58.2597534  68.1617503  28.0930651  57.5179270  68.3100139  28.6795282
  57.9390278  68.4225769  27.2297401  74.5421148  73.7899408  15.7621165
  75.0672472  74.1286681  15.0370485  74.4543500  72.8546423  15.5784299
  66.2041196  77.7033482  27.8911041  66.5128323  77.4582628  28.7633741
  67.0016678  77.9080120  27.4029911  66.2261808  79.8571391  20.1216418
  65.7866799  79.3647770  20.8149274  66.9769925  79.3144359  19.8808493
  58.7054147  76.0482932  20.1241046  59.5312167  75.7486704  19.7439689
  58.3548199  75.2790554  20.5730834  63.6735680  75.4009400  22.1938719
  63.0515690  74.7380105  21.8940947  64.3440547  75.4270532  21.5112367
  56.9062752  73.9669258  21.0829979  56.0694661  73.5391433  20.9013981
  56.8786398  74.1601702  22.0200771  63.7460208  63.8791188  31.7871225
  63.7948363  64.7553311  31.4048995  64.2882722  63.3368581  31.2142869
  74.2315054  74.4232312  31.0672362  73.4410597  74.4056450  30.5276862
  73.9948408  74.9620605  31.8221399  74.3512929  71.2724778  28.3805091
  74.4010934  71.1074785  29.3220614  74.2426852  70.4052037  27.9902972
  63.2349187  73.9513324  15.6697180  63.3837308  74.6348788  15.0163853
  64.0415631  73.9318414  16.1846636  71.6416691  67.2555706  29.6964398
  72.5426554  67.1162171  29.4048396  71.7164666  67.4210161  30.6362575
  65.9759496  64.6322561  28.5417584  65.1062806  64.9256127  28.2700173
  66.2118977  65.2163006  29.2624848  75.8531125  73.6921719  28.6247113
  75.5615934  74.0551700  29.4610574  75.2403257  72.9788728  28.4460445
  77.0526808  71.2574599  21.1449683  77.8873699  71.6964403  21.3087243
  77.1885937  70.7813252  20.3257929  74.1018314  68.8154334  27.0927171
  74.5772435  69.0081980  26.2846022  73.1783879  68.8713520  26.8470554
  60.9901820  69.9778501  16.6758249  60.7447862  69.0740831  16.8738459
  61.1597735  69.9795652  15.7337727  68.6798530  60.8502178  26.0583004
  69.1980474  61.5863205  25.7329493  68.3253663  61.1566171  26.8929764
  60.2597468  65.7106859  14.1744410  59.5666713  65.7851214  13.5184446
  60.0149220  64.9467202  14.6965927  68.9311124  57.2702460  21.5783901
  69.2112878  56.6025649  22.2044328  69.7161731  57.4631556  21.0658565
  66.7344593  76.4461454  13.1408927  66.1618560  77.0651641  12.6879399
  67.3077387  76.9960816  13.6748849  72.8019983  65.6920094  25.3255476
  73.7537406  65.7918192  25.3467700  72.6323433  64.8998363  25.8353561
  70.8234362  62.7775677  25.5114877  70.2284294  63.0580690  24.8161366
  70.5384059  63.2669578  26.2831618  69.9541853  76.7298604  14.2717510
  70.8872526  76.6644166  14.4750385  69.8665065  77.5654871  13.8132042
  72.5829869  76.0464475  11.2321457  72.5043501  75.7124338  12.1257215
  73.4039536  76.5386242  11.2312930  75.2808060  68.9126214  24.4397776
  75.2484381  67.9742215  24.6257460  75.8908684  68.9910251  23.7063601
  67.1191391  67.7822267  10.4824980  68.0650496  67.6528475  10.5513398
  66.7405636  67.0436929  10.9594408  75.4302549  65.7037257  24.4856059
  74.9141598  64.9195714  24.2985988  76.3142497  65.3755974  24.6502578
  73.0913276  59.4478273  20.4451872  72.8938097  59.1393361  21.3295204
  73.7012981  60.1739912  20.5749802  81.0984610  69.9742221  23.5803813
  81.8287999  69.7127509  24.1411516  80.4891556  69.2370943  23.6205881
  79.1799907  68.1150083  24.1778264  78.4533071  67.9806048  23.5694755
  78.7647194  68.4226912  24.9834982  67.0030084  71.8340013  31.9425637
  67.9233093  72.0118612  32.1365683  66.9679667  70.8896058  31.7905336
  65.3034309  65.7072243  10.4179865  64.3965764  65.4105356  10.4942579
  65.5810290  65.4102061   9.5514151  56.2212249  67.0278607  20.8678911
  55.9015033  66.1743915  20.5753285  55.6745677  67.2427185  21.6236879
  59.9992156  69.7441048  24.5848418  60.2178166  70.6758155  24.6036452
  60.4117930  69.3849022  25.3703222  66.9196374  60.2509133  16.5724106
  66.1097103  59.9056218  16.9479352  67.6080791  59.9416677  17.1611718
  68.8486923  59.3287180  18.1948403  69.4017961  59.7482633  18.8538426
  69.0857009  58.4022928  18.2371359  64.8720022  65.3174253  33.9751167
  64.7716749  66.2668610  33.9063258  64.6541564  64.9892492  33.1027237
  64.0733093  62.5659178  10.5591844  64.9352257  62.8914077  10.8187662
  64.2583437  61.7790674  10.0464910  56.0900509  70.6481518  22.8372033
  55.3963980  70.2335471  22.3241987  56.8373500  70.6902055  22.2405452
  72.2265730  61.4387705  17.7027067  71.6464399  62.0972509  17.3205120
  71.9601662  60.6165049  17.2914485  70.6769296  60.8392763  19.9048388
  71.1769074  60.9509297  19.0962706  71.3204904  60.5353815  20.5449196
  64.7351292  68.7471392  32.7916229  64.2518374  69.5471752  32.9980118
  64.8212231  68.7579337  31.8383673  58.0037251  70.5799772  20.7138048
  57.9807940  70.6787459  19.7619931  58.3137888  71.4264923  21.0355214
  60.6624629  72.6375927  24.8284662  61.6167883  72.6059869  24.7614594
  60.4637153  72.1766551  25.6434888  61.2524011  71.2077043  27.3955460
  62.0716900  71.7021122  27.4190297  61.5260819  70.2909011  27.3673028
  71.0090608  63.5987795  16.7583416  70.1216463  63.8837446  16.5403610
  71.4244597  63.4381559  15.9110692  74.3605144  63.6234316  20.4737755
  75.1365534  64.1130769  20.7462372  73.6353278  64.0492370  20.9309624
  76.7977702  64.3361935  21.5311695  77.3922193  64.0957671  20.8205004
  76.8704286  63.6169066  22.1585232  59.0174858  78.1795546  21.8454860
  58.8829326  77.4195947  21.2792858  58.6006920  78.9036446  21.3783649
  70.1533821  73.3632470  10.8531436  70.8569671  73.5682472  11.4689091
  69.4296470  73.9309232  11.1180519  70.9831631  69.1142331  16.9733706
  70.9266833  69.5710883  16.1341338  71.5359974  68.3533016  16.7956548
  74.7936437  64.9032063  17.7983825  74.5373372  64.5028699  18.6292033
  74.1689305  65.6175857  17.6733964  79.1048775  67.6428136  20.3055117
  78.5448333  67.7121326  21.0786679  78.4992279  67.4669121  19.5854613
  62.1743984  79.0764863  22.0573303  62.0576368  80.0210296  21.9551993
  61.3536430  78.7738425  22.4459102  72.0620518  73.8014999  12.9029896
  72.8966122  73.3696198  12.7207370  71.9004861  73.6297013  13.8306790
  71.7166411  70.3047112  14.2686235  71.6615214  70.1391384  13.3274679
  71.0912466  71.0123145  14.4248425  56.5058926  65.5415177  28.0947657
  57.1517789  65.0314131  28.5834882  56.2976077  66.2783858  28.6691082
  69.0312318  72.6096024  33.5939798  69.9003477  72.7836677  33.2326433
  68.5519069  73.4290441  33.4715527  65.0262536  59.8055221  13.8471553
  65.0141206  60.7497061  14.0039824  65.9185958  59.6225367  13.5531014
  63.1998498  79.7293125  25.2729231  64.1025745  79.7616736  25.5895726
  62.9735868  78.7993576  25.2875567  64.9552100  78.4824112  21.9339310
  64.0047731  78.4825973  21.8203682  65.2584586  77.7356846  21.4175345
  68.8414656  56.3997998  18.1017490  68.0747051  55.8456485  18.2474172
  69.2525361  56.4719867  18.9631642  60.8456417  62.6882794  32.1922671
  61.7087878  62.3319599  32.4025996  60.2721827  62.3496689  32.8798076
  80.6904794  84.3184650  22.9985072  81.3283204  84.1991398  22.2948412
  80.5725636  85.2665494  23.0573024  77.4994500  84.2712078  22.9346597
  77.1613011  84.1553143  22.0467132  78.3684268  83.8703243  22.9147603
  73.3581316  86.1247555  18.9243488  72.7946181  86.0337492  18.1559776
  73.2433711  85.3047459  19.4045980  77.9814283  85.4246930  28.8932803
  77.9702924  85.0299728  28.0213306  78.1434922  84.6913003  29.4866574
  70.9045747  87.6198746  21.7627708  71.6967039  87.2789571  21.3474008
  71.1442398  87.7293721  22.6829862  78.9380874  89.7918522  14.2357953
  78.2868854  90.3772603  13.8491967  79.7325237  90.3224717  14.2952990
  72.8636501  86.8807660  14.6345087  73.6367377  86.3336647  14.4957963
  73.2161900  87.7451909  14.8459549  74.7021544  88.2084042  27.8411987
  74.4111410  89.1129673  27.7258653  75.3378528  88.2500569  28.5556056
  75.6277751  85.5860890  24.4313346  76.2241323  85.3616913  23.7170309
  75.6852722  84.8445636  25.0338794  75.2002779  83.0400326  12.2663537
  75.4528300  82.5181847  11.5047000  74.2627338  82.8766471  12.3690221
  80.2446062  82.0436104  20.0738280  81.0309151  81.6255527  19.7228697
  80.5084766  82.9482196  20.2419929  80.4156139  87.4808954  14.7726937
  79.7801972  87.5543581  15.4847842  80.0853546  88.0702553  14.0946016
  85.6454489  81.9811337  20.9771259  86.3779661  81.4110554  21.2109088
  84.8893845  81.5932938  21.4177764  74.9199068  84.9428432  14.4687912
  74.8035326  84.2673335  15.1368996  75.0301328  84.4560806  13.6520065
  77.2630609  84.4038579  18.1734601  76.8988816  83.8769200  18.8847523
  78.1197725  84.0137048  18.0001087  83.1679910  75.6932911  25.4365867
  82.8363234  76.5628322  25.2127082  82.5725523  75.3769195  26.1159898
  76.9036096  79.4328478  13.1695950  77.0710498  80.3008715  13.5366421
  76.7133265  79.5955760  12.2457239  79.6611429  87.8945457  24.8361780
  79.3612152  88.7970496  24.7277587  79.3162489  87.6277641  25.6882933
  73.1123911  84.3459254  20.8698485  72.1874407  84.2135468  21.0776176
  73.3608324  85.1253473  21.3668427  83.0608573  80.4127998  22.5159218
  82.1525450  80.3443406  22.2217978  83.0096169  80.8899942  23.3441043
  76.8825317  81.8886136  14.1542617  76.7624942  82.3343187  14.9928097
  76.1877905  82.2371454  13.5956155  70.4732722  83.9892528  21.7042274
  70.6025103  84.2427007  22.6181685  69.7930173  84.5820236  21.3846929
  74.6432209  94.6589778  17.8032748  74.5656239  95.6097603  17.8821228
  74.0393852  94.3135650  18.4607674  77.1349439  81.8317643  30.4594115
  76.3582773  82.3911563  30.4496979  77.7740002  82.3174426  30.9808985
  84.9270219  78.6144436  24.2937091  84.2844600  78.9076969  23.6476886
  84.4225148  78.4997356  25.0990288  82.5810383  82.3607609  14.9822951
  83.4928239  82.5934996  14.8070648  82.0720030  82.9444653  14.4198029
  75.3895811  84.6403097  30.0212082  76.1310495  85.1788140  29.7446905
  74.6832796  85.2669385  30.1783634  80.8651151  86.7832237  28.6184243
  81.2734507  86.3414647  27.8738876  80.1428412  86.2084864  28.8718436
  77.2182221  81.7204844  25.9917800  78.0643416  82.1444257  26.1352449
  77.1580858  81.0638468  26.6856363  81.1879965  87.3433428  22.3736532
  80.5588828  87.5079142  21.6712600  80.8005627  87.7575037  23.1447496
  85.0669197  88.2787865  19.7280896  84.3820235  88.6586767  19.1777929
  85.1513046  88.8883192  20.4612844  80.3681666  79.3809212  27.6498974
  80.1242598  80.1351273  27.1133250  80.6441596  79.7594560  28.4846221
  82.3220129  85.9247824  26.3276239  82.5337024  86.5679584  25.6510621
  82.2749877  85.0910141  25.8598170  79.9246358  78.5365645  23.2312812
  79.0630837  78.8346899  23.5229549  79.9508792  78.7536044  22.2993844
  76.7407927  87.0807836  19.6386617  77.2046273  87.3595539  18.8491240
  76.4764725  86.1791280  19.4559708  73.6332008  86.6279317  22.5766381
  74.2033365  87.0566586  21.9383865  74.2240120  86.3461902  23.2750566
  75.6776813  83.2030988  16.4476182  76.3800857  83.6552032  16.9150109
  75.3457442  82.5614807  17.0756076  74.1257175  81.7942745  30.8227392
  73.4955835  82.4759026  31.0562789  74.0193263  81.6825826  29.8780530
  69.4202147  81.4614541  21.7493316  68.6301201  81.7172069  21.2733427
  69.9113395  82.2762879  21.8545357  83.4365957  88.8019780  24.4998597
  84.2583400  88.3999967  24.2181278  83.4328360  88.6988014  25.4514713
  71.3716893  81.8259120  18.7076793  70.5748056  81.9377814  19.2260288
  71.1442485  82.1645772  17.8417683  77.2022560  88.3503823  26.6559307
  77.2666993  88.8124230  27.4917479  76.4933484  87.7201188  26.7841617
  67.7039850  81.7145031  24.1808307  67.9547889  82.5992041  24.4465883
  68.2399399  81.5349633  23.4083399  91.5271950  85.1458528  20.8483568
  90.7735658  84.5765926  20.6927573  91.6619491  85.1121193  21.7954203
  76.9170578  90.0171931  16.5238288  76.7816253  90.8623466  16.9523135
  77.4580390  90.2191208  15.7604221  73.4037917  76.0963511  33.1852643
  73.0104863  75.5429709  33.8600287  74.2204058  76.4074089  33.5759160
  70.3699975  87.5347369  17.0966213  70.8824496  88.3290619  17.2471777
  71.0222688  86.8373659  17.0299814  72.1794860  90.6513125  19.1788966
  72.3561488  91.5731090  18.9909950  72.9751693  90.3371544  19.6083346
  76.3205878  77.5121390  30.7772899  77.0615592  78.1128543  30.6977362
  76.5523801  76.7699027  30.2190942  71.4647216  82.6977757  29.0551129
  71.3500732  81.7963014  29.3558228  70.6091734  82.9441454  28.7035946
  78.5439054  90.6395497  30.6538630  78.1002908  89.8531876  30.3359534
  79.2056268  90.8274648  29.9882520  73.3026175  92.1691299  25.1799308
  73.8533600  92.0408362  24.4076302  72.4637651  92.4686188  24.8294201
  80.6420292  90.9198297  28.6820031  80.6238768  91.7407178  28.1900300
  81.5640212  90.7952372  28.9070172  77.0993346  88.4342427  29.5243539
  77.6321683  87.6730715  29.2942847  76.5707427  88.1416078  30.2667694
  80.2663041  73.5402493  25.0537181  79.9227311  74.4304134  24.9776292
  80.6342004  73.3504150  24.1906766  68.3348892  85.8636023  17.8725783
  69.1724114  86.2733031  17.6559491  68.5127160  84.9235465  17.8425977
  80.2313324  83.5311104  13.5609616  79.7159948  84.3015708  13.7998004
  79.9590633  82.8576240  14.1842678  77.8160435  78.3760804  18.6194855
  76.9602031  77.9867655  18.4400493  78.2287387  78.4552765  17.7594640
  79.3459582  75.9107148  23.0186414  78.8424377  75.8737283  22.2054220
  79.6390189  76.8199890  23.0783071  75.5902468  75.9945877  22.0252596
  76.4555464  75.7988686  21.6658486  75.6579977  75.7656229  22.9521953
  85.2047598  86.2843458  15.4962790  84.4277041  85.9454618  15.0517952
  85.8839079  86.2896081  14.8217755  80.0199627  81.4038196  15.3869397
  79.7149763  81.7184345  16.2379541  80.9730069  81.4819616  15.4296730
  78.4646059  87.5628419  17.0362351  77.9367421  86.8281179  16.7235589
  77.9633562  88.3403095  16.7902320  83.4438905  85.7577440  22.1529398
  82.7862580  86.4476701  22.2409526  84.2479304  86.1473872  22.4963384
  73.1964787  78.2248085  19.3968963  73.7708539  78.0023267  18.6642156
  73.7835769  78.2936780  20.1497564  82.2544364  84.1121812  20.2033339
  82.7676246  84.7451804  20.7055049  82.9045588  83.5123008  19.8376699
  73.5234374  80.2552546  13.4164848  72.6871686  80.5927233  13.7374123
  73.3839143  80.1201526  12.4791985  75.4987454  75.0989334  18.1244032
  74.8451867  74.7838351  17.5000647  75.4567929  74.4765075  18.8503855
  76.6098659  85.3808629  10.0397324  75.7025721  85.1497883  10.2388473
  77.1069691  84.5846249  10.2271306  78.7325195  81.5871268  22.4491680
  77.8147756  81.8086215  22.2913368  79.1485338  81.6617578  21.5903387
  79.5160243  82.9862683  17.5794360  80.2632061  83.4984081  17.2701482
  79.7851832  82.6646736  18.4398754  77.7886893  85.4821224  14.5621314
  76.8798112  85.1980257  14.6593784  77.8181977  85.9020303  13.7024621
  83.0206160  89.0927814  18.3312482  82.5668487  88.2518724  18.3877673
  82.3900127  89.7289212  18.6687262  81.9639080  80.0219800  19.5613150
  81.2261836  79.5097186  19.8923392  82.2165853  79.5820181  18.7496426
  81.4639099  90.9304310  19.2662300  81.7562074  91.4909368  18.5474666
  81.9737720  91.2232871  20.0215459  82.0650707  72.7996052  20.1554919
  82.3709584  71.9393415  19.8680834  82.7903312  73.3913672  19.9553913
  68.3575063  83.2026738  18.5436517  68.1599463  82.6096099  17.8187583
  67.8021727  82.8978949  19.2612455  76.3371787  83.0949845  20.6631110
  76.3920397  82.1423681  20.5873586  75.5262989  83.2509284  21.1472408
  77.4862981  87.0229968  11.9009393  77.0482410  86.3065827  11.4415030
  78.2273421  87.2506083  11.3394484  74.2764147  81.7126905  18.4221489
  73.4632012  82.0121075  18.8286681  74.7723141  81.3182593  19.1395971
  76.4272725  91.7084661  20.3555753  76.3848903  91.9345508  19.4264285
  77.3435423  91.4748036  20.5041555  79.8738358  82.1768729  27.2536383
  80.2287746  82.4040202  28.1130848  80.5210490  82.5087106  26.6313638
  85.6036095  85.2987165  17.9585712  85.4653994  85.4888761  17.0306901
  85.2472314  86.0606548  18.4153763  73.7678221  79.2845260  24.0382724
  74.4077601  79.1434019  23.3405687  72.9355752  78.9979773  23.6621326
  85.6305475  87.3663692  22.9696983  86.0641982  87.2738981  23.8180037
  86.3437056  87.3421192  22.3316999  74.5438525  88.5847690  20.1517716
  75.3379124  88.0898011  19.9500291  73.8330218  88.0565554  19.7885422
  79.3633370  90.9665786  24.5030084  79.4170392  91.5356722  25.2707800
  78.4948151  91.1367671  24.1384121  70.8521289  82.7290772  16.2277469
  69.9218877  82.6675228  16.4447431  70.9478761  82.2066725  15.4314110
  70.7706838  79.2545585  18.8155710  71.0313655  80.1690918  18.7064871
  71.5924010  78.7870028  18.9652323  72.2431763  80.6683342  25.9854535
  72.9154817  80.4600704  25.3367184  71.4161550  80.4705428  25.5459767
  86.4921024  87.4087393  25.5029869  86.6856915  88.3133203  25.7489143
  86.3921643  86.9494812  26.3368454  78.1457335  77.2945283  28.0020196
  77.4985250  77.9935233  27.9084672  78.9158351  77.7281427  28.3696444
  81.5536133  87.5594135  31.0770749  81.4021640  87.3304687  30.1600833
  81.5440813  88.5164737  31.0902094  78.3221470  85.1326048  26.0617016
  79.2513530  85.2837208  25.8885983  77.9012500  85.2210069  25.2065662
  77.1209801  89.1576712  23.8315553  76.9820887  88.7895497  24.7041491
  76.3324398  89.6724352  23.6599511  77.7157953  94.2585809  15.1741090
  77.8909709  93.7873852  15.9886712  77.0290741  94.8851575  15.4022350
  78.6715016  88.5358315  21.2204391  78.3364849  88.4959085  22.1162041
  78.1718962  87.8703031  20.7474801  72.6459260  83.9425945  26.7456972
  72.5079058  83.2106184  27.3468511  73.5564184  83.8534845  26.4641160
  81.6074208  85.8814350  11.4941451  80.9903379  85.1561178  11.3974503
  81.1390697  86.6423710  11.1508525  75.2741561  83.6545905  26.2340652
  75.9841180  83.0139097  26.1927270  75.2310869  83.9058799  27.1566833
  83.2628340  90.5913258  29.1547231  83.2040886  89.9072478  28.4877814
  83.6647858  91.3332248  28.7027857  73.9870495  80.6411122  28.0536291
  73.4507852  80.1901861  28.7057888  73.3987204  80.7757031  27.3106756
  72.2819039  97.4075172  21.9480950  72.5215637  98.0393696  22.6259968
  71.4388235  97.0563212  22.2346309  73.3972754  80.0999774  10.6162755
  72.5202220  79.9788575  10.2525002  73.8730507  79.3085852  10.3641644
  83.2645747  88.5552842  27.3861211  82.3772526  88.2178764  27.5087610
  83.8344298  87.8235873  27.6229976  64.9174894  84.8876934  20.7104262
  65.6045934  84.5738664  20.1225277  64.7623023  85.7918298  20.4371513
  69.7209616  79.7767130  25.1389286  69.6367805  79.1692800  24.4039696
  68.8992323  80.2676148  25.1398782  76.7946900  93.2154294  24.3522454
  76.7217072  94.0209266  24.8641758  76.3524294  93.4146260  23.5270475
  76.5836680  92.4526064  17.8625275  75.8004202  92.9947744  17.9563500
  77.2829425  92.9700044  18.2619517  79.8933330  78.2620694  20.5059481
  80.3902030  77.5090656  20.1860551  79.1220312  78.2985010  19.9402690
  87.7463088  83.9661059  22.1477772  87.7352964  84.8485775  21.7771705
  86.8780467  83.6132610  21.9532309  79.2545584  93.1141128  26.5080613
  79.9673556  93.7488593  26.4356514  78.7635613  93.2104994  25.6920614
  80.9763111  87.0192381  18.0797904  80.0419390  87.1393843  17.9102609
  81.1539779  86.1164848  17.8157914  76.4768299  80.4038077  20.2331165
  76.1066086  79.8509117  20.9212071  76.9727391  79.7996210  19.6806165
  84.3635662  82.8609700  18.6147938  84.8296114  83.6937692  18.5408241
  84.8143163  82.3954682  19.3193197  74.3057498  90.8635572  27.3286183
  75.0066957  91.4972055  27.4815578  73.8352613  91.2050303  26.5681823
  82.4311893  89.2053521  15.6134090  82.7071737  89.0910116  16.5227964
  81.5616392  88.8071006  15.5746263  82.3352325  75.2290287  22.6538840
  81.4215405  75.4594514  22.8221047  82.7645426  75.3128731  23.5052872
  82.1058783  83.4180179  25.1538734  81.4530234  83.6656087  24.4991186
  82.4839163  82.6044317  24.8201211  79.0665957  93.4539872  19.2566904
  79.2488352  92.6361528  19.7194656  79.8898943  93.6707565  18.8191794
  79.4008123  92.3808057  16.5181953  79.9295889  91.8700512  15.9052115
  79.6636342  92.0650588  17.3827486  78.1546357  84.1599990  31.6404771
  77.4786994  84.0594119  32.3107146  78.9773990  84.0039204  32.1040768
  69.9025216  90.3971927  24.2617286  70.4878652  89.6515615  24.3945190
  69.7050054  90.7075883  25.1453950  72.7563871  93.4323174  19.2779728
  72.0874246  93.9169302  18.7943768  72.6176740  93.6792395  20.1923107
  64.4942870  82.9677527  22.9821729  64.5326970  82.4341118  23.7758847
  63.9883163  82.4412732  22.3632706  76.8969139  95.4666918  25.8762387
  77.4487447  95.6298539  26.6411472  77.2375333  96.0571355  25.2042412
  71.8733633  77.8142067  26.4784272  71.9374959  78.6756898  26.0661669
  71.8100753  77.2016069  25.7456630  71.3485905  79.8865200  30.1257306
  71.9757944  79.5042277  30.7394830  70.4913824  79.6679402  30.4912998
  81.7480014  90.2928175  31.7311041  82.2919918  90.9058133  31.2365996
  81.1666859  90.8507754  32.2478054  68.1251448  81.6941629  16.0575661
  68.4204889  80.7852307  16.0042714  67.2239484  81.6729369  15.7356663
  80.0337527  93.4148893  22.8626069  79.9088666  92.6138633  22.3537014
  80.6916618  93.9095087  22.3740039  71.6545695  79.7697626  22.0403209
  70.9332281  80.3833593  21.9010682  72.4438951  80.3055390  21.9619855
  82.0972435  91.2157913  24.4905619  81.1502771  91.0963264  24.4183946
  82.4455208  90.3280411  24.5731880  74.4572008  77.1052052  28.3143861
  74.9806410  77.3514349  29.0770170  74.2384342  77.9372087  27.8946998
  69.8539289  79.3755727  16.1814986  69.5251996  78.4953106  15.9990092
  70.2078660  79.3203395  17.0691375  79.1018868  91.0110629  20.6909971
  78.9543831  90.0827337  20.8717541  79.9272362  91.0330720  20.2067047
  72.9681113  79.6628697  16.5490463  73.3077185  80.1914618  15.8269072
  73.4153233  80.0009103  17.3249030  82.7052990  91.8339188  21.7774844
  83.6299538  91.6282050  21.6399295  82.5368294  91.5855589  22.6864186
  75.6624553  78.0465747  25.9993531  75.3221374  77.2473560  26.4014211
  74.9563560  78.3467458  25.4270365  76.3141025  75.1315060  24.4520854
  77.1367095  74.6575538  24.3299745  76.5579089  75.9105543  24.9519541
  74.9549260  78.1603318  14.7483756  75.6757622  78.5384571  14.2447473
  74.3314564  78.8792195  14.8518734  79.0980383  78.8648467  15.6842089
  79.3143997  79.7473105  15.3830917  78.6174450  78.4734681  14.9547731
  73.8379604  81.8234180  22.2612833  73.6924185  82.1374483  23.1537115
  73.3604808  82.4419081  21.7083732  75.6975987  78.8136728  22.3093723
  75.6837556  77.9177822  21.9726021  76.4148415  78.8207392  22.9432009
  77.5502118  79.2474069  24.3546850  77.2919895  80.1691139  24.3531181
  77.0187158  78.8504503  25.0447314  82.4948306  92.3524856  17.1336935
  82.6685184  91.7871278  16.3810788  82.9877198  93.1525751  16.9516425
  68.3125266  84.3639525  25.2000494  67.7678734  85.1399333  25.3320769
  69.1904616  84.7110329  25.0419616  75.1012883  77.6951109  17.5781293
  75.2228794  76.7667755  17.7772180  74.8114925  77.7089795  16.6659608
  77.9704073  75.3806019  20.7148013  77.9925770  75.4445352  19.7599992
  78.3872132  74.5410528  20.9088519  88.3487698  85.1161279  18.7527235
  88.7918844  84.3668604  18.3546358  87.4714208  85.1071415  18.3700967
  83.4823479  91.6691620  14.2333834  84.1774384  92.2898313  14.4521148
  83.8246629  90.8186971  14.5086212  69.0991288  83.4909421  28.0930651
  68.3573024  83.6392056  28.6795282  68.7784032  83.7517687  27.2297401
  85.3814902  89.1191326  15.7621165  85.9066226  89.4578598  15.0370485
  85.2937255  88.1838341  15.5784299  77.0434951  93.0325399  27.8911041
  77.3522077  92.7874546  28.7633741  77.8410433  93.2372038  27.4029911
  77.0655563  95.1863309  20.1216418  76.6260553  94.6939688  20.8149274
  77.8163680  94.6436277  19.8808493  69.5447902  91.3774850  20.1241046
  70.3705922  91.0778622  19.7439689  69.1941954  90.6082472  20.5730834
  74.5129435  90.7301318  22.1938719  73.8909444  90.0672023  21.8940947
  75.1834302  90.7562450  21.5112367  67.7456507  89.2961176  21.0829979
  66.9088415  88.8683351  20.9013981  67.7180152  89.4893620  22.0200771
  74.5853962  79.2083106  31.7871225  74.6342118  80.0845229  31.4048995
  75.1276477  78.6660499  31.2142869  85.0708808  89.7524229  31.0672362
  84.2804352  89.7348368  30.5276862  84.8342163  90.2912523  31.8221399
  85.1906683  86.6016696  28.3805091  85.2404688  86.4366703  29.3220614
  85.0820606  85.7343955  27.9902972  74.0742942  89.2805241  15.6697180
  74.2231062  89.9640706  15.0163853  74.8809385  89.2610331  16.1846636
  82.4810446  82.5847624  29.6964398  83.3820308  82.4454088  29.4048396
  82.5558420  82.7502078  30.6362575  76.8153251  79.9614478  28.5417584
  75.9456560  80.2548044  28.2700173  77.0512731  80.5454923  29.2624848
  86.6924880  89.0213637  28.6247113  86.4009688  89.3843618  29.4610574
  86.0797011  88.3080645  28.4460445  87.8920562  86.5866517  21.1449683
  88.7267454  87.0256321  21.3087243  88.0279691  86.1105170  20.3257929
  84.9412068  84.1446252  27.0927171  85.4166190  84.3373898  26.2846022
  84.0177634  84.2005438  26.8470554  71.8295575  85.3070419  16.6758249
  71.5841617  84.4032749  16.8738459  71.9991489  85.3087569  15.7337727
  79.5192285  76.1794095  26.0583004  80.0374229  76.9155122  25.7329493
  79.1647417  76.4858089  26.8929764  71.0991222  81.0398776  14.1744410
  70.4060467  81.1143131  13.5184446  70.8542974  80.2759120  14.6965927
  79.7704879  72.5994378  21.5783901  80.0506633  71.9317567  22.2044328
  80.5555486  72.7923473  21.0658565  77.5738347  91.7753372  13.1408927
  77.0012314  92.3943559  12.6879399  78.1471141  92.3252733  13.6748849
  83.6413737  81.0212012  25.3255476  84.5931160  81.1210109  25.3467700
  83.4717188  80.2290280  25.8353561  81.6628117  78.1067595  25.5114877
  81.0678049  78.3872608  24.8161366  81.3777813  78.5961496  26.2831618
  80.7935607  92.0590522  14.2717510  81.7266280  91.9936084  14.4750385
  80.7058820  92.8946789  13.8132042  86.1201815  84.2418132  24.4397776
  86.0878135  83.3034132  24.6257460  86.7302439  84.3202168  23.7063601
  77.9585146  83.1114184  10.4824980  78.9044251  82.9820393  10.5513398
  77.5799391  82.3728846  10.9594408  86.2696303  81.0329175  24.4856059
  85.7535352  80.2487632  24.2985988  87.1536252  80.7047892  24.6502578
  83.9307030  74.7770191  20.4451872  83.7331852  74.4685279  21.3295204
  84.5406736  75.5031829  20.5749802  91.9378365  85.3034138  23.5803813
  92.6681753  85.0419426  24.1411516  91.3285310  84.5662860  23.6205881
  90.0193662  83.4442001  24.1778264  89.2926826  83.3097966  23.5694755
  89.6040949  83.7518830  24.9834982  77.8423838  87.1631931  31.9425637
  78.7626848  87.3410530  32.1365683  77.8073421  86.2187976  31.7905336
  76.1428063  81.0364161  10.4179865  75.2359518  80.7397274  10.4942579
  76.4204044  80.7393979   9.5514151  67.0606003  82.3570524  20.8678911
  66.7408788  81.5035832  20.5753285  66.5139432  82.5719102  21.6236879
  70.8385911  85.0732965  24.5848418  71.0571921  86.0050073  24.6036452
  71.2511685  84.7140940  25.3703222  77.7590129  75.5801051  16.5724106
  76.9490857  75.2348136  16.9479352  78.4474546  75.2708594  17.1611718
  79.6880677  74.6579097  18.1948403  80.2411716  75.0774551  18.8538426
  79.9250763  73.7314845  18.2371359  75.7113776  80.6466171  33.9751167
  75.6110503  81.5960528  33.9063258  75.4935318  80.3184410  33.1027237
  74.9126848  77.8951096  10.5591844  75.7746012  78.2205994  10.8187662
  75.0977192  77.1082592  10.0464910  66.9294263  85.9773436  22.8372033
  66.2357735  85.5627389  22.3241987  67.6767254  86.0193972  22.2405452
  83.0659484  76.7679623  17.7027067  82.4858153  77.4264427  17.3205120
  82.7995417  75.9456967  17.2914485  81.5163050  76.1684680  19.9048388
  82.0162829  76.2801215  19.0962706  82.1598658  75.8645733  20.5449196
  75.5745046  84.0763310  32.7916229  75.0912128  84.8763670  32.9980118
  75.6605985  84.0871255  31.8383673  68.8431006  85.9091690  20.7138048
  68.8201694  86.0079377  19.7619931  69.1531642  86.7556840  21.0355214
  71.5018384  87.9667845  24.8284662  72.4561637  87.9351787  24.7614594
  71.3030907  87.5058468  25.6434888  72.0917766  86.5368961  27.3955460
  72.9110655  87.0313039  27.4190297  72.3654574  85.6200929  27.3673028
  81.8484362  78.9279713  16.7583416  80.9610217  79.2129364  16.5403610
  82.2638351  78.7673476  15.9110692  85.1998898  78.9526234  20.4737755
  85.9759288  79.4422686  20.7462372  84.4747032  79.3784288  20.9309624
  87.6371457  79.6653853  21.5311695  88.2315948  79.4249589  20.8205004
  87.7098041  78.9460984  22.1585232  69.8568613  93.5087464  21.8454860
  69.7223080  92.7487865  21.2792858  69.4400675  94.2328364  21.3783649
  80.9927576  88.6924388  10.8531436  81.6963426  88.8974390  11.4689091
  80.2690224  89.2601149  11.1180519  81.8225386  84.4434249  16.9733706
  81.7660587  84.9002800  16.1341338  82.3753728  83.6824933  16.7956548
  85.6330192  80.2323981  17.7983825  85.3767126  79.8320616  18.6292033
  85.0083060  80.9467775  17.6733964  89.9442530  82.9720054  20.3055117
  89.3842088  83.0413243  21.0786679  89.3386033  82.7961039  19.5854613
  73.0137738  94.4056781  22.0573303  72.8970123  95.3502214  21.9551993
  72.1930185  94.1030343  22.4459102  82.9014273  89.1306917  12.9029896
  83.7359877  88.6988115  12.7207370  82.7398616  88.9588930  13.8306790
  82.5560165  85.6339030  14.2686235  82.5008969  85.4683302  13.3274679
  81.9306220  86.3415063  14.4248425  67.3452680  80.8707094  28.0947657
  67.9911544  80.3606048  28.5834882  67.1369831  81.6075776  28.6691082
  79.8706072  87.9387942  33.5939798  80.7397232  88.1128594  33.2326433
  79.3912824  88.7582359  33.4715527  75.8656291  75.1347139  13.8471553
  75.8534960  76.0788979  14.0039824  76.7579712  74.9517285  13.5531014
  74.0392253  95.0585043  25.2729231  74.9419499  95.0908653  25.5895726
  73.8129623  94.1285494  25.2875567  75.7945855  93.8116030  21.9339310
  74.8441486  93.8117891  21.8203682  76.0978341  93.0648764  21.4175345
  79.6808410  71.7289916  18.1017490  78.9140806  71.1748402  18.2474172
  80.0919115  71.8011785  18.9631642  71.6850171  78.0174712  32.1922671
  72.5481633  77.6611516  32.4025996  71.1115582  77.6788606  32.8798076
  91.5298548  99.6476568  22.9985072  92.1676958  99.5283315  22.2948412
  91.4119391 100.5957412  23.0573024  88.3388254  99.6003996  22.9346597
  88.0006766  99.4845061  22.0467132  89.2078023  99.1995161  22.9147603
  88.8208037 100.7538848  28.8932803  88.8096678 100.3591646  28.0213306
  88.9828677 100.0204920  29.4866574  81.7439502 102.9490664  21.7627708
  82.5360794 102.6081489  21.3474008  81.9836152 103.0585639  22.6829862
  85.5415298 103.5375960  27.8411987  85.2505164 104.4421590  27.7258653
  86.1772283 103.5792487  28.5556056  86.4671505 100.9152808  24.4313346
  87.0635078 100.6908830  23.7170309  86.5246477 100.1737554  25.0338794
  91.0839817  97.3728022  20.0738280  91.8702906  96.9547445  19.7228697
  91.3478521  98.2774114  20.2419929  94.0073664  91.0224829  25.4365867
  93.6756989  91.8920240  25.2127082  93.4119277  90.7061113  26.1159898
  90.5005184 103.2237375  24.8361780  90.2005907 104.1262414  24.7277587
  90.1556243 102.9569558  25.6882933  83.9517665  99.6751172  20.8698485
  83.0268162  99.5427386  21.0776176  84.2002078 100.4545391  21.3668427
  93.9002327  95.7419915  22.5159218  92.9919205  95.6735324  22.2217978
  93.8489923  96.2191860  23.3441043  81.3126476  99.3184445  21.7042274
  81.4418857  99.5718924  22.6181685  80.6323927  99.9112153  21.3846929
  87.9743193  97.1609561  30.4594115  87.1976527  97.7203481  30.4496979
  88.6133756  97.6466344  30.9808985  95.7663974  93.9436354  24.2937091
  95.1238354  94.2368887  23.6476886  95.2618902  93.8289274  25.0990288
  86.2289565  99.9695014  30.0212082  86.9704250 100.5080058  29.7446905
  85.5226551 100.5961303  30.1783634  91.7044905 102.1124155  28.6184243
  92.1128261 101.6706565  27.8738876  90.9822167 101.5376782  28.8718436
  88.0575975  97.0496761  25.9917800  88.9037170  97.4736175  26.1352449
  87.9974613  96.3930386  26.6856363  91.2075420  94.7101130  27.6498974
  90.9636352  95.4643190  27.1133250  91.4835351  95.0886477  28.4846221
  93.1613883 101.2539742  26.3276239  93.3730778 101.8971502  25.6510621
  93.1143631 100.4202059  25.8598170  90.7640112  93.8657563  23.2312812
  89.9024591  94.1638816  23.5229549  90.7902547  94.0827962  22.2993844
  84.4725763 101.9571235  22.5766381  85.0427120 102.3858503  21.9383865
  85.0633875 101.6753820  23.2750566  84.9650929  97.1234662  30.8227392
  84.3349590  97.8050943  31.0562789  84.8587017  97.0117744  29.8780530
  80.2595902  96.7906458  21.7493316  79.4694956  97.0463987  21.2733427
  80.7507149  97.6054796  21.8545357  82.2110647  97.1551038  18.7076793
  81.4141810  97.2669732  19.2260288  81.9836239  97.4937690  17.8417683
  88.0416315 103.6795741  26.6559307  88.1060747 104.1416148  27.4917479
  87.3327239 103.0493106  26.7841617  78.5433605  97.0436949  24.1808307
  78.7941643  97.9283959  24.4465883  79.0793153  96.8641550  23.4083399
  84.2431672  91.4255428  33.1852643  83.8498617  90.8721627  33.8600287
  85.0597812  91.7366007  33.5759160  87.1599633  92.8413307  30.7772899
  87.9009346  93.4420460  30.6977362  87.3917556  92.0990945  30.2190942
  82.3040971  98.0269675  29.0551129  82.1894486  97.1254932  29.3558228
  81.4485489  98.2733371  28.7035946  89.3832809 105.9687415  30.6538630
  88.9396663 105.1823793  30.3359534  90.0450022 106.1566565  29.9882520
  84.1419930 107.4983216  25.1799308  84.6927355 107.3700280  24.4076302
  83.3031406 107.7978105  24.8294201  91.4814047 106.2490215  28.6820031
  91.4632522 107.0699096  28.1900300  92.4033967 106.1244290  28.9070172
  87.9387101 103.7634344  29.5243539  88.4715438 103.0022632  29.2942847
  87.4101182 103.4707996  30.2667694  91.1056796  88.8694410  25.0537181
  90.7621065  89.7596052  24.9776292  91.4735758  88.6796068  24.1906766
  79.1742646 101.1927941  17.8725783  80.0117868 101.6024949  17.6559491
  79.3520914 100.2527383  17.8425977  88.6554190  93.7052722  18.6194855
  87.7995786  93.3159573  18.4400493  89.0681141  93.7844683  17.7594640
  90.1853336  91.2399065  23.0186414  89.6818132  91.2029201  22.2054220
  90.4783943  92.1491808  23.0783071  86.4296222  91.3237795  22.0252596
  87.2949219  91.1280604  21.6658486  86.4973731  91.0948147  22.9521953
  84.0358541  93.5540003  19.3968963  84.6102293  93.3315185  18.6642156
  84.6229524  93.6228698  20.1497564  86.3381209  90.4281252  18.1244032
  85.6845621  90.1130269  17.5000647  86.2961683  89.8056992  18.8503855
  89.5718949  96.9163185  22.4491680  88.6541511  97.1378132  22.2913368
  89.9879093  96.9909496  21.5903387  92.9044462  88.1287969  20.1554919
  93.2103338  87.2685333  19.8680834  93.6297066  88.7205590  19.9553913
  79.1968818  98.5318656  18.5436517  78.9993217  97.9388017  17.8187583
  78.6415482  98.2270866  19.2612455  87.1765541  98.4241762  20.6631110
  87.2314151  97.4715599  20.5873586  86.3656743  98.5801202  21.1472408
  85.1157901  97.0418822  18.4221489  84.3025767  97.3412993  18.8286681
  85.6116895  96.6474511  19.1395971  90.7132113  97.5060647  27.2536383
  91.0681501  97.7332120  28.1130848  91.3604244  97.8379023  26.6313638
  84.6071976  94.6137178  24.0382724  85.2471355  94.4725937  23.3405687
  83.7749506  94.3271691  23.6621326  90.2027124 106.2957704  24.5030084
  90.2564147 106.8648640  25.2707800  89.3341906 106.4659589  24.1384121
  81.6100592  94.5837503  18.8155710  81.8707410  95.4982836  18.7064871
  82.4317765  94.1161945  18.9652323  83.0825518  95.9975260  25.9854535
  83.7548571  95.7892622  25.3367184  82.2555304  95.7997346  25.5459767
  88.9851090  92.6237201  28.0020196  88.3379005  93.3227150  27.9084672
  89.7552105  93.0573345  28.3696444  92.3929888 102.8886053  31.0770749
  92.2415394 102.6596605  30.1600833  92.3834567 103.8456654  31.0902094
  89.1615224 100.4617966  26.0617016  90.0907284 100.6129125  25.8885983
  88.7406254 100.5501987  25.2065662  87.9603556 104.4868630  23.8315553
  87.8214642 104.1187415  24.7041491  87.1718152 105.0016270  23.6599511
  83.4853015  99.2717863  26.7456972  83.3472813  98.5398102  27.3468511
  84.3957938  99.1826763  26.4641160  86.1135316  98.9837822  26.2340652
  86.8234934  98.3431014  26.1927270  86.0704624  99.2350717  27.1566833
  94.1022094 105.9205176  29.1547231  94.0434640 105.2364396  28.4877814
  94.5041613 106.6624166  28.7027857  84.8264250  95.9703040  28.0536291
  84.2901607  95.5193779  28.7057888  84.2380958  96.1048949  27.3106756
  94.1039502 103.8844759  27.3861211  93.2166280 103.5470681  27.5087610
  94.6738053 103.1527791  27.6229976  75.7568649 100.2168851  20.7104262
  76.4439689  99.9030581  20.1225277  75.6016777 101.1210216  20.4371513
  80.5603371  95.1059048  25.1389286  80.4761560  94.4984717  24.4039696
  79.7386077  95.5968066  25.1398782  90.7327085  93.5912611  20.5059481
  91.2295784  92.8382574  20.1860551  89.9614066  93.6276928  19.9402690
  90.0939338 108.4433046  26.5080613  90.8067311 109.0780511  26.4356514
  89.6029367 108.5396912  25.6920614  87.3162053  95.7329994  20.2331165
  86.9459841  95.1801035  20.9212071  87.8121146  95.1288128  19.6806165
  85.1451252 106.1927489  27.3286183  85.8460711 106.8263972  27.4815578
  84.6746367 106.5342221  26.5681823  93.1746079  90.5582205  22.6538840
  92.2609159  90.7886432  22.8221047  93.6039181  90.6420649  23.5052872
  92.9452538  98.7472097  25.1538734  92.2923988  98.9948004  24.4991186
  93.3232918  97.9336235  24.8201211  88.9940111  99.4891908  31.6404771
  88.3180748  99.3886037  32.3107146  89.8167745  99.3331122  32.1040768
  80.7418970 105.7263844  24.2617286  81.3272407 104.9807532  24.3945190
  80.5443809 106.0367801  25.1453950  75.3336625  98.2969445  22.9821729
  75.3720724  97.7633035  23.7758847  74.8276918  97.7704650  22.3632706
  82.7127387  93.1433985  26.4784272  82.7768714  94.0048816  26.0661669
  82.6494507  92.5307987  25.7456630  82.1879660  95.2157118  30.1257306
  82.8151698  94.8334195  30.7394830  81.3307578  94.9971320  30.4912998
  92.5873768 105.6220093  31.7311041  93.1313672 106.2350051  31.2365996
  92.0060613 106.1799671  32.2478054  78.9645202  97.0233547  16.0575661
  79.2598643  96.1144225  16.0042714  78.0633238  97.0021286  15.7356663
  82.4939449  95.0989543  22.0403209  81.7726035  95.7125511  21.9010682
  83.2832705  95.6347308  21.9619855  85.2965763  92.4343970  28.3143861
  85.8200165  92.6806266  29.0770170  85.0778096  93.2664005  27.8946998
  80.6933044  94.7047644  16.1814986  80.3645750  93.8245023  15.9990092
  81.0472415  94.6495313  17.0691375  83.8074867  94.9920614  16.5490463
  84.1470940  95.5206535  15.8269072  84.2546988  95.3301020  17.3249030
  86.5018308  93.3757665  25.9993531  86.1615128  92.5765478  26.4014211
  85.7957314  93.6759376  25.4270365  87.1534780  90.4606977  24.4520854
  87.9760849  89.9867456  24.3299745  87.3972843  91.2397461  24.9519541
  84.6773359  97.1526098  22.2612833  84.5317939  97.4666401  23.1537115
  84.1998562  97.7710998  21.7083732  86.5369741  94.1428646  22.3093723
  86.5231310  93.2469739  21.9726021  87.2542170  94.1499310  22.9432009
  88.3895872  94.5765986  24.3546850  88.1313650  95.4983057  24.3531181
  87.8580913  94.1796421  25.0447314  79.1519021  99.6931442  25.2000494
  78.6072489 100.4691250  25.3320769  80.0298371 100.0402247  25.0419616
  85.9406637  93.0243026  17.5781293  86.0622549  92.0959672  17.7772180
  85.6508680  93.0381712  16.6659608  88.8097828  90.7097937  20.7148013
  88.8319525  90.7737270  19.7599992  89.2265887  89.8702445  20.9088519
  79.9385043  98.8201339  28.0930651  79.1966779  98.9683974  28.6795282
  79.6177787  99.0809604  27.2297401  87.8828705 108.3617317  27.8911041
  88.1915832 108.1166464  28.7633741  88.6804187 108.5663955  27.4029911
  78.5850261 104.6253094  21.0829979  77.7482170 104.1975268  20.9013981
  78.5573907 104.8185537  22.0200771  85.4247717  94.5375024  31.7871225
  85.4735872  95.4137146  31.4048995  85.9670231  93.9952417  31.2142869
  95.9102563 105.0816147  31.0672362  95.1198106 105.0640286  30.5276862
  95.6735917 105.6204441  31.8221399  96.0300438 101.9308613  28.3805091
  96.0798443 101.7658621  29.3220614  95.9214361 101.0635872  27.9902972
  93.3204200  97.9139541  29.6964398  94.2214063  97.7746006  29.4048396
  93.3952175  98.0793996  30.6362575  87.6547005  95.2906396  28.5417584
  86.7850315  95.5839962  28.2700173  87.8906486  95.8746841  29.2624848
  97.5318634 104.3505555  28.6247113  97.2403443 104.7135535  29.4610574
  96.9190766 103.6372563  28.4460445  95.7805823  99.4738169  27.0927171
  96.2559944  99.6665816  26.2846022  94.8571388  99.5297355  26.8470554
  90.3586039  91.5086013  26.0583004  90.8767983  92.2447040  25.7329493
  90.0041172  91.8150006  26.8929764  90.6098633  87.9286295  21.5783901
  90.8900387  87.2609485  22.2044328  91.3949240  88.1215391  21.0658565
  94.4807492  96.3503929  25.3255476  95.4324915  96.4502027  25.3467700
  94.3110942  95.5582198  25.8353561  92.5021871  93.4359513  25.5114877
  91.9071803  93.7164525  24.8161366  92.2171568  93.9253414  26.2831618
  96.9595569  99.5710049  24.4397776  96.9271890  98.6326050  24.6257460
  97.5696193  99.6494086  23.7063601  97.1090058  96.3621093  24.4856059
  96.5929107  95.5779549  24.2985988  97.9930006  96.0339809  24.6502578
  94.7700785  90.1062108  20.4451872  94.5725606  89.7977196  21.3295204
  95.3800490  90.8323747  20.5749802  88.6817593 102.4923848  31.9425637
  89.6020602 102.6702447  32.1365683  88.6467176 101.5479894  31.7905336
  77.8999758  97.6862442  20.8678911  77.5802542  96.8327750  20.5753285
  77.3533186  97.9011020  21.6236879  81.6779665 100.4024883  24.5848418
  81.8965675 101.3341991  24.6036452  82.0905439 100.0432857  25.3703222
  88.5983883  90.9092968  16.5724106  87.7884612  90.5640053  16.9479352
  89.2868300  90.6000512  17.1611718  90.5274431  89.9871015  18.1948403
  91.0805470  90.4066468  18.8538426  90.7644518  89.0606763  18.2371359
  86.5507531  95.9758089  33.9751167  86.4504258  96.9252446  33.9063258
  86.3329073  95.6476328  33.1027237  77.7688018 101.3065353  22.8372033
  77.0751489 100.8919306  22.3241987  78.5161009 101.3485890  22.2405452
  92.3556805  91.4976598  19.9048388  92.8556583  91.6093132  19.0962706
  92.9992413  91.1937651  20.5449196  86.4138801  99.4055228  32.7916229
  85.9305882 100.2055588  32.9980118  86.4999740  99.4163172  31.8383673
  79.6824760 101.2383607  20.7138048  79.6595449 101.3371294  19.7619931
  79.9925397 102.0848758  21.0355214  82.3412138 103.2959762  24.8284662
  83.2955392 103.2643705  24.7614594  82.1424662 102.8350386  25.6434888
  82.9311520 101.8660878  27.3955460  83.7504409 102.3604957  27.4190297
  83.2048328 100.9492846  27.3673028  96.0392653  94.2818152  20.4737755
  96.8153043  94.7714604  20.7462372  95.3140787  94.7076206  20.9309624
  78.1846435  96.1999012  28.0947657  78.8305298  95.6897966  28.5834882
  77.9763586  96.9367694  28.6691082  90.7099827 103.2679860  33.5939798
  91.5790986 103.4420512  33.2326433  90.2306578 104.0874276  33.4715527
  84.8786007 110.3876961  25.2729231  85.7813254 110.4200571  25.5895726
  84.6523377 109.4577412  25.2875567  90.5202165  87.0581833  18.1017490
  89.7534560  86.5040320  18.2474172  90.9312870  87.1303702  18.9631642
  82.5243926  93.3466629  32.1922671  83.3875387  92.9903434  32.4025996
  81.9509336  93.0080524  32.8798076  95.0825426 106.7547346  33.1852643
  94.6892372 106.2013544  33.8600287  95.8991567 107.0657924  33.5759160
  97.9993387 108.1705225  30.7772899  98.7403101 108.7712378  30.6977362
  98.2311310 107.4282863  30.2190942  93.0273414 110.5449035  30.1257306
  93.6545453 110.1626113  30.7394830  92.1701333 110.3263237  30.4912998
  96.2641471 109.8666941  31.7871225  96.3129627 110.7429064  31.4048995
  96.8063986 109.3244334  31.2142869  97.3901285 111.3050006  33.9751167
  97.2898012 112.2544363  33.9063258  97.1722827 110.9768245  33.1027237
  89.0240189 111.5290930  28.0947657  89.6699053 111.0189884  28.5834882
  88.8157340 112.2659611  28.6691082  93.3637680 108.6758547  32.1922671
  94.2269142 108.3195352  32.4025996  92.7903091 108.3372442  32.8798076
  46.0257792  21.6581867  17.3783936  45.5821646  20.8718245  17.0604841
  46.6875006  21.8461017  16.7127827  48.1239030  21.9384667  15.4065338
  48.1057505  22.7593548  14.9145607  49.0458950  21.8138742  15.6315479
  49.0354871  18.5780505  17.8016056  48.8840377  18.3491057  16.8846139
  49.0259550  19.5351106  17.8147401  50.7447078  21.6099627  15.8792538
  50.6859624  20.9258848  15.2123121  51.1466596  22.3518617  15.4273164
  49.2298751  21.3114545  18.4556348  49.7738655  21.9244503  17.9611303
  48.6485596  21.8694123  18.9723361  52.5527546  20.7710599  17.7917669
  51.7623090  20.7534738  17.2522169  52.3160900  21.3098892  18.5466706
  54.1743618  20.0400007  15.3492419  53.8828426  20.4029987  16.1855880
  53.5615749  19.3267015  15.1705751  47.3524810  18.9574312  20.3185104
  48.2215970  19.1314964  19.9571739  46.8731562  19.7768728  20.1960834
  59.0117286  30.6662937   9.7230379  59.6495696  30.5469685   9.0193719
  58.8938129  31.6143781   9.7818331  55.8206992  30.6190366   9.6591904
  55.4825504  30.5031430   8.7712439  56.6896760  30.2181531   9.6392910
  56.3026775  31.7725217  15.6178109  56.2915416  31.3778016  14.7458613
  56.4647415  31.0391290  16.2111881  49.2258240  33.9677034   8.4873015
  50.0179532  33.6267858   8.0719314  49.4654890  34.0772009   9.4075168
  53.0234036  34.5562329  14.5657293  52.7323902  35.4607960  14.4503959
  53.6591021  34.5978857  15.2801363  53.9490243  31.9339178  11.1558653
  54.5453815  31.7095200  10.4415616  54.0065215  31.1923923  11.7584101
  63.9666981  28.3289625   7.7016566  64.6992153  27.7588841   7.9354395
  63.2106337  27.9411225   8.1423071  61.4892402  22.0411199  12.1611174
  61.1575727  22.9106610  11.9372389  60.8938015  21.7247483  12.8405205
  57.9823921  34.2423745  11.5607087  57.6824644  35.1448783  11.4522894
  57.6374981  33.9755928  12.4128240  61.3821065  26.7606285   9.2404524
  60.4737942  26.6921693   8.9463285  61.3308661  27.2378230  10.0686350
  52.9644701  41.0068065   4.5278055  52.8868731  41.9575890   4.6066535
  52.3606345  40.6613937   5.1852981  55.4561931  28.1795930  17.1839421
  54.6795265  28.7389851  17.1742286  56.0952494  28.6652713  17.7054292
  63.2482712  24.9622723  11.0182398  62.6057092  25.2555256  10.3722193
  62.7437640  24.8475644  11.8235595  53.7108303  30.9881384  16.7457388
  54.4522988  31.5266428  16.4692212  53.0045289  31.6147673  16.9028940
  59.1863643  33.1310524  15.3429550  59.5946999  32.6892935  14.5984182
  58.4640904  32.5563152  15.5963743  55.5394713  28.0683131  12.7163107
  56.3855908  28.4922545  12.8597756  55.4793351  27.4116755  13.4101670
  59.5092458  33.6911715   9.0981839  58.8801320  33.8557429   8.3957907
  59.1218120  34.1053324   9.8692803  63.3881689  34.6266153   6.4526203
  62.7032728  35.0065054   5.9023236  63.4725539  35.2361479   7.1858150
  58.6894158  25.7287499  14.3744281  58.4455090  26.4829560  13.8378556
  58.9654089  26.1072847  15.2091528  60.6432621  32.2726112  13.0521546
  60.8549516  32.9157872  12.3755927  60.5962369  31.4388428  12.5843476
  51.9544500  32.9757604   9.3011687  52.5245858  33.4044873   8.6629172
  52.5452612  32.6940189   9.9995873  52.4469667  28.1421032  17.5472698
  51.8168328  28.8237313  17.7808095  52.3405755  28.0304114  16.6025837
  61.7578449  35.1498067  11.2243903  62.5795893  34.7478254  10.9426585
  61.7540852  35.0466301  12.1760019  55.5235052  34.6982110  13.3804614
  55.5879485  35.1602518  14.2162786  54.8145976  34.0679475  13.5086924
  69.8484442  31.4936816   7.5728875  69.0948150  30.9244214   7.4172879
  69.9831983  31.4599480   8.5199510  51.7250410  22.4441798  19.9097949
  51.3317355  21.8907996  20.5845594  52.5416550  22.7552376  20.3004467
  50.5007352  36.9991412   5.9034273  50.6773981  37.9209377   5.7155256
  51.2964186  36.6849831   6.3328652  54.6418371  23.8599677  17.5018206
  55.3828084  24.4606830  17.4222669  54.8736294  23.1177315  16.9436249
  49.7859709  29.0456044  15.7796436  49.6713224  28.1441301  16.0803535
  48.9304226  29.2919741  15.4281252  56.8651546  36.9873784  17.3783936
  56.4215401  36.2010163  17.0604841  57.5268760  37.1752935  16.7127827
  51.6238668  38.5169586  11.9044615  52.1746093  38.3886649  11.1321609
  50.7850144  38.8164475  11.5539508  58.9632785  37.2676584  15.4065338
  58.9451260  38.0885465  14.9145607  59.8852705  37.1430660  15.6315479
  55.4205839  34.7820714  16.2488846  55.9534175  34.0209002  16.0188154
  54.8919920  34.4894366  16.9913000  61.7651397  32.1055727   8.8774704
  61.1075072  32.7954988   8.9654833  62.5691797  32.4952159   9.2208691
  60.5756856  30.4600099   6.9278646  61.0888738  31.0930091   7.4300356
  61.2258080  29.8601295   6.5622006  57.0537687  27.9349555   9.1736987
  56.1360248  28.1564502   9.0158675  57.4697831  28.0095866   8.3148694
  61.3418652  35.4406101   5.0557789  60.8880980  34.5997011   5.1122979
  60.7112619  36.0767499   5.3932569  59.7851592  37.2782598   5.9907607
  60.0774566  37.8387655   5.2719972  60.2950212  37.5711159   6.7460766
  54.7485217  38.0562949   7.0801060  54.7061396  38.2823795   6.1509592
  55.6647916  37.8226323   7.2286861  58.1950851  28.5247016  13.9781689
  58.5500238  28.7518489  14.8376155  58.8422982  28.8565393  13.3558945
  63.9248588  31.6465452   4.6831018  63.7866486  31.8367048   3.7552207
  63.5684806  32.4084835   5.1399069  63.9517967  33.7141979   9.6942290
  64.3854474  33.6217268  10.5425344  64.6649548  33.6899480   9.0562306
  52.8651018  34.9325978   6.8763023  53.6591616  34.4376298   6.6745598
  52.1542710  34.4043841   6.5130728  57.6845862  37.3144073  11.2275390
  57.7382884  37.8835010  11.9953106  56.8160643  37.4845958  10.8629428
  50.5644255  27.0161629  12.7099842  51.2367309  26.8078992  12.0612491
  49.7374042  26.8183715  12.2705074  64.8133517  33.7565680  12.2275175
  65.0069407  34.6611490  12.4734450  64.7134135  33.2973099  13.0613760
  56.4669827  23.6423570  14.7265503  55.8197743  24.3413520  14.6329979
  57.2370843  24.0759714  15.0941751  59.8748625  33.9072423  17.8016056
  59.7234132  33.6782974  16.8846139  59.8653305  34.8643024  17.8147401
  56.6433962  31.4804335  12.7862322  57.5726022  31.6315495  12.6131290
  56.2224992  31.5688356  11.9310969  55.4422294  35.5055000  10.5560860
  55.3033379  35.1373784  11.4286798  54.6536890  36.0202639  10.3844818
  56.0370446  40.6064096   1.8986396  56.2122201  40.1352139   2.7132019
  55.3503234  41.2329862   2.1267657  56.9927509  34.8836602   7.9449698
  56.6577341  34.8437372   8.8407348  56.4931454  34.2181318   7.4720108
  50.9671753  30.2904232  13.4702279  50.8291551  29.5584471  14.0713818
  51.8776676  30.2013133  13.1886467  53.5954053  30.0024192  12.9585958
  54.3053672  29.3617384  12.9172577  53.5523362  30.2537087  13.8812139
  61.5840832  36.9391545  15.8792538  61.5253378  36.2550765  15.2123121
  61.9860350  37.6810535  15.4273164  52.3082987  26.9889410  14.7781598
  51.7720344  26.5380148  15.4303194  51.7199696  27.1235318  14.0352062
  50.6031531  43.7553459   8.6726257  50.8428129  44.3871983   9.3505275
  49.7600727  43.4041499   8.9591616  61.5858239  34.9031129  14.1106517
  60.6985018  34.5657051  14.2332916  62.1556790  34.1714160  14.3475283
  55.1159393  39.5632581  11.0767761  55.0429564  40.3687553  11.5887065
  54.6736786  39.7624547  10.2515782  54.9049172  38.8004351   4.5870582
  54.1216694  39.3426032   4.6808807  55.6041918  39.3178331   4.9864823
  66.0675580  30.3139346   8.8723079  66.0565456  31.1964062   8.5017012
  65.1992959  29.9610897   8.6777616  57.5758076  39.4619415  13.2325919
  58.2886048  40.0966880  13.1601821  57.0848105  39.5583281  12.4165921
  59.2975603  33.3670668   4.8043211  58.3631882  33.4872131   4.6347915
  59.4752272  32.4643135   4.5403221  62.6848155  29.2087987   5.3393245
  63.1508607  30.0415979   5.2653548  63.1355655  28.7432969   6.0438503
  52.6269990  37.2113859  14.0531490  53.3279449  37.8450342  14.2060884
  52.1565105  37.5528590  13.2927129  60.4271276  29.7658466  11.8784040
  59.7742726  30.0134374  11.2236493  60.8051656  28.9522605  11.5446518
  57.3878450  39.8018160   5.9812211  57.5700844  38.9839815   6.4439963
  58.2111436  40.0185852   5.5437101  57.7220615  38.7286345   3.2427259
  58.2508382  38.2178799   2.6297421  57.9848835  38.4128875   4.1072792
  56.4758849  30.5078277  18.3650077  55.7999486  30.4072407  19.0352453
  57.2986483  30.3517491  18.8286075  48.2237708  36.7450214  10.9862593
  48.8091145  35.9993902  11.1190497  48.0262546  37.0554171  11.8699257
  51.0776363  39.7801461   6.0025035  50.4086738  40.2647589   5.5189075
  50.9389233  40.0270682   6.9168414  55.2181632  41.8145205  12.6007693
  55.7699940  41.9776826  13.3656779  55.5587825  42.4049643  11.9287718
  49.6698397  26.2343487  16.8502612  50.2970436  25.8520565  17.4640137
  48.8126316  26.0157689  17.2158305  60.0692506  36.6406462  18.4556348
  60.6132410  37.2536421  17.9611303  59.4879351  37.1986041  18.9723361
  58.3550019  39.7627180   9.5871376  58.2301158  38.9616920   9.0782321
  59.0129110  40.2573374   9.0985346  60.4184927  37.5636200  11.2150926
  59.4715263  37.4441552  11.1429252  60.7667700  36.6758699  11.2977187
  52.7784501  23.4530339  15.0389168  53.3018903  23.6992636  15.8015477
  52.5596834  24.2850374  14.6192305  57.4231361  37.3588917   7.4155278
  57.2756323  36.4305624   7.5962848  58.2484854  37.3809007   6.9312353
  61.0265482  38.1817475   8.5020151  61.9512030  37.9760337   8.3644602
  60.8580786  37.9333877   9.4109492  53.9837046  24.3944035  12.7238838
  53.6433866  23.5951848  13.1259518  53.2776052  24.6945745  12.1515671
  55.8714610  25.5952356  11.0792157  55.6132388  26.5169426  11.0776487
  55.3399650  25.1982790  11.7692621  60.8160799  38.7003143   3.8582242
  60.9897676  38.1349565   3.1056095  61.3089690  39.5004038   3.6761732
  46.6337758  30.7117812  11.9245801  46.0891227  31.4877620  12.0566075
  47.5117108  31.0588616  11.7664922  66.6700190  31.4639566   5.4772542
  67.1131336  30.7146891   5.0791665  65.7926700  31.4549702   5.0946274
  61.8035971  38.0169907   0.9579140  62.4986876  38.6376600   1.1766455
  62.1459121  37.1665258   1.2331518  47.4203780  29.8387708  14.8175958
  46.6785516  29.9870344  15.4040588  47.0996525  30.0995974  13.9542707
  63.7027394  35.4669613   2.4866471  64.2278718  35.8056886   1.7615791
  63.6149747  34.5316628   2.3029606  55.3647443  39.3803686  14.6156348
  55.6734569  39.1352833  15.4879047  56.1622925  39.5850325  14.1275218
  55.3868055  41.5341596   6.8461724  54.9473045  41.0417975   7.5394581
  56.1376172  40.9914564   6.6053800  47.8660394  37.7253137   6.8486352
  48.6918414  37.4256909   6.4684996  47.5154446  36.9560759   7.2976141
  52.8341927  37.0779605   8.9184026  52.2121936  36.4150310   8.6186254
  53.5046794  37.1040737   8.2357674  52.9066455  25.5561393  18.5116532
  52.9554610  26.4323516  18.1294302  53.4488969  25.0138786  17.9388175
  63.3921300  36.1002516  17.7917669  62.6016844  36.0826655  17.2522169
  63.1554655  36.6390810  18.5466706  63.5119175  32.9494983  15.1050398
  63.5617180  32.7844990  16.0465920  63.4033099  32.0822242  14.7148278
  60.8022938  28.9325911  16.4209704  61.7032801  28.7932376  16.1293702
  60.8770912  29.0980366  17.3607882  55.1365743  26.3092766  15.2662891
  54.2669053  26.6026332  14.9945479  55.3725223  26.8933211  15.9870154
  65.0137372  35.3691924  15.3492419  64.7222181  35.7321905  16.1855880
  64.4009504  34.6558933  15.1705751  66.2133055  32.9344804   7.8694989
  67.0479946  33.3734608   8.0332550  66.3492183  32.4583457   7.0503235
  63.2624560  30.4924539  13.8172477  63.7378682  30.6852185  13.0091329
  62.3390126  30.5483725  13.5715861  57.8404777  22.5272383  12.7828311
  58.3586721  23.2633409  12.4574800  57.4859910  22.8336376  13.6175070
  61.9626229  27.3690299  12.0500783  62.9143652  27.4688397  12.0713007
  61.7929680  26.5768568  12.5598867  59.9840609  24.4545882  12.2360184
  59.3890541  24.7350895  11.5406672  59.6990306  24.9439783  13.0076925
  64.4414307  30.5896419  11.1643082  64.4090627  29.6512419  11.3502766
  65.0514931  30.6680455  10.4308907  64.5908796  27.3807462  11.2101366
  64.0747844  26.5965919  11.0231294  65.4748744  27.0526179  11.3747885
  70.2590857  31.6512426  10.3049119  70.9894246  31.3897714  10.8656823
  69.6497803  30.9141148  10.3451187  68.3406154  29.7920288  10.9023570
  67.6139318  29.6576253  10.2940062  67.9253441  30.0997117  11.7080288
  56.1636331  33.5110218  18.6670943  57.0839340  33.6888817  18.8610990
  56.1285914  32.5666263  18.5150643  49.1598403  31.4211253  11.3093725
  49.3784413  32.3528360  11.3281758  49.5724177  31.0619227  12.0948528
  54.0326269  26.9944458  20.6996474  53.9322995  27.9438815  20.6308565
  53.8147811  26.6662697  19.8272544  53.8957539  30.4241597  19.5161535
  53.4124620  31.2241957  19.7225424  53.9818478  30.4349542  18.5628979
  49.8230876  34.3146132  11.5529969  50.7774130  34.2830074  11.4859901
  49.6243400  33.8536756  12.3680195  50.4130258  32.8847248  14.1200767
  51.2323147  33.3791327  14.1435604  50.6867066  31.9679216  14.0918334
  63.5211391  25.3004521   7.1983061  64.2971781  25.7900974   7.4707678
  62.7959525  25.7262575   7.6554931  65.9583949  26.0132140   8.2557002
  66.5528440  25.7727876   7.5450310  66.0310533  25.2939271   8.8830538
  48.1781105  39.8565751   8.5700167  48.0435573  39.0966152   8.0038165
  47.7613167  40.5806651   8.1028956  68.2655022  29.3198341   7.0300423
  67.7054580  29.3891531   7.8031985  67.6598525  29.1439326   6.3099919
  51.3350231  40.7535068   8.7818610  51.2182615  41.6980501   8.6797300
  50.5142677  40.4508630   9.1704409  45.6665172  27.2185382  14.8192964
  46.3124036  26.7084336  15.3080189  45.4582324  27.9554063  15.3936389
  58.1918565  34.2866229  20.3185104  59.0609724  34.4606881  19.9571739
  57.7125316  35.1060646  20.1960834  52.3604745  41.4063330  11.9974538
  53.2631992  41.4386940  12.3141033  52.1342115  40.4763781  12.0120874
  54.1158347  40.1594317   8.6584617  53.1653978  40.1596178   8.5448989
  54.4190833  39.4127051   8.1420651  50.0062663  24.3652999  18.9167978
  50.8694125  24.0089804  19.1271303  49.4328074  24.0266894  19.6043382
  69.8511040  45.9954855   9.7230379  70.4889450  45.8761603   9.0193719
  69.7331883  46.9435699   9.7818331  66.6600747  45.9482283   9.6591904
  66.3219258  45.8323348   8.7712439  67.5290515  45.5473448   9.6392910
  62.5187562  47.8017760   5.6488795  61.9552427  47.7107697   4.8805082
  62.4039957  46.9817664   6.1291287  67.1420530  47.1017135  15.6178109
  67.1309170  46.7069933  14.7458613  67.3041169  46.3683208  16.2111881
  60.0651994  49.2968951   8.4873015  60.8573286  48.9559776   8.0719314
  60.3048644  49.4063926   9.4075168  68.0987121  51.4688727   0.9603260
  67.4475101  52.0542808   0.5737273  68.8931484  51.9994922   1.0198297
  62.0242748  48.5577865   1.3590394  62.7973624  48.0106852   1.2203270
  62.3768147  49.4222114   1.5704855  63.8627791  49.8854247  14.5657293
  63.5717657  50.7899878  14.4503959  64.4984775  49.9270774  15.2801363
  64.7883998  47.2631095  11.1558653  65.3847570  47.0387118  10.4415616
  64.8458969  46.5215841  11.7584101  64.3609026  44.7170531  -1.0091156
  64.6134547  44.1952052  -1.7707693  63.4233585  44.5536676  -0.9064473
  69.4052309  43.7206309   6.7983587  70.1915398  43.3025732   6.4474004
  69.6691013  44.6252401   6.9665235  69.5762386  49.1579159   1.4972244
  68.9408219  49.2313786   2.2093148  69.2459793  49.7472758   0.8191323
  74.8060736  43.6581542   7.7016566  75.5385908  43.0880759   7.9354395
  74.0500092  43.2703143   8.1423071  64.0805315  46.6198637   1.1933219
  63.9641573  45.9443540   1.8614303  64.1907575  46.1331011   0.3765372
  66.4236856  46.0808784   4.8979908  66.0595063  45.5539405   5.6092829
  67.2803972  45.6907253   4.7246393  72.3286156  37.3703116  12.1611174
  71.9969481  38.2398527  11.9372389  71.7331770  37.0539400  12.8405205
  66.0642343  41.1098683  -0.1058744  66.2316745  41.9778920   0.2611728
  65.8739512  41.2725965  -1.0297454  68.8217676  49.5715662  11.5607087
  68.5218399  50.4740701  11.4522894  68.4768735  49.3047846  12.4128240
  62.2730157  46.0229459   7.5943791  61.3480654  45.8905673   7.8021483
  62.5214571  46.8023678   8.0913734  72.2214820  42.0898202   9.2404524
  71.3131697  42.0213611   8.9463285  72.1702415  42.5670147  10.0686350
  66.0431564  43.5656341   0.8787923  65.9231189  44.0113392   1.7173404
  65.3484152  43.9141659   0.3201461  59.6338968  45.6662733   8.4287580
  59.7631350  45.9197212   9.3426992  58.9536420  46.2590441   8.1092235
  63.8038456  56.3359983   4.5278055  63.7262485  57.2867808   4.6066535
  63.2000099  55.9905855   5.1852981  66.2955685  43.5087848  17.1839421
  65.5189019  44.0681768  17.1742286  66.9346248  43.9944631  17.7054292
  74.0876466  40.2914641  11.0182398  73.4450846  40.5847174  10.3722193
  73.5831395  40.1767561  11.8235595  71.7416630  44.0377814   1.7068257
  72.6534486  44.2705201   1.5315955  71.2326277  44.6214858   1.1443336
  64.5502058  46.3173301  16.7457388  65.2916742  46.8558345  16.4692212
  63.8439043  46.9439590  16.9028940  70.0257397  48.4602442  15.3429550
  70.4340753  48.0184852  14.5984182  69.3034659  47.8855069  15.5963743
  66.3788467  43.3975049  12.7163107  67.2249663  43.8214462  12.8597756
  66.3187105  42.7408673  13.4101670  70.3486212  49.0203633   9.0981839
  69.7195074  49.1849347   8.3957907  69.9611874  49.4345242   9.8692803
  74.2275444  49.9558070   6.4526203  73.5426482  50.3356972   5.9023236
  74.3119293  50.5653397   7.1858150  69.5287913  41.0579417  14.3744281
  69.2848845  41.8121478  13.8378556  69.8047843  41.4364765  15.2091528
  71.4826376  47.6018029  13.0521546  71.6943271  48.2449789  12.3755927
  71.4356124  46.7680346  12.5843476  69.0852604  40.2135850   9.9558118
  68.2237084  40.5117104  10.2474856  69.1115039  40.4306249   9.0239151
  65.9014174  48.7578041   6.3631924  66.3652519  49.0365744   5.5736546
  65.6370972  47.8561485   6.1805015  62.7938255  48.3049522   9.3011687
  63.3639612  48.7336791   8.6629172  63.3846367  48.0232107   9.9995873
  64.8383060  44.8801193   3.1721489  65.5407103  45.3322237   3.6395415
  64.5063688  44.2385012   3.8001382  63.2863421  43.4712950  17.5472698
  62.6562082  44.1529230  17.7808095  63.1799509  43.3596031  16.6025837
  58.5808394  43.1384746   8.4738623  57.7907448  43.3942274   7.9978733
  59.0719641  43.9533083   8.5790663  72.5972203  50.4789985  11.2243903
  73.4189647  50.0770172  10.9426585  72.5934606  50.3758219  12.1760019
  60.5323139  43.5029325   5.4322099  59.7354303  43.6148019   5.9505595
  60.3048731  43.8415977   4.5662990  66.3628807  50.0274028  13.3804614
  66.4273239  50.4894435  14.2162786  65.6539731  49.3971393  13.5086924
  56.8646097  43.3915236  10.9053613  57.1154135  44.2762246  11.1711189
  57.4005645  43.2119838  10.1328705  80.6878197  46.8228733   7.5728875
  79.9341905  46.2536131   7.4172879  80.8225738  46.7891398   8.5199510
  66.0776825  51.6942136   3.2483594  65.9422499  52.5393671   3.6768442
  66.6186637  51.8961413   2.4849528  62.5644164  37.7733715  19.9097949
  62.1711110  37.2199914  20.5845594  63.3810305  38.0844294  20.3004467
  59.5306222  49.2117574   3.8211519  60.0430743  50.0060824   3.9717084
  60.1828935  48.5143864   3.7545121  61.3401107  52.3283330   5.9034273
  61.5167735  53.2501295   5.7155256  62.1357940  52.0141749   6.3328652
  65.4812125  39.1891595  17.5018206  66.2221839  39.7898748  17.4222669
  65.7130048  38.4469232  16.9436249  60.6253463  44.3747962  15.7796436
  60.5106978  43.4733219  16.0803535  59.7697981  44.6211659  15.4281252
  67.7045301  52.3165702  17.3783936  67.2609155  51.5302081  17.0604841
  68.3662515  52.5044853  16.7127827  62.4632422  53.8461504  11.9044615
  63.0139847  53.7178567  11.1321609  61.6243898  54.1456393  11.5539508
  69.8026539  52.5968502  15.4065338  69.7845014  53.4177383  14.9145607
  70.7246459  52.4722577  15.6315479  66.2599593  50.1112632  16.2488846
  66.7927930  49.3500920  16.0188154  65.7313674  49.8186283  16.9913000
  69.4269288  35.2172697  11.7782488  69.0833558  36.1074339  11.7021598
  69.7948251  35.0274355  10.9152073  57.4955139  47.5406228   4.5971090
  58.3330361  47.9503236   4.3804798  57.6733406  46.6005670   4.5671284
  69.3919571  45.2081309   0.2854923  68.8766194  45.9785913   0.5243310
  69.1196879  44.5346445   0.9087984  66.9766682  40.0531009   5.3440161
  66.1208278  39.6637860   5.1645800  67.3893634  40.1322970   4.4839947
  68.5065829  37.5877353   9.7431721  68.0030624  37.5507488   8.9299526
  68.7996435  38.4970095   9.8028378  64.7508714  37.6716082   8.7497903
  65.6161711  37.4758891   8.3903792  64.8186223  37.4426434   9.6767259
  74.3653845  47.9613663   2.2208096  73.5883288  47.6224823   1.7763258
  75.0445326  47.9666286   1.5463061  69.1805874  43.0808401   2.1114704
  68.8756010  43.3954550   2.9624847  70.1336316  43.1589821   2.1542037
  67.6252306  49.2398624   3.7607658  67.0973667  48.5051384   3.4480895
  67.1239809  50.0173300   3.5147626  72.6045152  47.4347644   8.8774704
  71.9468826  48.1246906   8.9654833  73.4085551  47.8244076   9.2208691
  62.3571033  39.9018290   6.1214270  62.9314785  39.6793472   5.3887462
  62.9442016  39.9706985   6.8742871  71.4150611  45.7892017   6.9278646
  71.9282492  46.4222009   7.4300356  72.0651835  45.1893213   6.5622006
  62.6840621  41.9322751   0.1410155  61.8477933  42.2697438   0.4619430
  62.5445390  41.7971731  -0.7962708  64.6593701  36.7759539   4.8489339
  64.0058114  36.4608556   4.2245954  64.6174175  36.1535280   5.5749162
  65.7704906  47.0578834  -3.2357369  64.8631968  46.8268088  -3.0366220
  66.2675938  46.2616454  -3.0483387  68.6772985  55.7676341  -0.3160683
  68.0034684  56.0708038   0.2924275  69.0638807  56.5705422  -0.6655226
  67.8931442  43.2641473   9.1736987  66.9754003  43.4856420   9.0158675
  68.3091585  43.3387783   8.3148694  68.6766489  44.6632888   4.3039667
  69.4238308  45.1754286   3.9946789  68.9458079  44.3416941   5.1644060
  66.9493139  47.1591429   1.2866621  66.0404359  46.8750462   1.3839091
  66.9788223  47.5790508   0.4269928  72.1812407  50.7698019   5.0557789
  71.7274734  49.9288929   5.1122979  71.5506374  51.4059417   5.3932569
  71.1245326  41.6990005   6.2858456  70.3868083  41.1867391   6.6168699
  71.3772100  41.2590386   5.4741733  70.6245346  52.6074515   5.9907607
  70.9168321  53.1679572   5.2719972  71.1343967  52.9003076   6.7460766
  71.2256954  34.4766257   6.8800225  71.5315831  33.6163620   6.5926140
  71.9509559  35.0683877   6.6799219  57.5181310  44.8796943   5.2681823
  57.3205710  44.2866304   4.5432890  56.9627974  44.5749153   5.9857762
  65.4978034  44.7720050   7.3876416  65.5526643  43.8193886   7.3118893
  64.6869236  44.9279489   7.8717715  66.6469227  48.7000173  -1.3745300
  66.2088657  47.9836032  -1.8339663  67.3879668  48.9276288  -1.9360209
  63.4370393  43.3897109   5.1466795  62.6238259  43.6891280   5.5531987
  63.9329388  42.9952798   5.8641278  65.5878971  53.3854866   7.0801060
  65.5455150  53.6115713   6.1509592  66.5041670  53.1518241   7.2286861
  69.0344605  43.8538934  13.9781689  69.3893993  44.0810407  14.8376155
  69.6816736  44.1857311  13.3558945  74.7642342  46.9757370   4.6831018
  74.6260241  47.1658966   3.7552207  74.4078561  47.7376753   5.1399069
  62.9284468  40.9615465  10.7628030  63.5683848  40.8204224  10.0650994
  62.0961999  40.6749978  10.3866632  74.7911722  49.0433897   9.6942290
  75.2248228  48.9509186  10.5425344  75.5043302  49.0191397   9.0562306
  63.7044772  50.2617895   6.8763023  64.4985371  49.7668216   6.6745598
  62.9936465  49.7335759   6.5130728  68.5239617  52.6435991  11.2275390
  68.5776639  53.2126927  11.9953106  67.6554398  52.8137876  10.8629428
  60.0127536  44.4060977   2.9522775  59.0825124  44.3445433   3.1692738
  60.1085008  43.8836930   2.1559417  59.9313085  40.9315790   5.5401017
  60.1919902  41.8461123   5.4310178  60.7530257  40.4640233   5.6897630
  61.4038010  42.3453547  12.7099842  62.0761063  42.1370909  12.0612491
  60.5767796  42.1475633  12.2705074  75.6527271  49.0857598  12.2275175
  75.8463161  49.9903408  12.4734450  75.5527889  48.6265017  13.0613760
  67.3063582  38.9715488  14.7265503  66.6591497  39.6705438  14.6329979
  68.0764597  39.4051632  15.0941751  70.7142380  49.2364340  17.8016056
  70.5627886  49.0074892  16.8846139  70.7047059  50.1934942  17.8147401
  67.4827716  46.8096253  12.7862322  68.4119776  46.9607413  12.6131290
  67.0618746  46.8980274  11.9310969  66.2816048  50.8346917  10.5560860
  66.1427134  50.4665702  11.4286798  65.4930644  51.3494557  10.3844818
  66.8764200  55.9356014   1.8986396  67.0515956  55.4644057   2.7132019
  66.1896988  56.5621780   2.1267657  67.8321263  50.2128520   7.9449698
  67.4971096  50.1729290   8.8407348  67.3325209  49.5473236   7.4720108
  61.8065507  45.6196150  13.4702279  61.6685305  44.8876389  14.0713818
  62.7170431  45.5305050  13.1886467  70.7680455  47.5584554  -1.7813243
  70.1509626  46.8331383  -1.8780190  70.2996943  48.3193915  -2.1246168
  64.4347808  45.3316109  12.9585958  65.1447426  44.6909302  12.9172577
  64.3917116  45.5829004  13.8812139  72.4234587  52.2683463  15.8792538
  72.3647133  51.5842683  15.2123121  72.8254105  53.0102453  15.4273164
  63.1476742  42.3181327  14.7781598  62.6114099  41.8672066  15.4303194
  62.5593450  42.4527236  14.0352062  61.4425285  59.0845377   8.6726257
  61.6821884  59.7163901   9.3505275  60.5994482  58.7333417   8.9591616
  72.4251994  50.2323047  14.1106517  71.5378773  49.8948969  14.2332916
  72.9950545  49.5006078  14.3475283  54.0781141  46.5647138   7.4349569
  54.7652181  46.2508869   6.8470584  53.9229270  47.4688503   7.1616820
  58.8815863  41.4537335  11.8634592  58.7974052  40.8463005  11.1285002
  58.0598570  41.9446353  11.8644089  65.9553147  54.8924499  11.0767761
  65.8823319  55.6979471  11.5887065  65.5130540  55.0916465  10.2515782
  65.7442927  54.1296269   4.5870582  64.9610449  54.6717949   4.6808807
  66.4435672  54.6470249   4.9864823  69.0539577  39.9390899   7.2304787
  69.5508277  39.1860861   6.9105858  68.2826558  39.9755215   6.6647997
  76.9069334  45.6431264   8.8723079  76.8959211  46.5255980   8.5017012
  76.0386714  45.2902815   8.6777616  68.4151831  54.7911333  13.2325919
  69.1279803  55.4258798  13.1601821  67.9241859  54.8875199  12.4165921
  70.1369358  48.6962586   4.8043211  69.2025636  48.8164048   4.6347915
  70.3146026  47.7935053   4.5403221  65.6374546  42.0808282   6.9576472
  65.2672333  41.5279322   7.6457378  66.1333638  41.4766415   6.4051472
  73.5241909  44.5379905   5.3393245  73.9902361  45.3707897   5.2653548
  73.9749410  44.0724887   6.0438503  63.4663744  52.5405777  14.0531490
  64.1673204  53.1742260  14.2060884  62.9958859  52.8820508  13.2927129
  71.5918140  50.8823726   2.3379397  71.8677984  50.7680321   3.2473271
  70.7222639  50.4841211   2.2991570  71.4958572  36.9060492   9.3784146
  70.5821652  37.1364719   9.5466353  71.9251673  36.9898936  10.2298179
  71.2665030  45.0950384  11.8784040  70.6136480  45.3426291  11.2236493
  71.6445410  44.2814522  11.5446518  68.2272204  55.1310077   5.9812211
  68.4094599  54.3131733   6.4439963  69.0505190  55.3477769   5.5437101
  68.5614370  54.0578262   3.2427259  69.0902136  53.5470717   2.6297421
  68.8242589  53.7420793   4.1072792  67.3152603  45.8370195  18.3650077
  66.6393240  45.7364324  19.0352453  68.1380237  45.6809409  18.8286075
  59.0631462  52.0742132  10.9862593  59.6484899  51.3285820  11.1190497
  58.8656301  52.3846088  11.8699257  61.9170118  55.1093379   6.0025035
  61.2480493  55.5939507   5.5189075  61.7782987  55.3562599   6.9168414
  53.6549117  44.6447732   9.7067036  53.6933217  44.1111323  10.5004154
  53.1489410  44.1182937   9.0878013  66.0575386  57.1437123  12.6007693
  66.6093694  57.3068744  13.3656779  66.3981580  57.7341560  11.9287718
  61.0339879  39.4912272  13.2029578  61.0981206  40.3527103  12.7906976
  60.9707000  38.8786274  12.4701937  60.5092152  41.5635405  16.8502612
  61.1364191  41.1812482  17.4640137  59.6520071  41.3449607  17.2158305
  70.9086260  51.9698380  18.4556348  71.4526164  52.5828338  17.9611303
  70.3273105  52.5277958  18.9723361  57.2857695  43.3711834   2.7820967
  57.5811136  42.4622512   2.7288021  56.3845730  43.3499573   2.4601970
  69.1943773  55.0919098   9.5871376  69.0694913  54.2908838   9.0782321
  69.8522865  55.5865291   9.0985346  60.8151942  41.4467831   8.7648516
  60.0938527  42.0603798   8.6255989  61.6045197  41.9825595   8.6865162
  71.2578682  52.8928118  11.2150926  70.3109017  52.7733469  11.1429252
  71.6061455  52.0050616  11.2977187  63.6178255  38.7822257  15.0389168
  64.1412657  39.0284554  15.8015477  63.3990588  39.6142292  14.6192305
  59.0145536  41.0525932   2.9060292  58.6858242  40.1723311   2.7235398
  59.3684907  40.9973600   3.7936682  68.2625115  52.6880834   7.4155278
  68.1150078  51.7597542   7.5962848  69.0878609  52.7100925   6.9312353
  62.1287359  41.3398901   3.2735770  62.4683432  41.8684823   2.5514378
  62.5759480  41.6779308   4.0494337  71.8659237  53.5109393   8.5020151
  72.7905784  53.3052254   8.3644602  71.6974540  53.2625794   9.4109492
  64.8230800  39.7235952  12.7238838  64.4827621  38.9243765  13.1259518
  64.1169806  40.0237663  12.1515671  65.4747272  36.8085265  11.1766161
  66.2973341  36.3345743  11.0545051  65.7185336  37.5875748  11.6764847
  64.1155507  39.8373523   1.4729063  64.8363869  40.2154776   0.9692780
  63.4920811  40.5562400   1.5764041  68.2586629  40.5418672   2.4087395
  68.4750244  41.4243310   2.1076223  67.7780697  40.1504885   1.6793037
  62.9985851  43.5004385   8.9858140  62.8530432  43.8144688   9.8782421
  62.5211054  44.1189286   8.4329038  64.8582234  40.4906933   9.0339029
  64.8443802  39.5948027   8.6971327  65.5754662  40.4977597   9.6677315
  66.7108364  40.9244273  11.0792157  66.4526142  41.8461344  11.0776487
  66.1793405  40.5274708  11.7692621  71.6554553  54.0295061   3.8582242
  71.8291431  53.4641483   3.1056095  72.1483444  54.8295955   3.6761732
  57.4731513  46.0409730  11.9245801  56.9284981  46.8169538  12.0566075
  58.3510863  46.3880534  11.7664922  64.2619130  39.3721314   4.3026599
  64.3835041  38.4437960   4.5017487  63.9721172  39.3859999   3.3904915
  67.1310320  37.0576224   7.4393319  67.1532017  37.1215557   6.4845299
  67.5478379  36.2180733   7.6333825  77.5093944  46.7931483   5.4772542
  77.9525090  46.0438809   5.0791665  76.6320455  46.7841620   5.0946274
  72.6429726  53.3461825   0.9579140  73.3380630  53.9668518   1.1766455
  72.9852876  52.4957176   1.2331518  58.2597535  45.1679626  14.8175958
  57.5179271  45.3162261  15.4040588  57.9390279  45.4287892  13.9542707
  74.5421149  50.7961530   2.4866471  75.0672473  51.1348803   1.7615791
  74.4543501  49.8608546   2.3029606  66.2041197  54.7095604  14.6156348
  66.5128324  54.4644751  15.4879047  67.0016679  54.9142243  14.1275218
  66.2261810  56.8633514   6.8461724  65.7866800  56.3709892   7.5394581
  66.9769926  56.3206481   6.6053800  58.7054149  53.0545055   6.8486352
  59.5312168  52.7548826   6.4684996  58.3548200  52.2852677   7.2976141
  63.6735682  52.4071523   8.9184026  63.0515691  51.7442228   8.6186254
  64.3440549  52.4332655   8.2357674  56.9062754  50.9731381   7.8075286
  56.0694662  50.5453555   7.6259287  56.8786399  51.1663824   8.7446077
  63.7460209  40.8853311  18.5116532  63.7948365  41.7615434  18.1294302
  64.2882723  40.3430704  17.9388175  74.2315055  51.4294434  17.7917669
  73.4410599  51.4118573  17.2522169  73.9948409  51.9682728  18.5466706
  74.3512930  48.2786900  15.1050398  74.4010935  48.1136908  16.0465920
  74.2426853  47.4114160  14.7148278  63.2349189  50.9575446   2.3942487
  63.3837309  51.6410911   1.7409159  64.0415632  50.9380536   2.9091942
  71.6416692  44.2617829  16.4209704  72.5426555  44.1224293  16.1293702
  71.7164667  44.4272283  17.3607882  65.9759498  41.6384683  15.2662891
  65.1062807  41.9318249  14.9945479  66.2118978  42.2225128  15.9870154
  75.8531127  50.6983842  15.3492419  75.5615935  51.0613823  16.1855880
  75.2403258  49.9850850  15.1705751  77.0526809  48.2636722   7.8694989
  77.8873700  48.7026526   8.0332550  77.1885938  47.7875375   7.0503235
  74.1018315  45.8216457  13.8172477  74.5772437  46.0144103  13.0091329
  73.1783880  45.8775642  13.5715861  60.9901822  46.9840624   3.4003555
  60.7447864  46.0802954   3.5983766  61.1597736  46.9857774   2.4583033
  68.6798531  37.8564300  12.7828311  69.1980475  38.5925327  12.4574800
  68.3253664  38.1628293  13.6175070  60.2597469  42.7168981   0.8989717
  59.5666714  42.7913336   0.2429753  60.0149221  41.9529325   1.4211234
  68.9311126  34.2764583   8.3029208  69.2112879  33.6087772   8.9289634
  69.7161733  34.4693678   7.7903872  66.7344594  53.4523577  -0.1345766
  66.1618561  54.0713764  -0.5875294  67.3077388  54.0022938   0.3994156
  72.8019984  42.6982217  12.0500783  73.7537407  42.7980314  12.0713007
  72.6323434  41.9060485  12.5598867  70.8234363  39.7837800  12.2360184
  70.2284296  40.0642813  11.5406672  70.5384060  40.2731701  13.0076925
  69.9541854  53.7360727   0.9962816  70.8872527  53.6706288   1.1995692
  69.8665067  54.5716994   0.5377349  72.5829871  53.0526597  -2.0433236
  72.5043502  52.7186461  -1.1497478  73.4039537  53.5448365  -2.0441764
  75.2808062  45.9188336  11.1643082  75.2484382  44.9804337  11.3502766
  75.8908685  45.9972373  10.4308907  67.1191393  44.7884389  -2.7929714
  68.0650497  44.6590597  -2.7241295  66.7405638  44.0499051  -2.3160285
  75.4302550  42.7099380  11.2101366  74.9141599  41.9257836  11.0231294
  76.3142499  42.3818096  11.3747885  73.0913277  36.4540395   7.1697178
  72.8938098  36.1455484   8.0540510  73.7012983  37.1802034   7.2995108
  81.0984612  46.9804343  10.3049119  81.8288000  46.7189631  10.8656823
  80.4891557  46.2433065  10.3451187  79.1799909  45.1212206  10.9023570
  78.4533072  44.9868171  10.2940062  78.7647196  45.4289034  11.7080288
  67.0030085  48.8402136  18.6670943  67.9233095  49.0180735  18.8610990
  66.9679668  47.8958181  18.5150643  65.3034310  42.7134366  -2.8574828
  64.3965765  42.4167478  -2.7812115  65.5810291  42.4164184  -3.7240542
  56.2212250  44.0340729   7.5924218  55.9015034  43.1806037   7.2998592
  55.6745678  44.2489307   8.3482185  59.9992158  46.7503170  11.3093725
  60.2178167  47.6820278  11.3281758  60.4117932  46.3911145  12.0948528
  66.9196375  37.2571255   3.2969413  66.1097104  36.9118340   3.6724659
  67.6080792  36.9478799   3.8857025  68.8486924  36.3349302   4.9193710
  69.4017962  36.7544756   5.5783733  69.0857010  35.4085050   4.9616666
  64.8720023  42.3236376  20.6996474  64.7716750  43.2730733  20.6308565
  64.6541565  41.9954615  19.8272544  56.0900510  47.6543641   9.5617340
  55.3963982  47.2397593   9.0487294  56.8373501  47.6964177   8.9650759
  72.2265731  38.4449827   4.4272374  71.6464400  39.1034631   4.0450426
  71.9601664  37.6227172   4.0159791  70.6769297  37.8454885   6.6293694
  71.1769076  37.9571420   5.8208013  71.3204905  37.5415938   7.2694503
  64.7351293  45.7533515  19.5161535  64.2518375  46.5533875  19.7225424
  64.8212232  45.7641460  18.5628979  58.0037253  47.5861894   7.4383355
  57.9807941  47.6849582   6.4865238  58.3137889  48.4327045   7.7600521
  60.6624631  49.6438049  11.5529969  61.6167884  49.6121992  11.4859901
  60.4637154  49.1828673  12.3680195  61.2524013  48.2139166  14.1200767
  62.0716902  48.7083244  14.1435604  61.5260820  47.2971134  14.0918334
  71.0090609  40.6049918   3.4828722  70.1216464  40.8899568   3.2648917
  71.4244598  40.4443681   2.6355999  74.3605145  40.6296439   7.1983061
  75.1365535  41.1192891   7.4707678  73.6353279  41.0554493   7.6554931
  76.7977704  41.3424058   8.2557002  77.3922194  41.1019794   7.5450310
  76.8704287  40.6231189   8.8830538  59.0174859  55.1857669   8.5700167
  58.8829327  54.4258070   8.0038165  58.6006922  55.9098569   8.1028956
  70.1533822  50.3694593  -2.4223258  70.8569672  50.5744595  -1.8065602
  69.4296471  50.9371354  -2.1574174  70.9831633  46.1204454   3.6979012
  70.9266834  46.5773005   2.8586645  71.5359975  45.3595138   3.5201855
  74.7936439  41.9094186   4.5229132  74.5373373  41.5090821   5.3537340
  74.1689307  42.6237980   4.3979271  79.1048776  44.6490259   7.0300423
  78.5448334  44.7183448   7.8031985  78.4992280  44.4731244   6.3099919
  62.1743985  56.0826986   8.7818610  62.0576369  57.0272418   8.6797300
  61.3536431  55.7800548   9.1704409  72.0620520  50.8077122  -0.3724798
  72.8966124  50.3758320  -0.5547323  71.9004863  50.6359135   0.5552097
  71.7166412  47.3109235   0.9931542  71.6615216  47.1453506   0.0519986
  71.0912467  48.0185268   1.1493731  56.5058927  42.5477299  14.8192964
  57.1517791  42.0376253  15.3080189  56.2976078  43.2845981  15.3936389
  69.0312319  49.6158147  20.3185104  69.9003479  49.7898799  19.9571739
  68.5519071  50.4352564  20.1960834  65.0262537  36.8117344   0.5716860
  65.0141207  37.7559184   0.7285131  65.9185959  36.6287489   0.2776321
  63.1998499  56.7355248  11.9974538  64.1025746  56.7678858  12.3141033
  62.9735869  55.8055699  12.0120874  64.9552101  55.4886234   8.6584617
  64.0047732  55.4888096   8.5448989  65.2584588  54.7418969   8.1420651
  68.8414657  33.4060121   4.8262797  68.0747053  32.8518607   4.9719479
  69.2525362  33.4781989   5.6876948  60.8456418  39.6944916  18.9167978
  61.7087879  39.3381721  19.1271303  60.2721829  39.3558811  19.6043382
  80.6904795  61.3246773   9.7230379  81.3283205  61.2053520   9.0193719
  80.5725638  62.2727617   9.7818331  77.4994501  61.2774201   9.6591904
  77.1613013  61.1615266   8.7712439  78.3684269  60.8765366   9.6392910
  73.3581317  63.1309677   5.6488795  72.7946182  63.0399614   4.8805082
  73.2433712  62.3109582   6.1291287  77.9814284  62.4309053  15.6178109
  77.9702925  62.0361851  14.7458613  78.1434924  61.6975125  16.2111881
  70.9045749  64.6260869   8.4873015  71.6967041  64.2851694   8.0719314
  71.1442399  64.7355844   9.4075168  78.9380876  66.7980645   0.9603260
  78.2868855  67.3834725   0.5737273  79.7325238  67.3286840   1.0198297
  72.8636503  63.8869782   1.3590394  73.6367379  63.3398769   1.2203270
  73.2161902  64.7514032   1.5704855  74.7021545  65.2146164  14.5657293
  74.4111411  66.1191795  14.4503959  75.3378530  65.2562692  15.2801363
  75.6277752  62.5923013  11.1558653  76.2241324  62.3679035  10.4415616
  75.6852724  61.8507758  11.7584101  75.2002781  60.0462448  -1.0091156
  75.4528301  59.5243970  -1.7707693  74.2627340  59.8828594  -0.9064473
  80.2446063  59.0498227   6.7983587  81.0309153  58.6317650   6.4474004
  80.5084768  59.9544319   6.9665235  80.4156141  64.4871077   1.4972244
  79.7801974  64.5605703   2.2093148  80.0853547  65.0764676   0.8191323
  85.6454490  58.9873460   7.7016566  86.3779662  58.4172677   7.9354395
  84.8893846  58.5995060   8.1423071  74.9199069  61.9490554   1.1933219
  74.8035327  61.2735458   1.8614303  75.0301329  61.4622928   0.3765372
  77.2630610  61.4100701   4.8979908  76.8988817  60.8831322   5.6092829
  78.1197726  61.0199170   4.7246393  83.1679911  52.6995034  12.1611174
  82.8363236  53.5690445  11.9372389  82.5725524  52.3831318  12.8405205
  76.9036097  56.4390601  -0.1058744  77.0710500  57.3070837   0.2611728
  76.7133266  56.6017883  -1.0297454  79.6611430  64.9007580  11.5607087
  79.3612153  65.8032619  11.4522894  79.3162490  64.6339763  12.4128240
  73.1123912  61.3521377   7.5943791  72.1874408  61.2197591   7.8021483
  73.3608325  62.1315596   8.0913734  83.0608574  57.4190120   9.2404524
  82.1525451  57.3505529   8.9463285  83.0096170  57.8962065  10.0686350
  76.8825318  58.8948259   0.8787923  76.7624943  59.3405309   1.7173404
  76.1877906  59.2433576   0.3201461  70.4732723  60.9954650   8.4287580
  70.6025104  61.2489129   9.3426992  69.7930174  61.5882358   8.1092235
  74.6432210  71.6651900   4.5278055  74.5656240  72.6159725   4.6066535
  74.0393854  71.3197773   5.1852981  77.1349440  58.8379766  17.1839421
  76.3582774  59.3973686  17.1742286  77.7740003  59.3236549  17.7054292
  84.9270221  55.6206559  11.0182398  84.2844601  55.9139092  10.3722193
  84.4225149  55.5059479  11.8235595  82.5810384  59.3669732   1.7068257
  83.4928240  59.5997118   1.5315955  82.0720031  59.9506776   1.1443336
  75.3895812  61.6465219  16.7457388  76.1310497  62.1850263  16.4692212
  74.6832798  62.2731508  16.9028940  80.8651152  63.7894360  15.3429550
  81.2734508  63.3476770  14.5984182  80.1428413  63.2146987  15.5963743
  77.2182222  58.7266966  12.7163107  78.0643417  59.1506380  12.8597756
  77.1580860  58.0700591  13.4101670  81.1879967  64.3495550   9.0981839
  80.5588829  64.5141264   8.3957907  80.8005629  64.7637160   9.8692803
  85.0669198  65.2849988   6.4526203  84.3820237  65.6648889   5.9023236
  85.1513048  65.8945315   7.1858150  80.3681667  56.3871335  14.3744281
  80.1242599  57.1413395  13.8378556  80.6441598  56.7656682  15.2091528
  82.3220130  62.9309947  13.0521546  82.5337025  63.5741707  12.3755927
  82.2749878  62.0972264  12.5843476  79.9246359  55.5427768   9.9558118
  79.0630838  55.8409021  10.2474856  79.9508794  55.7598167   9.0239151
  76.7407928  64.0869958   6.3631924  77.2046274  64.3657661   5.5736546
  76.4764726  63.1853403   6.1805015  73.6332009  63.6341440   9.3011687
  74.2033367  64.0628708   8.6629172  74.2240121  63.3524025   9.9995873
  75.6776814  60.2093111   3.1721489  76.3800858  60.6614154   3.6395415
  75.3457443  59.5676930   3.8001382  74.1257176  58.8004867  17.5472698
  73.4955837  59.4821148  17.7808095  74.0193264  58.6887949  16.6025837
  69.4202148  58.4676663   8.4738623  68.6301202  58.7234192   7.9978733
  69.9113396  59.2825001   8.5790663  83.4365958  65.8081902  11.2243903
  84.2583402  65.4062090  10.9426585  83.4328361  65.7050137  12.1760019
  71.3716894  58.8321243   5.4322099  70.5748057  58.9439937   5.9505595
  71.1442486  59.1707895   4.5662990  77.2022561  65.3565946  13.3804614
  77.2666994  65.8186353  14.2162786  76.4933485  64.7263311  13.5086924
  67.7039851  58.7207154  10.9053613  67.9547890  59.6054164  11.1711189
  68.2399400  58.5411755  10.1328705  91.5271951  62.1520651   7.5728875
  90.7735659  61.5828049   7.4172879  91.6619492  62.1183315   8.5199510
  76.9170579  67.0234053   3.2483594  76.7816254  67.8685589   3.6768442
  77.4580392  67.2253331   2.4849528  73.4037919  53.1025633  19.9097949
  73.0104864  52.5491832  20.5845594  74.2204059  53.4136212  20.3004467
  70.3699976  64.5409491   3.8211519  70.8824497  65.3352742   3.9717084
  71.0222689  63.8435782   3.7545121  72.1794861  67.6575248   5.9034273
  72.3561489  68.5793212   5.7155256  72.9751695  67.3433667   6.3328652
  76.3205880  54.5183512  17.5018206  77.0615593  55.1190665  17.4222669
  76.5523803  53.7761150  16.9436249  71.4647218  59.7039879  15.7796436
  71.3500733  58.8025137  16.0803535  70.6091735  59.9503576  15.4281252
  78.5439055  67.6457620  17.3783936  78.1002910  66.8593998  17.0604841
  79.2056269  67.8336770  16.7127827  73.3026177  69.1753421  11.9044615
  73.8533602  69.0470485  11.1321609  72.4637653  69.4748310  11.5539508
  80.6420294  67.9260420  15.4065338  80.6238769  68.7469301  14.9145607
  81.5640214  67.8014495  15.6315479  77.0993348  65.4404549  16.2488846
  77.6321684  64.6792837  16.0188154  76.5707429  65.1478201  16.9913000
  80.2663043  50.5464615  11.7782488  79.9227312  51.4366257  11.7021598
  80.6342005  50.3566273  10.9152073  68.3348893  62.8698146   4.5971090
  69.1724115  63.2795154   4.3804798  68.5127161  61.9297588   4.5671284
  80.2313325  60.5373226   0.2854923  79.7159949  61.3077831   0.5243310
  79.9590634  59.8638362   0.9087984  77.8160436  55.3822927   5.3440161
  76.9602033  54.9929777   5.1645800  78.2287388  55.4614888   4.4839947
  79.3459583  52.9169270   9.7431721  78.8424379  52.8799405   8.9299526
  79.6390190  53.8262013   9.8028378  75.5902469  53.0008000   8.7497903
  76.4555466  52.8050809   8.3903792  75.6579978  52.7718352   9.6767259
  85.2047599  63.2905581   2.2208096  84.4277042  62.9516740   1.7763258
  85.8839080  63.2958204   1.5463061  80.0199629  58.4100318   2.1114704
  79.7149764  58.7246468   2.9624847  80.9730071  58.4881738   2.1542037
  78.4646060  64.5690542   3.7607658  77.9367422  63.8343301   3.4480895
  77.9633563  65.3465218   3.5147626  83.4438906  62.7639562   8.8774704
  82.7862581  63.4538824   8.9654833  84.2479306  63.1535994   9.2208691
  73.1964788  55.2310208   6.1214270  73.7708540  55.0085389   5.3887462
  73.7835770  55.2998902   6.8742871  82.2544365  61.1183935   6.9278646
  82.7676247  61.7513927   7.4300356  82.9045589  60.5185130   6.5622006
  73.5234375  57.2614669   0.1410155  72.6871687  57.5989356   0.4619430
  73.3839145  57.1263649  -0.7962708  75.4987456  52.1051457   4.8489339
  74.8451868  51.7900474   4.2245954  75.4567930  51.4827197   5.5749162
  76.6098661  62.3870752  -3.2357369  75.7025722  62.1560005  -3.0366220
  77.1069693  61.5908371  -3.0483387  78.7325196  58.5933390   9.1736987
  77.8147757  58.8148337   9.0158675  79.1485340  58.6679701   8.3148694
  79.5160244  59.9924806   4.3039667  80.2632063  60.5046203   3.9946789
  79.7851833  59.6708859   5.1644060  77.7886894  62.4883347   1.2866621
  76.8798113  62.2042380   1.3839091  77.8181978  62.9082425   0.4269928
  83.0206161  66.0989936   5.0557789  82.5668488  65.2580846   5.1122979
  82.3900128  66.7351335   5.3932569  81.9639081  57.0281922   6.2858456
  81.2261838  56.5159309   6.6168699  82.2165854  56.5882304   5.4741733
  81.4639101  67.9366433   5.9907607  81.7562075  68.4971490   5.2719972
  81.9737721  68.2294994   6.7460766  82.0650708  49.8058174   6.8800225
  82.3709585  48.9455538   6.5926140  82.7903313  50.3975795   6.6799219
  68.3575064  60.2088861   5.2681823  68.1599464  59.6158222   4.5432890
  67.8021728  59.9041071   5.9857762  76.3371788  60.1011967   7.3876416
  76.3920398  59.1485804   7.3118893  75.5262990  60.2571407   7.8717715
  77.4862982  64.0292090  -1.3745300  77.0482412  63.3127949  -1.8339663
  78.2273423  64.2568205  -1.9360209  74.2764148  58.7189027   5.1466795
  73.4632013  59.0183198   5.5531987  74.7723142  58.3244716   5.8641278
  76.4272726  68.7146784   7.0801060  76.3848905  68.9407630   6.1509592
  77.3435425  68.4810159   7.2286861  79.8738360  59.1830852  13.9781689
  80.2287747  59.4102325  14.8376155  80.5210491  59.5149228  13.3558945
  85.6036097  62.3049288   4.6831018  85.4653995  62.4950883   3.7552207
  85.2472315  63.0668670   5.1399069  73.7678223  56.2907383  10.7628030
  74.4077602  56.1496142  10.0650994  72.9355753  56.0041896  10.3866632
  85.6305476  64.3725815   9.6942290  86.0641983  64.2801104  10.5425344
  86.3437057  64.3483315   9.0562306  74.5438527  65.5909813   6.8763023
  75.3379125  65.0960133   6.6745598  73.8330219  65.0627676   6.5130728
  79.3633371  67.9727909  11.2275390  79.4170393  68.5418845  11.9953106
  78.4948152  68.1429794  10.8629428  70.8521290  59.7352895   2.9522775
  69.9218878  59.6737350   3.1692738  70.9478762  59.2128848   2.1559417
  70.7706839  56.2607708   5.5401017  71.0313656  57.1753041   5.4310178
  71.5924011  55.7932150   5.6897630  72.2431764  57.6745465  12.7099842
  72.9154818  57.4662827  12.0612491  71.4161551  57.4767551  12.2705074
  86.4921026  64.4149515  12.2275175  86.6856916  65.3195326  12.4734450
  86.3921644  63.9556934  13.0613760  78.1457336  54.3007406  14.7265503
  77.4985252  54.9997355  14.6329979  78.9158352  54.7343550  15.0941751
  81.5536134  64.5656258  17.8016056  81.4021641  64.3366810  16.8846139
  81.5440814  65.5226859  17.8147401  78.3221471  62.1388171  12.7862322
  79.2513531  62.2899330  12.6131290  77.9012501  62.2272191  11.9310969
  77.1209803  66.1638835  10.5560860  76.9820888  65.7957619  11.4286798
  76.3324399  66.6786475  10.3844818  77.7157955  71.2647932   1.8986396
  77.8909710  70.7935975   2.7132019  77.0290743  71.8913698   2.1267657
  78.6715018  65.5420438   7.9449698  78.3364850  65.5021208   8.8407348
  78.1718963  64.8765154   7.4720108  72.6459262  60.9488068  13.4702279
  72.5079060  60.2168307  14.0713818  73.5564185  60.8596968  13.1886467
  81.6074209  62.8876472  -1.7813243  80.9903380  62.1623300  -1.8780190
  81.1390698  63.6485832  -2.1246168  75.2741562  60.6608027  12.9585958
  75.9841181  60.0201219  12.9172577  75.2310871  60.9120922  13.8812139
  83.2628341  67.5975380  15.8792538  83.2040887  66.9134601  15.2123121
  83.6647859  68.3394370  15.4273164  73.9870496  57.6473245  14.7781598
  73.4507853  57.1963983  15.4303194  73.3987205  57.7819154  14.0352062
  72.2819040  74.4137294   8.6726257  72.5215638  75.0455818   9.3505275
  71.4388236  74.0625334   8.9591616  73.3972755  57.1061896  -2.6591938
  72.5202222  56.9850697  -3.0229692  73.8730508  56.3147975  -2.9113050
  83.2645748  65.5614964  14.1106517  82.3772527  65.2240886  14.2332916
  83.8344299  64.8297996  14.3475283  64.9174895  61.8939056   7.4349569
  65.6045935  61.5800786   6.8470584  64.7623024  62.7980421   7.1616820
  69.7209618  56.7829253  11.8634592  69.6367806  56.1754922  11.1285002
  68.8992324  57.2738271  11.8644089  76.7946902  70.2216417  11.0767761
  76.7217073  71.0271388  11.5887065  76.3524295  70.4208383  10.2515782
  76.5836681  69.4588187   4.5870582  75.8004203  70.0009867   4.6808807
  77.2829427  69.9762166   4.9864823  79.8933331  55.2682816   7.2304787
  80.3902031  54.5152779   6.9105858  79.1220313  55.3047133   6.6647997
  87.7463089  60.9723182   8.8723079  87.7352965  61.8547897   8.5017012
  86.8780468  60.6194733   8.6777616  79.2545585  70.1203251  13.2325919
  79.9673557  70.7550716  13.1601821  78.7635614  70.2167117  12.4165921
  80.9763112  64.0254503   4.8043211  80.0419391  64.1455966   4.6347915
  81.1539781  63.1226970   4.5403221  76.4768300  57.4100199   6.9576472
  76.1066088  56.8571240   7.6457378  76.9727393  56.8058333   6.4051472
  84.3635663  59.8671823   5.3393245  84.8296116  60.6999814   5.2653548
  84.8143164  59.4016804   6.0438503  74.3057499  67.8697694  14.0531490
  75.0066958  68.5034177  14.2060884  73.8352614  68.2112426  13.2927129
  82.4311895  66.2115644   2.3379397  82.7071739  66.0972239   3.2473271
  81.5616393  65.8133129   2.2991570  82.3352326  52.2352410   9.3784146
  81.4215406  52.4656637   9.5466353  82.7645428  52.3190854  10.2298179
  82.1058785  60.4242302  11.8784040  81.4530235  60.6718209  11.2236493
  82.4839165  59.6106440  11.5446518  79.0665959  70.4601995   5.9812211
  79.2488353  69.6423651   6.4439963  79.8898945  70.6769687   5.5437101
  79.4008124  69.3870180   3.2427259  79.9295891  68.8762635   2.6297421
  79.6636344  69.0712710   4.1072792  78.1546358  61.1662113  18.3650077
  77.4786995  61.0656242  19.0352453  78.9773992  61.0101327  18.8286075
  69.9025217  67.4034049  10.9862593  70.4878654  66.6577737  11.1190497
  69.7050055  67.7138006  11.8699257  72.7563872  70.4385297   6.0025035
  72.0874247  70.9231424   5.5189075  72.6176742  70.6854517   6.9168414
  64.4942872  59.9739650   9.7067036  64.5326971  59.4403240  10.5004154
  63.9883164  59.4474855   9.0878013  76.8969141  72.4729040  12.6007693
  77.4487449  72.6360662  13.3656779  77.2375334  73.0633478  11.9287718
  71.8733634  54.8204190  13.2029578  71.9374960  55.6819021  12.7906976
  71.8100754  54.2078192  12.4701937  71.3485906  56.8927323  16.8502612
  71.9757945  56.5104400  17.4640137  70.4913825  56.6741524  17.2158305
  81.7480015  67.2990298  18.4556348  82.2919919  67.9120256  17.9611303
  81.1666860  67.8569876  18.9723361  68.1251449  58.7003752   2.7820967
  68.4204890  57.7914430   2.7288021  67.2239485  58.6791491   2.4601970
  80.0337528  70.4211016   9.5871376  79.9088667  69.6200756   9.0782321
  80.6916619  70.9157209   9.0985346  71.6545696  56.7759748   8.7648516
  70.9332282  57.3895716   8.6255989  72.4438952  57.3117513   8.6865162
  82.0972436  68.2220036  11.2150926  81.1502772  68.1025387  11.1429252
  82.4455209  67.3342534  11.2977187  74.4572010  54.1114175  15.0389168
  74.9806411  54.3576471  15.8015477  74.2384343  54.9434210  14.6192305
  69.8539291  56.3817849   2.9060292  69.5251997  55.5015228   2.7235398
  70.2078661  56.3265518   3.7936682  79.1018870  68.0172752   7.4155278
  78.9543832  67.0889459   7.5962848  79.9272363  68.0392843   6.9312353
  72.9681114  56.6690819   3.2735770  73.3077186  57.1976740   2.5514378
  73.4153234  57.0071225   4.0494337  82.7052991  68.8401311   8.5020151
  83.6299539  68.6344172   8.3644602  82.5368295  68.5917712   9.4109492
  75.6624555  55.0527870  12.7238838  75.3221375  54.2535683  13.1259518
  74.9563561  55.3529581  12.1515671  76.3141027  52.1377182  11.1766161
  77.1367096  51.6637660  11.0545051  76.5579090  52.9167666  11.6764847
  74.9549261  55.1665441   1.4729063  75.6757624  55.5446694   0.9692780
  74.3314565  55.8854318   1.5764041  79.0980384  55.8710590   2.4087395
  79.3143998  56.7535228   2.1076223  78.6174451  55.4796803   1.6793037
  73.8379605  58.8296303   8.9858140  73.6924186  59.1436606   9.8782421
  73.3604809  59.4481203   8.4329038  75.6975988  55.8198851   9.0339029
  75.6837557  54.9239944   8.6971327  76.4148416  55.8269515   9.6677315
  77.5502119  56.2536191  11.0792157  77.2919897  57.1753262  11.0776487
  77.0187159  55.8566626  11.7692621  82.4948308  69.3586978   3.8582242
  82.6685185  68.7933401   3.1056095  82.9877199  70.1587873   3.6761732
  68.3125267  61.3701647  11.9245801  67.7678736  62.1461455  12.0566075
  69.1904617  61.7172452  11.7664922  75.1012884  54.7013231   4.3026599
  75.2228795  53.7729877   4.5017487  74.8114926  54.7151917   3.3904915
  77.9704075  52.3868142   7.4393319  77.9925771  52.4507475   6.4845299
  78.3872134  51.5472650   7.6333825  88.3487699  62.1223401   5.4772542
  88.7918845  61.3730726   5.0791665  87.4714209  62.1133538   5.0946274
  83.4823480  68.6753743   0.9579140  84.1774385  69.2960435   1.1766455
  83.8246630  67.8249094   1.2331518  69.0991289  60.4971544  14.8175958
  68.3573025  60.6454179  15.4040588  68.7784034  60.7579809  13.9542707
  85.3814903  66.1253448   2.4866471  85.9066227  66.4640721   1.7615791
  85.2937256  65.1900463   2.3029606  77.0434952  70.0387522  14.6156348
  77.3522078  69.7936669  15.4879047  77.8410434  70.2434160  14.1275218
  77.0655564  72.1925431   6.8461724  76.6260554  71.7001810   7.5394581
  77.8163681  71.6498399   6.6053800  69.5447903  68.3836972   6.8486352
  70.3705923  68.0840744   6.4684996  69.1941955  67.6144595   7.2976141
  74.5129436  67.7363441   8.9184026  73.8909445  67.0734146   8.6186254
  75.1834303  67.7624572   8.2357674  67.7456508  66.3023299   7.8075286
  66.9088416  65.8745473   7.6259287  67.7180153  66.4955742   8.7446077
  74.5853964  56.2145229  18.5116532  74.6342119  57.0907351  18.1294302
  75.1276478  55.6722622  17.9388175  85.0708809  66.7586352  17.7917669
  84.2804353  66.7410491  17.2522169  84.8342164  67.2974645  18.5466706
  85.1906684  63.6078818  15.1050398  85.2404689  63.4428826  16.0465920
  85.0820608  62.7406077  14.7148278  74.0742943  66.2867364   2.3942487
  74.2231063  66.9702828   1.7409159  74.8809387  66.2672454   2.9091942
  82.4810447  59.5909746  16.4209704  83.3820310  59.4516211  16.1293702
  82.5558421  59.7564201  17.3607882  76.8153252  56.9676601  15.2662891
  75.9456562  57.2610167  14.9945479  77.0512732  57.5517046  15.9870154
  86.6924881  66.0275760  15.3492419  86.4009690  66.3905740  16.1855880
  86.0797012  65.3142768  15.1705751  87.8920564  63.5928639   7.8694989
  88.7267455  64.0318444   8.0332550  88.0279692  63.1167293   7.0503235
  84.9412069  61.1508374  13.8172477  85.4166191  61.3436021  13.0091329
  84.0177635  61.2067560  13.5715861  71.8295576  62.3132541   3.4003555
  71.5841618  61.4094871   3.5983766  71.9991491  62.3149692   2.4583033
  79.5192286  53.1856218  12.7828311  80.0374230  53.9217245  12.4574800
  79.1647419  53.4920211  13.6175070  71.0991224  58.0460899   0.8989717
  70.4060469  58.1205254   0.2429753  70.8542975  57.2821243   1.4211234
  79.7704880  49.6056500   8.3029208  80.0506634  48.9379689   8.9289634
  80.5555487  49.7985596   7.7903872  77.5738349  68.7815494  -0.1345766
  77.0012316  69.4005681  -0.5875294  78.1471142  69.3314856   0.3994156
  83.6413738  58.0274134  12.0500783  84.5931161  58.1272232  12.0713007
  83.4717189  57.2352403  12.5598867  81.6628118  55.1129718  12.2360184
  81.0678050  55.3934730  11.5406672  81.3777815  55.6023619  13.0076925
  80.7935608  69.0652644   0.9962816  81.7266282  68.9998206   1.1995692
  80.7058821  69.9008911   0.5377349  86.1201816  61.2480254  11.1643082
  86.0878136  60.3096255  11.3502766  86.7302440  61.3264291  10.4308907
  77.9585147  60.1176307  -2.7929714  78.9044252  59.9882515  -2.7241295
  77.5799392  59.3790969  -2.3160285  86.2696305  58.0391298  11.2101366
  85.7535353  57.2549754  11.0231294  87.1536253  57.7110014  11.3747885
  83.9307032  51.7832313   7.1697178  83.7331853  51.4747401   8.0540510
  84.5406737  52.5093952   7.2995108  91.9378366  62.3096261  10.3049119
  92.6681755  62.0481549  10.8656823  91.3285312  61.5724983  10.3451187
  90.0193663  60.4504124  10.9023570  89.2926827  60.3160088  10.2940062
  89.6040950  60.7580952  11.7080288  77.8423840  64.1694053  18.6670943
  78.7626849  64.3472652  18.8610990  77.8073423  63.2250099  18.5150643
  76.1428064  58.0426283  -2.8574828  75.2359520  57.7459396  -2.7812115
  76.4204045  57.7456102  -3.7240542  67.0606005  59.3632647   7.5924218
  66.7408789  58.5097955   7.2998592  66.5139433  59.5781225   8.3482185
  70.8385912  62.0795088  11.3093725  71.0571922  63.0112196  11.3281758
  71.2511686  61.7203062  12.0948528  77.7590130  52.5863173   3.2969413
  76.9490858  52.2410258   3.6724659  78.4474547  52.2770717   3.8857025
  79.6880678  51.6641220   4.9193710  80.2411717  52.0836673   5.5783733
  79.9250765  50.7376968   4.9616666  75.7113777  57.6528294  20.6996474
  75.6110504  58.6022651  20.6308565  75.4935320  57.3246533  19.8272544
  74.9126849  54.9013219  -2.7162849  75.7746013  55.2268117  -2.4567032
  75.0977193  54.1144715  -3.2289783  66.9294265  62.9835558   9.5617340
  66.2357736  62.5689511   9.0487294  67.6767256  63.0256095   8.9650759
  83.0659485  53.7741745   4.4272374  82.4858154  54.4326549   4.0450426
  82.7995418  52.9519090   4.0159791  81.5163052  53.1746803   6.6293694
  82.0162830  53.2863337   5.8208013  82.1598660  52.8707856   7.2694503
  75.5745048  61.0825432  19.5161535  75.0912129  61.8825793  19.7225424
  75.6605987  61.0933377  18.5628979  68.8431007  62.9153812   7.4383355
  68.8201695  63.0141499   6.4865238  69.1531644  63.7618963   7.7600521
  71.5018385  64.9729967  11.5529969  72.4561639  64.9413909  11.4859901
  71.3030909  64.5120591  12.3680195  72.0917767  63.5431083  14.1200767
  72.9110656  64.0375162  14.1435604  72.3654575  62.6263051  14.0918334
  81.8484363  55.9341836   3.4828722  80.9610218  56.2191486   3.2648917
  82.2638352  55.7735599   2.6355999  85.1998900  55.9588356   7.1983061
  85.9759290  56.4484809   7.4707678  84.4747034  56.3846411   7.6554931
  87.6371458  56.6715976   8.2557002  88.2315949  56.4311712   7.5450310
  87.7098042  55.9523106   8.8830538  69.8568614  70.5149587   8.5700167
  69.7223082  69.7549988   8.0038165  69.4400676  71.2390487   8.1028956
  80.9927577  65.6986510  -2.4223258  81.6963427  65.9036513  -1.8065602
  80.2690226  66.2663272  -2.1574174  81.8225387  61.4496371   3.6979012
  81.7660589  61.9064923   2.8586645  82.3753730  60.6887056   3.5201855
  85.6330193  57.2386103   4.5229132  85.3767127  56.8382739   5.3537340
  85.0083061  57.9529897   4.3979271  89.9442531  59.9782177   7.0300423
  89.3842089  60.0475366   7.8031985  89.3386034  59.8023161   6.3099919
  73.0137740  71.4118904   8.7818610  72.8970124  72.3564336   8.6797300
  72.1930186  71.1092465   9.1704409  82.9014274  66.1369039  -0.3724798
  83.7359878  65.7050238  -0.5547323  82.7398617  65.9651053   0.5552097
  82.5560166  62.6401153   0.9931542  82.5008970  62.4745424   0.0519986
  81.9306222  63.3477186   1.1493731  67.3452681  57.8769217  14.8192964
  67.9911545  57.3668171  15.3080189  67.1369833  58.6137899  15.3936389
  79.8706074  64.9450065  20.3185104  80.7397233  65.1190717  19.9571739
  79.3912825  65.7644481  20.1960834  75.8656292  52.1409262   0.5716860
  75.8534962  53.0851102   0.7285131  76.7579714  51.9579407   0.2776321
  74.0392254  72.0647166  11.9974538  74.9419501  72.0970776  12.3141033
  73.8129624  71.1347617  12.0120874  75.7945856  70.8178152   8.6584617
  74.8441487  70.8180014   8.5448989  76.0978342  70.0710887   8.1420651
  79.6808411  48.7352038   4.8262797  78.9140807  48.1810525   4.9719479
  80.0919116  48.8073907   5.6876948  71.6850172  55.0236834  18.9167978
  72.5481634  54.6673639  19.1271303  71.1115583  54.6850729  19.6043382
  91.5298549  76.6538691   9.7230379  92.1676959  76.5345438   9.0193719
  91.4119392  77.6019534   9.7818331  88.3388256  76.6066119   9.6591904
  88.0006767  76.4907183   8.7712439  89.2078024  76.2057284   9.6392910
  88.8208039  77.7600970  15.6178109  88.8096679  77.3653769  14.7458613
  88.9828678  77.0267043  16.2111881  81.7439503  79.9552787   8.4873015
  82.5360795  79.6143611   8.0719314  81.9836153  80.0647762   9.4075168
  85.5415300  80.5438082  14.5657293  85.2505166  81.4483713  14.4503959
  86.1772284  80.5854610  15.2801363  86.4671507  77.9214931  11.1558653
  87.0635079  77.6970953  10.4415616  86.5246478  77.1799676  11.7584101
  91.0839818  74.3790144   6.7983587  91.8702907  73.9609568   6.4474004
  91.3478522  75.2836237   6.9665235  94.0073665  68.0286952  12.1611174
  93.6756990  68.8982363  11.9372389  93.4119279  67.7123236  12.8405205
  90.5005185  80.2299498  11.5607087  90.2005908  81.1324536  11.4522894
  90.1556244  79.9631681  12.4128240  83.9517666  76.6813294   7.5943791
  83.0268163  76.5489509   7.8021483  84.2002080  77.4607514   8.0913734
  93.9002329  72.7482038   9.2404524  92.9919206  72.6797446   8.9463285
  93.8489924  73.2253983  10.0686350  81.3126477  76.3246568   8.4287580
  81.4418859  76.5781047   9.3426992  80.6323929  76.9174276   8.1092235
  87.9743194  74.1671683  17.1839421  87.1976528  74.7265604  17.1742286
  88.6133757  74.6528466  17.7054292  95.7663975  70.9498476  11.0182398
  95.1238355  71.2431009  10.3722193  95.2618904  70.8351397  11.8235595
  86.2289567  76.9757137  16.7457388  86.9704251  77.5142181  16.4692212
  85.5226552  77.6023426  16.9028940  91.7044906  79.1186277  15.3429550
  92.1128262  78.6768688  14.5984182  90.9822168  78.5438905  15.5963743
  88.0575976  74.0558884  12.7163107  88.9037172  74.4798298  12.8597756
  87.9974614  73.3992508  13.4101670  91.2075422  71.7163252  14.3744281
  90.9636354  72.4705313  13.8378556  91.4835352  72.0948600  15.2091528
  93.1613884  78.2601865  13.0521546  93.3730780  78.9033625  12.3755927
  93.1143633  77.4264181  12.5843476  90.7640113  70.8719685   9.9558118
  89.9024592  71.1700939  10.2474856  90.7902548  71.0890084   9.0239151
  84.4725764  78.9633358   9.3011687  85.0427121  79.3920626   8.6629172
  85.0633876  78.6815942   9.9995873  84.9650930  74.1296785  17.5472698
  84.3349591  74.8113066  17.7808095  84.8587018  74.0179867  16.6025837
  80.2595903  73.7968581   8.4738623  79.4694957  74.0526110   7.9978733
  80.7507150  74.6116919   8.5790663  82.2110648  74.1613160   5.4322099
  81.4141812  74.2731854   5.9505595  81.9836240  74.4999812   4.5662990
  88.0416316  80.6857863  13.3804614  88.1060748  81.1478271  14.2162786
  87.3327240  80.0555228  13.5086924  78.5433606  74.0499071  10.9053613
  78.7941644  74.9346081  11.1711189  79.0793154  73.8703673  10.1328705
  84.2431673  68.4317551  19.9097949  83.8498619  67.8783749  20.5845594
  85.0597814  68.7428129  20.3004467  87.1599634  69.8475430  17.5018206
  87.9009348  70.4482583  17.4222669  87.3917557  69.1053068  16.9436249
  82.3040972  75.0331797  15.7796436  82.1894487  74.1317054  16.0803535
  81.4485490  75.2795494  15.4281252  89.3832810  82.9749537  17.3783936
  88.9396664  82.1885916  17.0604841  90.0450024  83.1628688  16.7127827
  84.1419931  84.5045339  11.9044615  84.6927356  84.3762402  11.1321609
  83.3031407  84.8040228  11.5539508  91.4814048  83.2552337  15.4065338
  91.4632523  84.0761218  14.9145607  92.4033968  83.1306413  15.6315479
  87.9387102  80.7696467  16.2488846  88.4715439  80.0084755  16.0188154
  87.4101183  80.4770119  16.9913000  91.1056797  65.8756533  11.7782488
  90.7621067  66.7658175  11.7021598  91.4735760  65.6858190  10.9152073
  79.1742648  78.1990063   4.5971090  80.0117870  78.6087072   4.3804798
  79.3520915  77.2589505   4.5671284  88.6554191  70.7114845   5.3440161
  87.7995787  70.3221695   5.1645800  89.0681143  70.7906806   4.4839947
  90.1853338  68.2461188   9.7431721  89.6818133  68.2091323   8.9299526
  90.4783944  69.1553931   9.8028378  86.4296223  68.3299918   8.7497903
  87.2949220  68.1342726   8.3903792  86.4973732  68.1010269   9.6767259
  84.0358542  70.5602126   6.1214270  84.6102294  70.3377307   5.3887462
  84.6229525  70.6290820   6.8742871  86.3381210  67.4343375   4.8489339
  85.6845623  67.1192392   4.2245954  86.2961684  66.8119115   5.5749162
  89.5718951  73.9225308   9.1736987  88.6541512  74.1440255   9.0158675
  89.9879094  73.9971619   8.3148694  92.9044463  65.1350092   6.8800225
  93.2103340  64.2747455   6.5926140  93.6297068  65.7267712   6.6799219
  79.1968819  75.5380779   5.2681823  78.9993219  74.9450139   4.5432890
  78.6415483  75.2332989   5.9857762  87.1765543  75.4303885   7.3876416
  87.2314152  74.4777721   7.3118893  86.3656745  75.5863324   7.8717715
  85.1157902  74.0480945   5.1466795  84.3025768  74.3475115   5.5531987
  85.6116897  73.6536634   5.8641278  90.7132114  74.5122769  13.9781689
  91.0681502  74.7394242  14.8376155  91.3604245  74.8441146  13.3558945
  84.6071977  71.6199300  10.7628030  85.2471357  71.4788059  10.0650994
  83.7749508  71.3333814  10.3866632  90.2027126  83.3019826  11.2275390
  90.2564148  83.8710763  11.9953106  89.3341907  83.4721711  10.8629428
  81.6100594  71.5899625   5.5401017  81.8707411  72.5044959   5.4310178
  82.4317766  71.1224068   5.6897630  83.0825519  73.0037383  12.7099842
  83.7548572  72.7954745  12.0612491  82.2555305  72.8059469  12.2705074
  88.9851091  69.6299323  14.7265503  88.3379006  70.3289273  14.6329979
  89.7552106  70.0635467  15.0941751  92.3929889  79.8948176  17.8016056
  92.2415395  79.6658727  16.8846139  92.3834568  80.8518777  17.8147401
  89.1615225  77.4680088  12.7862322  90.0907285  77.6191248  12.6131290
  88.7406255  77.5564109  11.9310969  87.9603557  81.4930753  10.5560860
  87.8214643  81.1249537  11.4286798  87.1718153  82.0078392  10.3844818
  83.4853016  76.2779985  13.4702279  83.3472814  75.5460224  14.0713818
  84.3957940  76.1888886  13.1886467  86.1135317  75.9899945  12.9585958
  86.8234935  75.3493137  12.9172577  86.0704625  76.2412840  13.8812139
  94.1022096  82.9267298  15.8792538  94.0434642  82.2426518  15.2123121
  94.5041614  83.6686288  15.4273164  84.8264251  72.9765163  14.7781598
  84.2901608  72.5255901  15.4303194  84.2380959  73.1111072  14.0352062
  94.1039503  80.8906882  14.1106517  93.2166282  80.5532804  14.2332916
  94.6738054  80.1589913  14.3475283  75.7568650  77.2230974   7.4349569
  76.4439690  76.9092704   6.8470584  75.6016779  78.1272338   7.1616820
  80.5603372  72.1121170  11.8634592  80.4761561  71.5046840  11.1285002
  79.7386078  72.6030189  11.8644089  90.7327086  70.5974734   7.2304787
  91.2295785  69.8444696   6.9105858  89.9614067  70.6339051   6.6647997
  90.0939340  85.4495168  13.2325919  90.8067312  86.0842633  13.1601821
  89.6029368  85.5459034  12.4165921  87.3162055  72.7392117   6.9576472
  86.9459842  72.1863157   7.6457378  87.8121147  72.1350250   6.4051472
  85.1451253  83.1989612  14.0531490  85.8460713  83.8326095  14.2060884
  84.6746368  83.5404343  13.2927129  93.1746081  67.5644327   9.3784146
  92.2609161  67.7948554   9.5466353  93.6039182  67.6482771  10.2298179
  92.9452539  75.7534219  11.8784040  92.2923989  76.0010127  11.2236493
  93.3232919  74.9398358  11.5446518  88.9940112  76.4954030  18.3650077
  88.3180749  76.3948160  19.0352453  89.8167746  76.3393244  18.8286075
  80.7418971  82.7325967  10.9862593  81.3272408  81.9869655  11.1190497
  80.5443810  83.0429924  11.8699257  75.3336626  75.3031567   9.7067036
  75.3720726  74.7695158  10.5004154  74.8276919  74.7766773   9.0878013
  82.7127388  70.1496108  13.2029578  82.7768715  71.0110939  12.7906976
  82.6494509  69.5370109  12.4701937  82.1879661  72.2219240  16.8502612
  82.8151700  71.8396318  17.4640137  81.3307580  72.0033442  17.2158305
  92.5873769  82.6282215  18.4556348  93.1313673  83.2412174  17.9611303
  92.0060614  83.1861794  18.9723361  78.9645204  74.0295669   2.7820967
  79.2598645  73.1206348   2.7288021  78.0633239  74.0083409   2.4601970
  82.4939451  72.1051666   8.7648516  81.7726036  72.7187634   8.6255989
  83.2832706  72.6409431   8.6865162  85.2965764  69.4406092  15.0389168
  85.8200166  69.6868389  15.8015477  85.0778097  70.2726127  14.6192305
  80.6933045  71.7109767   2.9060292  80.3645751  70.8307146   2.7235398
  81.0472416  71.6557436   3.7936682  83.8074868  71.9982737   3.2735770
  84.1470941  72.5268658   2.5514378  84.2546989  72.3363143   4.0494337
  86.5018309  70.3819788  12.7238838  86.1615130  69.5827601  13.1259518
  85.7957315  70.6821498  12.1515671  87.1534781  67.4669100  11.1766161
  87.9760850  66.9929578  11.0545051  87.3972845  68.2459584  11.6764847
  84.6773360  74.1588221   8.9858140  84.5317941  74.4728524   9.8782421
  84.1998563  74.7773121   8.4329038  86.5369743  71.1490769   9.0339029
  86.5231311  70.2531862   8.6971327  87.2542171  71.1561432   9.6677315
  88.3895873  71.5828109  11.0792157  88.1313651  72.5045179  11.0776487
  87.8580914  71.1858543  11.7692621  79.1519022  76.6993565  11.9245801
  78.6072490  77.4753373  12.0566075  80.0298372  77.0464369  11.7664922
  85.9406639  70.0305149   4.3026599  86.0622550  69.1021795   4.5017487
  85.6508681  70.0443835   3.3904915  88.8097829  67.7160059   7.4393319
  88.8319526  67.7799392   6.4845299  89.2265888  66.8764568   7.6333825
  79.9385044  75.8263461  14.8175958  79.1966780  75.9746097  15.4040588
  79.6177788  76.0871727  13.9542707  87.8828706  85.3679439  14.6156348
  88.1915833  85.1228586  15.4879047  88.6804188  85.5726078  14.1275218
  78.5850263  81.6315216   7.8075286  77.7482171  81.2037391   7.6259287
  78.5573908  81.8247660   8.7446077  85.4247718  71.5437146  18.5116532
  85.4735874  72.4199269  18.1294302  85.9670232  71.0014539  17.9388175
  95.9102564  82.0878269  17.7917669  95.1198108  82.0702408  17.2522169
  95.6735918  82.6266563  18.5466706  96.0300439  78.9370736  15.1050398
  96.0798444  78.7720743  16.0465920  95.9214362  78.0697995  14.7148278
  93.3204201  74.9201664  16.4209704  94.2214064  74.7808129  16.1293702
  93.3952176  75.0856119  17.3607882  87.6547007  72.2968519  15.2662891
  86.7850316  72.5902085  14.9945479  87.8906487  72.8808964  15.9870154
  97.5318636  81.3567677  15.3492419  97.2403444  81.7197658  16.1855880
  96.9190767  80.6434686  15.1705751  95.7805824  76.4800292  13.8172477
  96.2559946  76.6727938  13.0091329  94.8571389  76.5359478  13.5715861
  90.3586040  68.5148136  12.7828311  90.8767984  69.2509162  12.4574800
  90.0041173  68.8212129  13.6175070  90.6098635  64.9348418   8.3029208
  90.8900388  64.2671607   8.9289634  91.3949242  65.1277514   7.7903872
  94.4807493  73.3566052  12.0500783  95.4324916  73.4564150  12.0713007
  94.3110943  72.5644321  12.5598867  92.5021872  70.4421635  12.2360184
  91.9071805  70.7226648  11.5406672  92.2171569  70.9315536  13.0076925
  96.9595571  76.5772172  11.1643082  96.9271891  75.6388172  11.3502766
  97.5696194  76.6556208  10.4308907  97.1090059  73.3683215  11.2101366
  96.5929108  72.5841672  11.0231294  97.9930008  73.0401932  11.3747885
  94.7700786  67.1124231   7.1697178  94.5725607  66.8039319   8.0540510
  95.3800492  67.8385870   7.2995108  88.6817594  79.4985971  18.6670943
  89.6020604  79.6764570  18.8610990  88.6467177  78.5542016  18.5150643
  77.8999759  74.6924565   7.5924218  77.5802543  73.8389873   7.2998592
  77.3533187  74.9073143   8.3482185  81.6779667  77.4087006  11.3093725
  81.8965676  78.3404113  11.3281758  82.0905440  77.0494980  12.0948528
  88.5983884  67.9155091   3.2969413  87.7884613  67.5702176   3.6724659
  89.2868301  67.6062635   3.8857025  90.5274433  66.9933138   4.9193710
  91.0805471  67.4128591   5.5783733  90.7644519  66.0668886   4.9616666
  86.5507532  72.9820211  20.6996474  86.4504259  73.9314568  20.6308565
  86.3329074  72.6538450  19.8272544  77.7688019  78.3127476   9.5617340
  77.0751491  77.8981429   9.0487294  78.5161010  78.3548013   8.9650759
  92.3556806  68.5038721   6.6293694  92.8556585  68.6155255   5.8208013
  92.9992414  68.1999773   7.2694503  86.4138802  76.4117350  19.5161535
  85.9305884  77.2117710  19.7225424  86.4999741  76.4225295  18.5628979
  79.6824762  78.2445730   7.4383355  79.6595450  78.3433417   6.4865238
  79.9925398  79.0910881   7.7600521  82.3412140  80.3021885  11.5529969
  83.2955393  80.2705827  11.4859901  82.1424663  79.8412509  12.3680195
  82.9311522  78.8723001  14.1200767  83.7504411  79.3667080  14.1435604
  83.2048329  77.9554969  14.0918334  96.0392654  71.2880274   7.1983061
  96.8153044  71.7776727   7.4707678  95.3140788  71.7138328   7.6554931
  78.1846436  73.2061135  14.8192964  78.8305300  72.6960089  15.3080189
  77.9763587  73.9429816  15.3936389  90.7099828  80.2741982  20.3185104
  91.5790988  80.4482635  19.9571739  90.2306580  81.0936399  20.1960834
  84.8786008  87.3939083  11.9974538  85.7813255  87.4262694  12.3141033
  84.6523378  86.4639534  12.0120874  90.5202166  64.0643956   4.8262797
  89.7534562  63.5102443   4.9719479  90.9312871  64.1365825   5.6876948
  82.5243927  70.3528752  18.9167978  83.3875388  69.9965557  19.1271303
  81.9509338  70.0142647  19.6043382  95.0825428  83.7609468  19.9097949
  94.6892373  83.2075667  20.5845594  95.8991568  84.0720047  20.3004467
  97.9993389  85.1767348  17.5018206  98.7403102  85.7774501  17.4222669
  98.2311311  84.4344985  16.9436249  93.0273415  87.5511158  16.8502612
  93.6545454  87.1688235  17.4640137  92.1701334  87.3325360  17.2158305
  96.2641473  86.8729064  18.5116532  96.3129628  87.7491187  18.1294302
  96.8063987  86.3306457  17.9388175  97.3901286  88.3112129  20.6996474
  97.2898013  89.2606486  20.6308565  97.1722829  87.9830368  19.8272544
  89.0240190  88.5353052  14.8192964  89.6699054  88.0252006  15.3080189
  88.8157342  89.2721734  15.3936389  93.3637681  85.6820669  18.9167978
  94.2269143  85.3257474  19.1271303  92.7903092  85.3434564  19.6043382
  67.7045302  29.3227825   4.1029243  67.2609156  28.5364203   3.7850147
  68.3662516  29.5106975   3.4373134  69.8026540  29.6030625   2.1310644
  69.7845016  30.4239506   1.6390913  70.7246460  29.4784700   2.3560785
  70.7142381  26.2426463   4.5261362  70.5627888  26.0137015   3.6091446
  70.7047061  27.1997064   4.5392707  72.4234588  29.2745585   2.6037844
  72.3647134  28.5904806   1.9368427  72.8254106  30.0164575   2.1518470
  70.9086262  28.9760503   5.1801655  71.4526166  29.5890461   4.6856609
  70.3273107  29.5340081   5.6968668  74.2315056  28.4356557   4.5162976
  73.4410600  28.4180696   3.9767475  73.9948411  28.9744850   5.2712012
  75.8531128  27.7045965   2.0737726  75.5615936  28.0675945   2.9101187
  75.2403259  26.9912973   1.8951058  69.0312320  26.6220269   7.0430411
  69.9003480  26.7960922   6.6817046  68.5519072  27.4414686   6.9206140
  80.6904796  38.3308895  -3.5524314  81.3283206  38.2115643  -4.2560974
  80.5725639  39.2789739  -3.4936362  77.4994502  38.2836324  -3.6162790
  77.1613014  38.1677388  -4.5042255  78.3684271  37.8827489  -3.6361784
  77.9814285  39.4371175   2.3423416  77.9702926  39.0423974   1.4703919
  78.1434925  38.7037248   2.9357187  70.9045750  41.6322992  -4.7881678
  71.6967042  41.2913816  -5.2035379  71.1442400  41.7417967  -3.8679525
  74.7021547  42.2208287   1.2902600  74.4111412  43.1253918   1.1749266
  75.3378531  42.2624815   2.0046669  75.6277753  39.5985136  -2.1196041
  76.2241326  39.3741158  -2.8339078  75.6852725  38.8569881  -1.5170593
  83.1679912  29.7057157  -1.1143519  82.8363237  30.5752568  -1.3382304
  82.5725525  29.3893441  -0.4349489  79.6611432  41.9069703  -1.7147607
  79.3612155  42.8094741  -1.8231799  79.3162491  41.6401886  -0.8626454
  83.0608575  34.4252243  -4.0350169  82.1525453  34.3567651  -4.3291408
  83.0096171  34.9024188  -3.2068344  74.6432211  48.6714023  -8.7476639
  74.5656241  49.6221848  -8.6688158  74.0393855  48.3259895  -8.0901713
  77.1349441  35.8441888   3.9084728  76.3582775  36.4035808   3.8987593
  77.7740004  36.3298671   4.4299598  84.9270222  32.6268681  -2.2572295
  84.2844602  32.9201214  -2.9032501  84.4225150  32.5121601  -1.4519099
  75.3895813  38.6527342   3.4702695  76.1310498  39.1912386   3.1937519
  74.6832799  39.2793630   3.6274247  80.8651153  40.7956482   2.0674857
  81.2734509  40.3538893   1.3229489  80.1428415  40.2209110   2.3209049
  77.2182223  35.7329089  -0.5591586  78.0643418  36.1568502  -0.4156937
  77.1580861  35.0762713   0.1346977  81.1879968  41.3557673  -4.1772855
  80.5588830  41.5203387  -4.8796787  80.8005630  41.7699282  -3.4061891
  85.0669200  42.2912111  -6.8228491  84.3820238  42.6711012  -7.3731457
  85.1513049  42.9007437  -6.0896543  80.3681668  33.3933457   1.0989587
  80.1242600  34.1475518   0.5623863  80.6441599  33.7718805   1.9336834
  82.3220131  39.9372070  -0.2233147  82.5337027  40.5803830  -0.8998766
  82.2749880  39.1034386  -0.6911217  73.6332011  40.6403562  -3.9743006
  74.2033368  41.0690831  -4.6125522  74.2240123  40.3586147  -3.2758821
  74.1257177  35.8066990   4.2718005  73.4955838  36.4883271   4.5053402
  74.0193265  35.6950071   3.3271143  83.4365959  42.8144025  -2.0510790
  84.2583403  42.4124212  -2.3328108  83.4328362  42.7112259  -1.0994674
  77.2022563  42.3628068   0.1049921  77.2666995  42.8248476   0.9408092
  76.4933487  41.7325433   0.2332230  73.4037920  30.1087756   6.6343256
  73.0104866  29.5553954   7.3090900  74.2204060  30.4198334   7.0249774
  72.1794862  44.6637370  -7.3720421  72.3561491  45.5855335  -7.5599437
  72.9751696  44.3495789  -6.9426041  76.3205881  31.5245635   4.2263513
  77.0615594  32.1252788   4.1467975  76.5523804  30.7823273   3.6681555
  71.4647219  36.7102002   2.5041742  71.3500734  35.8087259   2.8048841
  70.6091737  36.9565699   2.1526559  78.5439057  44.6519742   4.1029243
  78.1002911  43.8656121   3.7850147  79.2056270  44.8398893   3.4373134
  73.3026178  46.1815544  -1.3710078  73.8533603  46.0532607  -2.1433085
  72.4637654  46.4810433  -1.7215186  80.6420295  44.9322542   2.1310644
  80.6238770  45.7531423   1.6390913  81.5640215  44.8076618   2.3560785
  77.0993349  42.4466672   2.9734153  77.6321686  41.6854960   2.7433461
  76.5707430  42.1540324   3.7158307  83.4438908  39.7701685  -4.3979989
  82.7862582  40.4600946  -4.3099860  84.2479307  40.1598117  -4.0546003
  82.2544366  38.1246057  -6.3476047  82.7676248  38.7576049  -5.8454338
  82.9045590  37.5247253  -6.7132687  78.7325197  35.5995513  -4.1017707
  77.8147759  35.8210460  -4.2596019  79.1485341  35.6741823  -4.9605999
  83.0206163  43.1052059  -8.2196905  82.5668490  42.2642969  -8.1631714
  82.3900129  43.7413457  -7.8822125  81.4639102  44.9428556  -7.2847087
  81.7562076  45.5033613  -8.0034721  81.9737722  45.2357117  -6.5293927
  76.4272727  45.7208907  -6.1953633  76.3848906  45.9469753  -7.1245101
  77.3435426  45.4872281  -6.0467832  79.8738361  36.1892974   0.7026996
  80.2287749  36.4164447   1.5621462  80.5210492  36.5211351   0.0804251
  85.6305477  41.3787937  -3.5812404  86.0641984  41.2863226  -2.7329350
  86.3437058  41.3545438  -4.2192388  74.5438528  42.5971936  -6.3991671
  75.3379126  42.1022256  -6.6009096  73.8330220  42.0689799  -6.7623965
  79.3633372  44.9790031  -2.0479303  79.4170395  45.5480968  -1.2801587
  78.4948154  45.1491916  -2.4125266  72.2431766  34.6807587  -0.5654852
  72.9154819  34.4724950  -1.2142203  71.4161552  34.4829673  -1.0049619
  86.4921027  41.4211638  -1.0479518  86.6856917  42.3257448  -0.8020243
  86.3921645  40.9619057  -0.2140933  78.1457338  31.3069528   1.4510809
  77.4985253  32.0059478   1.3575286  78.9158353  31.7405672   1.8187057
  81.5536136  41.5718381   4.5261362  81.4021642  41.3428932   3.6091446
  81.5440815  42.5288982   4.5392707  78.3221472  39.1450293  -0.4892371
  79.2513532  39.2961453  -0.6623404  77.9012502  39.2334314  -1.3443725
  77.1209804  43.1700958  -2.7193834  76.9820890  42.8019742  -1.8467895
  76.3324400  43.6848597  -2.8909876  77.7157956  48.2710054 -11.3768297
  77.8909712  47.7998097 -10.5622674  77.0290744  48.8975820 -11.1487036
  78.6715019  42.5482560  -5.3304996  78.3364852  42.5083330  -4.4347346
  78.1718965  41.8827276  -5.8034585  72.6459263  37.9550190   0.1947585
  72.5079061  37.2230429   0.7959124  73.5564186  37.8659091  -0.0868227
  75.2741564  37.6670150  -0.3168735  75.9841182  37.0263342  -0.3582116
  75.2310872  37.9183045   0.6057446  83.2628342  44.6037503   2.6037844
  83.2040888  43.9196723   1.9368427  83.6647861  45.3456493   2.1518470
  73.9870498  34.6535368   1.5026905  73.4507855  34.2026106   2.1548501
  73.3987206  34.7881276   0.7597369  72.2819041  51.4199417  -4.6028437
  72.5215639  52.0517941  -3.9249418  71.4388238  51.0687457  -4.3163078
  83.2645750  42.5677087   0.8351824  82.3772528  42.2303009   0.9578223
  83.8344301  41.8360118   1.0720589  76.7946903  47.2278539  -2.1986933
  76.7217074  48.0333511  -1.6867628  76.3524296  47.4270505  -3.0238911
  76.5836683  46.4650309  -8.6884111  75.8004204  47.0071990  -8.5945887
  77.2829428  46.9824289  -8.2889870  79.2545587  47.1265373  -0.0428774
  79.9673559  47.7612838  -0.1152873  78.7635615  47.2229239  -0.8588772
  80.9763113  41.0316626  -8.4711482  80.0419392  41.1518089  -8.6406778
  81.1539782  40.1289093  -8.7351473  74.3057500  44.8759817   0.7776797
  75.0066960  45.5096300   0.9306191  73.8352615  45.2174548   0.0172436
  82.1058786  37.4304424  -1.3970653  81.4530236  37.6780332  -2.0518200
  82.4839166  36.6168562  -1.7308176  79.0665960  47.4664117  -7.2942483
  79.2488354  46.6485773  -6.8314730  79.8898946  47.6831810  -7.7317593
  79.4008125  46.3932303 -10.0327434  79.9295892  45.8824757 -10.6457272
  79.6636345  46.0774833  -9.1681901  78.1546359  38.1724235   5.0895384
  77.4786996  38.0718365   5.7597759  78.9773993  38.0163449   5.5531381
  69.9025218  44.4096172  -2.2892101  70.4878655  43.6639860  -2.1564196
  69.7050057  44.7200129  -1.4055437  72.7563873  47.4447419  -7.2729658
  72.0874249  47.9293547  -7.7565618  72.6176743  47.6916640  -6.3586280
  76.8969142  49.4791163  -0.6747000  77.4487450  49.6422784   0.0902085
  77.2375335  50.0695601  -1.3466975  71.3485908  33.8989445   3.5747919
  71.9757946  33.5166522   4.1885443  70.4913827  33.6803647   3.9403612
  81.7480016  44.3052420   5.1801655  82.2919920  44.9182379   4.6856609
  81.1666861  44.8631999   5.6968668  80.0337529  47.4273138  -3.6883318
  79.9088669  46.6262878  -4.1972372  80.6916620  47.9219332  -4.1769348
  82.0972438  45.2282158  -2.0603768  81.1502773  45.1087510  -2.1325441
  82.4455211  44.3404656  -1.9777506  74.4572011  31.1176297   1.7634474
  74.9806413  31.3638594   2.5260784  74.2384344  31.9496332   1.3437612
  79.1018871  45.0234875  -5.8599415  78.9543833  44.0951582  -5.6791845
  79.9272364  45.0454965  -6.3442340  82.7052993  45.8463433  -4.7734543
  83.6299540  45.6406295  -4.9110092  82.5368296  45.5979835  -3.8645201
  75.6624556  32.0589992  -0.5515855  75.3221376  31.2597806  -0.1495175
  74.9563562  32.3591703  -1.1239022  77.5502120  33.2598314  -2.1962537
  77.2919898  34.1815384  -2.1978206  77.0187161  32.8628748  -1.5062072
  82.4948309  46.3649101  -9.4172451  82.6685186  45.7995523 -10.1698599
  82.9877200  47.1649996  -9.5992961  68.3125269  38.3763770  -1.3508892
  67.7678737  39.1523578  -1.2188618  69.1904619  38.7234574  -1.5089771
  69.0991291  37.5033666   1.5421264  68.3573027  37.6516302   2.1285895
  68.7784035  37.7641932   0.6788014  77.0434953  47.0449644   1.3401654
  77.3522080  46.7998791   2.2124354  77.8410435  47.2496283   0.8520525
  77.0655565  49.1987554  -6.4292969  76.6260556  48.7063933  -5.7360112
  77.8163682  48.6560522  -6.6700894  69.5447904  45.3899095  -6.4268341
  70.3705924  45.0902867  -6.8069697  69.1941956  44.6206717  -5.9778552
  74.5129437  44.7425563  -4.3570667  73.8909447  44.0796268  -4.6568439
  75.1834304  44.7686695  -5.0397020  74.5853965  33.2207351   5.2361839
  74.6342120  34.0969474   4.8539608  75.1276479  32.6784744   4.6633482
  85.0708811  43.7648474   4.5162976  84.2804354  43.7472613   3.9767475
  84.8342165  44.3036768   5.2712012  85.1906686  40.6140941   1.8295704
  85.2404691  40.4490948   2.7711227  85.0820609  39.7468200   1.4393585
  82.4810448  36.5971869   3.1455011  83.3820311  36.4578334   2.8539009
  82.5558423  36.7626324   4.0853188  76.8153253  33.9738724   1.9908197
  75.9456563  34.2672290   1.7190786  77.0512734  34.5579169   2.7115461
  86.6924882  43.0337882   2.0737726  86.4009691  43.3967863   2.9101187
  86.0797014  42.3204891   1.8951058  84.9412071  38.1570497   0.5417784
  85.4166192  38.3498143  -0.2663365  84.0177636  38.2129683   0.2961167
  79.5192287  30.1918340  -0.4926382  80.0374231  30.9279367  -0.8179894
  79.1647420  30.4982334   0.3420377  83.6413740  35.0336257  -1.2253911
  84.5931163  35.1334355  -1.2041687  83.4717190  34.2414526  -0.7155826
  81.6628119  32.1191840  -1.0394510  81.0678051  32.3996853  -1.7348021
  81.3777816  32.6085741  -0.2677769  86.1201817  38.2542377  -2.1111611
  86.0878138  37.3158377  -1.9251927  86.7302441  38.3326413  -2.8445786
  77.8423841  41.1756176   5.3916250  78.7626850  41.3534775   5.5856297
  77.8073424  40.2312221   5.2395949  70.8385913  39.0857210  -1.9660969
  71.0571923  40.0174318  -1.9472935  71.2511687  38.7265185  -1.1806165
  75.7113779  34.6590416   7.4241780  75.6110506  35.6084773   7.3553871
  75.4935321  34.3308655   6.5517850  75.5745049  38.0887555   6.2406842
  75.0912131  38.8887915   6.4470731  75.6605988  38.0995500   5.2874286
  71.5018386  41.9792090  -1.7224724  72.4561640  41.9476032  -1.7894793
  71.3030910  41.5182713  -0.9074498  72.0917768  40.5493206   0.8446073
  72.9110657  41.0437284   0.8680911  72.3654576  39.6325174   0.8163641
  69.8568615  47.5211709  -4.7054526  69.7223083  46.7612110  -5.2716528
  69.4400677  48.2452609  -5.1725738  73.0137741  48.4181026  -4.4936084
  72.8970125  49.3626459  -4.5957394  72.1930187  48.1154588  -4.1050285
  67.3452683  34.8831340   1.5438270  67.9911546  34.3730294   2.0325496
  67.1369834  35.6200021   2.1181696  79.8706075  41.9512187   7.0430411
  80.7397234  42.1252839   6.6817046  79.3912826  42.7706604   6.9206140
  74.0392255  49.0709288  -1.2780155  74.9419502  49.1032898  -0.9613660
  73.8129625  48.1409739  -1.2633820  75.7945857  47.8240275  -4.6170077
  74.8441488  47.8242136  -4.7305705  76.0978343  47.0773009  -5.1334042
  71.6850174  32.0298957   5.6413285  72.5481635  31.6735762   5.8516609
  71.1115584  31.6912852   6.3288689  91.5298551  53.6600813  -3.5524314
  92.1676961  53.5407560  -4.2560974  91.4119393  54.6081657  -3.4936362
  88.3388257  53.6128241  -3.6162790  88.0006768  53.4969306  -4.5042255
  89.2078025  53.2119406  -3.6361784  88.8208040  54.7663093   2.3423416
  88.8096681  54.3715891   1.4703919  88.9828679  54.0329166   2.9357187
  81.7439505  56.9614909  -4.7881678  82.5360796  56.6205734  -5.2035379
  81.9836155  57.0709884  -3.8679525  85.5415301  57.5500205   1.2902600
  85.2505167  58.4545836   1.1749266  86.1772285  57.5916732   2.0046669
  86.4671508  54.9277053  -2.1196041  87.0635080  54.7033076  -2.8339078
  86.5246479  54.1861799  -1.5170593  91.0839819  51.3852267  -6.4771106
  91.8702908  50.9671690  -6.8280689  91.3478523  52.2898359  -6.3089458
  94.0073667  45.0349074  -1.1143519  93.6756991  45.9044485  -1.3382304
  93.4119280  44.7185358  -0.4349489  90.5005186  57.2361620  -1.7147607
  90.2005909  58.1386659  -1.8231799  90.1556246  56.9693803  -0.8626454
  83.9517668  53.6875417  -5.6810902  83.0268164  53.5551631  -5.4733210
  84.2002081  54.4669636  -5.1840960  93.9002330  49.7544160  -4.0350169
  92.9919207  49.6859569  -4.3291408  93.8489926  50.2316105  -3.2068344
  81.3126479  53.3308691  -4.8467113  81.4418860  53.5843170  -3.9327701
  80.6323930  53.9236399  -5.1662458  87.9743196  51.1733806   3.9084728
  87.1976530  51.7327726   3.8987593  88.6133759  51.6590589   4.4299598
  95.7663976  47.9560599  -2.2572295  95.1238357  48.2493132  -2.9032501
  95.2618905  47.8413519  -1.4519099  86.2289568  53.9819259   3.4702695
  86.9704252  54.5204303   3.1937519  85.5226553  54.6085548   3.6274247
  91.7044908  56.1248400   2.0674857  92.1128264  55.6830810   1.3229489
  90.9822169  55.5501027   2.3209049  88.0575978  51.0621007  -0.5591586
  88.9037173  51.4860420  -0.4156937  87.9974615  50.4054631   0.1346977
  91.2075423  48.7225375   1.0989587  90.9636355  49.4767436   0.5623863
  91.4835353  49.1010723   1.9336834  93.1613886  55.2663987  -0.2233147
  93.3730781  55.9095747  -0.8998766  93.1143634  54.4326304  -0.6911217
  90.7640115  47.8781808  -3.3196575  89.9024594  48.1763062  -3.0279838
  90.7902549  48.0952207  -4.2515542  84.4725765  55.9695480  -3.9743006
  85.0427122  56.3982748  -4.6125522  85.0633877  55.6878065  -3.2758821
  84.9650932  51.1358908   4.2718005  84.3349592  51.8175188   4.5053402
  84.8587020  51.0241989   3.3271143  80.2595904  50.8030704  -4.8016071
  79.4694958  51.0588232  -5.2775960  80.7507152  51.6179041  -4.6964030
  82.2110650  51.1675283  -7.8432594  81.4141813  51.2793977  -7.3249098
  81.9836242  51.5061935  -8.7091704  88.0416317  57.6919986   0.1049921
  88.1060750  58.1540393   0.9408092  87.3327241  57.0617351   0.2332230
  78.5433607  51.0561194  -2.3701080  78.7941646  51.9408204  -2.1043504
  79.0793156  50.8765796  -3.1425988  84.2431674  45.4379673   6.6343256
  83.8498620  44.8845872   7.3090900  85.0597815  45.7490252   7.0249774
  87.1599635  46.8537552   4.2263513  87.9009349  47.4544706   4.1467975
  87.3917558  46.1115190   3.6681555  82.3040973  52.0393920   2.5041742
  82.1894489  51.1379177   2.8048841  81.4485491  52.2857617   2.1526559
  89.3832811  59.9811660   4.1029243  88.9396665  59.1948039   3.7850147
  90.0450025  60.1690811   3.4373134  84.1419932  61.5107462  -1.3710078
  84.6927357  61.3824525  -2.1433085  83.3031408  61.8102351  -1.7215186
  91.4814049  60.2614460   2.1310644  91.4632525  61.0823341   1.6390913
  92.4033969  60.1368535   2.3560785  87.9387103  57.7758589   2.9734153
  88.4715440  57.0146878   2.7433461  87.4101185  57.4832241   3.7158307
  91.1056798  42.8818655  -1.4972206  90.7621068  43.7720297  -1.5733095
  91.4735761  42.6920313  -2.3602621  79.1742649  55.2052186  -8.6783603
  80.0117871  55.6149194  -8.8949896  79.3520917  54.2651628  -8.7083410
  90.1853339  45.2523311  -3.5322972  89.6818134  45.2153446  -4.3455167
  90.4783946  46.1616053  -3.4726316  86.4296225  45.3362040  -4.5256791
  87.2949221  45.1404849  -4.8850901  86.4973734  45.1072392  -3.5987434
  84.0358544  47.5664248  -7.1540424  84.6102296  47.3439430  -7.8867231
  84.6229526  47.6352943  -6.4011823  89.5718952  50.9287431  -4.1017707
  88.6541513  51.1502378  -4.2596019  89.9879095  51.0033741  -4.9605999
  79.1968820  52.5442901  -8.0072870  78.9993220  51.9512262  -8.7321803
  78.6415484  52.2395111  -7.2896931  87.1765544  52.4366008  -5.8878277
  87.2314154  51.4839844  -5.9635800  86.3656746  52.5925447  -5.4036978
  85.1157904  51.0543067  -8.1287898  84.3025769  51.3537238  -7.7222706
  85.6116898  50.6598756  -7.4113416  90.7132115  51.5184892   0.7026996
  91.0681503  51.7456365   1.5621462  91.3604247  51.8503269   0.0804251
  84.6071978  48.6261423  -2.5126663  85.2471358  48.4850182  -3.2103700
  83.7749509  48.3395936  -2.8888061  90.2027127  60.3081949  -2.0479303
  90.2564149  60.8772885  -1.2801587  89.3341908  60.4783834  -2.4125266
  81.6100595  48.5961748  -7.7353676  81.8707412  49.5107081  -7.8444516
  82.4317767  48.1286191  -7.5857063  83.0825520  50.0099505  -0.5654852
  83.7548574  49.8016867  -1.2142203  82.2555307  49.8121591  -1.0049619
  88.9851092  46.6361446   1.4510809  88.3379007  47.3351396   1.3575286
  89.7552108  47.0697590   1.8187057  92.3929890  56.9010298   4.5261362
  92.2415397  56.6720850   3.6091446  92.3834570  57.8580900   4.5392707
  89.1615227  54.4742211  -0.4892371  90.0907287  54.6253371  -0.6623404
  88.7406257  54.5626232  -1.3443725  87.9603558  58.4992875  -2.7193834
  87.8214644  58.1311660  -1.8467895  87.1718155  59.0140515  -2.8909876
  83.4853017  53.2842108   0.1947585  83.3472815  52.5522347   0.7959124
  84.3957941  53.1951008  -0.0868227  86.1135318  52.9962067  -0.3168735
  86.8234937  52.3555260  -0.3582116  86.0704626  53.2474962   0.6057446
  94.1022097  59.9329421   2.6037844  94.0434643  59.2488641   1.9368427
  94.5041615  60.6748411   2.1518470  84.8264252  49.9827285   1.5026905
  84.2901609  49.5318024   2.1548501  84.2380961  50.1173194   0.7597369
  94.1039504  57.8969005   0.8351824  93.2166283  57.5594926   0.9578223
  94.6738055  57.1652036   1.0720589  75.7568651  54.2293096  -5.8405125
  76.4439691  53.9154826  -6.4284109  75.6016780  55.1334461  -6.1137873
  80.5603373  49.1183293  -1.4120101  80.4761562  48.5108963  -2.1469691
  79.7386080  49.6092311  -1.4110605  90.0939341  62.4557291  -0.0428774
  90.8067313  63.0904756  -0.1152873  89.6029370  62.5521157  -0.8588772
  87.3162056  49.7454240  -6.3178221  86.9459843  49.1925280  -5.6297316
  87.8121148  49.1412373  -6.8703221  85.1451255  60.2051735   0.7776797
  85.8460714  60.8388217   0.9306191  84.6746370  60.5466466   0.0172436
  92.9452540  52.7596342  -1.3970653  92.2923991  53.0072249  -2.0518200
  93.3232920  51.9460480  -1.7308176  88.9940114  53.5016153   5.0895384
  88.3180751  53.4010282   5.7597759  89.8167747  53.3455367   5.5531381
  80.7418973  59.7388090  -2.2892101  81.3272409  58.9931777  -2.1564196
  80.5443811  60.0492046  -1.4055437  75.3336627  52.3093690  -3.5687658
  75.3720727  51.7757280  -2.7750539  74.8276920  51.7828895  -4.1876680
  82.7127390  47.1558230  -0.0725115  82.7768716  48.0173061  -0.4847718
  82.6494510  46.5432232  -0.8052757  82.1879662  49.2281363   3.5747919
  82.8151701  48.8458440   4.1885443  81.3307581  49.0095565   3.9403612
  92.5873771  59.6344338   5.1801655  93.1313675  60.2474296   4.6856609
  92.0060616  60.1923916   5.6968668  78.9645205  51.0357792 -10.4933726
  79.2598646  50.1268470 -10.5466672  78.0633241  51.0145531 -10.8152724
  82.4939452  49.1113789  -4.5106178  81.7726038  49.7249756  -4.6498704
  83.2832708  49.6471553  -4.5889532  85.2965765  46.4468215   1.7634474
  85.8200167  46.6930512   2.5260784  85.0778099  47.2788250   1.3437612
  80.6933046  48.7171890 -10.3694401  80.3645753  47.8369269 -10.5519295
  81.0472417  48.6619558  -9.4818012  83.8074870  49.0044859 -10.0018923
  84.1470942  49.5330781 -10.7240315  84.2546990  49.3425266  -9.2260357
  86.5018310  47.3881910  -0.5515855  86.1615131  46.5889723  -0.1495175
  85.7957317  47.6883621  -1.1239022  87.1534782  44.4731223  -2.0988532
  87.9760852  43.9991701  -2.2209642  87.3972846  45.2521706  -1.5989846
  84.6773361  51.1650343  -4.2896554  84.5317942  51.4790646  -3.3972272
  84.1998565  51.7835244  -4.8425655  86.5369744  48.1552891  -4.2415664
  86.5231313  47.2593984  -4.5783366  87.2542172  48.1623555  -3.6077378
  88.3895875  48.5890231  -2.1962537  88.1313652  49.5107302  -2.1978206
  87.8580915  48.1920666  -1.5062072  79.1519023  53.7055688  -1.3508892
  78.6072491  54.4815496  -1.2188618  80.0298373  54.0526492  -1.5089771
  85.9406640  47.0367271  -8.9728094  86.0622551  46.1083918  -8.7737206
  85.6508682  47.0505957  -9.8849778  79.9385045  52.8325584   1.5421264
  79.1966781  52.9808219   2.1285895  79.6177789  53.0933849   0.6788014
  87.8828708  62.3741562   1.3401654  88.1915834  62.1290709   2.2124354
  88.6804190  62.5788201   0.8520525  78.5850264  58.6377339  -5.4679407
  77.7482172  58.2099513  -5.6495406  78.5573909  58.8309782  -4.5308616
  85.4247719  48.5499269   5.2361839  85.4735875  49.4261392   4.8539608
  85.9670234  48.0076662   4.6633482  95.9102565  59.0940392   4.5162976
  95.1198109  59.0764531   3.9767475  95.6735920  59.6328686   5.2712012
  96.0300440  55.9432858   1.8295704  96.0798445  55.7782866   2.7711227
  95.9214363  55.0760117   1.4393585  93.3204203  51.9263786   3.1455011
  94.2214065  51.7870251   2.8539009  93.3952177  52.0918241   4.0853188
  87.6547008  49.3030641   1.9908197  86.7850317  49.5964207   1.7190786
  87.8906488  49.8871086   2.7115461  97.5318637  58.3629800   2.0737726
  97.2403445  58.7259781   2.9101187  96.9190768  57.6496808   1.8951058
  95.7805825  53.4862415   0.5417784  96.2559947  53.6790061  -0.2663365
  94.8571391  53.5421600   0.2961167  90.3586042  45.5210258  -0.4926382
  90.8767986  46.2571285  -0.8179894  90.0041174  45.8274251   0.3420377
  94.4807494  50.3628175  -1.2253911  95.4324917  50.4626272  -1.2041687
  94.3110945  49.5706443  -0.7155826  92.5021874  47.4483758  -1.0394510
  91.9071806  47.7288771  -1.7348021  92.2171570  47.9377659  -0.2677769
  96.9595572  53.5834294  -2.1111611  96.9271892  52.6450295  -1.9251927
  97.5696196  53.6618331  -2.8445786  88.6817595  56.5048093   5.3916250
  89.6020605  56.6826692   5.5856297  88.6467178  55.5604139   5.2395949
  77.8999760  51.6986687  -5.6830475  77.5802545  50.8451995  -5.9756101
  77.3533189  51.9135265  -4.9272508  81.6779668  54.4149128  -1.9660969
  81.8965678  55.3466236  -1.9472935  82.0905442  54.0557103  -1.1806165
  86.5507533  49.9882334   7.4241780  86.4504260  50.9376691   7.3553871
  86.3329075  49.6600573   6.5517850  77.7688020  55.3189599  -3.7137354
  77.0751492  54.9043551  -4.2267399  78.5161011  55.3610135  -4.3103935
  86.4138803  53.4179473   6.2406842  85.9305885  54.2179833   6.4470731
  86.4999742  53.4287418   5.2874286  79.6824763  55.2507852  -5.8371339
  79.6595451  55.3495540  -6.7889456  79.9925399  56.0973003  -5.5154173
  82.3412141  57.3084007  -1.7224724  83.2955394  57.2767950  -1.7894793
  82.1424664  56.8474631  -0.9074498  82.9311523  55.8785123   0.8446073
  83.7504412  56.3729202   0.8680911  83.2048331  54.9617092   0.8163641
  78.1846437  50.2123257   1.5438270  78.8305301  49.7022211   2.0325496
  77.9763588  50.9491939   2.1181696  90.7099829  57.2804105   7.0430411
  91.5790989  57.4544757   6.6817046  90.2306581  58.0998522   6.9206140
  84.8786010  64.4001206  -1.2780155  85.7813256  64.4324816  -0.9613660
  84.6523380  63.4701657  -1.2633820  82.5243928  47.3590874   5.6413285
  83.3875390  47.0027679   5.8516609  81.9509339  47.0204769   6.3288689
  95.0825429  60.7671591   6.6343256  94.6892374  60.2137790   7.3090900
  95.8991569  61.0782170   7.0249774  97.9993390  62.1829470   4.2263513
  98.7403103  62.7836623   4.1467975  98.2311313  61.4407108   3.6681555
  93.0273417  64.5573281   3.5747919  93.6545455  64.1750358   4.1885443
  92.1701335  64.3387482   3.9403612  96.2641474  63.8791186   5.2361839
  96.3129629  64.7553309   4.8539608  96.8063988  63.3368580   4.6633482
  97.3901288  65.3174252   7.4241780  97.2898015  66.2668609   7.3553871
  97.1722830  64.9892490   6.5517850  89.0240192  65.5415175   1.5438270
  89.6699055  65.0314129   2.0325496  88.8157343  66.2783857   2.1181696
  93.3637683  62.6882792   5.6413285  94.2269144  62.3319597   5.8516609
  92.7903093  62.3496687   6.3288689   4.8121909 100.4750450  73.9502339
   4.0585617  99.9057848  73.7946343   4.9469450 100.4413114  74.8972973
   1.6337657 100.4453200  71.8546006   2.0768803  99.6960525  71.4565129
   0.7564167 100.4363336  71.4719738   1.1770521 101.9158438  74.2468453
   2.0117413 102.3548242  74.4106014   1.3129650 101.4397091  73.4276699
   5.2228324 100.6326060  76.6822583   5.9531712 100.3711348  77.2430286
   4.6135269  99.8954782  76.7224651   3.3043621  98.7733922  77.2797034
   2.5776785  98.6389887  76.6713526   2.8890908  99.0810751  78.0853752
   0.9221416  94.9945774  74.6330466   1.5165907  94.7541510  73.9223774
   0.9948000  94.2752905  75.2604002   3.2292489  98.3011975  73.4073887
   2.6692047  98.3705165  74.1805449   2.6235992  98.1252960  72.6873383
   4.3906755 104.1986331  78.1555951   4.0471024 105.0887973  78.0795062
   4.7585718 104.0087989  77.2925536   6.1894421 103.4579891  73.2573689
   6.4953297 102.5977254  72.9699604   6.9147025 104.0497511  73.0572683
   6.4596039 105.8874126  75.7557610   5.5459118 106.1178353  75.9239817
   6.8889140 105.9712570  76.6071642   3.8948592 103.2578217  74.6802671
   4.1750346 102.5901406  75.3063098   4.6799199 103.4507312  74.1677335
   8.0550744 105.4354029  73.5470642   7.8575565 105.1269118  74.4313974
   8.6650450 106.1615668  73.6768572   3.8124391 105.3162936  71.2967173
   4.3655429 105.7358390  71.9557196   4.0494477 104.3898684  71.3390129
   3.8052124 102.3873755  71.2036260   3.0384519 101.8332241  71.3492943
   4.2162829 102.4595623  72.0650412   4.8121910  77.4812572  60.6747645
   4.0585618  76.9119970  60.5191650   4.9469451  77.4475237  61.6218280
   1.6337658  77.4515322  58.5791312   2.0768804  76.7022648  58.1810436
   0.7564168  77.4425459  58.1965044   1.1770523  78.9220561  60.9713760
   2.0117414  79.3610365  61.1351320   1.3129651  78.4459214  60.1522006
   5.2228325  77.6388182  63.4067890   5.9531714  77.3773470  63.9675593
   4.6135271  76.9016904  63.4469958   3.3043622  75.7796045  64.0042341
   2.5776786  75.6452010  63.3958832   2.8890909  76.0872873  64.8099059
   0.9221417  72.0007897  61.3575772   1.5165908  71.7603633  60.6469081
   0.9948001  71.2815028  61.9849309   3.2292490  75.3074098  60.1319194
   2.6692048  75.3767287  60.9050756   2.6235993  75.1315082  59.4118690
   4.8148508  91.9830612  62.8249149   5.4526918  91.8637359  62.1212489
   4.6969351  92.9311456  62.8837101   1.6238215  91.9358040  62.7610674
   1.2856726  91.8199105  61.8731209   2.4927983  91.5349205  62.7411680
   2.1057998  93.0892892  68.7196880   2.0946638  92.6945690  67.8477383
   2.2678637  92.3558964  69.3130651   3.0624589  97.4564484  54.0622030
   2.4112569  98.0418564  53.6756044   3.8568952  97.9870679  54.1217067
   4.3689777  89.7082066  59.9002357   5.1552866  89.2901489  59.5492774
   4.6328481  90.6128158  60.0684006   4.5399854  95.1454916  54.5991014
   3.9045687  95.2189542  55.3111919   4.2097261  95.7348515  53.9210093
   9.7698204  89.6457299  60.8035336  10.5023376  89.0756516  61.0373165
   9.0137560  89.2578899  61.2441841   1.3874324  92.0684540  57.9998678
   1.0232531  91.5415161  58.7111600   2.2441440  91.6783009  57.8265164
   7.2923624  83.3578873  65.2629944   6.9606949  84.2274284  65.0391159
   6.6969238  83.0415157  65.9423975   1.0279811  87.0974440  52.9960027
   1.1954213  87.9654676  53.3630498   0.8376980  87.2601722  52.0721316
   3.7855144  95.5591419  64.6625857   3.4855867  96.4616458  64.5541664
   3.4406203  95.2923602  65.5147010   7.1852288  88.0773959  62.3423295
   6.2769165  88.0089367  62.0482056   7.1339883  88.5545904  63.1705120
   1.2593153  89.4963605  70.2858192   0.4826488  90.0557525  70.2761056
   1.8983717  89.9820388  70.8073062   9.0513934  86.2790397  64.1201168
   8.4088314  86.5722931  63.4740963   8.5468863  86.1643318  64.9254365
   6.7054098  90.0253571  54.8087028   7.6171954  90.2580957  54.6334725
   6.1963745  90.6090615  54.2462106   4.9894865  94.4478198  68.4448320
   5.3978221  94.0060609  67.7002953   4.2672127  93.8730826  68.6982513
   1.3425935  89.3850805  65.8181877   2.1887131  89.8090219  65.9616526
   1.2824573  88.7284430  66.5120440   5.3123680  95.0079389  62.2000609
   4.6832542  95.1725103  61.4976677   4.9249342  95.4220999  62.9711573
   9.1912912  95.9433827  59.5544973   8.5063950  96.3232728  59.0042006
   9.2756761  96.5529154  60.2876921   4.4925381  87.0455174  67.4763051
   4.2486313  87.7997234  66.9397327   4.7685311  87.4240521  68.3110298
   6.4463844  93.5893786  66.1540316   6.6580739  94.2325546  65.4774698
   6.3993592  92.7556103  65.6862247   4.0490073  86.2011607  63.0576889
   3.1874552  86.4992860  63.3493626   4.0752507  86.4182006  62.1257921
   0.8651642  94.7453797  59.4650694   1.3289987  95.0241500  58.6755317
   0.6008440  93.8437242  59.2823785   7.5609671  96.4665741  64.3262674
   8.3827115  96.0645929  64.0445355   7.5572074  96.3633976  65.2778790
   1.3266275  96.0149785  66.4823384   1.3910707  96.4770192  67.3181556
   0.6177199  95.3847150  66.6105694  15.6515665  92.8104490  60.6747645
  14.8979373  92.2411888  60.5191650  15.7863206  92.7767154  61.6218280
   1.0414293  97.6817892  56.3502365   0.9059967  98.5269428  56.7787212
   1.5824105  97.8837170  55.5868298   2.6682769  98.3041459  70.4802707
   2.2246623  97.5177837  70.1623611   3.3299983  98.4920609  69.8146598
   4.7664007  98.5844259  68.5084108   4.7482482  99.4053140  68.0164377
   5.6883927  98.4598334  68.7334249   1.2237061  96.0988388  69.3507616
   1.7565398  95.3376676  69.1206924   0.6951142  95.8062040  70.0931771
   4.3906756  81.2048454  64.8801258   4.0471026  82.0950096  64.8040369
   4.7585719  81.0150112  64.0170843   4.3557039  91.1957065  53.3873693
   3.8403662  91.9661670  53.6262081   4.0834347  90.5222201  54.0106755
   1.9404150  86.0406766  58.4458932   1.0845746  85.6513616  58.2664570
   2.3531102  86.1198727  57.5858717   3.4703297  83.5753109  62.8450491
   2.9668092  83.5383244  62.0318297   3.7633903  84.4845852  62.9047148
   9.3291313  93.9489420  55.3226867   8.5520756  93.6100579  54.8782029
  10.0082794  93.9542043  54.6481832   4.1443342  89.0684157  55.2133474
   3.8393478  89.3830306  56.0643618   5.0973784  89.1465577  55.2560807
   2.5889774  95.2274381  56.8626428   2.0611135  94.4927140  56.5499666
   2.0877277  96.0049057  56.6166397   7.5682620  93.4223401  61.9793475
   6.9106294  94.1122662  62.0673603   8.3723019  93.8119833  62.3227461
   6.3788079  91.7767774  60.0297416   6.8919960  92.4097766  60.5319126
   7.0289303  91.1768969  59.6640776   3.6410453 101.7552098  52.7858088
   2.9672152 102.0583795  53.3943045   4.0276275 102.5581178  52.4363545
   2.8568910  89.2517229  62.2755757   1.9391471  89.4732176  62.1177445
   3.2729053  89.3263540  61.4167464   3.6403957  90.6508645  57.4058437
   4.3875776  91.1630042  57.0965559   3.9095547  90.3292698  58.2662831
   1.9130608  93.1467186  54.3885391   1.0041827  92.8626219  54.4857861
   1.9425691  93.5666264  53.5288698   7.1449875  96.7573775  58.1576559
   6.6912202  95.9164685  58.2141750   6.5143842  97.3935174  58.4951339
   6.0882795  87.6865761  59.3877227   5.3505551  87.1743147  59.7187469
   6.3409568  87.2466143  58.5760503   5.5882814  98.5950272  59.0926377
   5.8805789  99.1555329  58.3738743   6.0981435  98.8878833  59.8479536
   6.1894422  80.4642013  59.9818996   6.4953299  79.6039377  59.6944911
   6.9147027  81.0559633  59.7817990   1.6106695  94.6875929  51.7273470
   1.1726125  93.9711788  51.2679107   2.3517136  94.9152044  51.1658561
   0.5516439  99.3730623  60.1819830   0.5092618  99.5991469  59.2528362
   1.4679138  99.1393998  60.3305632   3.9982073  89.8414691  67.0800460
   4.3531461  90.0686164  67.9394925   4.6454204  90.1733067  66.4577715
   9.7279810  92.9633126  57.7849789   9.5897709  93.1534722  56.8570978
   9.3716029  93.7252509  58.2417840   9.7549190  95.0309653  62.7961060
  10.1885696  94.9384943  63.6444114  10.4680770  95.0067154  62.1581076
   3.4877085  98.6311748  64.3294161   3.5414107  99.2002684  65.0971877
   2.6191866  98.8013633  63.9648198  10.6164739  95.0733354  65.3293946
  10.8100629  95.9779165  65.5753220  10.5165357  94.6140773  66.1632531
   2.2701050  84.9591245  67.8284273   1.6228965  85.6581194  67.7348749
   3.0402065  85.3927389  68.1960521   5.6779848  95.2240097  70.9034826
   5.5265354  94.9950649  69.9864910   5.6684527  96.1810698  70.9166171
   2.4465184  92.7972010  65.8881093   3.3757244  92.9483169  65.7150060
   2.0256214  92.8856030  65.0329739   1.8401668 101.9231770  55.0005167
   2.0153424 101.4519814  55.8150789   1.1534456 102.5497537  55.2286427
   2.7958731  96.2004277  61.0468468   2.4608564  96.1605047  61.9426118
   2.2962677  95.5348993  60.5738878   5.7317923  93.5460311  51.3205528
   5.1147094  92.8207139  51.2238580   5.2634411  94.3069671  50.9772602
   7.3872055  98.2559219  68.9811308   7.3284601  97.5718440  68.3141891
   7.7891573  98.9978209  68.5291934   7.3889462  96.2198803  67.2125288
   6.5016241  95.8824725  67.3351687   7.9588013  95.4881835  67.4494053
   4.0177045  85.9266655  60.3323558   4.5145745  85.1736617  60.0124628
   3.2464027  85.9630972  59.7666767  11.8706802  91.6307021  61.9741849
  11.8596679  92.5131736  61.6035782  11.0024182  91.2778572  61.7796386
   3.3789299 100.7787090  66.3344690   4.0917271 101.4134555  66.2620591
   2.8879327 100.8750956  65.5184691   5.1006826  94.6838342  57.9061981
   4.1663104  94.8039805  57.7366686   5.2783494  93.7810809  57.6421991
   8.4879377  90.5255662  58.4412015   8.9539829  91.3583653  58.3672318
   8.9386878  90.0600643  59.1457274   6.5555608  96.8699483  55.4398167
   6.8315452  96.7556078  56.3492041   5.6860107  96.4716968  55.4010340
   6.4596040  82.8936249  62.4802917   5.5459120  83.1240475  62.6485124
   6.8889141  82.9774693  63.3316949   6.2302498  91.0826141  64.9802811
   5.5773949  91.3302048  64.3255263   6.6082878  90.2690279  64.6465288
   3.1909672 101.1185834  59.0830981   3.3732067 100.3007490  59.5458733
   4.0142658 101.3353526  58.6455871   3.5251838 100.0454019  56.3446030
   4.0539604  99.5346474  55.7316192   3.7880057  99.7296549  57.2091563
   2.2790071  91.8245952  71.4668848   1.6030708  91.7240081  72.1371223
   3.1017705  91.6685165  71.9304845   1.0212854 103.1312879  65.7026464
   1.5731162 103.2944501  66.4675549   1.3619048 103.7217317  65.0306489
   5.8723729  97.9574137  71.5575118   6.4163632  98.5704095  71.0630073
   5.2910573  98.5153715  72.0742131   4.1581241 101.0794855  62.6890146
   4.0332381 100.2784594  62.1801091   4.8160333 101.5741048  62.2004116
   6.2216150  98.8803875  64.3169696   5.2746485  98.7609226  64.2448023
   6.5698923  97.9926373  64.3995957   3.2262583  98.6756591  60.5174048
   3.0787546  97.7473298  60.6981618   4.0516077  98.6976682  60.0331124
   6.8296705  99.4985150  61.6038921   7.7543252  99.2928011  61.4663372
   6.6612008  99.2501551  62.5128263   3.2224097  86.5294429  55.5106166
   3.4387712  87.4119066  55.2094994   2.7418165  86.1380642  54.7811808
   1.6745832  86.9120030  64.1810927   1.4163610  87.8337101  64.1795258
   1.1430873  86.5150465  64.8711391   6.6192021 100.0170817  56.9601012
   6.7928899  99.4517240  56.2074865   7.1120912 100.8171712  56.7780502
   2.0947788  83.0451981  60.5412090   2.1169485  83.1091314  59.5864069
   2.5115847  82.2056489  60.7352596  12.4731412  92.7807240  58.5791312
  12.9162558  92.0314565  58.1810436  11.5957923  92.7717376  58.1965044
   7.6067194  99.3337582  54.0597911   8.3018098  99.9544274  54.2785225
   7.9490344  98.4832933  54.3350289   9.5058617  96.7837287  55.5885242
  10.0309941  97.1224560  54.8634562   9.4180969  95.8484302  55.4048376
   1.1678666 100.6971361  67.7175118   1.4765792 100.4520507  68.5897818
   1.9654148 100.9017999  67.2293988   1.1899278 102.8509270  59.9480495
   0.7504268 102.3585649  60.6413351   1.9407395 102.3082238  59.7072570
   9.1952523  97.4170191  70.8936440   8.4048067  97.3994330  70.3540939
   8.9585877  97.9558484  71.6485476   9.3150398  94.2662657  68.2069168
   9.3648403  94.1012665  69.1484691   9.2064321  93.3989916  67.8167049
   6.6054160  90.2493585  69.5228475   7.5064023  90.1100050  69.2312473
   6.6802135  90.4148040  70.4626652  10.8168595  96.6859599  68.4511190
  10.5253403  97.0489579  69.2874651  10.2040726  95.9726607  68.2724522
  12.0164277  94.2512478  60.9713760  12.8511168  94.6902282  61.1351320
  12.1523406  93.7751132  60.1522006   9.0655783  91.8092213  66.9191248
   9.5409905  92.0019860  66.1110099   8.1421348  91.8651399  66.6734631
   3.6435999  83.8440057  65.8847081   4.1617943  84.5801084  65.5593570
   3.2891132  84.1504050  66.7193841   3.8948594  80.2640339  61.4047978
   4.1750347  79.5963528  62.0308405   4.6799201  80.4569435  60.8922642
   1.6982062  99.4399333  52.9673004   1.1256029 100.0589520  52.5143476
   2.2714856  99.9898695  53.5012926   7.7657452  88.6857973  65.1519553
   8.7174875  88.7856071  65.1731777   7.5960902  87.8936242  65.6617638
   5.7871831  85.7713557  65.3378954   5.1921764  86.0518569  64.6425443
   5.5021528  86.2607457  66.1095695   4.9179322  99.7236483  54.0981587
   5.8509995  99.6582045  54.3014462   4.8302535 100.5592750  53.6396119
   7.5467339  99.0402354  51.0585534   7.4680970  98.7062217  51.9521292
   8.3677005  99.5324122  51.0577007  10.2445530  91.9064093  64.2661853
  10.2121850  90.9680094  64.4521537  10.8546153  91.9848130  63.5327678
   2.0828861  90.7760146  50.3089057   3.0287965  90.6466354  50.3777475
   1.7043106  90.0374808  50.7858485  10.3940018  88.6975136  64.3120136
   9.8779067  87.9133593  64.1250065  11.2779967  88.3693853  64.4766655
   8.0550745  82.4416152  60.2715949   7.8575566  82.1331240  61.1559281
   8.6650451  83.1677791  60.4013879  16.0622080  92.9680100  63.4067890
  16.7925468  92.7065388  63.9675593  15.4529025  92.2308822  63.4469958
  14.1437377  91.1087962  64.0042341  13.4170540  90.9743927  63.3958832
  13.7284664  91.4164791  64.8099059   1.9667553  94.8277892  71.7689714
   2.8870563  95.0056491  71.9629760   1.9317136  93.8833937  71.6169413
   1.8833844  83.2447012  56.3988183   1.0734572  82.8994097  56.7743429
   2.5718260  82.9354556  56.9875795   3.8124392  82.3225059  58.0212480
   4.3655430  82.7420512  58.6802503   4.0494478  81.3960807  58.0635436
   7.1903199  84.4325584  57.5291144   6.6101868  85.0910388  57.1469197
   6.9239132  83.6102929  57.1178562   5.6406765  83.8330642  59.7312465
   6.1406544  83.9447176  58.9226783   6.2842373  83.5291695  60.3713273
   5.9728077  86.5925674  56.5847493   5.0853932  86.8775325  56.3667687
   6.3882066  86.4319438  55.7374769   9.3242613  86.6172195  60.3001832
  10.1003003  87.1068648  60.5726449   8.5990747  87.0430250  60.7573701
  11.7615172  87.3299815  61.3575772  12.3559662  87.0895551  60.6469081
  11.8341755  86.6106945  61.9849309   5.1171290  96.3570349  50.6795513
   5.8207140  96.5620352  51.2953168   4.3933939  96.9247111  50.9444596
   5.9469101  92.1080210  56.7997783   5.8904302  92.5648762  55.9605415
   6.4997443  91.3470895  56.6220625   9.7573907  87.8969942  57.6247902
   9.5010841  87.4966578  58.4556110   9.1326775  88.6113736  57.4998041
  14.0686244  90.6366015  60.1319194  13.5085802  90.7059205  60.9050756
  13.4629748  90.4607000  59.4118690   7.0257988  96.7952878  52.7293973
   7.8603592  96.3634077  52.5471447   6.8642331  96.6234892  53.6570867
   6.6803880  93.2984992  54.0950312   6.6252684  93.1329263  53.1538756
   6.0549935  94.0061025  54.2512502   3.9949787  95.6033903  73.4203875
   4.8640947  95.7774556  73.0590510   3.5156539  96.4228320  73.2979604
   3.8052125  79.3935877  57.9281567   3.0384521  78.8394364  58.0738249
   4.2162830  79.4657746  58.7895719  15.6542263 107.3122529  62.8249149
  16.2920673 107.1929277  62.1212489  15.5363106 108.2603373  62.8837101
  12.4631969 107.2649958  62.7610674  12.1250481 107.1491022  61.8731209
  13.3321737 106.8641123  62.7411680  12.9451752 108.4184809  68.7196880
  12.9340393 108.0237608  67.8477383  13.1072392 107.6850882  69.3130651
  10.1640249 106.0338205  52.0927614  10.4165769 105.5119726  51.3311077
   9.2264808 105.8704350  52.1954298  15.2083531 105.0373983  59.9002357
  15.9946621 104.6193406  59.5492774  15.4722236 105.9420075  60.0684006
  20.6091958 104.9749216  60.8035336  21.3417130 104.4048433  61.0373165
  19.8531314 104.5870817  61.2441841  12.2268078 107.3976458  57.9998678
  11.8626285 106.8707079  58.7111600  13.0835194 107.0074927  57.8265164
  18.1317379  98.6870791  65.2629944  17.8000704  99.5566202  65.0391159
  17.5362992  98.3707075  65.9423975  11.8673565 102.4266358  52.9960027
  12.0347968 103.2946594  53.3630498  11.6770734 102.5893639  52.0721316
  18.0246042 103.4065877  62.3423295  17.1162919 103.3381285  62.0482056
  17.9733638 103.8837822  63.1705120  11.8462786 104.8824015  53.9806694
  11.7262411 105.3281066  54.8192174  11.1515374 105.2309333  53.4220232
  12.0986908 104.8255522  70.2858192  11.3220242 105.3849442  70.2761056
  12.7377471 105.3112305  70.8073062  19.8907689 101.6082315  64.1201168
  19.2482069 101.9014848  63.4740963  19.3862617 101.4935235  64.9254365
  17.5447852 105.3545488  54.8087028  18.4565708 105.5872875  54.6334725
  17.0357499 105.9382533  54.2462106  15.8288620 109.7770116  68.4448320
  16.2371976 109.3352527  67.7002953  15.1065881 109.2022744  68.6982513
  12.1819690 104.7142723  65.8181877  13.0280885 105.1382136  65.9616526
  12.1218328 104.0576347  66.5120440  15.3319135 102.3747091  67.4763051
  15.0880067 103.1289152  66.9397327  15.6079066 102.7532439  68.3110298
  17.2857598 108.9185704  66.1540316  17.4974493 109.5617464  65.4774698
  17.2387346 108.0848020  65.6862247  14.8883827 101.5303524  63.0576889
  14.0268306 101.8284778  63.3493626  14.9146262 101.7473923  62.1257921
  10.6414282 106.1968867  56.2740259  11.3438326 106.6489911  56.7414186
  10.3094911 105.5552686  56.9020153   9.0894644 104.7880624  70.6491469
   8.4593305 105.4696905  70.8826866   8.9830732 104.6763705  69.7044607
   4.3839616 104.4552420  61.5757393   3.5938670 104.7109948  61.0997504
   4.8750864 105.2700758  61.6809434   6.3354362 104.8196999  58.5340870
   5.5385525 104.9315693  59.0524365   6.1079954 105.1583651  57.6681760
  26.4909419 108.1396408  60.6747645  25.7373127 107.5703806  60.5191650
  26.6256960 108.1059072  61.6218280   8.3675387  99.0901390  73.0116720
   7.9742332  98.5367588  73.6864364   9.1841527  99.4011968  73.4023237
  11.2843348 100.5059269  70.6036976  12.0253061 101.1066422  70.5241439
  11.5161271  99.7636907  70.0455019   6.4284686 105.6915636  68.8815206
   6.3138201 104.7900893  69.1822305   5.5729203 105.9379333  68.5300023
  15.2300511  96.5340372  64.8801258  14.8864780  97.4242013  64.8040369
  15.5979473  96.3442029  64.0170843  15.1950793 106.5248983  53.3873693
  14.6797417 107.2953587  53.6262081  14.9228102 105.8514119  54.0106755
  12.7797904 101.3698684  58.4458932  11.9239501 100.9805534  58.2664570
  13.1924856 101.4490644  57.5858717  14.3097051  98.9045027  62.8450491
  13.8061847  98.8675162  62.0318297  14.6027658  99.8137770  62.9047148
  10.5539937  98.9883757  61.8516673  11.4192934  98.7926565  61.4922563
  10.6217446  98.7594108  62.7786030  20.1685068 109.2781338  55.3226867
  19.3914510 108.9392497  54.8782029  20.8476548 109.2833961  54.6481832
  14.9837097 104.3976075  55.2133474  14.6787232 104.7122224  56.0643618
  15.9367539 104.4757495  55.2560807  18.4076374 108.7515319  61.9793475
  17.7500049 109.4414580  62.0673603  19.2116774 109.1411751  62.3227461
   8.1602256 101.2185965  59.2233040   8.7346008 100.9961146  58.4906233
   8.7473238 101.2874659  59.9761641  17.2181833 107.1059691  60.0297416
  17.7313715 107.7389683  60.5319126  17.8683057 106.5060887  59.6640776
   8.4871843 103.2490426  53.2428925   7.6509155 103.5865112  53.5638200
   8.3476613 103.1139405  52.3056062  10.4624924  98.0927213  57.9508109
   9.8089336  97.7776231  57.3264724  10.4205398  97.4702954  58.6767932
  11.5736129 108.3746509  49.8661401  10.6663190 108.1435762  50.0652550
  12.0707161 107.5784128  50.0535383  13.6962664 104.5809147  62.2755757
  12.7785225 104.8024094  62.1177445  14.1122808 104.6555457  61.4167464
  14.4797712 105.9800563  57.4058437  15.2269531 106.4921960  57.0965559
  14.7489301 105.6584615  58.2662831  12.7524362 108.4759103  54.3885391
  11.8435581 108.1918136  54.4857861  12.7819446 108.8958182  53.5288698
  16.9276549 103.0157679  59.3877227  16.1899306 102.5035065  59.7187469
  17.1803323 102.5758061  58.5760503  17.0288176  95.7933931  59.9818996
  17.3347053  94.9331294  59.6944911  17.7540781  96.3851551  59.7817990
  11.3009256 106.0887724  60.4895187  11.3557866 105.1361560  60.4137663
  10.4900458 106.2447163  60.9736485   9.2401616 104.7064784  58.2485566
   8.4269482 105.0058954  58.6550758   9.7360610 104.3120473  58.9660048
  14.8375828 105.1706608  67.0800460  15.1925215 105.3978081  67.9394925
  15.4847959 105.5024985  66.4577715  20.5673565 108.2925044  57.7849789
  20.4291463 108.4826640  56.8570978  20.2109783 109.0544427  58.2417840
   8.7315691 102.2783139  63.8646801   9.3715070 102.1371898  63.1669764
   7.8993221 101.9917653  63.4885403  20.5942944 110.3601571  62.7961060
  21.0279451 110.2676860  63.6444114  21.3074525 110.3359072  62.1581076
   5.8158758 105.7228651  56.0541546   4.8856346 105.6613107  56.2711508
   5.9116230 105.2004604  55.2578187   5.7344307 102.2483464  58.6419787
   5.9951124 103.1628798  58.5328948   6.5561479 101.7807907  58.7916400
   7.2069232 103.6621221  65.8118612   7.8792286 103.4538584  65.1631261
   6.3799019 103.4643307  65.3723844  21.4558494 110.4025272  65.3293946
  21.6494384 111.3071082  65.5753220  21.3559112 109.9432691  66.1632531
  13.1094804 100.2883162  67.8284273  12.4622720 100.9873112  67.7348749
  13.8795820 100.7219306  68.1960521  13.2858939 108.1263927  65.8881093
  14.2150999 108.2775087  65.7150060  12.8649969 108.2147948  65.0329739
   7.6096730 106.9363824  66.5721049   7.4716528 106.2044063  67.1732588
   8.5201653 106.8472725  66.2905237  16.5711677 108.8752229  51.3205528
  15.9540848 108.1499057  51.2238580  16.1028166 109.6361589  50.9772602
  10.2379030 106.6483784  66.0604729  10.9478649 106.0076976  66.0191347
  10.1948339 106.8996679  66.9830910   8.9507964 103.6349002  67.8800368
   8.4145321 103.1839740  68.5321965   8.3624673 103.7694910  67.1370833
   8.3610223 103.0937653  50.4426832   7.4839690 102.9726454  50.0789079
   8.8367976 102.3023731  50.1905721   4.6847086 102.7705009  64.9653363
   4.6005274 102.1630679  64.2303773   3.8629792 103.2614028  64.9662859
  14.8570799 101.2558573  60.3323558  15.3539499 100.5028535  60.0124628
  14.0857781 101.2922889  59.7666767  22.7100557 106.9598938  61.9741849
  22.6990433 107.8423654  61.6035782  21.8417936 106.6070489  61.7796386
  11.4405768 103.3975956  60.0595242  11.0703556 102.8446996  60.7476148
  11.9364861 102.7934089  59.5070242  19.3273132 105.8547579  58.4412015
  19.7933584 106.6875571  58.3672318  19.7780632 105.3892561  59.1457274
  17.2989794  98.2228166  62.4802917  16.3852874  98.4532393  62.6485124
  17.7282896  98.3066610  63.3316949  17.0696253 106.4118058  64.9802811
  16.4167703 106.6593966  64.3255263  17.4476633 105.5982196  64.6465288
  13.1183826 107.1537869  71.4668848  12.4424463 107.0531999  72.1371223
  13.9411460 106.9977083  71.9304845   6.8371102 100.8079947  66.3048349
   6.9012428 101.6694778  65.8925746   6.7738222 100.1953948  65.5720707
   6.3123374 102.8803079  69.9521383   6.9395413 102.4980156  70.5658907
   5.4551293 102.6617281  70.3177075   3.0888917 104.6879508  55.8839738
   3.3842358 103.7790187  55.8306791   2.1876953 104.6667248  55.5620740
   6.6183164 102.7635505  61.8667286   5.8969750 103.3771473  61.7274760
   7.4076420 103.2993270  61.7883932   9.4209478 100.0989931  68.1407938
   9.9443880 100.3452228  68.9034247   9.2021811 100.9309966  67.7211075
   4.8176759 102.3693606  56.0079063   4.4889465 101.4890985  55.8254169
   5.1716129 102.3141275  56.8955452   7.9318582 102.6566576  56.3754540
   8.2714654 103.1852497  55.6533149   8.3790702 102.9946982  57.1513107
  10.6262023 101.0403626  65.8257608  10.2858843 100.2411440  66.2278288
   9.9201029 101.3405337  65.2534442  11.2778495  98.1252939  64.2784932
  12.1004564  97.6513417  64.1563822  11.5216558  98.9043423  64.7783618
   9.9186729 101.1541197  54.5747833  10.6395092 101.5322450  54.0711550
   9.2952033 101.8730074  54.6782811  14.0617852 101.8586346  55.5106166
  14.2781466 102.7410984  55.2094994  13.5811919 101.4672560  54.7811808
   8.8017073 104.8172060  62.0876910   8.6561654 105.1312363  62.9801192
   8.3242277 105.4356960  61.5347809  10.6613456 101.8074607  62.1357800
  10.6475025 100.9115701  61.7990098  11.3785884 101.8145271  62.7696086
  12.5139587 102.2411948  64.1810927  12.2557365 103.1629018  64.1795258
  11.9824627 101.8442382  64.8711391  10.0650352 100.6888988  57.4045370
  10.1866263  99.7605634  57.6036257   9.7752395 100.7027674  56.4923685
  12.9341543  98.3743898  60.5412090  12.9563239  98.4383231  59.5864069
  13.3509602  97.5348407  60.7352596  23.3125167 108.1099158  58.5791312
  23.7556313 107.3606483  58.1810436  22.4351677 108.1009294  58.1965044
   9.5491432 102.2020985  71.6135302   9.5979587 103.0783108  71.2313072
  10.0913946 101.6598378  71.0406946  20.1544152 109.5954575  68.2069168
  20.2042157 109.4304582  69.1484691  20.0458076 108.7281834  67.8167049
  17.4447915 105.5785503  69.5228475  18.3457778 105.4391968  69.2312473
  17.5195889 105.7439958  70.4626652  11.7790720 102.9552358  68.3681661
  10.9094030 103.2485924  68.0964250  12.0150200 103.5392803  69.0888925
  22.8558032 109.5804396  60.9713760  23.6904923 110.0194200  61.1351320
  22.9917160 109.1043049  60.1522006  19.9049537 107.1384131  66.9191248
  20.3803659 107.3311777  66.1110099  18.9815103 107.1943317  66.6734631
  14.4829754  99.1731974  65.8847081  15.0011698  99.9093001  65.5593570
  14.1284887  99.4795968  66.7193841   6.0628692 104.0336656  54.0008487
   5.3697937 104.1081011  53.3448523   5.8180444 103.2696999  54.5230004
  14.7342348  95.5932257  61.4047978  15.0144102  94.9255446  62.0308405
  15.5192955  95.7861353  60.8922642  18.6051206 104.0149891  65.1519553
  19.5568629 104.1147989  65.1731777  18.4354657 103.2228160  65.6617638
  16.6265586 101.1005474  65.3378954  16.0315518 101.3810487  64.6425443
  16.3415283 101.5899375  66.1095695  21.0839284 107.2356011  64.2661853
  21.0515604 106.2972011  64.4521537  21.6939908 107.3140047  63.5327678
  12.9222615 106.1052064  50.3089057  13.8681720 105.9758272  50.3777475
  12.5436860 105.3666726  50.7858485  21.2333773 104.0267054  64.3120136
  20.7172821 103.2425511  64.1250065  22.1173721 103.6985771  64.4766655
  18.8944500  97.7708070  60.2715949  18.6969321  97.4623158  61.1559281
  19.5044205  98.4969709  60.4013879  26.9015834 108.2972018  63.4067890
  27.6319223 108.0357306  63.9675593  26.2922780 107.5600739  63.4469958
  24.9831131 106.4379880  64.0042341  24.2564295 106.3035845  63.3958832
  24.5678418 106.7456709  64.8099059  11.1065532 104.0302040  50.2443942
  10.1996988 103.7335153  50.3206656  11.3841513 103.7331858  49.3778228
  12.7227598  98.5738930  56.3988183  11.9128326  98.2286015  56.7743429
  13.4112015  98.2646473  56.9875795  14.6518146  97.6516977  58.0212480
  15.2049185  98.0712430  58.6802503  14.8888233  96.7252725  58.0635436
  10.6751246 103.6404050  73.8015244  10.5747972 104.5898407  73.7327335
  10.4572788 103.3122289  72.9291314   9.8764317 100.8888975  50.3855921
  10.7383481 101.2143874  50.6451739  10.0614661 100.1020471  49.8728987
  18.0296953  99.7617502  57.5291144  17.4495622 100.4202306  57.1469197
  17.7632886  98.9394846  57.1178562  16.4800520  99.1622559  59.7312465
  16.9800298  99.2739094  58.9226783  17.1236128  98.8583612  60.3713273
  10.5382516 107.0701189  72.6180306  10.0549597 107.8701549  72.8244195
  10.6243455 107.0809134  71.6647750  16.8121831 101.9217592  56.5847493
  15.9247686 102.2067243  56.3667687  17.2275820 101.7611355  55.7374769
  20.1636368 101.9464113  60.3001832  20.9396758 102.4360566  60.5726449
  19.4384502 102.3722167  60.7573701  22.6008926 102.6591732  61.3575772
  23.1953417 102.4187468  60.6469081  22.6735510 101.9398863  61.9849309
  16.7862855 107.4372128  56.7997783  16.7298057 107.8940679  55.9605415
  17.3391198 106.6762813  56.6220625  20.5967661 103.2261860  57.6247902
  20.3404595 102.8258496  58.4556110  19.9720529 103.9405654  57.4998041
  24.9079999 105.9657933  60.1319194  24.3479557 106.0351122  60.9050756
  24.3023502 105.7898918  59.4118690  17.5197634 108.6276909  54.0950312
  17.4646438 108.4621181  53.1538756  16.8943690 109.3352942  54.2512502
   2.3090149 103.8644974  67.9211734   2.9549013 103.3543928  68.4098959
   2.1007301 104.6013655  68.4955159  10.8293760  98.1285018  53.6735630
  10.8172430  99.0726858  53.8303901  11.7217182  97.9455164  53.3795091
  14.6445879  94.7227795  57.9281567  13.8778275  94.1686282  58.0738249
  15.0556584  94.7949664  58.7895719   6.6487640 101.0112591  72.0186748
   7.5119102 100.6549396  72.2290073   6.0753051 100.6726486  72.7062153
  26.0694265 111.8632289  64.8801258  25.7258535 112.7533931  64.8040369
  26.4373228 111.6733947  64.0170843  27.8681931 111.1225849  59.9818996
  28.1740808 110.2623212  59.6944911  28.5934536 111.7143469  59.7817990
  28.1383549 113.5520084  62.4802917  27.2246629 113.7824311  62.6485124
  28.5676650 113.6358528  63.3316949  25.5736103 110.9224175  61.4047978
  25.8537856 110.2547364  62.0308405  26.3586710 111.1153270  60.8922642
  29.7338254 113.0999987  60.2715949  29.5363075 112.7915076  61.1559281
  30.3437960 113.8261626  60.4013879  25.4911901 112.9808894  58.0212480
  26.0442939 113.4004348  58.6802503  25.7281987 112.0544642  58.0635436
  25.4839634 110.0519713  57.9281567  24.7172030 109.4978199  58.0738249
  25.8950339 110.1241581  58.7895719   4.8121911  54.4874695  47.3992952
   4.0585620  53.9182093  47.2436956   4.9469453  54.4537359  48.3463587
   1.6337659  54.4577445  45.3036619   2.0768805  53.7084770  44.9055742
   0.7564169  54.4487581  44.9210351   1.1770524  55.9282683  47.6959066
   2.0117415  56.3672487  47.8596627   1.3129653  55.4521337  46.8767312
   5.2228326  54.6450305  50.1313196   5.9531715  54.3835593  50.6920900
   4.6135272  53.9079027  50.1715264   3.3043624  52.7858167  50.7287647
   2.5776787  52.6514132  50.1204139   2.8890910  53.0934996  51.5344365
   0.9221418  49.0070020  48.0821079   1.5165909  48.7665756  47.3714387
   0.9948002  48.2877150  48.7094615   3.2292491  52.3136220  46.8564500
   2.6692049  52.3829410  47.6296062   2.6235995  52.1377205  46.1363996
   4.8148510  68.9892734  49.5494456   5.4526920  68.8699482  48.8457796
   4.6969353  69.9373578  49.6082408   1.6238216  68.9420162  49.4855981
   1.2856727  68.8261227  48.5976516   2.4927984  68.5411328  49.4656987
   2.1057999  70.0955014  55.4442186   2.0946640  69.7007812  54.5722690
   2.2678638  69.3621087  56.0375958   3.0624590  74.4626607  40.7867337
   2.4112570  75.0480687  40.4001350   3.8568953  74.9932801  40.8462374
   4.3689778  66.7144188  46.6247664   5.1552867  66.2963611  46.2738081
   4.6328482  67.6190280  46.7929312   4.5399855  72.1517038  41.3236321
   3.9045688  72.2251665  42.0357225   4.2097262  72.7410637  40.6455400
   9.7698205  66.6519421  47.5280643  10.5023377  66.0818638  47.7618472
   9.0137561  66.2641022  47.9687148   1.3874325  69.0746663  44.7243985
   1.0232532  68.5477284  45.4356906   2.2441441  68.6845132  44.5510470
   7.2923626  60.3640995  51.9875251   6.9606950  61.2336406  51.7636466
   6.6969239  60.0477279  52.6669282   1.0279812  64.1036563  39.7205333
   1.1954214  64.9716799  40.0875805   0.8376981  64.2663844  38.7966623
   3.7855145  72.5653541  51.3871164   3.4855868  73.4678580  51.2786971
   3.4406205  72.2985725  52.2392317   7.1852289  65.0836082  49.0668601
   6.2769166  65.0151490  48.7727362   7.1339885  65.5608027  49.8950427
   1.2593155  66.5025727  57.0103498   0.4826489  67.0619647  57.0006363
   1.8983718  66.9882510  57.5318369   9.0513935  63.2852520  50.8446475
   8.4088316  63.5785053  50.1986270   8.5468864  63.1705440  51.6499672
   6.7054099  67.0315693  41.5332334   7.6171955  67.2643080  41.3580032
   6.1963746  67.6152737  40.9707413   4.9894867  71.4540321  55.1693627
   5.3978223  71.0122732  54.4248259   4.2672128  70.8792949  55.4227820
   1.3425937  66.3912928  52.5427184   2.1887132  66.8152341  52.6861833
   1.2824574  65.7346552  53.2365747   5.3123681  72.0141512  48.9245916
   4.6832544  72.1787226  48.2221984   4.9249343  72.4283121  49.6956880
   9.1912913  72.9495950  46.2790280   8.5063951  73.3294851  45.7287313
   9.2756763  73.5591276  47.0122227   4.4925382  64.0517296  54.2008358
   4.2486314  64.8059357  53.6642633   4.7685313  64.4302644  55.0355605
   6.4463845  70.5955909  52.8785623   6.6580740  71.2387668  52.2020004
   6.3993593  69.7618225  52.4107553   4.0490074  63.2073729  49.7822195
   3.1874553  63.5054983  50.0738933   4.0752508  63.4244128  48.8503228
   0.8651643  71.7515920  46.1896001   1.3289989  72.0303623  45.4000623
   0.6008441  70.8499364  46.0069092   7.5609673  73.4727864  51.0507980
   8.3827116  73.0708051  50.7690662   7.5572076  73.3696098  52.0024096
   1.3266276  73.0211907  53.2068691   1.3910709  73.4832315  54.0426863
   0.6177200  72.3909272  53.3351001  15.6515666  69.8166612  47.3992952
  14.8979374  69.2474011  47.2436956  15.7863207  69.7829277  48.3463587
   1.0414294  74.6880015  43.0747671   0.9059969  75.5331551  43.5032519
   1.5824106  74.8899292  42.3113605   2.6682770  75.3103581  57.2048013
   2.2246624  74.5239960  56.8868918   3.3299984  75.4982732  56.5391904
   4.7664008  75.5906381  55.2329415   4.7482484  76.4115262  54.7409684
   5.6883928  75.4660456  55.4579556   1.2237062  73.1050511  56.0752923
   1.7565399  72.3438799  55.8452231   0.6951144  72.8124163  56.8177077
   4.3906757  58.2110577  51.6046565   4.0471027  59.1012218  51.5285675
   4.7585720  58.0212234  50.7416150   4.3557040  68.2019188  40.1119000
   3.8403664  68.9723792  40.3507387   4.0834349  67.5284324  40.7352061
   1.9404151  63.0468889  45.1704238   1.0845748  62.6575739  44.9909877
   2.3531103  63.1260849  44.3104024   3.4703298  60.5815232  49.5695798
   2.9668093  60.5445367  48.7563603   3.7633905  61.4907975  49.6292455
   9.3291314  70.9551542  42.0472173   8.5520757  70.6162702  41.6027335
  10.0082795  70.9604166  41.3727138   4.1443343  66.0746280  41.9378781
   3.8393479  66.3892429  42.7888924   5.0973785  66.1527700  41.9806114
   2.5889775  72.2336503  43.5871735   2.0611137  71.4989263  43.2744972
   2.0877278  73.0111180  43.3411703   7.5682621  70.4285524  48.7038781
   6.9106296  71.1184785  48.7918910   8.3723020  70.8181956  49.0472768
   6.3788080  68.7829896  46.7542723   6.8919962  69.4159888  47.2564433
   7.0289304  68.1831092  46.3886083   3.6410454  78.7614221  39.5103394
   2.9672153  79.0645917  40.1188352   4.0276276  79.5643301  39.1608851
   2.8568911  66.2579352  49.0001064   1.9391472  66.4794299  48.8422752
   3.2729054  66.3325662  48.1412771   3.6403959  67.6570768  44.1303744
   4.3875778  68.1692165  43.8210866   3.9095548  67.3354820  44.9908137
   1.9130609  70.1529308  41.1130698   1.0041828  69.8688341  41.2103168
   1.9425693  70.5728387  40.2534005   7.1449876  73.7635898  44.8821866
   6.6912203  72.9226808  44.9387056   6.5143843  74.3997296  45.2196646
   6.0882796  64.6927884  46.1122533   5.3505553  64.1805270  46.4432776
   6.3409569  64.2528265  45.3005810   5.5882815  75.6012395  45.8171684
   5.8805790  76.1617452  45.0984049   6.0981436  75.8940956  46.5724843
   6.1894423  57.4704136  46.7064302   6.4953300  56.6101499  46.4190218
   6.9147028  58.0621756  46.5063296   1.6106697  71.6938052  38.4518777
   1.1726127  70.9773911  37.9924414   2.3517137  71.9214167  37.8903868
   0.5516441  76.3792746  46.9065137   0.5092619  76.6053592  45.9773669
   1.4679139  76.1456120  47.0550938   3.9982074  66.8476813  53.8045766
   4.3531462  67.0748286  54.6640232   4.6454206  67.1795190  53.1823022
   9.7279811  69.9695249  44.5095095   9.5897710  70.1596845  43.5816284
   9.3716030  70.7314632  44.9663146   9.7549191  72.0371776  49.5206367
  10.1885698  71.9447065  50.3689421  10.4680772  72.0129276  48.8826383
   3.4877086  75.6373870  51.0539467   3.5414108  76.2064806  51.8217183
   2.6191867  75.8075755  50.6893505  10.6164741  72.0795477  52.0539252
  10.8100631  72.9841287  52.2998527  10.5165359  71.6202896  52.8877837
   2.2701051  61.9653367  54.5529580   1.6228966  62.6643317  54.4594056
   3.0402067  62.3989511  54.9205828   5.6779849  72.2302219  57.6280133
   5.5265356  72.0012771  56.7110216   5.6684529  73.1872821  57.6411478
   2.4465186  69.8034132  52.6126399   3.3757246  69.9545292  52.4395367
   2.0256216  69.8918153  51.7575046   1.8401669  78.9293893  41.7250473
   2.0153425  78.4581936  42.5396096   1.1534457  79.5559659  41.9531734
   2.7958733  73.2066399  47.7713775   2.4608565  73.1667169  48.6671425
   2.2962678  72.5411115  47.2984185   5.7317924  70.5522434  38.0450834
   5.1147095  69.8269262  37.9483887   5.2634413  71.3131794  37.7017909
   7.3872056  75.2621342  55.7056615   7.3284602  74.5780562  55.0387198
   7.7891574  76.0040332  55.2537241   7.3889463  73.2260926  53.9370594
   6.5016242  72.8886848  54.0596993   7.9588014  72.4943957  54.1739360
   4.0177046  62.9328778  47.0568864   4.5145746  62.1798740  46.7369935
   3.2464028  62.9693094  46.4912074  11.8706804  68.6369143  48.6987156
  11.8596680  69.5193859  48.3281089  11.0024183  68.2840694  48.5041693
   3.3789300  77.7849212  53.0589996   4.0917272  78.4196677  52.9865898
   2.8879329  77.8813078  52.2429998   5.1006827  71.6900465  44.6307288
   4.1663106  71.8101927  44.4611992   5.2783495  70.7872932  44.3667298
   8.4879378  67.5317784  45.1657322   8.9539830  68.3645776  45.0917625
   8.9386879  67.0662766  45.8702581   6.5555609  73.8761606  42.1643474
   6.8315453  73.7618200  43.0737348   5.6860108  73.4779090  42.1255647
   6.4596041  59.8998371  49.2048223   5.5459121  60.1302598  49.3730430
   6.8889143  59.9836815  50.0562256   6.2302500  68.0888263  51.7048117
   5.5773950  68.3364171  51.0500570   6.6082879  67.2752401  51.3710595
   3.1909673  78.1247956  45.8076288   3.3732068  77.3069612  46.2704040
   4.0142659  78.3415649  45.3701178   3.5251839  77.0516142  43.0691336
   4.0539605  76.5408596  42.4561498   3.7880059  76.7358672  43.9336869
   2.2790073  68.8308074  58.1914154   1.6030710  68.7302204  58.8616530
   3.1017706  68.6747288  58.6550152   1.0212855  80.1375002  52.4271770
   1.5731163  80.3006623  53.1920856   1.3619049  80.7279440  51.7551795
   5.8723730  74.9636259  58.2820425   6.4163634  75.5766218  57.7875380
   5.2910575  75.5215838  58.7987438   4.1581243  78.0856977  49.4135453
   4.0332382  77.2846717  48.9046398   4.8160334  78.5803171  48.9249423
   6.2216151  75.8865997  51.0415003   5.2746487  75.7671349  50.9693329
   6.5698924  74.9988495  51.1241264   3.2262584  75.6818714  47.2419355
   3.0787547  74.7535421  47.4226925   4.0516078  75.7038804  46.7576430
   6.8296706  76.5047272  48.3284228   7.7543254  76.2990134  48.1908679
   6.6612010  76.2563673  49.2373569   3.2224099  63.5356551  42.2351472
   3.4387713  64.4181189  41.9340300   2.7418166  63.1442765  41.5057114
   1.6745834  63.9182153  50.9056234   1.4163612  64.8399223  50.9040564
   1.1430874  63.5212587  51.5956698   6.6192022  77.0232940  43.6846319
   6.7928900  76.4579362  42.9320172   7.1120914  77.8233835  43.5025809
   2.0947789  60.0514103  47.2657396   2.1169486  60.1153436  46.3109376
   2.5115848  59.2118612  47.4597902  12.4731414  69.7869363  45.3036619
  12.9162560  69.0376688  44.9055742  11.5957924  69.7779499  44.9210351
   7.6067195  76.3399704  40.7843217   8.3018100  76.9606397  41.0030532
   7.9490345  75.4895055  41.0595595   9.5058618  73.7899410  42.3130548
  10.0309942  74.1286682  41.5879868   9.4180971  72.8546425  42.1293683
   1.1678667  77.7033483  54.4420425   1.4765793  77.4582630  55.3143124
   1.9654149  77.9080122  53.9539295   1.1899279  79.8571393  46.6725801
   0.7504269  79.3647772  47.3658658   1.9407396  79.3144361  46.4317877
   9.1952524  74.4232313  57.6181746   8.4048068  74.4056452  57.0786246
   8.9585879  74.9620607  58.3730783   9.3150399  71.2724780  54.9314475
   9.3648404  71.1074787  55.8729997   9.2064323  70.4052039  54.5412355
   6.6054162  67.2555708  56.2473781   7.5064024  67.1162173  55.9557779
   6.6802136  67.4210163  57.1871959  10.8168596  73.6921721  55.1756496
  10.5253404  74.0551702  56.0119957  10.2040727  72.9788729  54.9969828
  12.0164278  71.2574601  47.6959066  12.8511170  71.6964405  47.8596627
  12.1523407  70.7813254  46.8767312   9.0655784  68.8154336  53.6436554
   9.5409906  69.0081982  52.8355406   8.1421350  68.8713522  53.3979938
   3.6436001  60.8502179  52.6092388   4.1617945  61.5863206  52.2838877
   3.2891134  61.1566173  53.4439147   3.8948595  57.2702462  48.1293285
   4.1750349  56.6025651  48.7553711   4.6799202  57.4631558  47.6167949
   1.6982063  76.4461456  39.6918311   1.1256030  77.0651643  39.2388783
   2.2714857  76.9960818  40.2258233   7.7657453  65.6920096  51.8764860
   8.7174876  65.7918194  51.8977084   7.5960904  64.8998364  52.3862944
   5.7871833  62.7775679  52.0624261   5.1921765  63.0580692  51.3670749
   5.5021529  63.2669580  52.8341002   4.9179323  76.7298606  40.8226893
   5.8509996  76.6644168  41.0259769   4.8302536  77.5654873  40.3641426
   7.5467340  76.0464476  37.7830841   7.4680971  75.7124340  38.6766599
   8.3677007  76.5386244  37.7822313  10.2445531  68.9126216  50.9907159
  10.2121851  67.9742216  51.1766843  10.8546155  68.9910252  50.2572984
   2.0828862  67.7822269  37.0334363   3.0287967  67.6528477  37.1022782
   1.7043107  67.0436930  37.5103792  10.3940020  65.7037259  51.0365443
   9.8779068  64.9195716  50.8495371  11.2779968  65.3755976  51.2011962
   8.0550746  59.4478275  46.9961255   7.8575568  59.1393363  47.8804587
   8.6650452  60.1739914  47.1259185  16.0622081  69.9742222  50.1313196
  16.7925469  69.7127511  50.6920900  15.4529026  69.2370944  50.1715264
  14.1437378  68.1150085  50.7287647  13.4170542  67.9806050  50.1204139
  13.7284665  68.4226914  51.5344365   1.9667554  71.8340015  58.4935020
   2.8870564  72.0118614  58.6875067   1.9317137  70.8896060  58.3414720
   1.8833845  60.2509135  43.1233490   1.0734573  59.9056220  43.4988736
   2.5718262  59.9416678  43.7121102   3.8124393  59.3287181  44.7457787
   4.3655432  59.7482635  45.4047810   4.0494479  58.4022930  44.7880743
   7.1903200  61.4387707  44.2536451   6.6101869  62.0972511  43.8714503
   6.9239133  60.6165051  43.8423868   5.6406767  60.8392764  46.4557771
   6.1406545  60.9509299  45.6472090   6.2842374  60.5353817  47.0958580
   5.9728078  63.5987797  43.3092799   5.0853933  63.8837448  43.0912994
   6.3882067  63.4381560  42.4620076   9.3242614  63.6234318  47.0247138
  10.1003004  64.1130770  47.2971755   8.5990748  64.0492372  47.4819008
  11.7615173  64.3361937  48.0821079  12.3559664  64.0957673  47.3714387
  11.8341757  63.6169068  48.7094615   5.1171292  73.3632472  37.4040819
   5.8207142  73.5682474  38.0198475   4.3933940  73.9309234  37.6689903
   5.9469102  69.1142333  43.5243089   5.8904303  69.5710884  42.6850722
   6.4997444  68.3533018  43.3465932   9.7573908  64.9032065  44.3493209
   9.5010842  64.5028700  45.1801417   9.1326776  65.6175859  44.2243348
  14.0686246  67.6428138  46.8564500  13.5085804  67.7121327  47.6296062
  13.4629749  67.4669123  46.1363996   7.0257989  73.8015001  39.4539279
   7.8603593  73.3696199  39.2716754   6.8642332  73.6297015  40.3816174
   6.6803881  70.3047114  40.8195619   6.6252685  70.1391386  39.8784063
   6.0549936  71.0123147  40.9757808   3.9949788  72.6096026  60.1449181
   4.8640948  72.7836678  59.7835816   3.5156540  73.4290443  60.0224911
   3.8052126  56.3998000  44.6526874   3.0384522  55.8456487  44.7983556
   4.2162831  56.4719869  45.5141025  15.6542264  84.3184652  49.5494456
  16.2920674  84.1991399  48.8457796  15.5363107  85.2665496  49.6082408
  12.4631970  84.2712080  49.4855981  12.1250482  84.1553145  48.5976516
  13.3321739  83.8703245  49.4656987   8.3218786  86.1247557  45.4752872
   7.7583651  86.0337493  44.7069159   8.2071181  85.3047461  45.9555364
  12.9451753  85.4246932  55.4442186  12.9340394  85.0299730  54.5722690
  13.1072393  84.6913004  56.0375958   5.8683218  87.6198748  48.3137092
   6.6604510  87.2789573  47.8983391   6.1079868  87.7293723  49.2339245
  13.9018345  89.7918524  40.7867337  13.2506325  90.3772605  40.4001350
  14.6962708  90.3224719  40.8462374   7.8273972  86.8807661  41.1854471
   8.6004848  86.3336648  41.0467347   8.1799371  87.7451911  41.3968932
   9.6659015  88.2084044  54.3921370   9.3748881  89.1129674  54.2768036
  10.3015999  88.2500571  55.1065440  10.5915221  85.5860892  50.9822730
  11.1878794  85.3616915  50.2679693  10.6490193  84.8445638  51.5848178
  10.1640250  83.0400327  38.8172921  10.4165770  82.5181849  38.0556384
   9.2264809  82.8766473  38.9199604  15.2083533  82.0436106  46.6247664
  15.9946622  81.6255529  46.2738081  15.4722237  82.9482198  46.7929312
  15.3793610  87.4808956  41.3236321  14.7439443  87.5543583  42.0357225
  15.0491016  88.0702555  40.6455400  20.6091960  81.9811339  47.5280643
  21.3417132  81.4110556  47.7618472  19.8531315  81.5932940  47.9687148
   9.8836539  84.9428433  41.0197296   9.7672797  84.2673337  41.6878380
   9.9938798  84.4560807  40.2029449  12.2268079  84.4038581  44.7243985
  11.8626287  83.8769202  45.4356906  13.0835195  84.0137050  44.5510470
  18.1317380  75.6932913  51.9875251  17.8000705  76.5628324  51.7636466
  17.5362993  75.3769197  52.6669282  11.8673566  79.4328480  39.7205333
  12.0347969  80.3008717  40.0875805  11.6770736  79.5955762  38.7966623
  14.6248900  87.8945459  51.3871164  14.3249623  88.7970498  51.2786971
  14.2799959  87.6277642  52.2392317   8.0761381  84.3459256  47.4207868
   7.1511878  84.2135470  47.6285560   8.3245794  85.1253475  47.9177811
  18.0246043  80.4127999  49.0668601  17.1162921  80.3443408  48.7727362
  17.9733639  80.8899944  49.8950427  11.8462787  81.8886138  40.7052000
  11.7262413  82.3343189  41.5437481  11.1515376  82.2371455  40.1465538
   5.4370192  83.9892530  48.2551657   5.5662573  84.2427008  49.1691069
   4.7567643  84.5820238  47.9356312   9.6069679  94.6589780  44.3542132
   9.5293709  95.6097605  44.4330612   9.0031323  94.3135652  45.0117058
  12.0986909  81.8317645  57.0103498  11.3220243  82.3911565  57.0006363
  12.7377472  82.3174428  57.5318369  19.8907690  78.6144438  50.8446475
  19.2482070  78.9076971  50.1986270  19.3862618  78.4997358  51.6499672
  17.5447853  82.3607611  41.5332334  18.4565710  82.5934998  41.3580032
  17.0357501  82.9444655  40.9707413  10.3533282  84.6403098  56.5721465
  11.0947966  85.1788142  56.2956289   9.6470267  85.2669387  56.7293017
  15.8288621  86.7832239  55.1693627  16.2371977  86.3414649  54.4248259
  15.1065883  86.2084866  55.4227820  12.1819691  81.7204846  52.5427184
  13.0280886  82.1444259  52.6861833  12.1218329  81.0638470  53.2365747
  16.1517436  87.3433429  48.9245916  15.5226298  87.5079144  48.2221984
  15.7643098  87.7575039  49.6956880  20.0306668  88.2787867  46.2790280
  19.3457706  88.6586769  45.7287313  20.1150517  88.8883194  47.0122227
  15.3319137  79.3809214  54.2008358  15.0880068  80.1351274  53.6642633
  15.6079067  79.7594561  55.0355605  17.2857599  85.9247826  52.8785623
  17.4974495  86.5679586  52.2020004  17.2387348  85.0910143  52.4107553
  14.8883828  78.5365647  49.7822195  14.0268307  78.8346900  50.0738933
  14.9146263  78.7536046  48.8503228  11.7045398  87.0807837  46.1896001
  12.1683743  87.3595540  45.4000623  11.4402196  86.1791282  46.0069092
   8.5969479  86.6279319  49.1275764   9.1670836  87.0566587  48.4893249
   9.1877591  86.3461904  49.8259950  10.6414284  83.2030990  42.9985566
  11.3438327  83.6552034  43.4659492  10.3094912  82.5614809  43.6265459
   9.0894645  81.7942746  57.3736775   8.4593306  82.4759027  57.6072172
   8.9830733  81.6825828  56.4289914   4.3839618  81.4614542  48.3002700
   3.5938672  81.7172071  47.8242810   4.8750865  82.2762880  48.4054740
  18.4003427  88.8019782  51.0507980  19.2220871  88.3999969  50.7690662
  18.3965830  88.6988016  52.0024096   6.3354363  81.8259122  45.2586176
   5.5385526  81.9377816  45.7769672   6.1079955  82.1645774  44.3927067
  12.1660031  88.3503825  53.2068691  12.2304463  88.8124232  54.0426863
  11.4570955  87.7201190  53.3351001   2.6677321  81.7145033  50.7317690
   2.9185359  82.5992043  50.9975266   3.2036869  81.5349634  49.9592782
  26.4909420  85.1458530  47.3992952  25.7373129  84.5765928  47.2436956
  26.6256962  85.1121195  48.3463587  11.8808048  90.0171932  43.0747671
  11.7453723  90.8623468  43.5032519  12.4217861  90.2191210  42.3113605
   8.3675388  76.0963512  59.7362026   7.9742334  75.5429711  60.4109671
   9.1841528  76.4074091  60.1268544   5.3337446  87.5347370  43.6475596
   5.8461966  88.3290621  43.7981161   5.9860159  86.8373661  43.5809198
   7.1432330  90.6513127  45.7298350   7.3198959  91.5731091  45.5419333
   7.9389164  90.3371546  46.1592729  11.2843349  77.5121391  57.3282283
  12.0253062  78.1128545  57.2486746  11.5161272  76.7699029  56.7700326
   6.4284687  82.6977759  55.6060513   6.3138202  81.7963016  55.9067612
   5.5729205  82.9441455  55.2545329  13.5076525  90.6395499  57.2048013
  13.0640379  89.8531878  56.8868918  14.1693738  90.8274649  56.5391904
   8.2663646  92.1691301  51.7308692   8.8171071  92.0408364  50.9585686
   7.4275122  92.4686190  51.3803585  15.6057763  90.9198299  55.2329415
  15.5876238  91.7407180  54.7409684  16.5277683  90.7952374  55.4579556
  12.0630817  88.4342428  56.0752923  12.5959154  87.6730717  55.8452231
  11.5344898  88.1416080  56.8177077  15.2300512  73.5402494  51.6046565
  14.8864781  74.4304136  51.5285675  15.5979475  73.3504152  50.7416150
   3.2986363  85.8636025  44.4235167   4.1361585  86.2733033  44.2068875
   3.4764630  84.9235467  44.3935361  15.1950795  83.5311105  40.1119000
  14.6797418  84.3015710  40.3507387  14.9228103  82.8576242  40.7352061
  12.7797906  78.3760806  45.1704238  11.9239502  77.9867657  44.9909877
  13.1924857  78.4552767  44.3104024  14.3097052  75.9107149  49.5695798
  13.8061848  75.8737285  48.7563603  14.6027659  76.8199892  49.6292455
  10.5539938  75.9945879  48.5761980  11.4192935  75.7988688  48.2167869
  10.6217447  75.7656231  49.5031336  20.1685069  86.2843460  42.0472173
  19.3914512  85.9454620  41.6027335  20.8476550  86.2896083  41.3727138
  14.9837098  81.4038198  41.9378781  14.6787233  81.7184347  42.7888924
  15.9367540  81.4819617  41.9806114  13.4283530  87.5628421  43.5871735
  12.9004891  86.8281180  43.2744972  12.9271032  88.3403097  43.3411703
  18.4076376  85.7577441  48.7038781  17.7500050  86.4476703  48.7918910
  19.2116775  86.1473873  49.0472768   8.1602257  78.2248087  45.9478347
   8.7346009  78.0023269  45.2151539   8.7473240  78.2936782  46.7006948
  17.2181834  84.1121814  46.7542723  17.7313716  84.7451806  47.2564433
  17.8683058  83.5123010  46.3886083   8.4871844  80.2552548  39.9674232
   7.6509157  80.5927235  40.2883507   8.3476614  80.1201528  39.0301369
  10.4624925  75.0989336  44.6753416   9.8089337  74.7838353  44.0510031
  10.4205399  74.4765077  45.4013239  11.5736130  85.3808631  36.5906708
  10.6663192  85.1497885  36.7897857  12.0707162  84.5846250  36.7780690
  14.4804209  94.0906138  39.5103394  13.8065907  94.3937835  40.1188352
  14.8670031  94.8935219  39.1608851  13.6962665  81.5871270  49.0001064
  12.7785227  81.8086217  48.8422752  14.1122809  81.6617580  48.1412771
  14.4797713  82.9862685  44.1303744  15.2269532  83.4984082  43.8210866
  14.7489303  82.6646738  44.9908137  12.7524363  85.4821226  41.1130698
  11.8435583  85.1980259  41.2103168  12.7819447  85.9020305  40.2534005
  17.9843631  89.0927815  44.8821866  17.5305958  88.2518725  44.9387056
  17.3537597  89.7289214  45.2196646  16.9276550  80.0219802  46.1122533
  16.1899307  79.5097188  46.4432776  17.1803324  79.5820183  45.3005810
  16.4276570  90.9304312  45.8171684  16.7199544  91.4909369  45.0984049
  16.9375190  91.2232873  46.5724843  17.0288178  72.7996054  46.7064302
  17.3347054  71.9393417  46.4190218  17.7540782  73.3913674  46.5063296
   3.3212534  83.2026740  45.0945900   3.1236933  82.6096101  44.3696967
   2.7659198  82.8978950  45.8121839  11.3009257  83.0949847  47.2140493
  11.3557867  82.1423683  47.1382970  10.4900459  83.2509286  47.6981792
  12.4500451  87.0229970  38.4518777  12.0119881  86.3065829  37.9924414
  13.1910892  87.2506084  37.8903868   9.2401617  81.7126906  44.9730872
   8.4269483  82.0121077  45.3796064   9.7360611  81.3182595  45.6905355
  11.3910195  91.7084663  46.9065137  11.3486374  91.9345510  45.9773669
  12.3072894  91.4748038  47.0550938  14.8375829  82.1768731  53.8045766
  15.1925217  82.4040204  54.6640232  15.4847960  82.5087108  53.1823022
  20.5673566  85.2987167  44.5095095  20.4291464  85.4888763  43.5816284
  20.2109785  86.0606550  44.9663146   8.7315692  79.2845262  50.5892107
   9.3715071  79.1434021  49.8915071   7.8993223  78.9979775  50.2130709
  20.5942945  87.3663694  49.5206367  21.0279452  87.2738983  50.3689421
  21.3074526  87.3421194  48.8826383   9.5075996  88.5847692  46.7027100
  10.3016594  88.0898012  46.5009675   8.7967688  88.0565555  46.3394805
  14.3270840  90.9665788  51.0539467  14.3807863  91.5356724  51.8217183
  13.4585622  91.1367673  50.6893505   5.8158759  82.7290774  42.7786852
   4.8856347  82.6675230  42.9956815   5.9116231  82.2066727  41.9823494
   5.7344308  79.2545587  45.3665094   5.9951126  80.1690920  45.2574255
   6.5561481  78.7870029  45.5161707   7.2069234  80.6683344  52.5363919
   7.8792287  80.4600706  51.8876568   6.3799020  80.4705430  52.0969151
  21.4558495  87.4087394  52.0539252  21.6494385  88.3133205  52.2998527
  21.3559113  86.9494813  52.8877837  13.1094806  77.2945285  54.5529580
  12.4622721  77.9935235  54.4594056  13.8795821  77.7281429  54.9205828
  16.5173604  87.5594137  57.6280133  16.3659110  87.3304689  56.7110216
  16.5078283  88.5164739  57.6411478  13.2858940  85.1326050  52.6126399
  14.2151000  85.2837209  52.4395367  12.8649970  85.2210071  51.7575046
  12.0847272  89.1576714  50.3824937  11.9458358  88.7895499  51.2550875
  11.2961868  89.6724354  50.2108895  12.6795424  94.2585811  41.7250473
  12.8547180  93.7873854  42.5396096  11.9928212  94.8851577  41.9531734
  13.6352487  88.5358317  47.7713775  13.3002320  88.4959087  48.6671425
  13.1356433  87.8703033  47.2984185   7.6096731  83.9425947  53.2966356
   7.4716529  83.2106186  53.8977895   8.5201654  83.8534847  53.0150544
  16.5711679  85.8814351  38.0450834  15.9540849  85.1561179  37.9483887
  16.1028167  86.6423712  37.7017909  10.2379032  83.6545906  52.7850035
  10.9478650  83.0139099  52.7436654  10.1948340  83.9058801  53.7076216
  18.2265810  90.5913260  55.7056615  18.1678357  89.9072480  55.0387198
  18.6285329  91.3332250  55.2537241   8.9507966  80.6411124  54.6045675
   8.4145323  80.1901863  55.2567271   8.3624674  80.7757033  53.8616139
   7.2456509  97.4075174  48.4990334   7.4853107  98.0393698  49.1769352
   6.4025706  97.0563214  48.7855693   8.3610225  80.0999776  37.1672139
   7.4839691  79.9788576  36.8034385   8.8367978  79.3085854  36.9151027
  18.2283218  88.5552844  53.9370594  17.3409996  88.2178765  54.0596993
  18.7981769  87.8235875  54.1739360   4.6847087  79.7767132  51.6898669
   4.6005276  79.1692801  50.9549079   3.8629793  80.2676150  51.6908166
  11.7584371  93.2154296  50.9031838  11.6854542  94.0209267  51.4151142
  11.3161764  93.4146262  50.0779859  11.5474151  92.4526066  44.4134659
  10.7641673  92.9947746  44.5072884  12.2466896  92.9700046  44.8128900
  14.8570801  78.2620695  47.0568864  15.3539500  77.5090658  46.7369935
  14.0857782  78.2985012  46.4912074  22.7100558  83.9661061  48.6987156
  22.6990434  84.8485776  48.3281089  21.8417938  83.6132612  48.5041693
  14.2183055  93.1141130  53.0589996  14.9311027  93.7488595  52.9865898
  13.7273083  93.2104996  52.2429998  15.9400581  87.0192383  44.6307288
  15.0056860  87.1393845  44.4611992  16.1177250  86.1164849  44.3667298
  11.4405769  80.4038078  46.7840549  11.0703557  79.8509119  47.4721455
  11.9364862  79.7996212  46.2315549  19.3273133  82.8609702  45.1657322
  19.7933585  83.6937694  45.0917625  19.7780633  82.3954684  45.8702581
   9.2694968  90.8635573  53.8795567   9.9704428  91.4972056  54.0324961
   8.7990083  91.2050305  53.1191206  17.3949364  89.2053523  42.1643474
  17.6709208  89.0910118  43.0737348  16.5253863  88.8071008  42.1255647
  17.2989796  75.2290289  49.2048223  16.3852875  75.4594516  49.3730430
  17.7282897  75.3128733  50.0562256  17.0696254  83.4180181  51.7048117
  16.4167704  83.6656088  51.0500570  17.4476634  82.6044319  51.3710595
  14.0303428  93.4539874  45.8076288  14.2125822  92.6361530  46.2704040
  14.8536414  93.6707566  45.3701178  14.3645593  92.3808059  43.0691336
  14.8933360  91.8700514  42.4561498  14.6273813  92.0650589  43.9336869
  13.1183827  84.1599992  58.1914154  12.4424464  84.0594121  58.8616530
  13.9411461  84.0039206  58.6550152   4.8662686  90.3971928  50.8126670
   5.4516123  89.6515616  50.9454574   4.6687525  90.7075885  51.6963334
   7.7201341  93.4323176  45.8289112   7.0511717  93.9169304  45.3453152
   7.5814211  93.6792396  46.7432491  11.8606610  95.4666919  52.4271770
  12.4124918  95.6298541  53.1920856  12.2012803  96.0571357  51.7551795
   6.8371103  77.8142069  53.0293655   6.9012430  78.6756900  52.6171053
   6.7738223  77.2016071  52.2966014   6.3123376  79.8865202  56.6766689
   6.9395414  79.5042279  57.2904214   5.4551295  79.6679404  57.0422382
  16.7117484  90.2928177  58.2820425  17.2557388  90.9058135  57.7875380
  16.1304329  90.8507755  58.7987438   3.0888918  81.6941631  42.6085044
   3.3842360  80.7852309  42.5552098   2.1876954  81.6729370  42.2866047
  14.9974997  93.4148895  49.4135453  14.8726137  92.6138635  48.9046398
  15.6554088  93.9095088  48.9249423   6.6183165  79.7697627  48.5912593
   5.8969751  80.3833595  48.4520066   7.4076421  80.3055392  48.5129239
  17.0609906  91.2157915  51.0415003  16.1140241  91.0963266  50.9693329
  17.4092679  90.3280413  51.1241264   9.4209479  77.1052054  54.8653245
   9.9443881  77.3514350  55.6279554   9.2021812  77.9372089  54.4456382
   4.8176760  79.3755729  42.7324369   4.4889466  78.4953107  42.5499475
   5.1716131  79.3203397  43.6200759  14.0656339  91.0110631  47.2419355
  13.9181301  90.0827339  47.4226925  14.8909832  91.0330722  46.7576430
   7.9318583  79.6628698  43.0999847   8.2714656  80.1914620  42.3778455
   8.3790704  80.0009104  43.8758414  17.6690461  91.8339190  48.3284228
  18.5937008  91.6282051  48.1908679  17.5005764  91.5855591  49.2373569
  10.6262024  78.0465749  52.5502915  10.2858844  77.2473562  52.9523595
   9.9201030  78.3467460  51.9779748  11.2778496  75.1315061  51.0030238
  12.1004565  74.6575540  50.8809128  11.5216559  75.9105545  51.5028924
   9.9186730  78.1603320  41.2993140  10.6395093  78.5384573  40.7956857
   9.2952034  78.8792197  41.4028118  14.0617853  78.8648469  42.2351472
  14.2781468  79.7473107  41.9340300  13.5811920  78.4734682  41.5057114
   8.8017075  81.8234182  48.8122217   8.6561655  82.1374485  49.7046498
   8.3242278  82.4419082  48.2593115  10.6613457  78.8136730  48.8603106
  10.6475026  77.9177823  48.5235404  11.3785886  78.8207394  49.4941392
  12.5139588  79.2474070  50.9056234  12.2557366  80.1691141  50.9040564
  11.9824629  78.8504505  51.5956698  17.4585777  92.3524857  43.6846319
  17.6322654  91.7871280  42.9320172  17.9514668  93.1525752  43.5025809
   3.2762737  84.3639526  51.7509878   2.7316205  85.1399334  51.8830152
   4.1542087  84.7110331  51.5928999  10.0650353  77.6951110  44.1290676
  10.1866265  76.7667757  44.3281564   9.7752396  77.7089796  43.2168992
  12.9341544  75.3806021  47.2657396  12.9563241  75.4445354  46.3109376
  13.3509603  74.5410529  47.4597902  23.3125168  85.1161280  45.3036619
  23.7556314  84.3668606  44.9055742  22.4351678  85.1071417  44.9210351
  18.4460949  91.6691622  40.7843217  19.1411854  92.2898314  41.0030532
  18.7884100  90.8186973  41.0595595   4.0628759  83.4909423  54.6440035
   3.3210495  83.6392058  55.2304665   3.7421503  83.7517688  53.7806784
  20.3452373  89.1191327  42.3130548  20.8703697  89.4578600  41.5879868
  20.2574725  88.1838343  42.1293683  12.0072421  93.0325401  54.4420425
  12.3159548  92.7874548  55.3143124  12.8047903  93.2372039  53.9539295
  12.0293033  95.1863311  46.6725801  11.5898024  94.6939689  47.3658658
  12.7801150  94.6436278  46.4317877   4.5085372  91.3774851  46.6750429
   5.3343392  91.0778623  46.2949073   4.1579424  90.6082474  47.1240218
   9.4766905  90.7301320  48.7448103   8.8546915  90.0672025  48.4450331
  10.1471772  90.7562452  48.0621751   2.7093977  89.2961178  47.6339363
   1.8725886  88.8683352  47.4523364   2.6817623  89.4893621  48.5710154
   9.5491433  79.2083108  58.3380609   9.5979588  80.0845231  57.9558379
  10.0913947  78.6660501  57.7652252  20.0346279  89.7524231  57.6181746
  19.2441822  89.7348370  57.0786246  19.7979633  90.2912525  58.3730783
  20.1544154  86.6016697  54.9314475  20.2042159  86.4366705  55.8729997
  20.0458077  85.7343956  54.5412355   9.0380412  89.2805243  42.2206564
   9.1868533  89.9640707  41.5673236   9.8446856  89.2610333  42.7356019
  17.4447916  82.5847625  56.2473781  18.3457779  82.4454090  55.9557779
  17.5195891  82.7502080  57.1871959  11.7790721  79.9614480  55.0926968
  10.9094031  80.2548046  54.8209556  12.0150202  80.5454925  55.8134231
  21.6562350  89.0213639  55.1756496  21.3647159  89.3843619  56.0119957
  21.0434482  88.3080647  54.9969828  22.8558033  86.5866519  47.6959066
  23.6904924  87.0256323  47.8596627  22.9917162  86.1105172  46.8767312
  19.9049539  84.1446253  53.6436554  20.3803660  84.3373900  52.8355406
  18.9815104  84.2005439  53.3979938   6.7933045  85.3070421  43.2267632
   6.5479087  84.4032751  43.4247843   6.9628960  85.3087571  42.2847110
  14.4829755  76.1794097  52.6092388  15.0011699  76.9155124  52.2838877
  14.1284888  76.4858090  53.4439147   6.0628693  81.0398778  40.7253794
   5.3697938  81.1143133  40.0693830   5.8180445  80.2759122  41.2475311
  14.7342349  72.5994380  48.1293285  15.0144103  71.9317569  48.7553711
  15.5192956  72.7923475  47.6167949  12.5375818  91.7753373  39.6918311
  11.9649785  92.3943561  39.2388783  13.1108612  92.3252735  40.2258233
  18.6051208  81.0212014  51.8764860  19.5568631  81.1210111  51.8977084
  18.4354658  80.2290282  52.3862944  16.6265587  78.1067597  52.0624261
  16.0315519  78.3872610  51.3670749  16.3415284  78.5961498  52.8341002
  15.7573078  92.0590524  40.8226893  16.6903751  91.9936085  41.0259769
  15.6696290  92.8946790  40.3641426  18.3861094  91.3756394  37.7830841
  18.3074726  91.0416258  38.6766599  19.2070761  91.8678162  37.7822313
  21.0839286  84.2418133  50.9907159  21.0515606  83.3034134  51.1766843
  21.6939909  84.3202170  50.2572984  12.9222616  83.1114186  37.0334363
  13.8681721  82.9820394  37.1022782  12.5436861  82.3728848  37.5103792
  21.2333774  81.0329177  51.0365443  20.7172823  80.2487633  50.8495371
  22.1173723  80.7047893  51.2011962  18.8944501  74.7770192  46.9961255
  18.6969322  74.4685280  47.8804587  19.5044207  75.5031831  47.1259185
  26.9015835  85.3034140  50.1313196  27.6319224  85.0419428  50.6920900
  26.2922781  84.5662862  50.1715264  24.9831132  83.4442003  50.7287647
  24.2564296  83.3097968  50.1204139  24.5678419  83.7518831  51.5344365
  12.8061309  87.1631932  58.4935020  13.7264318  87.3410531  58.6875067
  12.7710892  86.2187978  58.3414720  11.1065534  81.0364163  36.9689249
  10.1996989  80.7397275  37.0451962  11.3841515  80.7393981  36.1023535
   2.0243474  82.3570526  47.4188295   1.7046258  81.5035834  47.1262669
   1.4776902  82.5719104  48.1746262   5.8023381  85.0732967  51.1357802
   6.0209391  86.0050075  51.1545835   6.2149155  84.7140941  51.9212605
  12.7227599  75.5801052  43.1233490  11.9128328  75.2348137  43.4988736
  13.4112016  75.2708596  43.7121102  14.6518148  74.6579099  44.7457787
  15.2049186  75.0774553  45.4047810  14.8888234  73.7314847  44.7880743
  10.6751247  80.6466173  60.5260551  10.5747974  81.5960530  60.4572642
  10.4572789  80.3184412  59.6536621   9.8764318  77.8951098  37.1101228
  10.7383482  78.2205996  37.3697045  10.0614662  77.1082594  36.5974294
   1.8931734  85.9773438  49.3881417   1.1995205  85.5627390  48.8751371
   2.6404725  86.0193974  48.7914836  18.0296955  76.7679624  44.2536451
  17.4495624  77.4264428  43.8714503  17.7632887  75.9456969  43.8423868
  16.4800521  76.1684682  46.4557771  16.9800299  76.2801217  45.6472090
  17.1236129  75.8645735  47.0958580  10.5382517  84.0763312  59.3425612
  10.0549599  84.8763672  59.5489501  10.6243456  84.0871257  58.3893056
   3.8068476  85.9091691  47.2647432   3.7839165  86.0079379  46.3129315
   4.1169113  86.7556842  47.5864598   6.4655854  87.9667846  51.3794046
   7.4199108  87.9351789  51.3123978   6.2668378  87.5058470  52.1944272
   7.0555236  86.5368962  53.9464844   7.8748125  87.0313041  53.9699681
   7.3292044  85.6200931  53.9182411  16.8121833  78.9279715  43.3092799
  15.9247688  79.2129365  43.0912994  17.2275822  78.7673478  42.4620076
  20.1636369  78.9526236  47.0247138  20.9396759  79.4422688  47.2971755
  19.4384503  79.3784290  47.4819008  22.6008927  79.6653855  48.0821079
  23.1953418  79.4249591  47.3714387  22.6735511  78.9460985  48.7094615
   4.8206083  93.5087466  48.3964244   4.6860551  92.7487867  47.8302242
   4.4038145  94.2328366  47.9293033  15.9565046  88.6924389  37.4040819
  16.6600896  88.8974392  38.0198475  15.2327695  89.2601151  37.6689903
  16.7862856  84.4434251  43.5243089  16.7298058  84.9002802  42.6850722
  17.3391199  83.6824935  43.3465932  20.5967662  80.2323982  44.3493209
  20.3404597  79.8320618  45.1801417  19.9720530  80.9467776  44.2243348
  24.9080000  82.9720056  46.8564500  24.3479558  83.0413245  47.6296062
  24.3023504  82.7961040  46.1363996   7.9775209  94.4056783  48.6082687
   7.8607593  95.3502215  48.5061377   7.1567655  94.1030344  48.9968486
  17.8651744  89.1306919  39.4539279  18.6997347  88.6988117  39.2716754
  17.7036086  88.9588932  40.3816174  17.5197636  85.6339032  40.8195619
  17.4646440  85.4683303  39.8784063  16.8943691  86.3415065  40.9757808
   2.3090151  80.8707096  54.6457041   2.9549014  80.3606050  55.1344266
   2.1007302  81.6075778  55.2200466  14.8343543  87.9387944  60.1449181
  15.7034703  88.1128596  59.7835816  14.3550294  88.7582361  60.0224911
  10.8293761  75.1347141  40.3980937  10.8172431  76.0788981  40.5549208
  11.7217183  74.9517286  40.1040398   9.0029723  95.0585045  51.8238615
   9.9056970  95.0908655  52.1405110   8.7767093  94.1285496  51.8384951
  10.7583325  93.8116031  48.4848694   9.8078956  93.8117893  48.3713066
  11.0615811  93.0648766  47.9684728  14.6445881  71.7289918  44.6526874
  13.8778276  71.1748404  44.7983556  15.0556586  71.8011786  45.5141025
   6.6487642  78.0174713  58.7432055   7.5119103  77.6611518  58.9535380
   6.0753052  77.6788608  59.4307459  26.4936019  99.6476570  49.5494456
  27.1314429  99.5283317  48.8457796  26.3756862 100.5957414  49.6082408
  23.3025725  99.6003998  49.4855981  22.9644236  99.4845062  48.5976516
  24.1715493  99.1995163  49.4656987  19.1612541 101.4539474  45.4752872
  18.5977406 101.3629411  44.7069159  19.0464936 100.6339379  45.9555364
  23.7845508 100.7538850  55.4442186  23.7734149 100.3591648  54.5722690
  23.9466147 100.0204922  56.0375958  16.7076973 102.9490666  48.3137092
  17.4998264 102.6081490  47.8983391  16.9473623 103.0585641  49.2339245
  24.7412099 105.1210442  40.7867337  24.0900079 105.7064522  40.4001350
  25.5356462 105.6516637  40.8462374  18.6667726 102.2099579  41.1854471
  19.4398602 101.6628566  41.0467347  19.0193125 103.0743828  41.3968932
  20.5052769 103.5375961  54.3921370  20.2142635 104.4421592  54.2768036
  21.1409753 103.5792489  55.1065440  21.4308976 100.9152810  50.9822730
  22.0272548 100.6908832  50.2679693  21.4883947 100.1737555  51.5848178
  21.0034004  98.3692245  38.8172921  21.2559525  97.8473766  38.0556384
  20.0658563  98.2058391  38.9199604  26.0477287  97.3728024  46.6247664
  26.8340376  96.9547447  46.2738081  26.3115991  98.2774116  46.7929312
  26.2187364 102.8100874  41.3236321  25.5833197 102.8835500  42.0357225
  25.8884771 103.3994473  40.6455400  31.4485714  97.3103257  47.5280643
  32.1810886  96.7402474  47.7618472  30.6925070  96.9224857  47.9687148
  20.7230293 100.2720351  41.0197296  20.6066551  99.5965255  41.6878380
  20.8332553  99.7852725  40.2029449  23.0661834  99.7330498  44.7243985
  22.7020041  99.2061119  45.4356906  23.9228950  99.3428967  44.5510470
  28.9711135  91.0224831  51.9875251  28.6394459  91.8920242  51.7636466
  28.3756748  90.7061115  52.6669282  22.7067321  94.7620398  39.7205333
  22.8741723  95.6300634  40.0875805  22.5164490  94.9247680  38.7966623
  25.4642654 103.2237377  51.3871164  25.1643377 104.1262416  51.2786971
  25.1193714 102.9569560  52.2392317  18.9155136  99.6751174  47.4207868
  17.9905632  99.5427388  47.6285560  19.1639549 100.4545393  47.9177811
  28.8639798  95.7419917  49.0668601  27.9556675  95.6735325  48.7727362
  28.8127394  96.2191862  49.8950427  22.6856542  97.2178055  40.7052000
  22.5656167  97.6635106  41.5437481  21.9909130  97.5663373  40.1465538
  16.2763947  99.3184447  48.2551657  16.4056328  99.5718926  49.1691069
  15.5961398  99.9112155  47.9356312  20.4463434 109.9881697  44.3542132
  20.3687464 110.9389522  44.4330612  19.8425078 109.6427570  45.0117058
  22.9380664  97.1609563  57.0103498  22.1613998  97.7203483  57.0006363
  23.5771227  97.6466346  57.5318369  30.7301444  93.9436355  50.8446475
  30.0875825  94.2368889  50.1986270  30.2256373  93.8289276  51.6499672
  28.3841608  97.6899529  41.5332334  29.2959464  97.9226915  41.3580032
  27.8751255  98.2736573  40.9707413  21.1927036  99.9695016  56.5721465
  21.9341720 100.5080060  56.2956289  20.4864021 100.5961305  56.7293017
  26.6682376 102.1124156  55.1693627  27.0765732 101.6706567  54.4248259
  25.9459637 101.5376784  55.4227820  23.0213446  97.0496763  52.5427184
  23.8674641  97.4736177  52.6861833  22.9612083  96.3930388  53.2365747
  26.9911190 102.6725347  48.9245916  26.3620053 102.8371061  48.2221984
  26.6036852 103.0866957  49.6956880  30.8700422 103.6079785  46.2790280
  30.1851460 103.9878686  45.7287313  30.9544271 104.2175112  47.0122227
  26.1712891  94.7101132  54.2008358  25.9273823  95.4643192  53.6642633
  26.4472822  95.0886479  55.0355605  28.1251354 101.2539744  52.8785623
  28.3368249 101.8971504  52.2020004  28.0781102 100.4202060  52.4107553
  25.7277583  93.8657565  49.7822195  24.8662062  94.1638818  50.0738933
  25.7540017  94.0827963  48.8503228  22.5439152 102.4099755  46.1896001
  23.0077498 102.6887458  45.4000623  22.2795950 101.5083200  46.0069092
  19.4363233 101.9571237  49.1275764  20.0064590 102.3858505  48.4893249
  20.0271345 101.6753821  49.8259950  21.4808038  98.5322908  42.9985566
  22.1832082  98.9843951  43.4659492  21.1488667  97.8906726  43.6265459
  19.9288400  97.1234664  57.3736775  19.2987060  97.8050945  57.6072172
  19.8224488  97.0117746  56.4289914  15.2233372  96.7906460  48.3002700
  14.4332426  97.0463989  47.8242810  15.7144620  97.6054798  48.4054740
  29.2397182 104.1311699  51.0507980  30.0614625 103.7291887  50.7690662
  29.2359585 104.0279934  52.0024096  17.1748118  97.1551039  45.2586176
  16.3779281  97.2669734  45.7769672  16.9473710  97.4937692  44.3927067
  23.0053785 103.6795743  53.2068691  23.0698218 104.1416150  54.0426863
  22.2964709 103.0493108  53.3351001  13.5071075  97.0436951  50.7317690
  13.7579114  97.9283961  50.9975266  14.0430624  96.8641552  49.9592782
  37.3303175 100.4750448  47.3992952  36.5766883  99.9057846  47.2436956
  37.4650716 100.4413112  48.3463587  22.7201803 105.3463850  43.0747671
  22.5847478 106.1915386  43.5032519  23.2611615 105.5483128  42.3113605
  19.2069142  91.4255430  59.7362026  18.8136088  90.8721629  60.4109671
  20.0235283  91.7366008  60.1268544  16.1731200 102.8639288  43.6475596
  16.6855721 103.6582538  43.7981161  16.8253913 102.1665579  43.5809198
  17.9826085 105.9805044  45.7298350  18.1592713 106.9023009  45.5419333
  18.7782918 105.6663464  46.1592729  22.1237103  92.8413309  57.3282283
  22.8646817  93.4420462  57.2486746  22.3555026  92.0990947  56.7700326
  17.2678441  98.0269676  55.6060513  17.1531957  97.1254934  55.9067612
  16.4122959  98.2733373  55.2545329  24.3470279 105.9687417  57.2048013
  23.9034133 105.1823795  56.8868918  25.0087493 106.1566567  56.5391904
  19.1057400 107.4983218  51.7308692  19.6564826 107.3700282  50.9585686
  18.2668876 107.7978107  51.3803585  26.4451517 106.2490217  55.2329415
  26.4269993 107.0699098  54.7409684  27.3671437 106.1244292  55.4579556
  22.9024571 103.7634346  56.0752923  23.4352908 103.0022634  55.8452231
  22.3738653 103.4707998  56.8177077  26.0694266  88.8694412  51.6046565
  25.7258536  89.7596054  51.5285675  26.4373229  88.6796070  50.7416150
  14.1380117 101.1927942  44.4235167  14.9755339 101.6024951  44.2068875
  14.3158385 100.2527385  44.3935361  26.0344549  98.8603023  40.1119000
  25.5191173  99.6307628  40.3507387  25.7621858  98.1868159  40.7352061
  23.6191660  93.7052724  45.1704238  22.7633256  93.3159574  44.9909877
  24.0318612  93.7844685  44.3104024  25.1490807  91.2399067  49.5695798
  24.6455602  91.2029202  48.7563603  25.4421414  92.1491810  49.6292455
  21.3933693  91.3237797  48.5761980  22.2586689  91.1280606  48.2167869
  21.4611202  91.0948149  49.5031336  31.0078823 101.6135378  42.0472173
  30.2308266 101.2746537  41.6027335  31.6870304 101.6188001  41.3727138
  25.8230852  96.7330115  41.9378781  25.5180988  97.0476264  42.7888924
  26.7761294  96.8111535  41.9806114  24.2677284 102.8920339  43.5871735
  23.7398646 102.1573098  43.2744972  23.7664787 103.6695015  43.3411703
  29.2470130 101.0869359  48.7038781  28.5893805 101.7768620  48.7918910
  30.0510529 101.4765791  49.0472768  18.9996012  93.5540005  45.9478347
  19.5739764  93.3315186  45.2151539  19.5866994  93.6228699  46.7006948
  28.0575589  99.4413732  46.7542723  28.5707471 100.0743724  47.2564433
  28.7076813  98.8414927  46.3886083  19.3265599  95.5844466  39.9674232
  18.4902911  95.9219152  40.2883507  19.1870369  95.4493446  39.0301369
  21.3018679  90.4281254  44.6753416  20.6483092  90.1130271  44.0510031
  21.2599154  89.8056994  45.4013239  22.4129884 100.7100549  36.5906708
  21.5056946 100.4789802  36.7897857  22.9100916  99.9138168  36.7780690
  25.3197963 109.4198056  39.5103394  24.6459662 109.7229753  40.1188352
  25.7063785 110.2227136  39.1608851  24.5356420  96.9163187  49.0001064
  23.6178981  97.1378134  48.8422752  24.9516563  96.9909498  48.1412771
  25.3191468  98.3154603  44.1303744  26.0663287  98.8276000  43.8210866
  25.5883057  97.9938656  44.9908137  23.5918118 100.8113144  41.1130698
  22.6829337 100.5272176  41.2103168  23.6213202 101.2312222  40.2534005
  28.8237385 104.4219733  44.8821866  28.3699712 103.5810643  44.9387056
  28.1931352 105.0581132  45.2196646  27.7670305  95.3511719  46.1122533
  27.0293062  94.8389105  46.4432776  28.0197078  94.9112101  45.3005810
  27.2670324 106.2596230  45.8171684  27.5593299 106.8201287  45.0984049
  27.7768945 106.5524791  46.5724843  27.8681932  88.1287971  46.7064302
  28.1740809  87.2685335  46.4190218  28.5934537  88.7205591  46.5063296
  14.1606288  98.5318658  45.0945900  13.9630688  97.9388018  44.3696967
  13.6052952  98.2270868  45.8121839  22.1403012  98.4241764  47.2140493
  22.1951622  97.4715601  47.1382970  21.3294214  98.5801203  47.6981792
  23.2894206 102.3521887  38.4518777  22.8513635 101.6357746  37.9924414
  24.0304646 102.5798002  37.8903868  20.0795372  97.0418824  44.9730872
  19.2663237  97.3412995  45.3796064  20.5754366  96.6474513  45.6905355
  22.2303950 107.0376581  46.9065137  22.1880128 107.2637427  45.9773669
  23.1466648 106.8039956  47.0550938  25.6769583  97.5060648  53.8045766
  26.0318971  97.7332122  54.6640232  26.3241715  97.8379025  53.1823022
  31.4067320 100.6279084  44.5095095  31.2685219 100.8180680  43.5816284
  31.0503539 101.3898467  44.9663146  19.5709446  94.6137180  50.5892107
  20.2108826  94.4725939  49.8915071  18.7386977  94.3271693  50.2130709
  31.4336700 102.6955611  49.5206367  31.8673207 102.6030900  50.3689421
  32.1468281 102.6713112  48.8826383  20.3469750 103.9139610  46.7027100
  21.1410349 103.4189930  46.5009675  19.6361443 103.3857473  46.3394805
  25.1664595 106.2957705  51.0539467  25.2201617 106.8648642  51.8217183
  24.2979376 106.4659591  50.6893505  16.6552514  98.0582692  42.7786852
  15.7250102  97.9967147  42.9956815  16.7509986  97.5358644  41.9823494
  16.5738063  94.5837505  45.3665094  16.8344880  95.4982838  45.2574255
  17.3955235  94.1161947  45.5161707  18.0462988  95.9975262  52.5363919
  18.7186042  95.7892624  51.8876568  17.2192775  95.7997348  52.0969151
  32.2952250 102.7379312  52.0539252  32.4888140 103.6425123  52.2998527
  32.1952868 102.2786731  52.8877837  23.9488560  92.6237203  54.5529580
  23.3016475  93.3227152  54.4594056  24.7189576  93.0573347  54.9205828
  27.3567358 102.8886055  57.6280133  27.2052865 102.6596606  56.7110216
  27.3472038 103.8456656  57.6411478  24.1252695 100.4617968  52.6126399
  25.0544755 100.6129127  52.4395367  23.7043725 100.5501988  51.7575046
  22.9241026 104.4868632  50.3824937  22.7852112 104.1187416  51.2550875
  22.1355623 105.0016271  50.2108895  23.5189178 109.5877728  41.7250473
  23.6940934 109.1165772  42.5396096  22.8321966 110.2143495  41.9531734
  24.4746242 103.8650235  47.7713775  24.1396074 103.8251005  48.6671425
  23.9750187 103.1994951  47.2984185  18.4490485  99.2717865  53.2966356
  18.3110283  98.5398104  53.8977895  19.3595409  99.1826765  53.0150544
  27.4105433 101.2106269  38.0450834  26.7934604 100.4853097  37.9483887
  26.9421922 101.9715629  37.7017909  21.0772786  98.9837824  52.7850035
  21.7872405  98.3431016  52.7436654  21.0342094  99.2350719  53.7076216
  29.0659565 105.9205177  55.7056615  29.0072111 105.2364397  55.0387198
  29.4679083 106.6624167  55.2537241  19.7901720  95.9703042  54.6045675
  19.2539077  95.5193780  55.2567271  19.2018429  96.1048951  53.8616139
  19.2003979  95.4291693  37.1672139  18.3233445  95.3080494  36.8034385
  19.6761732  94.6377772  36.9151027  29.0676972 103.8844761  53.9370594
  28.1803751 103.5470683  54.0596993  29.6375523 103.1527793  54.1739360
  10.7206119 100.2168853  47.2613646  11.4077159  99.9030583  46.6734661
  10.5654248 101.1210218  46.9880897  15.5240841  95.1059050  51.6898669
  15.4399030  94.4984719  50.9549079  14.7023548  95.5968068  51.6908166
  22.5978126 108.5446214  50.9031838  22.5248297 109.3501185  51.4151142
  22.1555519 108.7438179  50.0779859  22.3867905 107.7817984  44.4134659
  21.6035427 108.3239664  44.5072884  23.0860650 108.2991963  44.8128900
  25.6964555  93.5912613  47.0568864  26.1933255  92.8382575  46.7369935
  24.9251537  93.6276930  46.4912074  33.5494313  99.2952979  48.6987156
  33.5384189 100.1777694  48.3281089  32.6811692  98.9424529  48.5041693
  25.0576809 108.4433048  53.0589996  25.7704781 109.0780512  52.9865898
  24.5666838 108.5396914  52.2429998  26.7794336 102.3484300  44.6307288
  25.8450615 102.4685763  44.4611992  26.9571004 101.4456767  44.3667298
  22.2799524  95.7329996  46.7840549  21.9097312  95.1801036  47.4721455
  22.7758616  95.1288130  46.2315549  30.1666887  98.1901620  45.1657322
  30.6327339  99.0229611  45.0917625  30.6174388  97.7246601  45.8702581
  20.1088723 106.1927491  53.8795567  20.8098182 106.8263974  54.0324961
  19.6383838 106.5342223  53.1191206  28.2343118 104.5345441  42.1643474
  28.5102962 104.4202035  43.0737348  27.3647617 104.1362926  42.1255647
  28.1383550  90.5582207  49.2048223  27.2246630  90.7886433  49.3730430
  28.5676651  90.6420651  50.0562256  27.9090009  98.7472099  51.7048117
  27.2561459  98.9948006  51.0500570  28.2870388  97.9336237  51.3710595
  24.8697182 108.7831792  45.8076288  25.0519577 107.9653448  46.2704040
  25.6930168 108.9999484  45.3701178  25.2039348 107.7099977  43.0691336
  25.7327114 107.1992431  42.4561498  25.4667567 107.3942507  43.9336869
  23.9577582  99.4891910  58.1914154  23.2818219  99.3886039  58.8616530
  24.7805215  99.3331123  58.6550152  15.7056441 105.7263846  50.8126670
  16.2909877 104.9807534  50.9454574  15.5081279 106.0367803  51.6963334
  18.5595096 108.7615094  45.8289112  17.8905471 109.2461221  45.3453152
  18.4207966 109.0084314  46.7432491  10.2974095  98.2969446  49.5331113
  10.3358195  97.7633037  50.3268231   9.7914388  97.7704652  48.9142090
  22.7000364 110.7958837  52.4271770  23.2518672 110.9590459  53.1920856
  23.0406558 111.3863275  51.7551795  17.6764858  93.1433987  53.0293655
  17.7406184  94.0048818  52.6171053  17.6131978  92.5307989  52.2966014
  17.1517130  95.2157119  56.6766689  17.7789169  94.8334197  57.2904214
  16.2945049  94.9971321  57.0422382  27.5511239 105.6220095  58.2820425
  28.0951143 106.2350053  57.7875380  26.9698084 106.1799673  58.7987438
  13.9282673  97.0233549  42.6085044  14.2236114  96.1144227  42.5552098
  13.0270709  97.0021288  42.2866047  25.8368752 108.7440813  49.4135453
  25.7119891 107.9430552  48.9046398  26.4947843 109.2387006  48.9249423
  17.4576920  95.0989545  48.5912593  16.7363506  95.7125513  48.4520066
  18.2470176  95.6347310  48.5129239  27.9003660 106.5449833  51.0415003
  26.9533996 106.4255184  50.9693329  28.2486433 105.6572331  51.1241264
  20.2603233  92.4343972  54.8653245  20.7837635  92.6806268  55.6279554
  20.0415567  93.2664006  54.4456382  15.6570515  94.7047646  42.7324369
  15.3283221  93.8245025  42.5499475  16.0109885  94.6495315  43.6200759
  24.9050093 106.3402549  47.2419355  24.7575056 105.4119256  47.4226925
  25.7303587 106.3622640  46.7576430  18.7712338  94.9920616  43.0999847
  19.1108410  95.5206537  42.3778455  19.2184458  95.3301022  43.8758414
  28.5084215 107.1631108  48.3284228  29.4330763 106.9573969  48.1908679
  28.3399519 106.9147509  49.2373569  21.4655779  93.3757667  52.5502915
  21.1252599  92.5765480  52.9523595  20.7594785  93.6759378  51.9779748
  22.1172250  90.4606979  51.0030238  22.9398320  89.9867457  50.8809128
  22.3610314  91.2397463  51.5028924  20.7580485  93.4895238  41.2993140
  21.4788847  93.8676490  40.7956857  20.1345789  94.2084114  41.4028118
  24.9011608  94.1940387  42.2351472  25.1175222  95.0765024  41.9340300
  24.4205675  93.8026600  41.5057114  19.6410829  97.1526100  48.8122217
  19.4955410  97.4666403  49.7046498  19.1636033  97.7711000  48.2593115
  21.5007212  94.1428648  48.8603106  21.4868781  93.2469741  48.5235404
  22.2179640  94.1499312  49.4941392  23.3533343  94.5765988  50.9056234
  23.0951121  95.4983059  50.9040564  22.8218383  94.1796423  51.5956698
  28.2979531 107.6816775  43.6846319  28.4716409 107.1163198  42.9320172
  28.7908423 108.4817670  43.5025809  14.1156491  99.6931444  51.7509878
  13.5709959 100.4691252  51.8830152  14.9935841 100.0402249  51.5928999
  20.9044108  93.0243028  44.1290676  21.0260019  92.0959674  44.3281564
  20.6146150  93.0381714  43.2168992  23.7735298  90.7097938  47.2657396
  23.7956995  90.7737272  46.3109376  24.1903357  89.8702447  47.4597902
  34.1518923 100.4453198  45.3036619  34.5950069  99.6960523  44.9055742
  33.2745433 100.4363334  44.9210351  29.2854704 106.9983539  40.7843217
  29.9805609 107.6190232  41.0030532  29.6277854 106.1478891  41.0595595
  14.9022513  98.8201340  54.6440035  14.1604249  98.9683976  55.2304665
  14.5815257  99.0809606  53.7806784  31.1846127 104.4483245  42.3130548
  31.7097451 104.7870518  41.5879868  31.0968480 103.5130260  42.1293683
  22.8466176 108.3617319  54.4420425  23.1553302 108.1166465  55.3143124
  23.6441658 108.5663957  53.9539295  22.8686788 110.5155228  46.6725801
  22.4291778 110.0231607  47.3658658  23.6194905 109.9728196  46.4317877
  15.3479127 106.7066769  46.6750429  16.1737147 106.4070541  46.2949073
  14.9973179 105.9374392  47.1240218  20.3160660 106.0593237  48.7448103
  19.6940669 105.3963942  48.4450331  20.9865527 106.0854369  48.0621751
  13.5487732 104.6253096  47.6339363  12.7119640 104.1975270  47.4523364
  13.5211377 104.8185539  48.5710154  20.3885187  94.5375025  58.3380609
  20.4373343  95.4137148  57.9558379  20.9307702  93.9952418  57.7652252
  30.8740033 105.0816149  57.6181746  30.0835577 105.0640288  57.0786246
  30.6373388 105.6204442  58.3730783  30.9937908 101.9308615  54.9314475
  31.0435913 101.7658622  55.8729997  30.8851832 101.0635874  54.5412355
  19.8774167 104.6097161  42.2206564  20.0262287 105.2932625  41.5673236
  20.6840610 104.5902251  42.7356019  28.2841671  97.9139543  56.2473781
  29.1851533  97.7746008  55.9557779  28.3589645  98.0793998  57.1871959
  22.6184476  95.2906398  55.0926968  21.7487785  95.5839964  54.8209556
  22.8543956  95.8746843  55.8134231  32.4956105 104.3505557  55.1756496
  32.2040913 104.7135537  56.0119957  31.8828236 103.6372565  54.9969828
  33.6951787 101.9158436  47.6959066  34.5298679 102.3548240  47.8596627
  33.8310916 101.4397090  46.8767312  30.7443293  99.4738171  53.6436554
  31.2197415  99.6665817  52.8355406  29.8208859  99.5297357  53.3979938
  17.6326800 100.6362338  43.2267632  17.3872842  99.7324668  43.4247843
  17.8022714 100.6379489  42.2847110  25.3223510  91.5086015  52.6092388
  25.8405454  92.2447042  52.2838877  24.9678642  91.8150008  53.4439147
  16.9022447  96.3690696  40.7253794  16.2091692  96.4435051  40.0693830
  16.6574199  95.6051040  41.2475311  25.5736104  87.9286297  48.1293285
  25.8537858  87.2609486  48.7553711  26.3586711  88.1215393  47.6167949
  23.3769572 107.1045291  39.6918311  22.8043539 107.7235478  39.2388783
  23.9502366 107.6544653  40.2258233  29.4444962  96.3503931  51.8764860
  30.3962385  96.4502029  51.8977084  29.2748413  95.5582200  52.3862944
  27.4659342  93.4359514  52.0624261  26.8709274  93.7164527  51.3670749
  27.1809038  93.9253415  52.8341002  26.5966832 107.3882441  40.8226893
  27.5297505 107.3228003  41.0259769  26.5090045 108.2238708  40.3641426
  29.2254849 106.7048312  37.7830841  29.1468480 106.3708175  38.6766599
  30.0464516 107.1970080  37.7822313  31.9233040  99.5710051  50.9907159
  31.8909360  98.6326052  51.1766843  32.5333664  99.6494088  50.2572984
  23.7616371  98.4406104  37.0334363  24.7075476  98.3112312  37.1022782
  23.3830616  97.7020766  37.5103792  32.0727529  96.3621094  51.0365443
  31.5566577  95.5779551  50.8495371  32.9567477  96.0339811  51.2011962
  29.7338255  90.1062110  46.9961255  29.5363077  89.7977198  47.8804587
  30.3437961  90.8323749  47.1259185  37.7409590 100.6326058  50.1313196
  38.4712978 100.3711346  50.6920900  37.1316535  99.8954780  50.1715264
  35.8224887  98.7733920  50.7287647  35.0958051  98.6389885  50.1204139
  35.4072174  99.0810749  51.5344365  23.6455063 102.4923850  58.4935020
  24.5658073 102.6702449  58.6875067  23.6104646 101.5479895  58.3414720
  21.9459288  96.3656080  36.9689249  21.0390743  96.0689193  37.0451962
  22.2235269  96.0685898  36.1023535  12.8637228  97.6862444  47.4188295
  12.5440013  96.8327752  47.1262669  12.3170657  97.9011022  48.1746262
  16.6417136 100.4024885  51.1357802  16.8603146 101.3341993  51.1545835
  17.0542910 100.0432859  51.9212605  23.5621354  90.9092970  43.1233490
  22.7522082  90.5640055  43.4988736  24.2505771  90.6000514  43.7121102
  25.4911902  89.9871017  44.7457787  26.0442941  90.4066470  45.4047810
  25.7281988  89.0606765  44.7880743  21.5145001  95.9758090  60.5260551
  21.4141728  96.9252447  60.4572642  21.2966543  95.6476329  59.6536621
  20.7158073  93.2243016  37.1101228  21.5777237  93.5497914  37.3697045
  20.9008417  92.4374511  36.5974294  12.7325488 101.3065355  49.3881417
  12.0388960 100.8919308  48.8751371  13.4798479 101.3485892  48.7914836
  28.8690709  92.0971542  44.2536451  28.2889378  92.7556346  43.8714503
  28.6026642  91.2748887  43.8423868  27.3194275  91.4976600  46.4557771
  27.8194054  91.6093134  45.6472090  27.9629883  91.1937653  47.0958580
  21.3776271  99.4055229  59.3425612  20.8943353 100.2055589  59.5489501
  21.4637210  99.4163174  58.3893056  14.6462231 101.2383609  47.2647432
  14.6232919 101.3371296  46.3129315  14.9562867 102.0848760  47.5864598
  17.3049609 103.2959764  51.3794046  18.2592862 103.2643706  51.3123978
  17.1062132 102.8350388  52.1944272  17.8948991 101.8660880  53.9464844
  18.7141880 102.3604959  53.9699681  18.1685799 100.9492848  53.9182411
  27.6515587  94.2571632  43.3092799  26.7641442  94.5421283  43.0912994
  28.0669576  94.0965396  42.4620076  31.0030123  94.2818153  47.0247138
  31.7790513  94.7714606  47.2971755  30.2778257  94.7076208  47.4819008
  33.4402682  94.9945773  48.0821079  34.0347173  94.7541509  47.3714387
  33.5129266  94.2752903  48.7094615  15.6599838 108.8379384  48.3964244
  15.5254306 108.0779784  47.8302242  15.2431900 109.5620283  47.9293033
  26.7958801 104.0216307  37.4040819  27.4994651 104.2266310  38.0198475
  26.0721449 104.5893069  37.6689903  27.6256611  99.7726168  43.5243089
  27.5691812 100.2294720  42.6850722  28.1784953  99.0116853  43.3465932
  31.4361417  95.5615900  44.3493209  31.1798351  95.1612536  45.1801417
  30.8114285  96.2759694  44.2243348  35.7473755  98.3011973  46.8564500
  35.1873313  98.3705163  47.6296062  35.1417258  98.1252958  46.1363996
  18.8168963 109.7348701  48.6082687  18.7001348 110.6794133  48.5061377
  17.9961410 109.4322262  48.9968486  28.7045498 104.4598836  39.4539279
  29.5391102 104.0280035  39.2716754  28.5429841 104.2880850  40.3816174
  28.3591390 100.9630950  40.8195619  28.3040194 100.7975221  39.8784063
  27.7337445 101.6706982  40.9757808  13.1483905  96.1999014  54.6457041
  13.7942769  95.6897968  55.1344266  12.9401056  96.9367696  55.2200466
  25.6737297 103.2679861  60.1449181  26.5428457 103.4420514  59.7835816
  25.1944049 104.0874278  60.0224911  21.6687516  90.4639059  40.3980937
  21.6566185  91.4080898  40.5549208  22.5610938  90.2809204  40.1040398
  19.8423478 110.3876962  51.8238615  20.7450724 110.4200573  52.1405110
  19.6160848 109.4577413  51.8384951  21.5977080 109.1407949  48.4848694
  20.6472711 109.1409811  48.3713066  21.9009566 108.3940684  47.9684728
  25.4839635  87.0581835  44.6526874  24.7172031  86.5040322  44.7983556
  25.8950340  87.1303704  45.5141025  17.4881396  93.3466631  58.7432055
  18.3512858  92.9903436  58.9535380  16.9146807  93.0080526  59.4307459
  37.3329773 114.9768487  49.5494456  37.9708183 114.8575235  48.8457796
  37.2150616 115.9249331  49.6082408  34.1419479 114.9295915  49.4855981
  33.8037991 114.8136980  48.5976516  35.0109248 114.5287081  49.4656987
  34.6239262 116.0830767  55.4442186  34.6127903 115.6883565  54.5722690
  34.7859902 115.3496840  56.0375958  31.8427759 113.6984163  38.8172921
  32.0953279 113.1765684  38.0556384  30.9052318 113.5350308  38.9199604
  36.8871042 112.7019941  46.6247664  37.6734131 112.2839364  46.2738081
  37.1509746 113.6066033  46.7929312  42.2879469 112.6395174  47.5280643
  43.0204641 112.0694391  47.7618472  41.5318824 112.2516775  47.9687148
  33.9055588 115.0622416  44.7243985  33.5413796 114.5353037  45.4356906
  34.7622704 114.6720885  44.5510470  39.8104889 106.3516749  51.9875251
  39.4788214 107.2212159  51.7636466  39.2150502 106.0353033  52.6669282
  33.5461075 110.0912316  39.7205333  33.7135478 110.9592552  40.0875805
  33.3558245 110.2539597  38.7966623  39.7033552 111.0711835  49.0668601
  38.7950430 111.0027243  48.7727362  39.6521148 111.5483780  49.8950427
  33.5250296 112.5469973  40.7052000  33.4049922 112.9927024  41.5437481
  32.8302885 112.8955291  40.1465538  33.7774418 112.4901480  57.0103498
  33.0007752 113.0495400  57.0006363  34.4164981 112.9758263  57.5318369
  41.5695199 109.2728273  50.8446475  40.9269579 109.5660806  50.1986270
  41.0650127 109.1581193  51.6499672  39.2235362 113.0191446  41.5332334
  40.1353219 113.2518833  41.3580032  38.7145010 113.6028490  40.9707413
  37.5076130 117.4416074  55.1693627  37.9159486 116.9998485  54.4248259
  36.7853392 116.8668702  55.4227820  33.8607200 112.3788681  52.5427184
  34.7068395 112.8028094  52.6861833  33.8005838 111.7222305  53.2365747
  37.0106646 110.0393049  54.2008358  36.7667577 110.7935110  53.6642633
  37.2866576 110.4178397  55.0355605  38.9645108 116.5831662  52.8785623
  39.1762004 117.2263421  52.2020004  38.9174857 115.7493978  52.4107553
  36.5671337 109.1949482  49.7822195  35.7055816 109.4930736  50.0738933
  36.5933772 109.4119881  48.8503228  32.3201793 113.8614825  42.9985566
  33.0225836 114.3135869  43.4659492  31.9882421 113.2198644  43.6265459
  30.7682154 112.4526582  57.3736775  30.1380815 113.1342863  57.6072172
  30.6618242 112.3409663  56.4289914  26.0627127 112.1198378  48.3002700
  25.2726181 112.3755906  47.8242810  26.5538374 112.9346716  48.4054740
  28.0141872 112.4842957  45.2586176  27.2173035 112.5961651  45.7769672
  27.7867464 112.8229609  44.3927067  48.1696929 115.8042366  47.3992952
  47.4160638 115.2349764  47.2436956  48.3044470 115.7705030  48.3463587
  30.0462897 106.7547348  59.7362026  29.6529843 106.2013546  60.4109671
  30.8629037 107.0657926  60.1268544  32.9630858 108.1705227  57.3282283
  33.7040571 108.7712380  57.2486746  33.1948781 107.4282865  56.7700326
  28.1072196 113.3561594  55.6060513  27.9925711 112.4546851  55.9067612
  27.2516714 113.6025291  55.2545329  36.9088021 104.1986330  51.6046565
  36.5652290 105.0887971  51.5285675  37.2766983 104.0087987  50.7416150
  36.8738304 114.1894941  40.1119000  36.3584927 114.9599545  40.3507387
  36.6015612 113.5160077  40.7352061  34.4585415 109.0344642  45.1704238
  33.6027011 108.6451492  44.9909877  34.8712366 109.1136602  44.3104024
  35.9884561 106.5690985  49.5695798  35.4849357 106.5321120  48.7563603
  36.2815168 107.4783728  49.6292455  32.2327447 106.6529715  48.5761980
  33.0980444 106.4572523  48.2167869  32.3004956 106.4240066  49.5031336
  41.8472578 116.9427295  42.0472173  41.0702021 116.6038455  41.6027335
  42.5264059 116.9479919  41.3727138  36.6624607 112.0622033  41.9378781
  36.3574742 112.3768182  42.7888924  37.6155049 112.1403453  41.9806114
  40.0863885 116.4161277  48.7038781  39.4287559 117.1060538  48.7918910
  40.8904284 116.8057709  49.0472768  29.8389766 108.8831922  45.9478347
  30.4133518 108.6607104  45.2151539  30.4260749 108.9520617  46.7006948
  38.8969343 114.7705649  46.7542723  39.4101225 115.4035641  47.2564433
  39.5470567 114.1706845  46.3886083  30.1659353 110.9136384  39.9674232
  29.3296666 111.2511070  40.2883507  30.0264123 110.7785363  39.0301369
  32.1412434 105.7573171  44.6753416  31.4876846 105.4422189  44.0510031
  32.0992908 105.1348912  45.4013239  33.2523639 116.0392466  36.5906708
  32.3450701 115.8081720  36.7897857  33.7494671 115.2430086  36.7780690
  35.3750174 112.2455105  49.0001064  34.4572736 112.4670052  48.8422752
  35.7910318 112.3201415  48.1412771  36.1585222 113.6446521  44.1303744
  36.9057041 114.1567918  43.8210866  36.4276812 113.3230573  44.9908137
  34.4311872 116.1405061  41.1130698  33.5223092 115.8564094  41.2103168
  34.4606956 116.5604140  40.2534005  38.6064059 110.6803637  46.1122533
  37.8686816 110.1681023  46.4432776  38.8590833 110.2404018  45.3005810
  38.7075687 103.4579889  46.7064302  39.0134563 102.5977252  46.4190218
  39.4328291 104.0497509  46.5063296  32.9796766 113.7533682  47.2140493
  33.0345376 112.8007518  47.1382970  32.1687968 113.9093121  47.6981792
  30.9189126 112.3710742  44.9730872  30.1056992 112.6704912  45.3796064
  31.4148120 111.9766430  45.6905355  36.5163338 112.8352566  53.8045766
  36.8712726 113.0624039  54.6640232  37.1635469 113.1670943  53.1823022
  42.2461075 115.9571002  44.5095095  42.1078973 116.1472598  43.5816284
  41.8897294 116.7190385  44.9663146  30.4103201 109.9429097  50.5892107
  31.0502580 109.8017856  49.8915071  29.5780732 109.6563611  50.2130709
  42.2730454 118.0247529  49.5206367  42.7066961 117.9322818  50.3689421
  42.9862035 118.0005030  48.8826383  27.4946268 113.3874609  42.7786852
  26.5643856 113.3259065  42.9956815  27.5903740 112.8650562  41.9823494
  27.4131817 109.9129422  45.3665094  27.6738635 110.8274755  45.2574255
  28.2348990 109.4453865  45.5161707  28.8856743 111.3267179  52.5363919
  29.5579796 111.1184542  51.8876568  28.0586529 111.1289265  52.0969151
  43.1346004 118.0671230  52.0539252  43.3281894 118.9717040  52.2998527
  43.0346622 117.6078649  52.8877837  34.7882315 107.9529120  54.5529580
  34.1410230 108.6519070  54.4594056  35.5583330 108.3865264  54.9205828
  34.9646449 115.7909885  52.6126399  35.8938509 115.9421045  52.4395367
  34.5437479 115.8793906  51.7575046  29.2884240 114.6009782  53.2966356
  29.1504038 113.8690021  53.8977895  30.1989163 114.5118682  53.0150544
  38.2499188 116.5398187  38.0450834  37.6328358 115.8145015  37.9483887
  37.7815676 117.3007547  37.7017909  31.9166541 114.3129742  52.7850035
  32.6266159 113.6722934  52.7436654  31.8735849 114.5642637  53.7076216
  30.6295475 111.2994960  54.6045675  30.0932832 110.8485698  55.2567271
  30.0412183 111.4340868  53.8616139  30.0397734 110.7583611  37.1672139
  29.1627200 110.6372412  36.8034385  30.5155487 109.9669689  36.9151027
  26.3634596 110.4350967  51.6898669  26.2792785 109.8276637  50.9549079
  25.5417302 110.9259986  51.6908166  36.5358310 108.9204531  47.0568864
  37.0327009 108.1674493  46.7369935  35.7645291 108.9568847  46.4912074
  44.3888067 114.6244896  48.6987156  44.3777943 115.5069612  48.3281089
  43.5205447 114.2716447  48.5041693  33.1193278 111.0621914  46.7840549
  32.7491066 110.5092954  47.4721455  33.6152371 110.4580047  46.2315549
  41.0060642 113.5193537  45.1657322  41.4721094 114.3521529  45.0917625
  41.4568142 113.0538519  45.8702581  38.9777305 105.8874124  49.2048223
  38.0640384 106.1178351  49.3730430  39.4070406 105.9712568  50.0562256
  38.7483763 114.0764016  51.7048117  38.0955213 114.3239924  51.0500570
  39.1264143 113.2628154  51.3710595  34.7971336 114.8183827  58.1914154
  34.1211973 114.7177957  58.8616530  35.6198970 114.6623041  58.6550152
  28.5158612 108.4725905  53.0293655  28.5799939 109.3340735  52.6171053
  28.4525732 107.8599906  52.2966014  27.9910885 110.5449037  56.6766689
  28.6182923 110.1626114  57.2904214  27.1338804 110.3263239  57.0422382
  24.7676427 112.3525466  42.6085044  25.0629869 111.4436145  42.5552098
  23.8664463 112.3313206  42.2866047  28.2970674 110.4281463  48.5912593
  27.5757260 111.0417430  48.4520066  29.0863930 110.9639228  48.5129239
  31.0996988 107.7635889  54.8653245  31.6231390 108.0098186  55.6279554
  30.8809321 108.5955924  54.4456382  26.4964269 110.0339564  42.7324369
  26.1676975 109.1536943  42.5499475  26.8503640 109.9787233  43.6200759
  29.6106092 110.3212534  43.0999847  29.9502165 110.8498455  42.3778455
  30.0578213 110.6592940  43.8758414  32.3049533 108.7049584  52.5502915
  31.9646353 107.9057397  52.9523595  31.5988539 109.0051295  51.9779748
  32.9566005 105.7898897  51.0030238  33.7792074 105.3159375  50.8809128
  33.2004068 106.5689381  51.5028924  31.5974239 108.8187155  41.2993140
  32.3182602 109.1968408  40.7956857  30.9739543 109.5376032  41.4028118
  35.7405362 109.5232304  42.2351472  35.9568977 110.4056942  41.9340300
  35.2599429 109.1318518  41.5057114  30.4804584 112.4818017  48.8122217
  30.3349164 112.7958321  49.7046498  30.0029787 113.1002918  48.2593115
  32.3400966 109.4720565  48.8603106  32.3262535 108.5761659  48.5235404
  33.0573395 109.4791229  49.4941392  34.1927097 109.9057906  50.9056234
  33.9344875 110.8274976  50.9040564  33.6612138 109.5088340  51.5956698
  31.7437862 108.3534946  44.1290676  31.8653774 107.4251592  44.3281564
  31.4539905 108.3673632  43.2168992  34.6129053 106.0389856  47.2657396
  34.6350750 106.1029189  46.3109376  35.0297112 105.1994365  47.4597902
  44.9912677 115.7745116  45.3036619  45.4343823 115.0252441  44.9055742
  44.1139187 115.7655252  44.9210351  31.2278942 109.8666943  58.3380609
  31.2767097 110.7429066  57.9558379  31.7701456 109.3244336  57.7652252
  41.8331663 117.2600533  54.9314475  41.8829668 117.0950540  55.8729997
  41.7245586 116.3927792  54.5412355  39.1235425 113.2431461  56.2473781
  40.0245288 113.1037926  55.9557779  39.1983400 113.4085916  57.1871959
  33.4578230 110.6198315  55.0926968  32.5881540 110.9131882  54.8209556
  33.6937711 111.2038760  55.8134231  44.5345542 117.2450354  47.6959066
  45.3692433 117.6840158  47.8596627  44.6704671 116.7689007  46.8767312
  41.5837048 114.8030089  53.6436554  42.0591169 114.9957735  52.8355406
  40.6602613 114.8589275  53.3979938  36.1617264 106.8377932  52.6092388
  36.6799208 107.5738959  52.2838877  35.8072397 107.1441926  53.4439147
  27.7416202 111.6982614  40.7253794  27.0485447 111.7726969  40.0693830
  27.4967954 110.9342957  41.2475311  36.4129858 103.2578215  48.1293285
  36.6931612 102.5901404  48.7553711  37.1980465 103.4507311  47.6167949
  40.2838717 111.6795849  51.8764860  41.2356140 111.7793947  51.8977084
  40.1142167 110.8874117  52.3862944  38.3053096 108.7651432  52.0624261
  37.7103028 109.0456445  51.3670749  38.0202793 109.2545333  52.8341002
  42.7626795 114.9001969  50.9907159  42.7303115 113.9617969  51.1766843
  43.3727418 114.9786005  50.2572984  34.6010125 113.7698022  37.0334363
  35.5469230 113.6404230  37.1022782  34.2224370 113.0312684  37.5103792
  42.9121283 111.6913012  51.0365443  42.3960332 110.9071469  50.8495371
  43.7961232 111.3631729  51.2011962  40.5732010 105.4354028  46.9961255
  40.3756831 105.1269116  47.8804587  41.1831715 106.1615667  47.1259185
  48.5803344 115.9617975  50.1313196  49.3106733 115.7003264  50.6920900
  47.9710290 115.2246697  50.1715264  46.6618641 114.1025838  50.7287647
  45.9351805 113.9681803  50.1204139  46.2465928 114.4102667  51.5344365
  32.7853043 111.6947998  36.9689249  31.8784498 111.3981111  37.0451962
  33.0629024 111.3977816  36.1023535  34.4015108 106.2384888  43.1233490
  33.5915837 105.8931973  43.4988736  35.0899525 105.9292431  43.7121102
  36.3305657 105.3162935  44.7457787  36.8836695 105.7358388  45.4047810
  36.5675743 104.3898683  44.7880743  32.3538756 111.3050008  60.5260551
  32.2535483 112.2544365  60.4572642  32.1360298 110.9768247  59.6536621
  31.5551827 108.5534933  37.1101228  32.4170991 108.8789832  37.3697045
  31.7402171 107.7666429  36.5974294  39.7084464 107.4263460  44.2536451
  39.1283133 108.0848264  43.8714503  39.4420396 106.6040804  43.8423868
  38.1588030 106.8268517  46.4557771  38.6587808 106.9385052  45.6472090
  38.8023638 106.5229570  47.0958580  32.2170026 114.7347147  59.3425612
  31.7337108 115.5347507  59.5489501  32.3030965 114.7455092  58.3893056
  38.4909342 109.5863550  43.3092799  37.6035197 109.8713201  43.0912994
  38.9063331 109.4257313  42.4620076  41.8423878 109.6110071  47.0247138
  42.6184268 110.1006523  47.2971755  41.1172012 110.0368125  47.4819008
  44.2796436 110.3237690  48.0821079  44.8740927 110.0833426  47.3714387
  44.3523020 109.6044821  48.7094615  38.4650365 115.1018086  43.5243089
  38.4085567 115.5586637  42.6850722  39.0178708 114.3408771  43.3465932
  42.2755171 110.8907818  44.3493209  42.0192106 110.4904454  45.1801417
  41.6508039 111.6051612  44.2243348  46.5867509 113.6303891  46.8564500
  46.0267067 113.6997080  47.6296062  45.9811013 113.4544876  46.1363996
  39.1985145 116.2922867  40.8195619  39.1433948 116.1267139  39.8784063
  38.5731200 116.9998900  40.9757808  23.9877660 111.5290932  54.6457041
  24.6336523 111.0189886  55.1344266  23.7794811 112.2659613  55.2200466
  32.5081270 105.7930976  40.3980937  32.4959940 106.7372816  40.5549208
  33.4004692 105.6101122  40.1040398  36.3233390 102.3873753  44.6526874
  35.5565785 101.8332240  44.7983556  36.7344095 102.4595622  45.5141025
  28.3275151 108.6758549  58.7432055  29.1906612 108.3195354  58.9535380
  27.7540561 108.3372444  59.4307459  47.7481775 119.5278247  51.6046565
  47.4046045 120.4179889  51.5285675  48.1160738 119.3379905  50.7416150
  49.5469441 118.7871807  46.7064302  49.8528318 117.9269170  46.4190218
  50.2722046 119.3789427  46.5063296  49.8171059 121.2166042  49.2048223
  48.9034139 121.4470269  49.3730430  50.2464160 121.3004486  50.0562256
  47.2523613 118.5870133  48.1293285  47.5325367 117.9193322  48.7553711
  48.0374220 118.7799228  47.6167949  51.4125764 120.7645945  46.9961255
  51.2150586 120.4561033  47.8804587  52.0225470 121.4907584  47.1259185
  47.1699411 120.6454852  44.7457787  47.7230450 121.0650306  45.4047810
  47.4069497 119.7190600  44.7880743  47.1627144 117.7165671  44.6526874
  46.3959540 117.1624157  44.7983556  47.5737849 117.7887539  45.5141025
   4.8121913  31.4936817  34.1238259   4.0585621  30.9244215  33.9682263
   4.9469454  31.4599482  35.0708893   1.6337660  31.4639568  32.0281926
   2.0768806  30.7146893  31.6301049   0.7564171  31.4549704  31.6455657
   1.1770525  32.9344806  34.4204373   2.0117416  33.3734610  34.5841933
   1.3129654  32.4583459  33.6012619   5.2228328  31.6512427  36.8558503
   5.9531716  31.3897715  37.4166206   4.6135273  30.9141149  36.8960571
   3.3043625  29.7920290  37.4532954   2.5776788  29.6576255  36.8449446
   2.8890912  30.0997119  38.2589672   0.9221420  26.0132142  34.8066386
   1.5165911  25.7727878  34.0959694   0.9948003  25.2939273  35.4339922
   3.2292492  29.3198343  33.5809807   2.6692050  29.3891532  34.3541369
   2.6235996  29.1439328  32.8609303   4.8148511  45.9954857  36.2739763
   5.4526921  45.8761604  35.5703103   4.6969354  46.9435701  36.3327715
   1.6238217  45.9482285  36.2101287   1.2856729  45.8323350  35.3221822
   2.4927985  45.5473450  36.1902293   2.1058000  47.1017137  42.1687493
   2.0946641  46.7069935  41.2967996   2.2678640  46.3683209  42.7621264
   3.0624592  51.4688729  27.5112643   2.4112571  52.0542810  27.1246657
   3.8568954  51.9994924  27.5707681   4.3689779  43.7206311  33.3492971
   5.1552869  43.3025734  32.9983388   4.6328484  44.6252403  33.5174619
   4.5399857  49.1579161  28.0481627   3.9045690  49.2313788  28.7602532
   4.2097263  49.7472760  27.3700707   9.7698207  43.6581544  34.2525949
  10.5023378  43.0880761  34.4863779   9.0137562  43.2703144  34.6932455
   1.3874326  46.0808785  31.4489292   1.0232533  45.5539406  32.1602213
   2.2441442  45.6907255  31.2755777   7.2923627  37.3703118  38.7120558
   6.9606952  38.2398529  38.4881773   6.6969240  37.0539402  39.3914588
   1.0279813  41.1098685  26.4450640   1.1954216  41.9778922  26.8121111
   0.8376982  41.2725967  25.5211929   3.7855146  49.5715664  38.1116470
   3.4855869  50.4740703  38.0032278   3.4406206  49.3047847  38.9637623
   7.1852290  42.0898204  35.7913908   6.2769168  42.0213613  35.4972669
   7.1339886  42.5670149  36.6195733   1.2593156  43.5087850  43.7348805
   0.4826490  44.0681770  43.7251670   1.8983719  43.9944633  44.2563675
   9.0513937  40.2914643  37.5691782   8.4088317  40.5847176  36.9231576
   8.5468865  40.1767563  38.3744978   6.7054100  44.0377816  28.2577641
   7.6171956  44.2705203  28.0825339   6.1963747  44.6214860  27.6952720
   4.9894868  48.4602444  41.8938934   5.3978224  48.0184854  41.1493566
   4.2672129  47.8855071  42.1473126   1.3425938  43.3975050  39.2672491
   2.1887133  43.8214464  39.4107140   1.2824576  42.7408675  39.9611054
   5.3123683  49.0203634  35.6491222   4.6832545  49.1849348  34.9467290
   4.9249345  49.4345244  36.4202186   9.1912914  49.9558072  33.0035586
   8.5063953  50.3356974  32.4532620   9.2756764  50.5653399  33.7367534
   4.4925383  41.0579419  40.9253664   4.2486315  41.8121479  40.3887940
   4.7685314  41.4364766  41.7600911   6.4463846  47.6018031  39.6030930
   6.6580741  48.2449791  38.9265311   6.3993594  46.7680348  39.1352860
   4.0490075  40.2135852  36.5067502   3.1874554  40.5117105  36.7984239
   4.0752510  40.4306251  35.5748535   0.8651644  48.7578042  32.9141308
   1.3289990  49.0365745  32.1245930   0.6008443  47.8561487  32.7314398
   7.5609674  50.4789987  37.7753287   8.3827118  50.0770174  37.4935969
   7.5572077  50.3758221  38.7269403   1.3266277  50.0274030  39.9313998
   1.3910710  50.4894437  40.7672169   0.6177201  49.3971395  40.0596307
  15.6515667  46.8228735  34.1238259  14.8979375  46.2536133  33.9682263
  15.7863208  46.7891400  35.0708893   1.0414295  51.6942137  29.7992978
   0.9059970  52.5393673  30.2277826   1.5824108  51.8961415  29.0358912
   2.6682771  52.3165704  43.9293320   2.2246626  51.5302082  43.6114224
   3.3299985  52.5044854  43.2637211   4.7664010  52.5968504  41.9574721
   4.7482485  53.4177385  41.4654990   5.6883930  52.4722579  42.1824862
   1.2237064  50.1112633  42.7998230   1.7565401  49.3500921  42.5697538
   0.6951145  49.8186285  43.5422384   4.3906759  35.2172699  38.3291871
   4.0471028  36.1074341  38.2530982   4.7585721  35.0274357  37.4661456
   4.3557041  45.2081310  26.8364306   3.8403665  45.9785915  27.0752694
   4.0834350  44.5346447  27.4597368   1.9404152  40.0531011  31.8949545
   1.0845749  39.6637862  31.7155184   2.3531104  40.1322972  31.0349330
   3.4703299  37.5877354  36.2941105   2.9668095  37.5507490  35.4808910
   3.7633906  38.4970097  36.3537761   9.3291316  47.9613665  28.7717480
   8.5520758  47.6224825  28.3272642  10.0082797  47.9666288  28.0972445
   4.1443345  43.0808402  28.6624088   3.8393480  43.3954552  29.5134231
   5.0973787  43.1589822  28.7051421   2.5889776  49.2398626  30.3117042
   2.0611138  48.5051385  29.9990279   2.0877279  50.0173302  30.0657010
   7.5682622  47.4347646  35.4284088   6.9106297  48.1246908  35.5164217
   8.3723022  47.8244078  35.7718074   6.3788081  45.7892019  33.4788030
   6.8919963  46.4222011  33.9809739   7.0289305  45.1893214  33.1131390
   3.6410455  55.7676343  26.2348701   2.9672154  56.0708040  26.8433659
   4.0276277  56.5705424  25.8854158   2.8568912  43.2641475  35.7246370
   1.9391473  43.4856422  35.5668058   3.2729056  43.3387785  34.8658078
   3.6403960  44.6632890  30.8549050   4.3875779  45.1754287  30.5456173
   3.9095549  44.3416943  31.7153444   1.9130610  47.1591431  27.8376005
   1.0041829  46.8750464  27.9348475   1.9425694  47.5790509  26.9779312
   7.1449877  50.7698020  31.6067172   6.6912205  49.9288930  31.6632363
   6.5143844  51.4059419  31.9441952   6.0882797  41.6990006  32.8367840
   5.3505554  41.1867393  33.1678082   6.3409571  41.2590388  32.0251117
   5.5882817  52.6074517  32.5416990   5.8805791  53.1679574  31.8229356
   6.0981437  52.9003078  33.2970150   6.1894424  34.4766258  33.4309609
   6.4953301  33.6163622  33.1435524   6.9147029  35.0683879  33.2308603
   1.6106698  48.7000175  25.1764083   1.1726128  47.9836034  24.7169721
   2.3517139  48.9276289  24.6149175   0.5516442  53.3854868  33.6310444
   0.5092621  53.6115714  32.7018976   1.4679141  53.1518243  33.7796245
   3.9982076  43.8538936  40.5291073   4.3531463  44.0810409  41.3885539
   4.6454207  44.1857313  39.9068328   9.7279813  46.9757372  31.2340402
   9.5897711  47.1658968  30.3061591   9.3716031  47.7376754  31.6908453
   9.7549192  49.0433899  36.2451673  10.1885699  48.9509188  37.0934727
  10.4680773  49.0191399  35.6071689   3.4877087  52.6435993  37.7784774
   3.5414109  53.2126929  38.5462490   2.6191868  52.8137878  37.4138811
  10.6164742  49.0857599  38.7784559  10.8100632  49.9903410  39.0243834
  10.5165360  48.6265018  39.6123144   2.2701053  38.9715490  41.2774886
   1.6228968  39.6705440  41.1839363   3.0402068  39.4051634  41.6451134
   5.6779850  49.2364342  44.3525439   5.5265357  49.0074894  43.4355523
   5.6684530  50.1934943  44.3656784   2.4465187  46.8096255  39.3371706
   3.3757247  46.9607414  39.1640673   2.0256217  46.8980276  38.4820352
   1.8401671  55.9356016  28.4495780   2.0153426  55.4644059  29.2641403
   1.1534459  56.5621782  28.6777041   2.7958734  50.2128522  34.4959081
   2.4608566  50.1729292  35.3916731   2.2962679  49.5473238  34.0229492
   5.7317925  47.5584556  24.7696141   5.1147096  46.8331384  24.6729194
   5.2634414  48.3193917  24.4263215   7.3872057  52.2683465  42.4301921
   7.3284603  51.5842685  41.7632504   7.7891575  53.0102455  41.9782547
   7.3889464  50.2323049  40.6615901   6.5016243  49.8948970  40.7842300
   7.9588015  49.5006080  40.8984666   4.0177048  39.9390900  33.7814171
   4.5145747  39.1860863  33.4615241   3.2464029  39.9755217  33.2157380
  11.8706805  45.6431266  35.4232463  11.8596681  46.5255981  35.0526396
  11.0024184  45.2902817  35.2287000   3.3789301  54.7911335  39.7835303
   4.0917274  55.4258800  39.7111204   2.8879330  54.8875201  38.9675305
   5.1006828  48.6962588  31.3552595   4.1663107  48.8164050  31.1857299
   5.2783497  47.7935054  31.0912604   8.4879380  44.5379907  31.8902629
   8.9539832  45.3707898  31.8162931   8.9386880  44.0724888  32.5947887
   6.5555611  50.8823728  28.8888781   6.8315455  50.7680323  29.7982655
   5.6860109  50.4841213  28.8500954   6.4596042  36.9060494  35.9293530
   5.5459122  37.1364721  36.0975737   6.8889144  36.9898938  36.7807562
   6.2302501  45.0950386  38.4293424   5.5773951  45.3426293  37.7745877
   6.6082881  44.2814524  38.0955901   3.1909675  55.1310079  32.5321594
   3.3732069  54.3131735  32.9949347   4.0142661  55.3477771  32.0946484
   3.5251840  54.0578264  29.7936643   4.0539607  53.5470719  29.1806805
   3.7880060  53.7420794  30.6582176   2.2790074  45.8370197  44.9159461
   1.6030711  45.7364326  45.5861836   3.1017708  45.6809411  45.3795458
   1.0212857  57.1437124  39.1517077   1.5731165  57.3068746  39.9166162
   1.3619050  57.7341562  38.4797102   5.8723731  51.9698382  45.0065732
   6.4163635  52.5828340  44.5120686   5.2910576  52.5277960  45.5232745
   4.1581244  55.0919100  36.1380759   4.0332383  54.2908840  35.6291705
   4.8160335  55.5865293  35.6494729   6.2216152  52.8928120  37.7660309
   5.2746488  52.7733471  37.6938636   6.5698925  52.0050618  37.8486571
   3.2262586  52.6880836  33.9664662   3.0787548  51.7597544  34.1472232
   4.0516079  52.7100927  33.4821737   6.8296707  53.5109395  35.0529534
   7.7543255  53.3052256  34.9153985   6.6612011  53.2625796  35.9618876
   3.2224100  40.5418674  28.9596779   3.4387714  41.4243312  28.6585607
   2.7418167  40.1504887  28.2302421   1.6745835  40.9244275  37.6301540
   1.4163613  41.8461346  37.6285871   1.1430875  40.5274710  38.3202005
   6.6192024  54.0295062  30.4091626   6.7928901  53.4641485  29.6565478
   7.1120915  54.8295957  30.2271116   2.0947791  37.0576226  33.9902703
   2.1169487  37.1215559  33.0354682   2.5115850  36.2180734  34.1843209
  12.4731415  46.7931485  32.0281926  12.9162561  46.0438810  31.6301049
  11.5957925  46.7841622  31.6455657   7.6067196  53.3461827  27.5088524
   8.3018101  53.9668519  27.7275839   7.9490346  52.4957178  27.7840902
   9.5058619  50.7961532  29.0375855  10.0309943  51.1348805  28.3125175
   9.4180972  49.8608548  28.8538989   1.1678668  54.7095606  41.1665731
   1.4765794  54.4644753  42.0388431   1.9654150  54.9142244  40.6784602
   1.1899280  56.8633516  33.3971108   0.7504270  56.3709894  34.0903965
   1.9407397  56.3206483  33.1563183   9.1952525  51.4294436  44.3427053
   8.4048069  51.4118575  43.8031552   8.9585880  51.9682730  45.0976089
   9.3150400  48.2786902  41.6559781   9.3648405  48.1136910  42.5975304
   9.2064324  47.4114161  41.2657662   6.6054163  44.2617830  42.9719088
   7.5064026  44.1224295  42.6803086   6.6802137  44.4272285  43.9117265
  10.8168597  50.6983844  41.9001803  10.5253406  51.0613824  42.7365264
  10.2040729  49.9850852  41.7215135  12.0164280  48.2636724  34.4204373
  12.8511171  48.7026528  34.5841933  12.1523408  47.7875377  33.6012619
   9.0655786  45.8216458  40.3681861   9.5409907  46.0144105  39.5600712
   8.1421351  45.8775644  40.1225245   3.6436002  37.8564302  39.3337695
   4.1617946  38.5925329  39.0084183   3.2891135  38.1628295  40.1684454
   3.8948596  34.2764585  34.8538591   4.1750350  33.6087774  35.4799018
   4.6799203  34.4693680  34.3413255   1.6982065  53.4523578  26.4163618
   1.1256032  54.0713766  25.9634090   2.2714858  54.0022940  26.9503540
   7.7657455  42.6982219  38.6010166   8.7174877  42.7980316  38.6222390
   7.5960905  41.9060487  39.1108251   5.7871834  39.7837802  38.7869567
   5.1921766  40.0642814  38.0916056   5.5021531  40.2731703  39.5586308
   4.9179324  53.7360729  27.5472200   5.8509998  53.6706290  27.7505075
   4.8302537  54.5716995  27.0886733   7.5467341  53.0526599  24.5076147
   7.4680973  52.7186462  25.4011905   8.3677008  53.5448367  24.5067620
  10.2445532  45.9188338  37.7152466  10.2121852  44.9804339  37.9012150
  10.8546156  45.9972375  36.9818291   2.0828863  44.7884391  23.7579670
   3.0287968  44.6590599  23.8268088   1.7043108  44.0499053  24.2349098
  10.3940021  42.7099382  37.7610749   9.8779069  41.9257838  37.5740678
  11.2779969  42.3818098  37.9257269   8.0550748  36.4540397  33.7206562
   7.8575569  36.1455485  34.6049894   8.6650453  37.1802036  33.8504492
  16.0622082  46.9804345  36.8558503  16.7925471  46.7189633  37.4166206
  15.4529028  46.2433067  36.8960571  14.1437379  45.1212208  37.4532954
  13.4170543  44.9868173  36.8449446  13.7284666  45.4289036  38.2589672
   1.9667556  48.8402137  45.2180327   2.8870565  49.0180736  45.4120374
   1.9317139  47.8958183  45.0660026   1.8833846  37.2571257  29.8478797
   1.0734574  36.9118342  30.2234043   2.5718263  36.9478801  30.4366408
   3.8124394  36.3349304  31.4703093   4.3655433  36.7544758  32.1293116
   4.0494481  35.4085052  31.5126049   7.1903201  38.4449829  30.9781758
   6.6101870  39.1034633  30.5959810   6.9239134  37.6227174  30.5669175
   5.6406768  37.8454887  33.1803078   6.1406546  37.9571421  32.3717397
   6.2842376  37.5415940  33.8203886   5.9728079  40.6049920  30.0338106
   5.0853934  40.8899570  29.8158301   6.3882069  40.4443683  29.1865383
   9.3242616  40.6296441  33.7492445  10.1003006  41.1192893  34.0217062
   8.5990750  41.0554495  34.2064315  11.7615174  41.3424060  34.8066386
  12.3559665  41.1019796  34.0959694  11.8341758  40.6231190  35.4339922
   5.1171293  50.3694594  24.1286126   5.8207143  50.5744597  24.7443781
   4.3933942  50.9371356  24.3935209   5.9469103  46.1204456  30.2488396
   5.8904305  46.5773007  29.4096028   6.4997446  45.3595140  30.0711239
   9.7573909  41.9094187  31.0738515   9.5010843  41.5090823  31.9046723
   9.1326777  42.6237981  30.9488655  14.0686247  44.6490261  33.5809807
  13.5085805  44.7183450  34.3541369  13.4629750  44.4731245  32.8609303
   7.0257990  50.8077123  26.1784586   7.8603594  50.3758322  25.9962061
   6.8642333  50.6359137  27.1061480   6.6803882  47.3109237  27.5440925
   6.6252686  47.1453508  26.6029369   6.0549938  48.0185270  27.7003115
   3.9949790  49.6158149  46.8694488   4.8640949  49.7898801  46.5081123
   3.5156541  50.4352565  46.7470217   3.8052127  33.4060122  31.3772180
   3.0384523  32.8518609  31.5228863   4.2162832  33.4781991  32.2386332
  15.6542265  61.3246775  36.2739763  16.2920675  61.2053522  35.5703103
  15.5363108  62.2727619  36.3327715  12.4631972  61.2774203  36.2101287
  12.1250483  61.1615267  35.3221822  13.3321740  60.8765368  36.1902293
   8.3218787  63.1309679  32.1998178   7.7583653  63.0399616  31.4314466
   8.2071182  62.3109584  32.6800671  12.9451755  62.4309054  42.1687493
  12.9340395  62.0361853  41.2967996  13.1072394  61.6975127  42.7621264
   5.8683219  64.6260871  35.0382399   6.6604511  64.2851695  34.6228698
   6.1079869  64.7355846  35.9584552  13.9018346  66.7980647  27.5112643
  13.2506326  67.3834727  27.1246657  14.6962709  67.3286842  27.5707681
   7.8273973  63.8869784  27.9099778   8.6004849  63.3398771  27.7712653
   8.1799372  64.7514033  28.1214239   9.6659016  65.2146166  41.1166677
   9.3748882  66.1191797  41.0013343  10.3016000  65.2562694  41.8310746
  10.5915223  62.5923015  37.7068036  11.1878795  62.3679037  36.9924999
  10.6490194  61.8507760  38.3093484  10.1640251  60.0462450  25.5418227
  10.4165772  59.5243971  24.7801690   9.2264810  59.8828596  25.6444911
  15.2083534  59.0498228  33.3492971  15.9946623  58.6317652  32.9983388
  15.4722238  59.9544321  33.5174619  15.3793611  64.4871079  28.0481627
  14.7439444  64.5605705  28.7602532  15.0491018  65.0764678  27.3700707
  20.6091961  58.9873462  34.2525949  21.3417133  58.4172678  34.4863779
  19.8531317  58.5995062  34.6932455   9.8836540  61.9490556  27.7442602
   9.7672798  61.2735459  28.4123687   9.9938800  61.4622930  26.9274755
  12.2268081  61.4100703  31.4489292  11.8626288  60.8831324  32.1602213
  13.0835197  61.0199172  31.2755777  18.1317381  52.6995036  38.7120558
  17.8000706  53.5690447  38.4881773  17.5362995  52.3831320  39.3914588
  11.8673568  56.4390603  26.4450640  12.0347970  57.3070839  26.8121111
  11.6770737  56.6017885  25.5211929  14.6248901  64.9007582  38.1116470
  14.3249624  65.8032621  38.0032278  14.2799960  64.6339765  38.9637623
   8.0761382  61.3521379  34.1453175   7.1511879  61.2197593  34.3530867
   8.3245796  62.1315598  34.6423117  18.0246045  57.4190122  35.7913908
  17.1162922  57.3505530  35.4972669  17.9733640  57.8962067  36.6195733
  11.8462789  58.8948260  27.4297307  11.7262414  59.3405311  28.2682787
  11.1515377  59.2433578  26.8710845   5.4370193  60.9954652  34.9796964
   5.5662575  61.2489131  35.8936376   4.7567645  61.5882360  34.6601619
   9.6069681  71.6651902  31.0787438   9.5293710  72.6159727  31.1575919
   9.0031324  71.3197775  31.7362364  12.0986910  58.8379768  43.7348805
  11.3220245  59.3973688  43.7251670  12.7377474  59.3236551  44.2563675
  19.8907691  55.6206560  37.5691782  19.2482071  55.9139093  36.9231576
  19.3862620  55.5059481  38.3744978  17.5447855  59.3669734  28.2577641
  18.4565711  59.5997120  28.0825339  17.0357502  59.9506778  27.6952720
  10.3533283  61.6465221  43.2966772  11.0947967  62.1850265  43.0201596
   9.6470268  62.2731510  43.4538324  15.8288622  63.7894361  41.8938934
  16.2371978  63.3476772  41.1493566  15.1065884  63.2146989  42.1473126
  12.1819692  58.7266968  39.2672491  13.0280888  59.1506382  39.4107140
  12.1218330  58.0700592  39.9611054  16.1517437  64.3495552  35.6491222
  15.5226299  64.5141266  34.9467290  15.7643099  64.7637162  36.4202186
  20.0306669  65.2849990  33.0035586  19.3457707  65.6648891  32.4532620
  20.1150518  65.8945316  33.7367534  15.3319138  56.3871336  40.9253664
  15.0880070  57.1413397  40.3887940  15.6079068  56.7656684  41.7600911
  17.2857601  62.9309949  39.6030930  17.4974496  63.5741709  38.9265311
  17.2387349  62.0972265  39.1352860  14.8883830  55.5427769  36.5067502
  14.0268309  55.8409023  36.7984239  14.9146264  55.7598168  35.5748535
  11.7045399  64.0869960  32.9141308  12.1683744  64.3657663  32.1245930
  11.4402197  63.1853405  32.7314398   8.5969480  63.6341442  35.8521071
   9.1670837  64.0628710  35.2138555   9.1877592  63.3524026  36.5505256
  10.6414285  60.2093112  29.7230873  11.3438328  60.6614156  30.1904799
  10.3094913  59.5676931  30.3510766   9.0894647  58.8004869  44.0982082
   8.4593307  59.4821150  44.3317479   8.9830734  58.6887951  43.1535220
   4.3839619  58.4676665  35.0248006   3.5938673  58.7234194  34.5488117
   4.8750866  59.2825003  35.1300047  18.4003428  65.8081904  37.7753287
  19.2220872  65.4062092  37.4935969  18.3965831  65.7050138  38.7269403
   6.3354364  58.8321244  31.9831483   5.5385528  58.9439939  32.5014979
   6.1079957  59.1707897  31.1172373  12.1660032  65.3565948  39.9313998
  12.2304464  65.8186355  40.7672169  11.4570956  64.7263312  40.0596307
   2.6677322  58.7207156  37.4562997   2.9185360  59.6054165  37.7220573
   3.2036870  58.5411757  36.6838089  26.4909422  62.1520653  34.1238259
  25.7373130  61.5828051  33.9682263  26.6256963  62.1183317  35.0708893
  11.8808050  67.0234055  29.7992978  11.7453724  67.8685591  30.2277826
  12.4217862  67.2253333  29.0358912   8.3675389  53.1025635  46.4607333
   7.9742335  52.5491833  47.1354977   9.1841530  53.4136213  46.8513851
   5.3337447  64.5409493  30.3720903   5.8461968  65.3352743  30.5226468
   5.9860160  63.8435784  30.3054504   7.1432332  67.6575249  32.4543656
   7.3198960  68.5793214  32.2664640   7.9389165  67.3433669  32.8838036
  11.2843350  54.5183514  44.0527590  12.0253064  55.1190667  43.9732052
  11.5161273  53.7761152  43.4945632   6.4284688  59.7039881  42.3305819
   6.3138203  58.8025138  42.6312918   5.5729206  59.9503578  41.9790636
  13.5076526  67.6457622  43.9293320  13.0640380  66.8594000  43.6114224
  14.1693740  67.8336772  43.2637211   8.2663647  69.1753423  38.4553999
   8.8171072  69.0470487  37.6830992   7.4275123  69.4748312  38.1048891
  15.6057764  67.9260421  41.9574721  15.5876239  68.7469303  41.4654990
  16.5277684  67.8014497  42.1824862  12.0630818  65.4404551  42.7998230
  12.5959155  64.6792839  42.5697538  11.5344899  65.1478203  43.5422384
  15.2300513  50.5464617  38.3291871  14.8864783  51.4366259  38.2530982
  15.5979476  50.3566275  37.4661456   3.2986364  62.8698147  31.1480474
   4.1361586  63.2795156  30.9314181   3.4764631  61.9297590  31.1180667
  15.1950796  60.5373228  26.8364306  14.6797419  61.3077833  27.0752694
  14.9228104  59.8638364  27.4597368  12.7797907  55.3822929  31.8949545
  11.9239503  54.9929779  31.7155184  13.1924859  55.4614890  31.0349330
  14.3097054  52.9169272  36.2941105  13.8061849  52.8799407  35.4808910
  14.6027660  53.8262015  36.3537761  10.5539939  53.0008002  35.3007286
  11.4192936  52.8050810  34.9413176  10.6217448  52.7718354  36.2276643
  20.1685070  63.2905583  28.7717480  19.3914513  62.9516742  28.3272642
  20.8476551  63.2958206  28.0972445  14.9837099  58.4100320  28.6624088
  14.6787235  58.7246469  29.5134231  15.9367541  58.4881740  28.7051421
  13.4283531  64.5690543  30.3117042  12.9004892  63.8343303  29.9990279
  12.9271034  65.3465220  30.0657010  18.4076377  62.7639564  35.4284088
  17.7500051  63.4538825  35.5164217  19.2116776  63.1535996  35.7718074
   8.1602259  55.2310210  32.6723653   8.7346010  55.0085391  31.9396846
   8.7473241  55.2998904  33.4252254  17.2181836  61.1183937  33.4788030
  17.7313717  61.7513928  33.9809739  17.8683060  60.5185132  33.1131390
   8.4871846  57.2614671  26.6919538   7.6509158  57.5989357  27.0128813
   8.3476615  57.1263651  25.7546675  10.4624926  52.1051459  31.3998723
   9.8089339  51.7900476  30.7755337  10.4205400  51.4827199  32.1258546
  11.5736131  62.3870754  23.3152015  10.6663193  62.1560007  23.5143164
  12.0707163  61.5908373  23.5025996  14.4804210  71.0968261  26.2348701
  13.8065909  71.3999958  26.8433659  14.8670032  71.8997341  25.8854158
  13.6962667  58.5933392  35.7246370  12.7785228  58.8148339  35.5668058
  14.1122810  58.6679703  34.8658078  14.4797714  59.9924808  30.8549050
  15.2269533  60.5046205  30.5456173  14.7489304  59.6708861  31.7153444
  12.7524365  62.4883349  27.8376005  11.8435584  62.2042381  27.9348475
  12.7819448  62.9082427  26.9779312  17.9843632  66.0989938  31.6067172
  17.5305959  65.2580848  31.6632363  17.3537599  66.7351336  31.9441952
  16.9276552  57.0281924  32.8367840  16.1899308  56.5159310  33.1678082
  17.1803325  56.5882306  32.0251117  16.4276571  67.9366435  32.5416990
  16.7199546  68.4971492  31.8229356  16.9375192  68.2294996  33.2970150
  17.0288179  49.8058176  33.4309609  17.3347056  48.9455540  33.1435524
  17.7540784  50.3975796  33.2308603   3.3212535  60.2088863  31.8191207
   3.1236935  59.6158223  31.0942274   2.7659199  59.9041073  32.5367146
  11.3009259  60.1011969  33.9385800  11.3557868  59.1485806  33.8628277
  10.4900461  60.2571408  34.4227099  12.4500452  64.0292092  25.1764083
  12.0119882  63.3127951  24.7169721  13.1910893  64.2568207  24.6149175
   9.2401618  58.7189029  31.6976179   8.4269484  59.0183199  32.1041371
   9.7360613  58.3244718  32.4150661  11.3910196  68.7146786  33.6310444
  11.3486375  68.9407632  32.7018976  12.3072895  68.4810160  33.7796245
  14.8375830  59.1830853  40.5291073  15.1925218  59.4102327  41.3885539
  15.4847961  59.5149230  39.9068328  20.5673567  62.3049289  31.2340402
  20.4291466  62.4950885  30.3061591  20.2109786  63.0668672  31.6908453
   8.7315693  56.2907384  37.3137414   9.3715073  56.1496144  36.6160377
   7.8993224  56.0041898  36.9376016  20.5942947  64.3725816  36.2451673
  21.0279453  64.2801105  37.0934727  21.3074527  64.3483317  35.6071689
   9.5075997  65.5909815  33.4272406  10.3016596  65.0960135  33.2254981
   8.7967690  65.0627678  33.0640112  14.3270842  67.9727910  37.7784774
  14.3807864  68.5418847  38.5462490  13.4585623  68.1429795  37.4138811
   5.8158761  59.7352897  29.5032159   4.8856349  59.6737352  29.7202121
   5.9116233  59.2128849  28.7068800   5.7344310  56.2607709  32.0910401
   5.9951127  57.1753043  31.9819561   6.5561482  55.7932152  32.2407014
   7.2069235  57.6745467  39.2609225   7.8792288  57.4662829  38.6121874
   6.3799022  57.4767553  38.8214458  21.4558496  64.4149517  38.7784559
  21.6494386  65.3195327  39.0243834  21.3559114  63.9556936  39.6123144
  13.1094807  54.3007408  41.2774886  12.4622722  54.9997357  41.1839363
  13.8795822  54.7343551  41.6451134  16.5173605  64.5656260  44.3525439
  16.3659111  64.3366811  43.4355523  16.5078284  65.5226861  44.3656784
  13.2858941  62.1388172  39.3371706  14.2151001  62.2899332  39.1640673
  12.8649971  62.2272193  38.4820352  12.0847273  66.1638837  37.1070244
  11.9458359  65.7957621  37.9796182  11.2961869  66.6786476  36.9354201
  12.6795425  71.2647933  28.4495780  12.8547181  70.7935977  29.2641403
  11.9928213  71.8913700  28.6777041  13.6352488  65.5420440  34.4959081
  13.3002321  65.5021210  35.3916731  13.1356434  64.8765155  34.0229492
   7.6096732  60.9488070  40.0211662   7.4716530  60.2168308  40.6223201
   8.5201656  60.8596970  39.7395850  16.5711680  62.8876474  24.7696141
  15.9540851  62.1623302  24.6729194  16.1028168  63.6485834  24.4263215
  10.2379033  60.6608029  39.5095342  10.9478651  60.0201221  39.4681961
  10.1948341  60.9120924  40.4321523  18.2265812  67.5975382  42.4301921
  18.1678358  66.9134602  41.7632504  18.6285330  68.3394372  41.9782547
   8.9507967  57.6473247  41.3290982   8.4145324  57.1963985  41.9812578
   8.3624675  57.7819156  40.5861446   7.2456510  74.4137296  35.2235640
   7.4853109  75.0455820  35.9014659   6.4025707  74.0625336  35.5100999
   8.3610226  57.1061898  23.8917445   7.4839692  56.9850699  23.5279692
   8.8367979  56.3147977  23.6396334  18.2283219  65.5614966  40.6615901
  17.3409998  65.2240888  40.7842300  18.7981770  64.8297997  40.8984666
   4.6847088  56.7829254  38.4143976   4.6005277  56.1754924  37.6794386
   3.8629795  57.2738273  38.4153472  11.7584372  70.2216419  37.6277144
  11.6854544  71.0271390  38.1396449  11.3161765  70.4208384  36.8025166
  11.5474152  69.4588189  31.1379966  10.7641674  70.0009869  31.2318190
  12.2466897  69.9762168  31.5374207  14.8570802  55.2682818  33.7814171
  15.3539502  54.5152780  33.4615241  14.0857784  55.3047135  33.2157380
  22.7100559  60.9723184  35.4232463  22.6990436  61.8547899  35.0526396
  21.8417939  60.6194734  35.2287000  14.2183056  70.1203253  39.7835303
  14.9311028  70.7550717  39.7111204  13.7273084  70.2167119  38.9675305
  15.9400583  64.0254505  31.3552595  15.0056861  64.1455968  31.1857299
  16.1177251  63.1226972  31.0912604  11.4405771  57.4100201  33.5085856
  11.0703558  56.8571241  34.1966761  11.9364863  56.8058334  32.9560856
  19.3273134  59.8671825  31.8902629  19.7933586  60.6999816  31.8162931
  19.7780635  59.4016806  32.5947887   9.2694969  67.8697696  40.6040874
   9.9704429  68.5034179  40.7570268   8.7990084  68.2112428  39.8436513
  17.3949365  66.2115646  28.8888781  17.6709209  66.0972240  29.7982655
  16.5253864  65.8133131  28.8500954  17.2989797  52.2352412  35.9293530
  16.3852877  52.4656638  36.0975737  17.7282898  52.3190856  36.7807562
  17.0696255  60.4242303  38.4293424  16.4167706  60.6718211  37.7745877
  17.4476635  59.6106442  38.0955901  14.0303429  70.4601997  32.5321594
  14.2125824  69.6423653  32.9949347  14.8536415  70.6769689  32.0946484
  14.3645595  69.3870182  29.7936643  14.8933361  68.8762636  29.1806805
  14.6273814  69.0712712  30.6582176  13.1183828  61.1662115  44.9159461
  12.4424465  61.0656244  45.5861836  13.9411462  61.0101328  45.3795458
   4.8662687  67.4034051  37.5371976   5.4516124  66.6577739  37.6699881
   4.6687526  67.7138008  38.4208640   7.7201343  70.4385298  32.5534419
   7.0511718  70.9231426  32.0698459   7.5814212  70.6854519  33.4677797
  11.8606611  72.4729042  39.1517077  12.4124919  72.6360663  39.9166162
  12.2012805  73.0633480  38.4797102   6.8371104  54.8204192  39.7538962
   6.9012431  55.6819023  39.3416359   6.7738225  54.2078193  39.0211320
   6.3123377  56.8927324  43.4011996   6.9395416  56.5104402  44.0149520
   5.4551296  56.6741526  43.7667689  16.7117486  67.2990300  45.0065732
  17.2557389  67.9120258  44.5120686  16.1304330  67.8569878  45.5232745
   3.0888920  58.7003753  29.3330351   3.3842361  57.7914432  29.2797405
   2.1876955  58.6791493  29.0111353  14.9974998  70.4211018  36.1380759
  14.8726138  69.6200757  35.6291705  15.6554090  70.9157211  35.6494729
   6.6183167  56.7759750  35.3157899   5.8969752  57.3895718  35.1765373
   7.4076422  57.3117515  35.2374545  17.0609907  68.2220038  37.7660309
  16.1140242  68.1025389  37.6938636  17.4092680  67.3342536  37.8486571
   9.4209480  54.1114177  41.5898551   9.9443882  54.3576473  42.3524861
   9.2021813  54.9434211  41.1701689   4.8176761  56.3817851  29.4569676
   4.4889467  55.5015230  29.2744782   5.1716132  56.3265520  30.3446065
  14.0656340  68.0172754  33.9664662  13.9181303  67.0889461  34.1472232
  14.8909834  68.0392845  33.4821737   7.9318584  56.6690821  29.8245154
   8.2714657  57.1976742  29.1023762   8.3790705  57.0071227  30.6003720
  17.6690462  68.8401313  35.0529534  18.5937009  68.6344174  34.9153985
  17.5005765  68.5917714  35.9618876  10.6262025  55.0527872  39.2748222
  10.2858846  54.2535685  39.6768902   9.9201032  55.3529582  38.7025055
  11.2778497  52.1377184  37.7275545  12.1004566  51.6637662  37.6054435
  11.5216561  52.9167668  38.2274231   9.9186732  55.1665442  28.0238446
  10.6395094  55.5446695  27.5202163   9.2952036  55.8854319  28.1273424
  14.0617854  55.8710591  28.9596779  14.2781469  56.7535229  28.6585607
  13.5811922  55.4796805  28.2302421   8.8017076  58.8296305  35.5367523
   8.6561657  59.1436608  36.4291805   8.3242279  59.4481205  34.9838422
  10.6613459  55.8198853  35.5848413  10.6475027  54.9239946  35.2480711
  11.3785887  55.8269516  36.2186699  12.5139589  56.2536193  37.6301540
  12.2557367  57.1753264  37.6285871  11.9824630  55.8566627  38.3202005
  17.4585778  69.3586980  30.4091626  17.6322656  68.7933402  29.6565478
  17.9514669  70.1587875  30.2271116   3.2762738  61.3701649  38.4755185
   2.7316206  62.1461457  38.6075459   4.1542088  61.7172454  38.3174306
  10.0650355  54.7013233  30.8535983  10.1866266  53.7729879  31.0526871
   9.7752397  54.7151919  29.9414299  12.9341545  52.3868143  33.9902703
  12.9563242  52.4507476  33.0354682  13.3509604  51.5472652  34.1843209
  23.3125169  62.1223403  32.0281926  23.7556315  61.3730728  31.6301049
  22.4351680  62.1133539  31.6455657  18.4460951  68.6753744  27.5088524
  19.1411855  69.2960437  27.7275839  18.7884101  67.8249096  27.7840902
   4.0628760  60.4971545  41.3685341   3.3210496  60.6454181  41.9549972
   3.7421504  60.7579811  40.5052091  20.3452374  66.1253450  29.0375855
  20.8703698  66.4640723  28.3125175  20.2574726  65.1900465  28.8538989
  12.0072423  70.0387524  41.1665731  12.3159549  69.7936670  42.0388431
  12.8047905  70.2434162  40.6784602  12.0293035  72.1925433  33.3971108
  11.5898025  71.7001812  34.0903965  12.7801152  71.6498401  33.1563183
   4.5085374  68.3836974  33.3995736   5.3343393  68.0840746  33.0194380
   4.1579426  67.6144597  33.8485525   9.4766907  67.7363442  35.4693410
   8.8546916  67.0734147  35.1695638  10.1471774  67.7624574  34.7867057
   2.7093979  66.3023301  34.3584670   1.8725887  65.8745475  34.1768671
   2.6817624  66.4955744  35.2955461   9.5491434  56.2145230  45.0625916
   9.5979590  57.0907353  44.6803685  10.0913948  55.6722623  44.4897559
  20.0346280  66.7586354  44.3427053  19.2441824  66.7410492  43.8031552
  19.7979634  67.2974647  45.0976089  20.1544155  63.6078820  41.6559781
  20.2042160  63.4428827  42.5975304  20.0458078  62.7406079  41.2657662
   9.0380414  66.2867366  28.9451870   9.1868534  66.9702830  28.2918543
   9.8446857  66.2672456  29.4601326  17.4447917  59.5909748  42.9719088
  18.3457780  59.4516213  42.6803086  17.5195892  59.7564203  43.9117265
  11.7790723  56.9676603  41.8172274  10.9094032  57.2610169  41.5454863
  12.0150203  57.5517048  42.5379538  21.6562352  66.0275761  41.9001803
  21.3647160  66.3905742  42.7365264  21.0434483  65.3142770  41.7215135
  22.8558034  63.5928641  34.4204373  23.6904925  64.0318445  34.5841933
  22.9917163  63.1167294  33.6012619  19.9049540  61.1508376  40.3681861
  20.3803662  61.3436022  39.5600712  18.9815105  61.2067562  40.1225245
   6.7933047  62.3132543  29.9512939   6.5479089  61.4094873  30.1493149
   6.9628961  62.3149694  29.0092417  14.4829756  53.1856220  39.3337695
  15.0011700  53.9217247  39.0084183  14.1284889  53.4920213  40.1684454
   6.0628694  58.0460901  27.4499101   5.3697939  58.1205256  26.7939137
   5.8180446  57.2821244  27.9720618  14.7342351  49.6056502  34.8538591
  15.0144104  48.9379691  35.4799018  15.5192958  49.7985598  34.3413255
  12.5375819  68.7815496  26.4163618  11.9649786  69.4005683  25.9634090
  13.1108613  69.3314858  26.9503540  18.6051209  58.0274136  38.6010166
  19.5568632  58.1272234  38.6222390  18.4354659  57.2352405  39.1108251
  16.6265588  55.1129719  38.7869567  16.0315521  55.3934732  38.0916056
  16.3415285  55.6023620  39.5586308  15.7573079  69.0652646  27.5472200
  16.6903752  68.9998208  27.7505075  15.6696292  69.9008913  27.0886733
  18.3861096  68.3818517  24.5076147  18.3074727  68.0478380  25.4011905
  19.2070762  68.8740284  24.5067620  21.0839287  61.2480256  37.7152466
  21.0515607  60.3096257  37.9012150  21.6939910  61.3264293  36.9818291
  12.9222618  60.1176309  23.7579670  13.8681722  59.9882517  23.8268088
  12.5436863  59.3790971  24.2349098  21.2333775  58.0391299  37.7610749
  20.7172824  57.2549756  37.5740678  22.1173724  57.7110016  37.9257269
  18.8944502  51.7832315  33.7206562  18.6969323  51.4747403  34.6049894
  19.5044208  52.5093954  33.8504492  26.9015837  62.3096263  36.8558503
  27.6319225  62.0481551  37.4166206  26.2922782  61.5724985  36.8960571
  24.9831134  60.4504125  37.4532954  24.2564297  60.3160090  36.8449446
  24.5678421  60.7580954  38.2589672  12.8061310  64.1694055  45.2180327
  13.7264320  64.3472654  45.4120374  12.7710893  63.2250100  45.0660026
  11.1065535  58.0426285  23.6934555  10.1996990  57.7459398  23.7697269
  11.3841516  57.7456103  22.8268842   2.0243475  59.3632649  34.1433602
   1.7046260  58.5097957  33.8507976   1.4776903  59.5781227  34.8991569
   5.8023383  62.0795090  37.8603108   6.0209393  63.0112197  37.8791142
   6.2149157  61.7203064  38.6457912  12.7227601  52.5863175  29.8478797
  11.9128329  52.2410260  30.2234043  13.4112017  52.2770719  30.4366408
  14.6518149  51.6641222  31.4703093  15.2049187  52.0836675  32.1293116
  14.8888235  50.7376970  31.5126049  10.6751248  57.6528295  47.2505857
  10.5747975  58.6022652  47.1817948  10.4572790  57.3246534  46.3781927
   9.8764319  54.9013220  23.8346535  10.7383483  55.2268119  24.0942352
  10.0614664  54.1144716  23.3219600   1.8931735  62.9835560  36.1126723
   1.1995207  62.5689513  35.5996678   2.6404726  63.0256097  35.5160142
  18.0296956  53.7741747  30.9781758  17.4495625  54.4326551  30.5959810
  17.7632889  52.9519092  30.5669175  16.4800522  53.1746805  33.1803078
  16.9800301  53.2863339  32.3717397  17.1236130  52.8707857  33.8203886
  10.5382518  61.0825434  46.0670919  10.0549600  61.8825794  46.2734808
  10.6243457  61.0933379  45.1138363   3.8068478  62.9153814  33.9892738
   3.7839166  63.0141501  33.0374621   4.1169114  63.7618965  34.3109904
   6.4655856  64.9729969  38.1039353   7.4199109  64.9413911  38.0369284
   6.2668379  64.5120593  38.9189579   7.0555238  63.5431085  40.6710150
   7.8748127  64.0375164  40.6944988   7.3292045  62.6263053  40.6427718
  16.8121834  55.9341837  30.0338106  15.9247689  56.2191488  29.8158301
  17.2275823  55.7735601  29.1865383  20.1636370  55.9588358  33.7492445
  20.9396760  56.4484811  34.0217062  19.4384504  56.3846412  34.2064315
  22.6008929  56.6715977  34.8066386  23.1953419  56.4311713  34.0959694
  22.6735512  55.9523108  35.4339922   4.8206084  70.5149588  35.1209551
   4.6860552  69.7549989  34.5547549   4.4038147  71.2390488  34.6538339
  15.9565047  65.6986512  24.1286126  16.6600898  65.9036514  24.7443781
  15.2327696  66.2663274  24.3935209  16.7862858  61.4496373  30.2488396
  16.7298059  61.9064925  29.4096028  17.3391200  60.6887058  30.0711239
  20.5967664  57.2386105  31.0738515  20.3404598  56.8382741  31.9046723
  19.9720532  57.9529899  30.9488655  24.9080001  59.9782178  33.5809807
  24.3479559  60.0475368  34.3541369  24.3023505  59.8023163  32.8609303
   7.9775210  71.4118905  35.3327993   7.8607594  72.3564338  35.2306683
   7.1567657  71.1092467  35.7213792  17.8651745  66.1369041  26.1784586
  18.6997349  65.7050240  25.9962061  17.7036088  65.9651055  27.1061480
  17.5197637  62.6401154  27.5440925  17.4646441  62.4745426  26.6029369
  16.8943692  63.3477187  27.7003115   2.3090152  57.8769219  41.3702347
   2.9549016  57.3668173  41.8589573   2.1007303  58.6137900  41.9445773
  14.8343544  64.9450066  46.8694488  15.7034704  65.1190719  46.5081123
  14.3550296  65.7644483  46.7470217  10.8293762  52.1409263  27.1226244
  10.8172432  53.0851103  27.2794514  11.7217184  51.9579409  26.8285705
   9.0029724  72.0647167  38.5483922   9.9056971  72.0970778  38.8650417
   8.7767094  71.1347618  38.5630257  10.7583326  70.8178154  35.2094000
   9.8078957  70.8180015  35.0958372  11.0615813  70.0710888  34.6930035
  14.6445882  48.7352040  31.3772180  13.8778278  48.1810527  31.5228863
  15.0556587  48.8073909  32.2386332   6.6487643  55.0236836  45.4677362
   7.5119105  54.6673641  45.6780686   6.0753054  54.6850731  46.1552766
  26.4936020  76.6538692  36.2739763  27.1314430  76.5345440  35.5703103
  26.3756863  77.6019536  36.3327715  23.3025726  76.6066120  36.2101287
  22.9644238  76.4907185  35.3221822  24.1715494  76.2057285  36.1902293
  19.1612542  78.4601597  32.1998178  18.5977407  78.3691534  31.4314466
  19.0464937  77.6401501  32.6800671  23.7845509  77.7600972  42.1687493
  23.7734150  77.3653770  41.2967996  23.9466149  77.0267045  42.7621264
  16.7076974  79.9552788  35.0382399  17.4998266  79.6143613  34.6228698
  16.9473624  80.0647763  35.9584552  24.7412101  82.1272564  27.5112643
  24.0900080  82.7126645  27.1246657  25.5356463  82.6578759  27.5707681
  18.6667728  79.2161702  27.9099778  19.4398604  78.6690689  27.7712653
  19.0193127  80.0805951  28.1214239  20.5052770  80.5438084  41.1166677
  20.2142636  81.4483715  41.0013343  21.1409755  80.5854612  41.8310746
  21.4308977  77.9214932  37.7068036  22.0272549  77.6970955  36.9924999
  21.4883949  77.1799678  38.3093484  21.0034006  75.3754368  25.5418227
  21.2559526  74.8535889  24.7801690  20.0658565  75.2120513  25.6444911
  26.0477288  74.3790146  33.3492971  26.8340378  73.9609569  32.9983388
  26.3115993  75.2836238  33.5174619  26.2187366  79.8162996  28.0481627
  25.5833199  79.8897623  28.7602532  25.8884772  80.4056595  27.3700707
  31.4485716  74.3165379  34.2525949  32.1810887  73.7464596  34.4863779
  30.6925071  73.9286980  34.6932455  20.7230294  77.2782474  27.7442602
  20.6066552  76.6027377  28.4123687  20.8332554  76.7914848  26.9274755
  23.0661835  76.7392621  31.4489292  22.7020042  76.2123242  32.1602213
  23.9228951  76.3491090  31.2755777  28.9711136  68.0286953  38.7120558
  28.6394461  68.8982364  38.4881773  28.3756749  67.7123237  39.3914588
  22.7067322  71.7682521  26.4450640  22.8741725  72.6362757  26.8121111
  22.5164491  71.9309802  25.5211929  25.4642655  80.2299499  38.1116470
  25.1643378  81.1324538  38.0032278  25.1193715  79.9631683  38.9637623
  18.9155137  76.6813296  34.1453175  17.9905633  76.5489510  34.3530867
  19.1639550  77.4607516  34.6423117  28.8639799  72.7482040  35.7913908
  27.9556677  72.6797448  35.4972669  28.8127395  73.2253985  36.6195733
  22.6856543  74.2240178  27.4297307  22.5656168  74.6697229  28.2682787
  21.9909131  74.5725496  26.8710845  16.2763948  76.3246570  34.9796964
  16.4056329  76.5781049  35.8936376  15.5961399  76.9174278  34.6601619
  20.4463435  86.9943820  31.0787438  20.3687465  87.9451645  31.1575919
  19.8425079  86.6489692  31.7362364  22.9380665  74.1671685  43.7348805
  22.1613999  74.7265605  43.7251670  23.5771228  74.6528468  44.2563675
  30.7301446  70.9498478  37.5691782  30.0875826  71.2431011  36.9231576
  30.2256374  70.8351398  38.3744978  28.3841609  74.6961651  28.2577641
  29.2959465  74.9289038  28.0825339  27.8751256  75.2798695  27.6952720
  21.1927037  76.9757139  43.2966772  21.9341722  77.5142183  43.0201596
  20.4864023  77.6023427  43.4538324  26.6682377  79.1186279  41.8938934
  27.0765733  78.6768690  41.1493566  25.9459638  78.5438907  42.1473126
  23.0213447  74.0558886  39.2672491  23.8674642  74.4798299  39.4107140
  22.9612085  73.3992510  39.9611054  26.9911192  79.6787470  35.6491222
  26.3620054  79.8433184  34.9467290  26.6036854  80.0929079  36.4202186
  30.8700423  80.6141908  33.0035586  30.1851462  80.9940809  32.4532620
  30.9544273  81.2237234  33.7367534  26.1712892  71.7163254  40.9253664
  25.9273824  72.4705315  40.3887940  26.4472823  72.0948602  41.7600911
  28.1251355  78.2601867  39.6030930  28.3368250  78.9033626  38.9265311
  28.0781103  77.4264183  39.1352860  25.7277584  70.8719687  36.5067502
  24.8662063  71.1700941  36.7984239  25.7540019  71.0890086  35.5748535
  22.5439153  79.4161878  32.9141308  23.0077499  79.6949581  32.1245930
  22.2795952  78.5145322  32.7314398  19.4363234  78.9633359  35.8521071
  20.0064592  79.3920628  35.2138555  20.0271346  78.6815944  36.5505256
  21.4808039  75.5385030  29.7230873  22.1832083  75.9906074  30.1904799
  21.1488668  74.8968849  30.3510766  19.9288401  74.1296787  44.0982082
  19.2987062  74.8113068  44.3317479  19.8224489  74.0179868  43.1535220
  15.2233373  73.7968583  35.0248006  14.4332427  74.0526111  34.5488117
  15.7144621  74.6116921  35.1300047  29.2397183  81.1373822  37.7753287
  30.0614627  80.7354009  37.4935969  29.2359586  81.0342056  38.7269403
  17.1748119  74.1613162  31.9831483  16.3779282  74.2731856  32.5014979
  16.9473711  74.4999814  31.1172373  23.0053786  80.6857865  39.9313998
  23.0698219  81.1478272  40.7672169  22.2964710  80.0555230  40.0596307
  13.5071076  74.0499073  37.4562997  13.7579115  74.9346083  37.7220573
  14.0430625  73.8703675  36.6838089  37.3303176  77.4812570  34.1238259
  36.5766884  76.9119969  33.9682263  37.4650717  77.4475235  35.0708893
  22.7201804  82.3525973  29.7992978  22.5847479  83.1977508  30.2277826
  23.2611617  82.5545250  29.0358912  19.2069144  68.4317553  46.4607333
  18.8136089  67.8783751  47.1354977  20.0235284  68.7428131  46.8513851
  16.1731201  79.8701411  30.3720903  16.6855722  80.6644661  30.5226468
  16.8253914  79.1727701  30.3054504  17.9826086  82.9867167  32.4543656
  18.1592715  83.9085132  32.2664640  18.7782920  82.6725586  32.8838036
  22.1237105  69.8475432  44.0527590  22.8646818  70.4482585  43.9732052
  22.3555028  69.1053069  43.4945632  17.2678443  75.0331799  42.3305819
  17.1531958  74.1317056  42.6312918  16.4122960  75.2795496  41.9790636
  24.3470280  82.9749539  43.9293320  23.9034135  82.1885918  43.6114224
  25.0087494  83.1628690  43.2637211  19.1057402  84.5045341  38.4553999
  19.6564827  84.3762404  37.6830992  18.2668878  84.8040230  38.1048891
  26.4451519  83.2552339  41.9574721  26.4269994  84.0761220  41.4654990
  27.3671439  83.1306414  42.1824862  22.9024573  80.7696469  42.7998230
  23.4352909  80.0084757  42.5697538  22.3738654  80.4770120  43.5422384
  26.0694268  65.8756535  38.3291871  25.7258537  66.7658176  38.2530982
  26.4373230  65.6858192  37.4661456  14.1380118  78.1990065  31.1480474
  14.9755340  78.6087073  30.9314181  14.3158386  77.2589507  31.1180667
  26.0344550  75.8665146  26.8364306  25.5191174  76.6369750  27.0752694
  25.7621859  75.1930282  27.4597368  23.6191661  70.7114847  31.8949545
  22.7633258  70.3221697  31.7155184  24.0318613  70.7906807  31.0349330
  25.1490808  68.2461190  36.2941105  24.6455604  68.2091325  35.4808910
  25.4421415  69.1553932  36.3537761  21.3933694  68.3299919  35.3007286
  22.2586691  68.1342728  34.9413176  21.4611203  68.1010271  36.2276643
  31.0078825  78.6197500  28.7717480  30.2308267  78.2808660  28.3272642
  31.6870305  78.6250124  28.0972445  25.8230854  73.7392238  28.6624088
  25.5180989  74.0538387  29.5134231  26.7761296  73.8173658  28.7051421
  24.2677285  79.8982461  30.3117042  23.7398647  79.1635221  29.9990279
  23.7664788  80.6757137  30.0657010  29.2470131  78.0931482  35.4284088
  28.5893806  78.7830743  35.5164217  30.0510531  78.4827914  35.7718074
  18.9996013  70.5602127  32.6723653  19.5739765  70.3377309  31.9396846
  19.5866995  70.6290822  33.4252254  28.0575590  76.4475854  33.4788030
  28.5707472  77.0805846  33.9809739  28.7076814  75.8477050  33.1131390
  19.3265600  72.5906588  26.6919538  18.4902912  72.9281275  27.0128813
  19.1870370  72.4555568  25.7546675  21.3018681  67.4343376  31.3998723
  20.6483093  67.1192393  30.7755337  21.2599155  66.8119117  32.1258546
  22.4129886  77.7162671  23.3152015  21.5056947  77.4851925  23.5143164
  22.9100918  76.9200291  23.5025996  25.3197964  86.4260179  26.2348701
  24.6459663  86.7291875  26.8433659  25.7063786  87.2289259  25.8854158
  24.5356421  73.9225310  35.7246370  23.6178982  74.1440257  35.5668058
  24.9516565  73.9971620  34.8658078  25.3191469  75.3216726  30.8549050
  26.0663288  75.8338123  30.5456173  25.5883058  75.0000778  31.7153444
  23.5918119  77.8175266  27.8376005  22.6829338  77.5334299  27.9348475
  23.6213203  78.2374345  26.9779312  28.8237386  81.4281856  31.6067172
  28.3699714  80.5872766  31.6632363  28.1931353  82.0643254  31.9441952
  27.7670306  72.3573842  32.8367840  27.0293063  71.8451228  33.1678082
  28.0197080  71.9174223  32.0251117  27.2670326  83.2658352  32.5416990
  27.5593300  83.8263410  31.8229356  27.7768946  83.5586913  33.2970150
  27.8681933  65.1350094  33.4309609  28.1740810  64.2747457  33.1435524
  28.5934538  65.7267714  33.2308603  14.1606289  75.5380780  31.8191207
  13.9630689  74.9450141  31.0942274  13.6052953  75.2332991  32.5367146
  22.1403013  75.4303887  33.9385800  22.1951623  74.4777723  33.8628277
  21.3294215  75.5863326  34.4227099  23.2894207  79.3584010  25.1764083
  22.8513637  78.6419869  24.7169721  24.0304648  79.5860125  24.6149175
  20.0795373  74.0480947  31.6976179  19.2663239  74.3475117  32.1041371
  20.5754367  73.6536635  32.4150661  22.2303951  84.0438704  33.6310444
  22.1880130  84.2699550  32.7018976  23.1466650  83.8102078  33.7796245
  25.6769585  74.5122771  40.5291073  26.0318972  74.7394244  41.3885539
  26.3241716  74.8441148  39.9068328  31.4067322  77.6341207  31.2340402
  31.2685220  77.8242803  30.3061591  31.0503540  78.3960590  31.6908453
  19.5709448  71.6199302  37.3137414  20.2108827  71.4788061  36.6160377
  18.7386978  71.3333816  36.9376016  31.4336701  79.7017734  36.2451673
  31.8673208  79.6093023  37.0934727  32.1468282  79.6775234  35.6071689
  20.3469752  80.9201733  33.4272406  21.1410350  80.4252053  33.2254981
  19.6361444  80.3919596  33.0640112  25.1664596  83.3019828  37.7784774
  25.2201618  83.8710764  38.5462490  24.2979377  83.4721713  37.4138811
  16.6552515  75.0644814  29.5032159  15.7250103  75.0029270  29.7202121
  16.7509987  74.5420767  28.7068800  16.5738064  71.5899627  32.0910401
  16.8344881  72.5044960  31.9819561  17.3955236  71.1224070  32.2407014
  18.0462989  73.0037384  39.2609225  18.7186043  72.7954746  38.6121874
  17.2192776  72.8059470  38.8214458  32.2952251  79.7441435  38.7784559
  32.4888141  80.6487245  39.0243834  32.1952869  79.2848854  39.6123144
  23.9488562  69.6299325  41.2774886  23.3016477  70.3289275  41.1839363
  24.7189577  70.0635469  41.6451134  27.3567359  79.8948177  44.3525439
  27.2052866  79.6658729  43.4355523  27.3472039  80.8518779  44.3656784
  24.1252696  77.4680090  39.3371706  25.0544756  77.6191250  39.1640673
  23.7043726  77.5564111  38.4820352  22.9241028  81.4930755  37.1070244
  22.7852113  81.1249539  37.9796182  22.1355624  82.0078394  36.9354201
  23.5189180  86.5939851  28.4495780  23.6940935  86.1227894  29.2641403
  22.8321968  87.2205617  28.6777041  24.4746243  80.8712357  34.4959081
  24.1396075  80.8313127  35.3916731  23.9750188  80.2057073  34.0229492
  18.4490487  76.2779987  40.0211662  18.3110285  75.5460226  40.6223201
  19.3595410  76.1888887  39.7395850  27.4105434  78.2168392  24.7696141
  26.7934605  77.4915220  24.6729194  26.9421923  78.9777752  24.4263215
  21.0772787  75.9899947  39.5095342  21.7872406  75.3493139  39.4681961
  21.0342096  76.2412841  40.4321523  29.0659566  82.9267300  42.4301921
  29.0072112  82.2426520  41.7632504  29.4679084  83.6686290  41.9782547
  19.7901721  72.9765164  41.3290982  19.2539078  72.5255903  41.9812578
  19.2018430  73.1111073  40.5861446  18.0850265  89.7429214  35.2235640
  18.3246863  90.3747738  35.9014659  17.2419461  89.3917254  35.5100999
  19.2003980  72.4353816  23.8917445  18.3233447  72.3142617  23.5279692
  19.6761733  71.6439894  23.6396334  29.0676973  80.8906884  40.6615901
  28.1803752  80.5532806  40.7842300  29.6375524  80.1589915  40.8984666
  10.7206120  77.2230976  33.9858952  11.4077160  76.9092706  33.3979968
  10.5654249  78.1272340  33.7126204  15.5240843  72.1121172  38.4143976
  15.4399031  71.5046842  37.6794386  14.7023549  72.6030190  38.4153472
  22.5978127  85.5508336  37.6277144  22.5248298  86.3563308  38.1396449
  22.1555520  85.7500302  36.8025166  22.3867906  84.7880106  31.1379966
  21.6035428  85.3301786  31.2318190  23.0860652  85.3054086  31.5374207
  25.6964556  70.5974736  33.7814171  26.1933256  69.8444698  33.4615241
  24.9251538  70.6339052  33.2157380  33.5494314  76.3015101  35.4232463
  33.5384190  77.1839817  35.0526396  32.6811693  75.9486652  35.2287000
  25.0576810  85.4495170  39.7835303  25.7704782  86.0842635  39.7111204
  24.5666839  85.5459036  38.9675305  26.7794337  79.3546423  31.3552595
  25.8450616  79.4747885  31.1857299  26.9571006  78.4518890  31.0912604
  22.2799525  72.7392119  33.5085856  21.9097313  72.1863159  34.1966761
  22.7758618  72.1350252  32.9560856  30.1666889  75.1963742  31.8902629
  30.6327341  76.0291734  31.8162931  30.6174389  74.7308724  32.5947887
  20.1088724  83.1989614  40.6040874  20.8098183  83.8326097  40.7570268
  19.6383839  83.5404345  39.8436513  28.2343120  81.5407563  28.8888781
  28.5102964  81.4264158  29.7982655  27.3647618  81.1425048  28.8500954
  28.1383551  67.5644329  35.9293530  27.2246631  67.7948556  36.0975737
  28.5676653  67.6482773  36.7807562  27.9090010  75.7534221  38.4293424
  27.2561460  76.0010129  37.7745877  28.2870390  74.9398359  38.0955901
  24.8697184  85.7893914  32.5321594  25.0519578  84.9715570  32.9949347
  25.6930170  86.0061607  32.0946484  25.2039349  84.7162099  29.7936643
  25.7327116  84.2054554  29.1806805  25.4667569  84.4004630  30.6582176
  23.9577583  76.4954032  44.9159461  23.2818220  76.3948162  45.5861836
  24.7805217  76.3393246  45.3795458  15.7056442  82.7325969  37.5371976
  16.2909879  81.9869657  37.6699881  15.5081280  83.0429925  38.4208640
  18.5595097  85.7677216  32.5534419  17.8905472  86.2523344  32.0698459
  18.4207967  86.0146437  33.4677797  10.2974097  75.3031569  36.2576419
  10.3358196  74.7695160  37.0513538   9.7914389  74.7766774  35.6387397
  22.7000366  87.8020960  39.1517077  23.2518674  87.9652581  39.9166162
  23.0406559  88.3925397  38.4797102  17.6764859  70.1496109  39.7538962
  17.7406185  71.0110940  39.3416359  17.6131979  69.5370111  39.0211320
  17.1517131  72.2219242  43.4011996  17.7789170  71.8396319  44.0149520
  16.2945050  72.0033444  43.7667689  27.5511240  82.6282217  45.0065732
  28.0951144  83.2412175  44.5120686  26.9698085  83.1861796  45.5232745
  13.9282674  74.0295671  29.3330351  14.2236115  73.1206350  29.2797405
  13.0270710  74.0083411  29.0111353  25.8368753  85.7502935  36.1380759
  25.7119892  84.9492675  35.6291705  26.4947844  86.2449129  35.6494729
  17.4576921  72.1051668  35.3157899  16.7363507  72.7187635  35.1765373
  18.2470177  72.6409433  35.2374545  27.9003661  83.5511955  37.7660309
  26.9533997  83.4317306  37.6938636  28.2486434  82.6634453  37.8486571
  20.2603235  69.4406094  41.5898551  20.7837637  69.6868391  42.3524861
  20.0415568  70.2726129  41.1701689  15.6570516  71.7109769  29.4569676
  15.3283222  70.8307148  29.2744782  16.0109886  71.6557437  30.3446065
  24.9050095  83.3464672  33.9664662  24.7575057  82.4181379  34.1472232
  25.7303588  83.3684762  33.4821737  18.7712339  71.9982739  29.8245154
  19.1108411  72.5268660  29.1023762  19.2184459  72.3363145  30.6003720
  28.5084216  84.1693230  35.0529534  29.4330764  83.9636092  34.9153985
  28.3399520  83.9209631  35.9618876  21.4655780  70.3819789  39.2748222
  21.1252600  69.5827602  39.6768902  20.7594786  70.6821500  38.7025055
  22.1172252  67.4669102  37.7275545  22.9398321  66.9929580  37.6054435
  22.3610315  68.2459585  38.2274231  20.7580486  70.4957360  28.0238446
  21.4788849  70.8738613  27.5202163  20.1345790  71.2146237  28.1273424
  24.9011609  71.2002509  28.9596779  25.1175223  72.0827147  28.6585607
  24.4205676  70.8088723  28.2302421  19.6410830  74.1588222  35.5367523
  19.4955411  74.4728525  36.4291805  19.1636034  74.7773123  34.9838422
  21.5007213  71.1490770  35.5848413  21.4868782  70.2531864  35.2480711
  22.2179641  71.1561434  36.2186699  23.3533344  71.5828111  37.6301540
  23.0951122  72.5045181  37.6285871  22.8218384  71.1858545  38.3202005
  28.2979533  84.6878898  30.4091626  28.4716410  84.1225320  29.6565478
  28.7908424  85.4879793  30.2271116  14.1156492  76.6993567  38.4755185
  13.5709961  77.4753375  38.6075459  14.9935842  77.0464371  38.3174306
  20.9044109  70.0305151  30.8535983  21.0260020  69.1021797  31.0526871
  20.6146152  70.0443837  29.9414299  23.7735300  67.7160061  33.9902703
  23.7956996  67.7799394  33.0354682  24.1903359  66.8764570  34.1843209
  34.1518924  77.4515321  32.0281926  34.5950070  76.7022646  31.6301049
  33.2745434  77.4425457  31.6455657  29.2854705  84.0045662  27.5088524
  29.9805610  84.6252355  27.7275839  29.6277855  83.1541013  27.7840902
  14.9022514  75.8263463  41.3685341  14.1604250  75.9746098  41.9549972
  14.5815259  76.0871729  40.5052091  31.1846128  81.4545368  29.0375855
  31.7097452  81.7932640  28.3125175  31.0968481  80.5192383  28.8538989
  22.8466177  85.3679441  41.1665731  23.1553303  85.1228588  42.0388431
  23.6441659  85.5726080  40.6784602  22.8686789  87.5217351  33.3971108
  22.4291779  87.0293730  34.0903965  23.6194906  86.9790319  33.1563183
  15.3479128  83.7128892  33.3995736  16.1737148  83.4132664  33.0194380
  14.9973180  82.9436514  33.8485525  20.3160661  83.0655360  35.4693410
  19.6940670  82.4026065  35.1695638  20.9865528  83.0916492  34.7867057
  13.5487733  81.6315218  34.3584670  12.7119641  81.2037393  34.1768671
  13.5211379  81.8247662  35.2955461  20.3885189  71.5437148  45.0625916
  20.4373344  72.4199271  44.6803685  20.9307703  71.0014541  44.4897559
  30.8740034  82.0878271  44.3427053  30.0835578  82.0702410  43.8031552
  30.6373389  82.6266565  45.0976089  30.9937909  78.9370738  41.6559781
  31.0435914  78.7720745  42.5975304  30.8851833  78.0697997  41.2657662
  19.8774168  81.6159283  28.9451870  20.0262288  82.2994748  28.2918543
  20.6840612  81.5964373  29.4601326  28.2841672  74.9201666  42.9719088
  29.1851535  74.7808131  42.6803086  28.3589646  75.0856120  43.9117265
  22.6184477  72.2968520  41.8172274  21.7487787  72.5902086  41.5454863
  22.8543957  72.8808965  42.5379538  32.4956106  81.3567679  41.9001803
  32.2040915  81.7197660  42.7365264  31.8828238  80.6434687  41.7215135
  33.6951789  78.9220559  34.4204373  34.5298680  79.3610363  34.5841933
  33.8310917  78.4459212  33.6012619  30.7443294  76.4800294  40.3681861
  31.2197416  76.6727940  39.5600712  29.8208860  76.5359480  40.1225245
  17.6326801  77.6424461  29.9512939  17.3872843  76.7386791  30.1493149
  17.8022716  77.6441611  29.0092417  25.3223511  68.5148137  39.3337695
  25.8405455  69.2509164  39.0084183  24.9678644  68.8212131  40.1684454
  16.9022449  73.3752819  27.4499101  16.2091694  73.4497174  26.7939137
  16.6574201  72.6113162  27.9720618  25.5736105  64.9348420  34.8538591
  25.8537859  64.2671609  35.4799018  26.3586712  65.1277515  34.3413255
  23.3769574  84.1107414  26.4163618  22.8043541  84.7297601  25.9634090
  23.9502367  84.6606775  26.9503540  29.4444963  73.3566054  38.6010166
  30.3962386  73.4564152  38.6222390  29.2748414  72.5644322  39.1108251
  27.4659343  70.4421637  38.7869567  26.8709275  70.7226650  38.0916056
  27.1809040  70.9315538  39.5586308  26.5966833  84.3944564  27.5472200
  27.5297507  84.3290126  27.7505075  26.5090046  85.2300831  27.0886733
  29.2254850  83.7110434  24.5076147  29.1468482  83.3770298  25.4011905
  30.0464517  84.2032202  24.5067620  31.9233041  76.5772174  37.7152466
  31.8909361  75.6388174  37.9012150  32.5333665  76.6556210  36.9818291
  23.7616372  75.4468227  23.7579670  24.7075477  75.3174435  23.8268088
  23.3830617  74.7082888  24.2349098  32.0727530  73.3683217  37.7610749
  31.5566578  72.5841674  37.5740678  32.9567478  73.0401934  37.9257269
  29.7338257  67.1124233  33.7206562  29.5363078  66.8039321  34.6049894
  30.3437962  67.8385871  33.8504492  37.7409591  77.6388180  36.8558503
  38.4712980  77.3773469  37.4166206  37.1316537  76.9016902  36.8960571
  35.8224888  75.7796043  37.4532954  35.0958052  75.6452008  36.8449446
  35.4072175  76.0872872  38.2589672  23.6455065  79.4985973  45.2180327
  24.5658074  79.6764572  45.4120374  23.6104648  78.5542018  45.0660026
  21.9459289  73.3718203  23.6934555  21.0390745  73.0751316  23.7697269
  22.2235270  73.0748021  22.8268842  12.8637230  74.6924566  34.1433602
  12.5440014  73.8389875  33.8507976  12.3170658  74.9073144  34.8991569
  16.6417137  77.4087007  37.8603108  16.8603147  78.3404115  37.8791142
  17.0542911  77.0494982  38.6457912  23.5621355  67.9155093  29.8478797
  22.7522083  67.5702178  30.2234043  24.2505772  67.6062636  30.4366408
  25.4911903  66.9933139  31.4703093  26.0442942  67.4128593  32.1293116
  25.7281990  66.0668888  31.5126049  21.5145003  72.9820213  47.2505857
  21.4141729  73.9314570  47.1817948  21.2966545  72.6538452  46.3781927
  20.7158074  70.2305138  23.8346535  21.5777238  70.5560036  24.0942352
  20.9008418  69.4436634  23.3219600  12.7325490  78.3127478  36.1126723
  12.0388961  77.8981431  35.5996678  13.4798481  78.3548014  35.5160142
  28.8690710  69.1033665  30.9781758  28.2889379  69.7618469  30.5959810
  28.6026643  68.2811009  30.5669175  27.3194277  68.5038722  33.1803078
  27.8194055  68.6155257  32.3717397  27.9629885  68.1999775  33.8203886
  21.3776273  76.4117352  46.0670919  20.8943354  77.2117712  46.2734808
  21.4637212  76.4225297  45.1138363  14.6462232  78.2445732  33.9892738
  14.6232920  78.3433419  33.0374621  14.9562869  79.0910882  34.3109904
  17.3049610  80.3021887  38.1039353  18.2592864  80.2705829  38.0369284
  17.1062134  79.8412510  38.9189579  17.8948992  78.8723003  40.6710150
  18.7141881  79.3667081  40.6944988  18.1685800  77.9554971  40.6427718
  27.6515588  71.2633755  30.0338106  26.7641443  71.5483406  29.8158301
  28.0669577  71.1027518  29.1865383  31.0030125  71.2880276  33.7492445
  31.7790515  71.7776728  34.0217062  30.2778259  71.7138330  34.2064315
  33.4402683  72.0007895  34.8066386  34.0347174  71.7603631  34.0959694
  33.5129267  71.2815026  35.4339922  15.6599839  85.8441506  35.1209551
  15.5254307  85.0841907  34.5547549  15.2431901  86.5682406  34.6538339
  26.7958802  81.0278430  24.1286126  27.4994652  81.2328432  24.7443781
  26.0721451  81.5955192  24.3935209  27.6256612  76.7788291  30.2488396
  27.5691814  77.2356842  29.4096028  28.1784955  76.0178976  30.0711239
  31.4361418  72.5678023  31.0738515  31.1798352  72.1674658  31.9046723
  30.8114286  73.2821817  30.9488655  35.7473756  75.3074096  33.5809807
  35.1873314  75.3767285  34.3541369  35.1417259  75.1315081  32.8609303
  18.8168965  86.7410823  35.3327993  18.7001349  87.6856256  35.2306683
  17.9961411  86.4384385  35.7213792  28.7045499  81.4660959  26.1784586
  29.5391103  81.0342157  25.9962061  28.5429842  81.2942973  27.1061480
  28.3591391  77.9693072  27.5440925  28.3040195  77.8037344  26.6029369
  27.7337447  78.6769105  27.7003115  13.1483906  73.2061137  41.3702347
  13.7942770  72.6960091  41.8589573  12.9401058  73.9429818  41.9445773
  25.6737299  80.2741984  46.8694488  26.5428458  80.4482636  46.5081123
  25.1944050  81.0936401  46.7470217  21.6687517  67.4701181  27.1226244
  21.6566187  68.4143021  27.2794514  22.5610939  67.2871327  26.8285705
  19.8423479  87.3939085  38.5483922  20.7450726  87.4262695  38.8650417
  19.6160849  86.4639536  38.5630257  21.5977081  86.1470072  35.2094000
  20.6472712  86.1471933  35.0958372  21.9009567  85.4002806  34.6930035
  25.4839636  64.0643958  31.3772180  24.7172032  63.5102444  31.5228863
  25.8950341  64.1365827  32.2386332  17.4881397  70.3528754  45.4677362
  18.3512859  69.9965558  45.6780686  16.9146808  70.0142648  46.1552766
  37.3329774  91.9830610  36.2739763  37.9708184  91.8637357  35.5703103
  37.2150617  92.9311454  36.3327715  34.1419481  91.9358038  36.2101287
  33.8037992  91.8199103  35.3221822  35.0109249  91.5349203  36.1902293
  30.0006296  93.7893514  32.1998178  29.4371161  93.6983451  31.4314466
  29.8858691  92.9693419  32.6800671  34.6239264  93.0892890  42.1687493
  34.6127904  92.6945688  41.2967996  34.7859903  92.3558962  42.7621264
  27.5470728  95.2844706  35.0382399  28.3392020  94.9435531  34.6228698
  27.7867378  95.3939681  35.9584552  35.5805855  97.4564482  27.5112643
  34.9293835  98.0418563  27.1246657  36.3750218  97.9870677  27.5707681
  29.5061482  94.5453619  27.9099778  30.2792358  93.9982606  27.7712653
  29.8586881  95.4097869  28.1214239  31.3446525  95.8730002  41.1166677
  31.0536391  96.7775632  41.0013343  31.9803509  95.9146529  41.8310746
  32.2702732  93.2506850  37.7068036  32.8666304  93.0262873  36.9924999
  32.3277703  92.5091596  38.3093484  31.8427760  90.7046285  25.5418227
  32.0953281  90.1827807  24.7801690  30.9052319  90.5412431  25.6444911
  36.8871043  89.7082064  33.3492971  37.6734132  89.2901487  32.9983388
  37.1509747  90.6128156  33.5174619  37.0581120  95.1454914  28.0481627
  36.4226953  95.2189541  28.7602532  36.7278527  95.7348513  27.3700707
  42.2879470  89.6457297  34.2525949  43.0204642  89.0756514  34.4863779
  41.5318826  89.2578897  34.6932455  31.5624049  92.6074391  27.7442602
  31.4460307  91.9319295  28.4123687  31.6726309  92.1206765  26.9274755
  33.9055590  92.0684539  31.4489292  33.5413797  91.5415159  32.1602213
  34.7622706  91.6783008  31.2755777  39.8104890  83.3578871  38.7120558
  39.4788215  84.2274282  38.4881773  39.2150504  83.0415155  39.3914588
  33.5461077  87.0974438  26.4450640  33.7135479  87.9654675  26.8121111
  33.3558246  87.2601720  25.5211929  36.3036410  95.5591417  38.1116470
  36.0037133  96.4616456  38.0032278  35.9587469  95.2923600  38.9637623
  29.7548891  92.0105214  34.1453175  28.8299388  91.8781428  34.3530867
  30.0033305  92.7899433  34.6423117  39.7033554  88.0773957  35.7913908
  38.7950431  88.0089366  35.4972669  39.6521149  88.5545902  36.6195733
  33.5250298  89.5532096  27.4297307  33.4049923  89.9989146  28.2682787
  32.8302886  89.9017413  26.8710845  27.1157702  91.6538487  34.9796964
  27.2450084  91.9072966  35.8936376  26.4355154  92.2466195  34.6601619
  31.2857190 102.3235737  31.0787438  31.2081219 103.2743563  31.1575919
  30.6818833 101.9781610  31.7362364  33.7774419  89.4963603  43.7348805
  33.0007753  90.0557523  43.7251670  34.4164982  89.9820386  44.2563675
  41.5695200  86.2790396  37.5691782  40.9269580  86.5722929  36.9231576
  41.0650129  86.1643316  38.3744978  39.2235364  90.0253569  28.2577641
  40.1353220  90.2580956  28.0825339  38.7145011  90.6090613  27.6952720
  32.0320792  92.3049056  43.2966772  32.7735476  92.8434100  43.0201596
  31.3257777  92.9315345  43.4538324  37.5076131  94.4478197  41.8938934
  37.9159487  94.0060607  41.1493566  36.7853393  93.8730824  42.1473126
  33.8607201  89.3850803  39.2672491  34.7068397  89.8090217  39.4107140
  33.8005839  88.7284428  39.9611054  37.8304946  95.0079387  35.6491222
  37.2013808  95.1725101  34.9467290  37.4430608  95.4220997  36.4202186
  41.7094178  95.9433825  33.0035586  41.0245216  96.3232727  32.4532620
  41.7938027  96.5529152  33.7367534  37.0106647  87.0455172  40.9253664
  36.7667579  87.7997232  40.3887940  37.2866577  87.4240519  41.7600911
  38.9645110  93.5893784  39.6030930  39.1762005  94.2325544  38.9265311
  38.9174858  92.7556101  39.1352860  36.5671338  86.2011605  36.5067502
  35.7055818  86.4992858  36.7984239  36.5933773  86.4182004  35.5748535
  33.3832908  94.7453795  32.9141308  33.8471253  95.0241498  32.1245930
  33.1189706  93.8437240  32.7314398  30.2756989  94.2925277  35.8521071
  30.8458346  94.7212545  35.2138555  30.8665101  94.0107862  36.5505256
  32.3201794  90.8676948  29.7230873  33.0225837  91.3197991  30.1904799
  31.9882422  90.2260767  30.3510766  30.7682155  89.4588704  44.0982082
  30.1380816  90.1404985  44.3317479  30.6618243  89.3471786  43.1535220
  26.0627128  89.1260500  35.0248006  25.2726182  89.3818029  34.5488117
  26.5538375  89.9408838  35.1300047  40.0790937  96.4665740  37.7753287
  40.9008381  96.0645927  37.4935969  40.0753340  96.3633974  38.7269403
  28.0141873  89.4905080  31.9831483  27.2173037  89.6023774  32.5014979
  27.7867466  89.8291732  31.1172373  33.8447541  96.0149783  39.9313998
  33.9091973  96.4770190  40.7672169  33.1358465  95.3847148  40.0596307
  24.3464831  89.3790991  37.4562997  24.5972869  90.2638001  37.7220573
  24.8824379  89.1995592  36.6838089  48.1696931  92.8104488  34.1238259
  47.4160639  92.2411886  33.9682263  48.3044472  92.7767153  35.0708893
  33.5595559  97.6817890  29.7992978  33.4241233  98.5269426  30.2277826
  34.1005371  97.8837168  29.0358912  30.0462898  83.7609470  46.4607333
  29.6529844  83.2075669  47.1354977  30.8629039  84.0720049  46.8513851
  27.0124956  95.1993328  30.3720903  27.5249477  95.9936579  30.5226468
  27.6647669  94.5019619  30.3054504  28.8219841  98.3159085  32.4543656
  28.9986469  99.2377049  32.2664640  29.6176674  98.0017504  32.8838036
  32.9630859  85.1767349  44.0527590  33.7040573  85.7774502  43.9732052
  33.1948782  84.4344987  43.4945632  28.1072197  90.3623717  42.3305819
  27.9925712  89.4608974  42.6312918  27.2516715  90.6087413  41.9790636
  35.1864035  98.3041457  43.9293320  34.7427889  97.5177835  43.6114224
  35.8481249  98.4920607  43.2637211  29.9451156  99.8337259  38.4553999
  30.4958581  99.7054322  37.6830992  29.1062632 100.1332148  38.1048891
  37.2845273  98.5844257  41.9574721  37.2663748  99.4053138  41.4654990
  38.2065193  98.4598332  42.1824862  33.7418327  96.0988386  42.7998230
  34.2746664  95.3376675  42.5697538  33.2132408  95.8062038  43.5422384
  36.9088022  81.2048452  38.3291871  36.5652292  82.0950094  38.2530982
  37.2766985  81.0150110  37.4661456  24.9773873  93.5281983  31.1480474
  25.8149095  93.9378991  30.9314181  25.1552140  92.5881425  31.1180667
  36.8738305  91.1957063  26.8364306  36.3584928  91.9661668  27.0752694
  36.6015613  90.5222200  27.4597368  34.4585416  86.0406764  31.8949545
  33.6027012  85.6513615  31.7155184  34.8712368  86.1198725  31.0349330
  35.9884563  83.5753107  36.2941105  35.4849358  83.5383243  35.4808910
  36.2815169  84.4845850  36.3537761  32.2327448  83.6591837  35.3007286
  33.0980445  83.4634646  34.9413176  32.3004957  83.4302189  36.2276643
  41.8472579  93.9489418  28.7717480  41.0702022  93.6100578  28.3272642
  42.5264060  93.9542041  28.0972445  36.6624608  89.0684155  28.6624088
  36.3574744  89.3830305  29.5134231  37.6155050  89.1465575  28.7051421
  35.1071040  95.2274379  30.3117042  34.5792401  94.4927138  29.9990279
  34.6058543  96.0049055  30.0657010  40.0863886  93.4223399  35.4284088
  39.4287560  94.1122661  35.5164217  40.8904285  93.8119831  35.7718074
  29.8389767  85.8894045  32.6723653  30.4133519  85.6669227  31.9396846
  30.4260750  85.9582740  33.4252254  38.8969345  91.7767772  33.4788030
  39.4101226  92.4097764  33.9809739  39.5470569  91.1768967  33.1131390
  30.1659355  87.9198506  26.6919538  29.3296667  88.2573193  27.0128813
  30.0264124  87.7847486  25.7546675  32.1412435  82.7635294  31.3998723
  31.4876848  82.4484311  30.7755337  32.0992909  82.1411034  32.1258546
  33.2523640  93.0454589  23.3152015  32.3450702  92.8143843  23.5143164
  33.7494672  92.2492208  23.5025996  36.1591719 101.7552096  26.2348701
  35.4853418 102.0583793  26.8433659  36.5457541 102.5581177  25.8854158
  35.3750176  89.2517228  35.7246370  34.4572737  89.4732175  35.5668058
  35.7910319  89.3263538  34.8658078  36.1585223  90.6508643  30.8549050
  36.9057042  91.1630040  30.5456173  36.4276813  90.3292696  31.7153444
  34.4311874  93.1467184  27.8376005  33.5223093  92.8626217  27.9348475
  34.4606957  93.5666263  26.9779312  39.6631141  96.7573773  31.6067172
  39.2093468  95.9164683  31.6632363  39.0325108  97.3935172  31.9441952
  38.6064060  87.6865759  32.8367840  37.8686817  87.1743146  33.1678082
  38.8590834  87.2466141  32.0251117  38.1064080  98.5950270  32.5416990
  38.3987055  99.1555327  31.8229356  38.6162701  98.8878831  33.2970150
  38.7075688  80.4642011  33.4309609  39.0134565  79.6039375  33.1435524
  39.4328293  81.0559632  33.2308603  25.0000044  90.8672698  31.8191207
  24.8024444  90.2742059  31.0942274  24.4446708  90.5624908  32.5367146
  32.9796768  90.7595805  33.9385800  33.0345377  89.8069641  33.8628277
  32.1687970  90.9155244  34.4227099  34.1287961  94.6875928  25.1764083
  33.6907391  93.9711787  24.7169721  34.8698402  94.9152042  24.6149175
  30.9189127  89.3772864  31.6976179  30.1056993  89.6767035  32.1041371
  31.4148122  88.9828553  32.4150661  33.0697705  99.3730621  33.6310444
  33.0273884  99.5991468  32.7018976  33.9860404  99.1393996  33.7796245
  36.5163339  89.8414689  40.5291073  36.8712727  90.0686162  41.3885539
  37.1635470  90.1733066  39.9068328  42.2461076  92.9633125  31.2340402
  42.1078975  93.1534721  30.3061591  41.8897295  93.7252507  31.6908453
  30.4103202  86.9491220  37.3137414  31.0502582  86.8079979  36.6160377
  29.5780733  86.6625733  36.9376016  42.2730456  95.0309652  36.2451673
  42.7066962  94.9384941  37.0934727  42.9862036  95.0067152  35.6071689
  31.1863506  96.2493650  33.4272406  31.9804105  95.7543970  33.2254981
  30.4755199  95.7211513  33.0640112  36.0058351  98.6311746  37.7784774
  36.0595373  99.2002682  38.5462490  35.1373132  98.8013631  37.4138811
  27.4946270  90.3936732  29.5032159  26.5643858  90.3321187  29.7202121
  27.5903742  89.8712685  28.7068800  27.4131819  86.9191545  32.0910401
  27.6738636  87.8336878  31.9819561  28.2348991  86.4515987  32.2407014
  28.8856744  88.3329302  39.2609225  29.5579797  88.1246664  38.6121874
  28.0586531  88.1351388  38.8214458  43.1346005  95.0733352  38.7784559
  43.3281895  95.9779163  39.0243834  43.0346623  94.6140771  39.6123144
  34.7882316  84.9591243  41.2774886  34.1410231  85.6581193  41.1839363
  35.5583331  85.3927387  41.6451134  38.1961114  95.2240095  44.3525439
  38.0446620  94.9950647  43.4355523  38.1865793  96.1810696  44.3656784
  34.9646450  92.7972008  39.3371706  35.8938510  92.9483167  39.1640673
  34.5437480  92.8856029  38.4820352  33.7634782  96.8222672  37.1070244
  33.6245868  96.4541457  37.9796182  32.9749378  97.3370312  36.9354201
  34.3582934 101.9231769  28.4495780  34.5334690 101.4519812  29.2641403
  33.6715722 102.5497535  28.6777041  35.3139997  96.2004275  34.4959081
  34.9789830  96.1605045  35.3916731  34.8143943  95.5348991  34.0229492
  29.2884241  91.6071905  40.0211662  29.1504039  90.8752144  40.6223201
  30.1989165  91.5180805  39.7395850  38.2499189  93.5460309  24.7696141
  37.6328360  92.8207137  24.6729194  37.7815677  94.3069670  24.4263215
  31.9166542  91.3191864  39.5095342  32.6266160  90.6785056  39.4681961
  31.8735850  91.5704759  40.4321523  39.9053321  98.2559218  42.4301921
  39.8465867  97.5718438  41.7632504  40.3072839  98.9978208  41.9782547
  30.6295476  88.3057082  41.3290982  30.0932833  87.8547821  41.9812578
  30.0412184  88.4402991  40.5861446  28.9244019 105.0721131  35.2235640
  29.1640618 105.7039656  35.9014659  28.0813216 104.7209171  35.5100999
  30.0397735  87.7645734  23.8917445  29.1627201  87.6434534  23.5279692
  30.5155488  86.9731812  23.6396334  39.9070728  96.2198802  40.6615901
  39.0197507  95.8824723  40.7842300  40.4769279  95.4881833  40.8984666
  21.5599875  92.5522893  33.9858952  22.2470915  92.2384623  33.3979968
  21.4048004  93.4564258  33.7126204  26.3634597  87.4413090  38.4143976
  26.2792786  86.8338759  37.6794386  25.5417304  87.9322108  38.4153472
  33.4371881 100.8800254  37.6277144  33.3642053 101.6855225  38.1396449
  32.9949274 101.0792220  36.8025166  33.2261661 100.1172024  31.1379966
  32.4429183 100.6593704  31.2318190  33.9254406 100.6346004  31.5374207
  36.5358311  85.9266653  33.7814171  37.0327011  85.1736616  33.4615241
  35.7645292  85.9630970  33.2157380  44.3888068  91.6307019  35.4232463
  44.3777945  92.5131734  35.0526396  43.5205448  91.2778570  35.2287000
  35.8970565 100.7787088  39.7835303  36.6098537 101.4134553  39.7111204
  35.4060593 100.8750954  38.9675305  37.6188092  94.6838341  31.3552595
  36.6844370  94.8039803  31.1857299  37.7964760  93.7810807  31.0912604
  33.1193280  88.0684036  33.5085856  32.7491067  87.5155077  34.1966761
  33.6152372  87.4642170  32.9560856  41.0060643  90.5255660  31.8902629
  41.4721095  91.3583651  31.8162931  41.4568144  90.0600641  32.5947887
  30.9482478  98.5281531  40.6040874  31.6491938  99.1618014  40.7570268
  30.4777593  98.8696263  39.8436513  39.0736874  96.8699481  28.8888781
  39.3496718  96.7556076  29.7982655  38.2041373  96.4716966  28.8500954
  38.9777306  82.8936247  35.9293530  38.0640386  83.1240474  36.0975737
  39.4070407  82.9774691  36.7807562  38.7483764  91.0826139  38.4293424
  38.0955215  91.3302046  37.7745877  39.1264144  90.2690277  38.0955901
  35.7090938 101.1185832  32.5321594  35.8913333 100.3007488  32.9949347
  36.5323924 101.3353524  32.0946484  36.0433104 100.0454017  29.7936643
  36.5720870  99.5346472  29.1806805  36.3061323  99.7296547  30.6582176
  34.7971337  91.8245950  44.9159461  34.1211974  91.7240079  45.5861836
  35.6198971  91.6685164  45.3795458  26.5450196  98.0617886  37.5371976
  27.1303633  97.3161574  37.6699881  26.3475035  98.3721843  38.4208640
  29.3988852 101.0969134  32.5534419  28.7299227 101.5815261  32.0698459
  29.2601721 101.3438354  33.4677797  21.1367851  90.6323487  36.2576419
  21.1751951  90.0987077  37.0513538  20.6308144  90.1058692  35.6387397
  33.5394120 103.1312877  39.1517077  34.0912428 103.2944499  39.9166162
  33.8800314 103.7217315  38.4797102  28.5158613  85.4788027  39.7538962
  28.5799940  86.3402858  39.3416359  28.4525734  84.8662029  39.0211320
  27.9910886  87.5511160  43.4011996  28.6182925  87.1688237  44.0149520
  27.1338805  87.3325362  43.7667689  38.3904994  97.9574135  45.0065732
  38.9344898  98.5704093  44.5120686  37.8091839  98.5153713  45.5232745
  24.7676429  89.3587589  29.3330351  25.0629870  88.4498267  29.2797405
  23.8664464  89.3375328  29.0111353  36.6762507 101.0794853  36.1380759
  36.5513647 100.2784593  35.6291705  37.3341599 101.5741046  35.6494729
  28.2970676  87.4343585  35.3157899  27.5757261  88.0479553  35.1765373
  29.0863931  87.9701350  35.2374545  38.7397416  98.8803873  37.7660309
  37.7927751  98.7609224  37.6938636  39.0880189  97.9926371  37.8486571
  31.0996989  84.7698012  41.5898551  31.6231391  85.0160308  42.3524861
  30.8809322  85.6018047  41.1701689  26.4964270  87.0401686  29.4569676
  26.1676976  86.1599065  29.2744782  26.8503641  86.9849355  30.3446065
  35.7443849  98.6756589  33.9664662  35.5968812  97.7473297  34.1472232
  36.5697343  98.6976680  33.4821737  29.6106093  87.3274656  29.8245154
  29.9502166  87.8560578  29.1023762  30.0578214  87.6655062  30.6003720
  39.3477971  99.4985148  35.0529534  40.2724518  99.2928009  34.9153985
  39.1793274  99.2501549  35.9618876  32.3049534  85.7111707  39.2748222
  31.9646355  84.9119520  39.6768902  31.5988541  86.0113418  38.7025055
  32.9566006  82.7961019  37.7275545  33.7792075  82.3221498  37.6054435
  33.2004070  83.5751503  38.2274231  31.5974241  85.8249278  28.0238446
  32.3182603  86.2030531  27.5202163  30.9739545  86.5438155  28.1273424
  35.7405363  86.5294427  28.9596779  35.9568978  87.4119065  28.6585607
  35.2599431  86.1380640  28.2302421  30.4804585  89.4880140  35.5367523
  30.3349166  89.8020443  36.4291805  30.0029788  90.1065040  34.9838422
  32.3400968  86.4782688  35.5848413  32.3262536  85.5823781  35.2480711
  33.0573396  86.4853352  36.2186699  34.1927098  86.9120028  37.6301540
  33.9344876  87.8337099  37.6285871  33.6612139  86.5150463  38.3202005
  39.1373287 100.0170815  30.4091626  39.3110165  99.4517238  29.6565478
  39.6302178 100.8171710  30.2271116  24.9550247  92.0285484  38.4755185
  24.4103715  92.8045292  38.6075459  25.8329597  92.3756289  38.3174306
  31.7437864  85.3597068  30.8535983  31.8653775  84.4313714  31.0526871
  31.4539906  85.3735754  29.9414299  34.6129054  83.0451979  33.9902703
  34.6350751  83.1091312  33.0354682  35.0297113  82.2056487  34.1843209
  44.9912678  92.7807238  32.0281926  45.4343824  92.0314564  31.6301049
  44.1139189  92.7717375  31.6455657  40.1248460  99.3337580  27.5088524
  40.8199364  99.9544272  27.7275839  40.4671610  98.4832931  27.7840902
  25.7416269  91.1555381  41.3685341  24.9998005  91.3038016  41.9549972
  25.4209013  91.4163646  40.5052091  42.0239883  96.7837285  29.0375855
  42.5491207  97.1224558  28.3125175  41.9362235  95.8484301  28.8538989
  33.6859931 100.6971359  41.1665731  33.9947058 100.4520506  42.0388431
  34.4835414 100.9017997  40.6784602  33.7080544 102.8509269  33.3971108
  33.2685534 102.3585647  34.0903965  34.4588660 102.3082236  33.1563183
  26.1872883  99.0420809  33.3995736  27.0130902  98.7424581  33.0194380
  25.8366935  98.2728432  33.8485525  31.1554416  98.3947278  35.4693410
  30.5334425  97.7317983  35.1695638  31.8259283  98.4208410  34.7867057
  24.3881488  96.9607136  34.3584670  23.5513396  96.5329310  34.1768671
  24.3605133  97.1539579  35.2955461  31.2278943  86.8729066  45.0625916
  31.2767099  87.7491188  44.6803685  31.7701457  86.3306459  44.4897559
  41.7133789  97.4170189  44.3427053  40.9229333  97.3994328  43.8031552
  41.4767143  97.9558483  45.0976089  41.8331664  94.2662655  41.6559781
  41.8829669  94.1012663  42.5975304  41.7245587  93.3989914  41.2657662
  30.7167923  96.9451201  28.9451870  30.8656043  97.6286665  28.2918543
  31.5234366  96.9256291  29.4601326  39.1235426  90.2493583  42.9719088
  40.0245289  90.1100048  42.6803086  39.1983401  90.4148038  43.9117265
  33.4578232  87.6260438  41.8172274  32.5881541  87.9194004  41.5454863
  33.6937712  88.2100883  42.5379538  43.3349861  96.6859597  41.9001803
  43.0434669  97.0489577  42.7365264  42.7221992  95.9726605  41.7215135
  44.5345543  94.2512477  34.4204373  45.3692434  94.6902281  34.5841933
  44.6704672  93.7751130  33.6012619  41.5837049  91.8092211  40.3681861
  42.0591171  92.0019858  39.5600712  40.6602614  91.8651397  40.1225245
  28.4720556  92.9716379  29.9512939  28.2266598  92.0678709  30.1493149
  28.6416470  92.9733529  29.0092417  36.1617265  83.8440055  39.3337695
  36.6799209  84.5801082  39.0084183  35.8072398  84.1504048  40.1684454
  27.7416203  88.7044736  27.4499101  27.0485448  88.7789091  26.7939137
  27.4967955  87.9405080  27.9720618  36.4129860  80.2640338  34.8538591
  36.6931613  79.5963527  35.4799018  37.1980467  80.4569433  34.3413255
  34.2163328  99.4399331  26.4163618  33.6437295 100.0589519  25.9634090
  34.7896122  99.9898693  26.9503540  40.2838718  88.6857972  38.6010166
  41.2356141  88.7856069  38.6222390  40.1142168  87.8936240  39.1108251
  38.3053097  85.7713555  38.7869567  37.7103030  86.0518567  38.0916056
  38.0202794  86.2607456  39.5586308  37.4360588  99.7236482  27.5472200
  38.3691261  99.6582043  27.7505075  37.3483801 100.5592748  27.0886733
  40.0648605  99.0402352  24.5076147  39.9862236  98.7062216  25.4011905
  40.8858271  99.5324120  24.5067620  42.7626796  91.9064091  37.7152466
  42.7303116  90.9680092  37.9012150  43.3727419  91.9848128  36.9818291
  34.6010127  90.7760144  23.7579670  35.5469231  90.6466352  23.8268088
  34.2224372  90.0374806  24.2349098  42.9121284  88.6975135  37.7610749
  42.3960333  87.9133591  37.5740678  43.7961233  88.3693851  37.9257269
  40.5732011  82.4416150  33.7206562  40.3756832  82.1331238  34.6049894
  41.1831717  83.1677789  33.8504492  48.5803346  92.9680098  36.8558503
  49.3106734  92.7065386  37.4166206  47.9710291  92.2308820  36.8960571
  46.6618643  91.1087961  37.4532954  45.9351806  90.9743926  36.8449446
  46.2465930  91.4164789  38.2589672  34.4848819  94.8277890  45.2180327
  35.4051829  95.0056489  45.4120374  34.4498402  93.8833936  45.0660026
  32.7853044  88.7010121  23.6934555  31.8784499  88.4043233  23.7697269
  33.0629025  88.4039939  22.8268842  23.7030984  90.0216484  34.1433602
  23.3833769  89.1681792  33.8507976  23.1564412  90.2365062  34.8991569
  27.4810892  92.7378925  37.8603108  27.6996901  93.6696033  37.8791142
  27.8936666  92.3786899  38.6457912  34.4015110  83.2447010  29.8478797
  33.5915838  82.8994095  30.2234043  35.0899526  82.9354554  30.4366408
  36.3305658  82.3225057  31.4703093  36.8836696  82.7420511  32.1293116
  36.5675744  81.3960805  31.5126049  32.3538757  88.3112131  47.2505857
  32.2535484  89.2606488  47.1817948  32.1360299  87.9830370  46.3781927
  31.5551828  85.5597056  23.8346535  32.4170992  85.8851954  24.0942352
  31.7402173  84.7728552  23.3219600  23.5719244  93.6419395  36.1126723
  22.8782716  93.2273348  35.5996678  24.3192235  93.6839932  35.5160142
  39.7084465  84.4325582  30.9781758  39.1283134  85.0910386  30.5959810
  39.4420398  83.6102927  30.5669175  38.1588031  83.8330640  33.1803078
  38.6587810  83.9447175  32.3717397  38.8023639  83.5291693  33.8203886
  32.2170027  91.7409270  46.0670919  31.7337109  92.5409630  46.2734808
  32.3030966  91.7517214  45.1138363  25.4855987  93.5737649  33.9892738
  25.4626675  93.6725337  33.0374621  25.7956623  94.4202800  34.3109904
  28.1443365  95.6313804  38.1039353  29.0986618  95.5997747  38.0369284
  27.9455888  95.1704428  38.9189579  28.7342747  94.2014920  40.6710150
  29.5535636  94.6958999  40.6944988  29.0079554  93.2846888  40.6427718
  38.4909343  86.5925673  30.0338106  37.6035198  86.8775323  29.8158301
  38.9063332  86.4319436  29.1865383  41.8423879  86.6172194  33.7492445
  42.6184269  87.1068646  34.0217062  41.1172013  87.0430248  34.2064315
  44.2796438  87.3299813  34.8066386  44.8740928  87.0895549  34.0959694
  44.3523021  86.6106943  35.4339922  26.4993593 101.1733424  35.1209551
  26.3648061 100.4133825  34.5547549  26.0825656 101.8974324  34.6538339
  37.6352556  96.3570347  24.1286126  38.3388406  96.5620350  24.7443781
  36.9115205  96.9247109  24.3935209  38.4650367  92.1080209  30.2488396
  38.4085568  92.5648760  29.4096028  39.0178709  91.3470893  30.0711239
  42.2755173  87.8969940  31.0738515  42.0192107  87.4966576  31.9046723
  41.6508041  88.6113734  30.9488655  46.5867510  90.6366014  33.5809807
  46.0267068  90.7059203  34.3541369  45.9811014  90.4606998  32.8609303
  29.6562719 102.0702741  35.3327993  29.5395103 103.0148173  35.2306683
  28.8355165 101.7676302  35.7213792  39.5439254  96.7952877  26.1784586
  40.3784858  96.3634075  25.9962061  39.3823597  96.6234890  27.1061480
  39.1985146  93.2984990  27.5440925  39.1433950  93.1329261  26.6029369
  38.5731201  94.0061023  27.7003115  23.9877661  88.5353054  41.3702347
  24.6336525  88.0252008  41.8589573  23.7794812  89.2721736  41.9445773
  36.5131053  95.6033902  46.8694488  37.3822213  95.7774554  46.5081123
  36.0337805  96.4228319  46.7470217  32.5081271  82.7993099  27.1226244
  32.4959941  83.7434939  27.2794514  33.4004693  82.6163244  26.8285705
  30.6817233 102.7231003  38.5483922  31.5844480 102.7554613  38.8650417
  30.4554603 101.7931454  38.5630257  32.4370835 101.4761989  35.2094000
  31.4866466 101.4763851  35.0958372  32.7403322 100.7294724  34.6930035
  36.3233391  79.3935875  31.3772180  35.5565787  78.8394362  31.5228863
  36.7344096  79.4657744  32.2386332  28.3275152  85.6820671  45.4677362
  29.1906613  85.3257476  45.6780686  27.7540563  85.3434566  46.1552766
  48.1723529 107.3122528  36.2739763  48.8101939 107.1929275  35.5703103
  48.0544372 108.2603372  36.3327715  44.9813235 107.2649956  36.2101287
  44.6431747 107.1491020  35.3221822  45.8503003 106.8641121  36.1902293
  40.8400051 109.1185432  32.1998178  40.2764916 109.0275369  31.4314466
  40.7252446 108.2985337  32.6800671  45.4633018 108.4184807  42.1687493
  45.4521659 108.0237606  41.2967996  45.6253658 107.6850880  42.7621264
  38.3864483 110.6136624  35.0382399  39.1785775 110.2727448  34.6228698
  38.6261133 110.7231599  35.9584552  46.4199610 112.7856400  27.5112643
  45.7687589 113.3710480  27.1246657  47.2143972 113.3162595  27.5707681
  40.3455237 109.8745537  27.9099778  41.1186113 109.3274524  27.7712653
  40.6980636 110.7389786  28.1214239  42.1840279 111.2021919  41.1166677
  41.8930145 112.1067550  41.0013343  42.8197264 111.2438447  41.8310746
  43.1096486 108.5798768  37.7068036  43.7060058 108.3554790  36.9924999
  43.1671458 107.8383513  38.3093484  42.6821515 106.0338203  25.5418227
  42.9347035 105.5119724  24.7801690  41.7446074 105.8704349  25.6444911
  47.7264797 105.0373981  33.3492971  48.5127887 104.6193405  32.9983388
  47.9903502 105.9420074  33.5174619  47.8974875 110.4746832  28.0481627
  47.2620708 110.5481458  28.7602532  47.5672281 111.0640431  27.3700707
  53.1273224 104.9749215  34.2525949  53.8598396 104.4048431  34.4863779
  52.3712580 104.5870815  34.6932455  42.4017803 107.9366309  27.7442602
  42.2854061 107.2611212  28.4123687  42.5120063 107.4498683  26.9274755
  44.7449344 107.3976456  31.4489292  44.3807551 106.8707077  32.1602213
  45.6016460 107.0074925  31.2755777  50.6498645  98.6870789  38.7120558
  50.3181970  99.5566200  38.4881773  50.0544258  98.3707073  39.3914588
  44.3854831 102.4266356  26.4450640  44.5529234 103.2946592  26.8121111
  44.1952000 102.5893638  25.5211929  47.1430164 110.8883335  38.1116470
  46.8430887 111.7908374  38.0032278  46.7981224 110.6215518  38.9637623
  40.5942646 107.3397132  34.1453175  39.6693142 107.2073346  34.3530867
  40.8427059 108.1191351  34.6423117  50.5427308 103.4065875  35.7913908
  49.6344185 103.3381283  35.4972669  50.4914904 103.8837820  36.6195733
  44.3644052 104.8824013  27.4297307  44.2443677 105.3281064  28.2682787
  43.6696640 105.2309331  26.8710845  37.9551457 106.9830405  34.9796964
  38.0843838 107.2364884  35.8936376  37.2748908 107.5758113  34.6601619
  42.1250944 117.6527655  31.0787438  42.0474974 118.6035480  31.1575919
  41.5212588 117.3073528  31.7362364  44.6168174 104.8255521  43.7348805
  43.8401508 105.3849441  43.7251670  45.2558737 105.3112304  44.2563675
  52.4088955 101.6082313  37.5691782  51.7663335 101.9014847  36.9231576
  51.9043883 101.4935234  38.3744978  50.0629118 105.3545487  28.2577641
  50.9746974 105.5872873  28.0825339  49.5538765 105.9382531  27.6952720
  42.8714546 107.6340974  43.2966772  43.6129231 108.1726018  43.0201596
  42.1651532 108.2607263  43.4538324  48.3469886 109.7770114  41.8938934
  48.7553242 109.3352525  41.1493566  47.6247147 109.2022742  42.1473126
  44.7000956 104.7142721  39.2672491  45.5462151 105.1382135  39.4107140
  44.6399594 104.0576345  39.9611054  48.6698701 110.3371305  35.6491222
  48.0407563 110.5017019  34.9467290  48.2824363 110.7512915  36.4202186
  52.5487932 111.2725743  33.0035586  51.8638971 111.6524644  32.4532620
  52.6331782 111.8821070  33.7367534  47.8500401 102.3747090  40.9253664
  47.6061333 103.1289150  40.3887940  48.1260332 102.7532437  41.7600911
  49.8038864 108.9185702  39.6030930  50.0155759 109.5617462  38.9265311
  49.7568612 108.0848018  39.1352860  47.4065093 101.5303523  36.5067502
  46.5449572 101.8284776  36.7984239  47.4327528 101.7473921  35.5748535
  44.2226662 110.0745713  32.9141308  44.6865008 110.3533416  32.1245930
  43.9583461 109.1729158  32.7314398  41.1150743 109.6217195  35.8521071
  41.6852101 110.0504463  35.2138555  41.7058855 109.3399779  36.5505256
  43.1595548 106.1968865  29.7230873  43.8619592 106.6489909  30.1904799
  42.8276177 105.5552684  30.3510766  41.6075910 104.7880622  44.0982082
  40.9774571 105.4696903  44.3317479  41.5011998 104.6763704  43.1535220
  36.9020882 104.4552418  35.0248006  36.1119936 104.7109947  34.5488117
  37.3932130 105.2700756  35.1300047  50.9184692 111.7957657  37.7753287
  51.7402136 111.3937845  37.4935969  50.9147095 111.6925891  38.7269403
  38.8535628 104.8196997  31.9831483  38.0566791 104.9315692  32.5014979
  38.6261220 105.1583650  31.1172373  44.6841295 111.3441701  39.9313998
  44.7485728 111.8062108  40.7672169  43.9752219 110.7139066  40.0596307
  35.1858585 104.7082909  37.4562997  35.4366624 105.5929918  37.7220573
  35.7218134 104.5287510  36.6838089  59.0090685 108.1396406  34.1238259
  58.2554393 107.5703804  33.9682263  59.1438226 108.1059070  35.0708893
  44.3989313 113.0109808  29.7992978  44.2634988 113.8561344  30.2277826
  44.9399126 113.2129086  29.0358912  40.8856653  99.0901388  46.4607333
  40.4923598  98.5367586  47.1354977  41.7022793  99.4011966  46.8513851
  37.8518710 110.5285246  30.3720903  38.3643231 111.3228496  30.5226468
  38.5041423 109.8311537  30.3054504  39.6613595 113.6451002  32.4543656
  39.8380223 114.5668967  32.2664640  40.4570429 113.3309422  32.8838036
  43.8024614 100.5059267  44.0527590  44.5434327 101.1066420  43.9732052
  44.0342537  99.7636905  43.4945632  38.9465952 105.6915634  42.3305819
  38.8319467 104.7900892  42.6312918  38.0910469 105.9379331  41.9790636
  46.0257789 113.6333375  43.9293320  45.5821644 112.8469753  43.6114224
  46.6875003 113.8212525  43.2637211  40.7844911 115.1629176  38.4553999
  41.3352336 115.0346240  37.6830992  39.9456387 115.4624065  38.1048891
  48.1239028 113.9136175  41.9574721  48.1057503 114.7345056  41.4654990
  49.0458948 113.7890250  42.1824862  44.5812082 111.4280304  42.7998230
  45.1140418 110.6668592  42.5697538  44.0526163 111.1353956  43.5422384
  47.7481777  96.5340370  38.3291871  47.4046046  97.4242012  38.2530982
  48.1160739  96.3442028  37.4661456  35.8167627 108.8573900  31.1480474
  36.6542849 109.2670909  30.9314181  35.9945895 107.9173343  31.1180667
  47.7132059 106.5248981  26.8364306  47.1978683 107.2953586  27.0752694
  47.4409368 105.8514117  27.4597368  45.2979170 101.3698682  31.8949545
  44.4420767 100.9805532  31.7155184  45.7106122 101.4490643  31.0349330
  46.8278317  98.9045025  36.2941105  46.3243113  98.8675160  35.4808910
  47.1208924  99.8137768  36.3537761  43.0721203  98.9883755  35.3007286
  43.9374200  98.7926564  34.9413176  43.1398712  98.7594107  36.2276643
  52.6866333 109.2781336  28.7717480  51.9095776 108.9392495  28.3272642
  53.3657814 109.2833959  28.0972445  47.5018363 104.3976073  28.6624088
  47.1968498 104.7122222  29.5134231  48.4548805 104.4757493  28.7051421
  45.9464794 110.5566296  30.3117042  45.4186156 109.8219056  29.9990279
  45.4452297 111.3340973  30.0657010  50.9257640 108.7515317  35.4284088
  50.2681315 109.4414578  35.5164217  51.7298040 109.1411749  35.7718074
  40.6783522 101.2185963  32.6723653  41.2527274 100.9961144  31.9396846
  41.2654504 101.2874657  33.4252254  49.7363099 107.1059690  33.4788030
  50.2494981 107.7389681  33.9809739  50.3864323 106.5060885  33.1131390
  41.0053109 103.2490424  26.6919538  40.1690421 103.5865110  27.0128813
  40.8657879 103.1139404  25.7546675  42.9806190  98.0927212  31.3998723
  42.3270602  97.7776229  30.7755337  42.9386664  97.4702952  32.1258546
  44.0917395 108.3746507  23.3152015  43.1844456 108.1435760  23.5143164
  44.5888427 107.5784126  23.5025996  46.9985473 117.0844014  26.2348701
  46.3247172 117.3875711  26.8433659  47.3851295 117.8873094  25.8854158
  46.2143930 104.5809145  35.7246370  45.2966491 104.8024092  35.5668058
  46.6304074 104.6555456  34.8658078  46.9978978 105.9800561  30.8549050
  47.7450797 106.4921958  30.5456173  47.2670567 105.6584614  31.7153444
  45.2705628 108.4759102  27.8376005  44.3616847 108.1918134  27.9348475
  45.3000712 108.8958180  26.9779312  50.5024895 112.0865691  31.6067172
  50.0487223 111.2456601  31.6632363  49.8718862 112.7227089  31.9441952
  49.4457815 103.0157677  32.8367840  48.7080572 102.5035063  33.1678082
  49.6984589 102.5758059  32.0251117  48.9457835 113.9242188  32.5416990
  49.2380809 114.4847245  31.8229356  49.4556455 114.2170749  33.2970150
  49.5469442  95.7933929  33.4309609  49.8528319  94.9331293  33.1435524
  50.2722047  96.3851549  33.2308603  35.8393798 106.1964616  31.8191207
  35.6418198 105.6033976  31.0942274  35.2840462 105.8916826  32.5367146
  43.8190522 106.0887722  33.9385800  43.8739132 105.1361559  33.8628277
  43.0081724 106.2447161  34.4227099  44.9681716 110.0167845  25.1764083
  44.5301146 109.3003704  24.7169721  45.7092157 110.2443960  24.6149175
  41.7582882 104.7064782  31.6976179  40.9450747 105.0058953  32.1041371
  42.2541876 104.3120471  32.4150661  43.9091460 114.7022539  33.6310444
  43.8667639 114.9283385  32.7018976  44.8254159 114.4685913  33.7796245
  47.3557094 105.1706606  40.5291073  47.7106481 105.3978080  41.3885539
  48.0029225 105.5024983  39.9068328  53.0854831 108.2925042  31.2340402
  52.9472729 108.4826638  30.3061591  52.7291049 109.0544425  31.6908453
  41.2496957 102.2783137  37.3137414  41.8896336 102.1371897  36.6160377
  40.4174487 101.9917651  36.9376016  53.1124210 110.3601569  36.2451673
  53.5460717 110.2676858  37.0934727  53.8255791 110.3359070  35.6071689
  42.0257261 111.5785568  33.4272406  42.8197859 111.0835888  33.2254981
  41.3148953 111.0503431  33.0640112  46.8452105 113.9603663  37.7784774
  46.8989127 114.5294600  38.5462490  45.9766886 114.1305548  37.4138811
  38.3340024 105.7228650  29.5032159  37.4037612 105.6613105  29.7202121
  38.4297496 105.2004602  28.7068800  38.2525573 102.2483462  32.0910401
  38.5132390 103.1628796  31.9819561  39.0742745 101.7807905  32.2407014
  39.7250498 103.6621220  39.2609225  40.3973552 103.4538582  38.6121874
  38.8980285 103.4643306  38.8214458  53.9739760 110.4025270  38.7784559
  54.1675650 111.3071080  39.0243834  53.8740378 109.9432689  39.6123144
  45.6276070 100.2883161  41.2774886  44.9803986 100.9873110  41.1839363
  46.3977086 100.7219304  41.6451134  49.0354868 110.5532013  44.3525439
  48.8840375 110.3242564  43.4355523  49.0259548 111.5102614  44.3656784
  45.8040205 108.1263925  39.3371706  46.7332265 108.2775085  39.1640673
  45.3831235 108.2147946  38.4820352  44.6028537 112.1514590  37.1070244
  44.4639622 111.7833374  37.9796182  43.8143133 112.6662229  36.9354201
  45.1976689 117.2523686  28.4495780  45.3728444 116.7811730  29.2641403
  44.5109477 117.8789453  28.6777041  46.1533752 111.5296193  34.4959081
  45.8183584 111.4896963  35.3916731  45.6537697 110.8640909  34.0229492
  40.1277996 106.9363823  40.0211662  39.9897794 106.2044061  40.6223201
  41.0382919 106.8472723  39.7395850  49.0892943 108.8752227  24.7696141
  48.4722114 108.1499055  24.6729194  48.6209432 109.6361587  24.4263215
  42.7560296 106.6483782  39.5095342  43.4659915 106.0076974  39.4681961
  42.7129605 106.8996677  40.4321523  50.7447075 113.5851135  42.4301921
  50.6859621 112.9010355  41.7632504  51.1466593 114.3270125  41.9782547
  41.4689230 103.6349000  41.3290982  40.9326587 103.1839738  41.9812578
  40.8805939 103.7694909  40.5861446  40.8791489 103.0937651  23.8917445
  40.0020956 102.9726452  23.5279692  41.3549242 102.3023730  23.6396334
  50.7464482 111.5490719  40.6615901  49.8591261 111.2116641  40.7842300
  51.3163033 110.8173750  40.8984666  32.3993629 107.8814811  33.9858952
  33.0864669 107.5676541  33.3979968  32.2441758 108.7856176  33.7126204
  37.2028352 102.7705008  38.4143976  37.1186540 102.1630677  37.6794386
  36.3811058 103.2614026  38.4153472  44.2765636 116.2092172  37.6277144
  44.2035807 117.0147143  38.1396449  43.8343029 116.4084137  36.8025166
  44.0655415 115.4463942  31.1379966  43.2822937 115.9885622  31.2318190
  44.7648161 115.9637921  31.5374207  47.3752065 101.2558571  33.7814171
  47.8720765 100.5028533  33.4615241  46.6039047 101.2922888  33.2157380
  55.2281823 106.9598937  35.4232463  55.2171699 107.8423652  35.0526396
  54.3599202 106.6070487  35.2287000  46.7364319 116.1079006  39.7835303
  47.4492291 116.7426470  39.7111204  46.2454348 116.2042872  38.9675305
  48.4581846 110.0130258  31.3552595  47.5238125 110.1331721  31.1857299
  48.6358515 109.1102725  31.0912604  43.9587034 103.3975954  33.5085856
  43.5884822 102.8446994  34.1966761  44.4546127 102.7934088  32.9560856
  51.8454398 105.8547578  31.8902629  52.3114850 106.6875569  31.8162931
  52.2961898 105.3892559  32.5947887  41.7876233 113.8573449  40.6040874
  42.4885692 114.4909932  40.7570268  41.3171348 114.1988181  39.8436513
  49.9130629 112.1991399  28.8888781  50.1890473 112.0847993  29.7982655
  49.0435127 111.8008884  28.8500954  49.8171060  98.2228165  35.9293530
  48.9034140  98.4532391  36.0975737  50.2464162  98.3066609  36.7807562
  49.5877519 106.4118057  38.4293424  48.9348969 106.6593964  37.7745877
  49.9657899 105.5982195  38.0955901  46.5484693 116.4477750  32.5321594
  46.7307087 115.6299406  32.9949347  47.3717679 116.6645442  32.0946484
  46.8826858 115.3745935  29.7936643  47.4114625 114.8638389  29.1806805
  47.1455078 115.0588465  30.6582176  45.6365092 107.1537868  44.9159461
  44.9605729 107.0531997  45.5861836  46.4592726 106.9977081  45.3795458
  37.3843951 113.3909804  37.5371976  37.9697388 112.6453492  37.6699881
  37.1868789 113.7013761  38.4208640  40.2382606 116.4261052  32.5534419
  39.5692981 116.9107179  32.0698459  40.0995476 116.6730272  33.4677797
  31.9761606 105.9615404  36.2576419  32.0145705 105.4278995  37.0513538
  31.4701898 105.4350610  35.6387397  44.3787875 118.4604795  39.1517077
  44.9306183 118.6236417  39.9166162  44.7194068 119.0509233  38.4797102
  39.3552368 100.8079945  39.7538962  39.4193694 101.6694776  39.3416359
  39.2919488 100.1953946  39.0211320  38.8304640 102.8803077  43.4011996
  39.4576679 102.4980155  44.0149520  37.9732559 102.6617279  43.7667689
  49.2298749 113.2866053  45.0065732  49.7738653 113.8996011  44.5120686
  48.6485594 113.8445631  45.5232745  35.6070183 104.6879506  29.3330351
  35.9023624 103.7790185  29.2797405  34.7058219 104.6667246  29.0111353
  47.5156262 116.4086771  36.1380759  47.3907401 115.6076510  35.6291705
  48.1735353 116.9032964  35.6494729  39.1364430 102.7635503  35.3157899
  38.4151016 103.3771471  35.1765373  39.9257686 103.2993268  35.2374545
  49.5791170 114.2095791  37.7660309  48.6321506 114.0901142  37.6938636
  49.9273943 113.3218289  37.8486571  41.9390744 100.0989930  41.5898551
  42.4625145 100.3452226  42.3524861  41.7203077 100.9309964  41.1701689
  37.3358025 102.3693604  29.4569676  37.0070731 101.4890983  29.2744782
  37.6897395 102.3141273  30.3446065  46.5837604 114.0048507  33.9664662
  46.4362566 113.0765214  34.1472232  47.4091097 114.0268598  33.4821737
  40.4499848 102.6566574  29.8245154  40.7895920 103.1852495  29.1023762
  40.8971968 102.9946980  30.6003720  50.1871725 114.8277066  35.0529534
  51.1118273 114.6219927  34.9153985  50.0187029 114.5793467  35.9618876
  43.1443289 101.0403625  39.2748222  42.8040109 100.2411438  39.6768902
  42.4382295 101.3405335  38.7025055  43.7959761  98.1252937  37.7275545
  44.6185830  97.6513415  37.6054435  44.0397824  98.9043421  38.2274231
  42.4367995 101.1541196  28.0238446  43.1576358 101.5322448  27.5202163
  41.8133299 101.8730072  28.1273424  46.5799118 101.8586344  28.9596779
  46.7962732 102.7410982  28.6585607  46.0993185 101.4672558  28.2302421
  41.3198339 104.8172058  35.5367523  41.1742920 105.1312361  36.4291805
  40.8423543 105.4356958  34.9838422  43.1794722 101.8074606  35.5848413
  43.1656291 100.9115699  35.2480711  43.8967150 101.8145269  36.2186699
  45.0320853 102.2411946  37.6301540  44.7738631 103.1629017  37.6285871
  44.5005893 101.8442380  38.3202005  49.9767042 115.3462733  30.4091626
  50.1503919 114.7809156  29.6565478  50.4695933 116.1463628  30.2271116
  35.7944001 107.3577402  38.4755185  35.2497470 108.1337210  38.6075459
  36.6723351 107.7048207  38.3174306  42.5831618 100.6888986  30.8535983
  42.7047529  99.7605632  31.0526871  42.2933660 100.7027672  29.9414299
  45.4522809  98.3743896  33.9902703  45.4744505  98.4383230  33.0354682
  45.8690868  97.5348405  34.1843209  55.8306433 108.1099156  32.0281926
  56.2737579 107.3606481  31.6301049  54.9532943 108.1009292  31.6455657
  50.9642214 114.6629497  27.5088524  51.6593119 115.2836190  27.7275839
  51.3065364 113.8124849  27.7840902  36.5810023 106.4847298  41.3685341
  35.8391759 106.6329934  41.9549972  36.2602768 106.7455564  40.5052091
  52.8633637 112.1129203  29.0375855  53.3884961 112.4516476  28.3125175
  52.7755990 111.1776218  28.8538989  44.5253686 116.0263277  41.1665731
  44.8340812 115.7812423  42.0388431  45.3229168 116.2309915  40.6784602
  44.5474298 118.1801186  33.3971108  44.1079288 117.6877565  34.0903965
  45.2982415 117.6374154  33.1563183  37.0266637 114.3712727  33.3995736
  37.8524657 114.0716499  33.0194380  36.6760689 113.6020350  33.8485525
  41.9948170 113.7239195  35.4693410  41.3728179 113.0609900  35.1695638
  42.6653037 113.7500327  34.7867057  35.2275242 112.2899054  34.3584670
  34.3907150 111.8621228  34.1768671  35.1998887 112.4831497  35.2955461
  42.0672698 102.2020983  45.0625916  42.1160853 103.0783106  44.6803685
  42.6095212 101.6598376  44.4897559  52.5527543 112.7462107  44.3427053
  51.7623087 112.7286245  43.8031552  52.3160898 113.2850400  45.0976089
  52.6725418 109.5954573  41.6559781  52.7223423 109.4304580  42.5975304
  52.5639342 108.7281832  41.2657662  41.5561677 112.2743119  28.9451870
  41.7049797 112.9578583  28.2918543  42.3628121 112.2548209  29.4601326
  49.9629181 105.5785501  42.9719088  50.8639044 105.4391966  42.6803086
  50.0377155 105.7439956  43.9117265  44.2971986 102.9552356  41.8172274
  43.4275296 103.2485922  41.5454863  44.5331466 103.5392801  42.5379538
  54.1743615 112.0151514  41.9001803  53.8828424 112.3781495  42.7365264
  53.5615747 111.3018523  41.7215135  55.3739298 109.5804394  34.4204373
  56.2086189 110.0194198  34.5841933  55.5098426 109.1043047  33.6012619
  52.4230803 107.1384129  40.3681861  52.8984925 107.3311775  39.5600712
  51.4996369 107.1943315  40.1225245  39.3114310 108.3008296  29.9512939
  39.0660352 107.3970626  30.1493149  39.4810225 108.3025447  29.0092417
  47.0011020  99.1731973  39.3337695  47.5192964  99.9093000  39.0084183
  46.6466153  99.4795966  40.1684454  38.5809958 104.0336654  27.4499101
  37.8879203 104.1081009  26.7939137  38.3361710 103.2696998  27.9720618
  47.2523614  95.5932255  34.8538591  47.5325368  94.9255444  35.4799018
  48.0374221  95.7861351  34.3413255  45.0557083 114.7691249  26.4163618
  44.4831050 115.3881436  25.9634090  45.6289876 115.3190611  26.9503540
  51.1232472 104.0149889  38.6010166  52.0749895 104.1147987  38.6222390
  50.9535923 103.2228158  39.1108251  49.1446852 101.1005472  38.7869567
  48.5496784 101.3810485  38.0916056  48.8596549 101.5899373  39.5586308
  48.2754342 115.0528399  27.5472200  49.2085016 114.9873961  27.7505075
  48.1877555 115.8884666  27.0886733  50.9042359 114.3694270  24.5076147
  50.8255991 114.0354133  25.4011905  51.7252026 114.8616038  24.5067620
  53.6020550 107.2356009  37.7152466  53.5696870 106.2972010  37.9012150
  54.2121174 107.3140046  36.9818291  45.4403881 106.1052062  23.7579670
  46.3862986 105.9758270  23.8268088  45.0618126 105.3666724  24.2349098
  53.7515039 104.0267052  37.7610749  53.2354087 103.2425509  37.5740678
  54.6354987 103.6985769  37.9257269  51.4125766  97.7708068  33.7206562
  51.2150587  97.4623156  34.6049894  52.0225471  98.4969707  33.8504492
  59.4197100 108.2972016  36.8558503  60.1500489 108.0357304  37.4166206
  58.8104046 107.5600738  36.8960571  57.5012397 106.4379878  37.4532954
  56.7745561 106.3035843  36.8449446  57.0859684 106.7456707  38.2589672
  45.3242574 110.1569808  45.2180327  46.2445583 110.3348407  45.4120374
  45.2892157 109.2125853  45.0660026  43.6246798 104.0302038  23.6934555
  42.7178254 103.7335151  23.7697269  43.9022779 103.7331856  22.8268842
  34.5424739 105.3508402  34.1433602  34.2227523 104.4973710  33.8507976
  33.9958167 105.5656980  34.8991569  38.3204646 108.0670843  37.8603108
  38.5390656 108.9987950  37.8791142  38.7330420 107.7078817  38.6457912
  45.2408864  98.5738928  29.8478797  44.4309592  98.2286013  30.2234043
  45.9293281  98.2646472  30.4366408  47.1699412  97.6516975  31.4703093
  47.7230451  98.0712428  32.1293116  47.4069499  96.7252723  31.5126049
  43.1932512 103.6404048  47.2505857  43.0929238 104.5898405  47.1817948
  42.9754054 103.3122287  46.3781927  42.3945583 100.8888973  23.8346535
  43.2564747 101.2143872  24.0942352  42.5795927 100.1020469  23.3219600
  34.4112999 108.9711313  36.1126723  33.7176470 108.5565266  35.5996678
  35.1585990 109.0131850  35.5160142  50.5478219  99.7617500  30.9781758
  49.9676888 100.4202304  30.5959810  50.2814152  98.9394845  30.5669175
  48.9981786  99.1622558  33.1803078  49.4981564  99.2739092  32.3717397
  49.6417394  98.8583610  33.8203886  43.0563782 107.0701187  46.0670919
  42.5730863 107.8701547  46.2734808  43.1424721 107.0809132  45.1138363
  36.3249741 108.9029567  33.9892738  36.3020429 109.0017254  33.0374621
  36.6350378 109.7494718  34.3109904  38.9837119 110.9605722  38.1039353
  39.9380373 110.9289664  38.0369284  38.7849643 110.4996346  38.9189579
  39.5736501 109.5306838  40.6710150  40.3929390 110.0250917  40.6944988
  39.8473309 108.6138806  40.6427718  49.3303097 101.9217590  30.0338106
  48.4428952 102.2067241  29.8158301  49.7457086 101.7611354  29.1865383
  52.6817634 101.9464111  33.7492445  53.4578024 102.4360564  34.0217062
  51.9565768 102.3722165  34.2064315  55.1190192 102.6591731  34.8066386
  55.7134683 102.4187466  34.0959694  55.1916776 101.9398861  35.4339922
  37.3387348 116.5025341  35.1209551  37.2041816 115.7425742  34.5547549
  36.9219410 117.2266241  34.6538339  48.4746311 111.6862265  24.1286126
  49.1782161 111.8912267  24.7443781  47.7508960 112.2539027  24.3935209
  49.3044121 107.4372126  30.2488396  49.2479323 107.8940678  29.4096028
  49.8572464 106.6762811  30.0711239  53.1148927 103.2261858  31.0738515
  52.8585861 102.8258494  31.9046723  52.4901795 103.9405652  30.9488655
  57.4261265 105.9657931  33.5809807  56.8660823 106.0351121  34.3541369
  56.8204768 105.7898916  32.8609303  40.4956474 117.3994658  35.3327993
  40.3788858 118.3440091  35.2306683  39.6748920 117.0968220  35.7213792
  50.3833008 112.1244794  26.1784586  51.2178612 111.6925993  25.9962061
  50.2217351 111.9526808  27.1061480  50.0378900 108.6276908  27.5440925
  49.9827704 108.4621179  26.6029369  49.4124956 109.3352940  27.7003115
  34.8271415 103.8644972  41.3702347  35.4730279 103.3543926  41.8589573
  34.6188567 104.6013654  41.9445773  47.3524808 110.9325819  46.8694488
  48.2215967 111.1066472  46.5081123  46.8731559 111.7520236  46.7470217
  43.3475026  98.1285017  27.1226244  43.3353696  99.0726856  27.2794514
  44.2398448  97.9455162  26.8285705  41.5210988 118.0522920  38.5483922
  42.4238235 118.0846531  38.8650417  41.2948358 117.1223371  38.5630257
  43.2764590 116.8053907  35.2094000  42.3260221 116.8055769  35.0958372
  43.5797076 116.0586641  34.6930035  47.1627145  94.7227793  31.3772180
  46.3959541  94.1686280  31.5228863  47.5737850  94.7949662  32.2386332
  39.1668906 101.0112589  45.4677362  40.0300368 100.6549394  45.6780686
  38.5934317 100.6726484  46.1552766  59.0117283 122.6414445  36.2739763
  59.6495693 122.5221193  35.5703103  58.8938126 123.5895289  36.3327715
  55.8206990 122.5941873  36.2101287  55.4825501 122.4782938  35.3221822
  56.6896758 122.1933039  36.1902293  56.3026773 123.7476725  42.1687493
  56.2915413 123.3529523  41.2967996  56.4647412 123.0142798  42.7621264
  53.5215269 121.3630121  25.5418227  53.7740790 120.8411642  24.7801690
  52.5839828 121.1996266  25.6444911  58.5658552 120.3665899  33.3492971
  59.3521641 119.9485322  32.9983388  58.8297256 121.2711991  33.5174619
  63.9666979 120.3041132  34.2525949  64.6992151 119.7340349  34.4863779
  63.2106335 119.9162733  34.6932455  55.5843099 122.7268374  31.4489292
  55.2201306 122.1998995  32.1602213  56.4410215 122.3366843  31.2755777
  61.4892399 114.0162706  38.7120558  61.1575724 114.8858117  38.4881773
  60.8938013 113.6998990  39.3914588  55.2248586 117.7558274  26.4450640
  55.3922988 118.6238510  26.8121111  55.0345755 117.9185555  25.5211929
  61.3821063 118.7357793  35.7913908  60.4737940 118.6673201  35.4972669
  61.3308658 119.2129738  36.6195733  55.2037807 120.2115931  27.4297307
  55.0837432 120.6572982  28.2682787  54.5090395 120.5601249  26.8710845
  55.4561928 120.1547438  43.7348805  54.6795262 120.7141358  43.7251670
  56.0952491 120.6404221  44.2563675  63.2482709 116.9374231  37.5691782
  62.6057089 117.2306764  36.9231576  62.7437638 116.8227151  38.3744978
  60.9022873 120.6837404  28.2577641  61.8140729 120.9164791  28.0825339
  60.3932520 121.2674448  27.6952720  59.1863640 125.1062032  41.8938934
  59.5946996 124.6644443  41.1493566  58.4640902 124.5314660  42.1473126
  55.5394710 120.0434639  39.2672491  56.3855906 120.4674052  39.4107140
  55.4793348 119.3868263  39.9611054  58.6894156 117.7039007  40.9253664
  58.4455088 118.4581068  40.3887940  58.9654086 118.0824355  41.7600911
  60.6432619 124.2477620  39.6030930  60.8549514 124.8909379  38.9265311
  60.5962367 123.4139936  39.1352860  58.2458847 116.8595440  36.5067502
  57.3843327 117.1576694  36.7984239  58.2721282 117.0765839  35.5748535
  53.9989303 121.5260783  29.7230873  54.7013346 121.9781827  30.1904799
  53.6669931 120.8844602  30.3510766  52.4469664 120.1172540  44.0982082
  51.8168325 120.7988821  44.3317479  52.3405752 120.0055621  43.1535220
  47.7414637 119.7844336  35.0248006  46.9513691 120.0401864  34.5488117
  48.2325884 120.5992674  35.1300047  49.6929382 120.1488915  31.9831483
  48.8960546 120.2607609  32.5014979  49.4654974 120.4875567  31.1172373
  69.8484440 123.4688323  34.1238259  69.0948148 122.8995722  33.9682263
  69.9831981 123.4350988  35.0708893  51.7250407 114.4193306  46.4607333
  51.3317353 113.8659504  47.1354977  52.5416548 114.7303884  46.8513851
  54.6418368 115.8351185  44.0527590  55.3828082 116.4358338  43.9732052
  54.8736291 115.0928822  43.4945632  49.7859706 121.0207552  42.3305819
  49.6713221 120.1192809  42.6312918  48.9304224 121.2671249  41.9790636
  58.5875531 111.8632288  38.3291871  58.2439801 112.7533929  38.2530982
  58.9554494 111.6733945  37.4661456  58.5525814 121.8540899  26.8364306
  58.0372437 122.6245503  27.0752694  58.2803122 121.1806035  27.4597368
  56.1372925 116.6990600  31.8949545  55.2814521 116.3097450  31.7155184
  56.5499877 116.7782560  31.0349330  57.6672072 114.2336943  36.2941105
  57.1636867 114.1967078  35.4808910  57.9602678 115.1429686  36.3537761
  53.9114957 114.3175673  35.3007286  54.7767954 114.1218481  34.9413176
  53.9792466 114.0886024  36.2276643  63.5260088 124.6073253  28.7717480
  62.7489531 124.2684413  28.3272642  64.2051569 124.6125877  28.0972445
  58.3412117 119.7267991  28.6624088  58.0362253 120.0414140  29.5134231
  59.2942559 119.8049411  28.7051421  61.7651395 124.0807235  35.4284088
  61.1075069 124.7706496  35.5164217  62.5691794 124.4703667  35.7718074
  51.5177276 116.5477880  32.6723653  52.0921028 116.3253062  31.9396846
  52.1048259 116.6166575  33.4252254  60.5756854 122.4351607  33.4788030
  61.0888735 123.0681599  33.9809739  61.2258078 121.8352803  33.1131390
  51.8446864 118.5782341  26.6919538  51.0084176 118.9157028  27.0128813
  51.7051633 118.4431321  25.7546675  53.8199944 113.4219129  31.3998723
  53.1664357 113.1068147  30.7755337  53.7780418 112.7994870  32.1258546
  54.9311149 123.7038424  23.3152015  54.0238211 123.4727678  23.5143164
  55.4282181 122.9076044  23.5025996  57.0537685 119.9101063  35.7246370
  56.1360246 120.1316010  35.5668058  57.4697828 119.9847373  34.8658078
  57.8372732 121.3092479  30.8549050  58.5844551 121.8213876  30.5456173
  58.1064322 120.9876531  31.7153444  56.1099382 123.8051019  27.8376005
  55.2010602 123.5210052  27.9348475  56.1394466 124.2250098  26.9779312
  60.2851569 118.3449595  32.8367840  59.5474326 117.8326981  33.1678082
  60.5378343 117.9049976  32.0251117  60.3863197 111.1225847  33.4309609
  60.6922074 110.2623210  33.1435524  61.1115802 111.7143467  33.2308603
  54.6584277 121.4179640  33.9385800  54.7132886 120.4653476  33.8628277
  53.8475479 121.5739079  34.4227099  52.5976636 120.0356700  31.6976179
  51.7844502 120.3350870  32.1041371  53.0935631 119.6412388  32.4150661
  58.1950848 120.4998524  40.5291073  58.5500236 120.7269997  41.3885539
  58.8422979 120.8316901  39.9068328  63.9248585 123.6216960  31.2340402
  63.7866484 123.8118556  30.3061591  63.5684804 124.3836343  31.6908453
  52.0890711 117.6075055  37.3137414  52.7290091 117.4663814  36.6160377
  51.2568242 117.3209569  36.9376016  63.9517965 125.6893487  36.2451673
  64.3854471 125.5968776  37.0934727  64.6649545 125.6650987  35.6071689
  49.1733779 121.0520567  29.5032159  48.2431367 120.9905023  29.7202121
  49.2691251 120.5296520  28.7068800  49.0919328 117.5775380  32.0910401
  49.3526145 118.4920713  31.9819561  49.9136500 117.1099823  32.2407014
  50.5644253 118.9913137  39.2609225  51.2367306 118.7830499  38.6121874
  49.7374039 118.7935223  38.8214458  64.8133514 125.7317188  38.7784559
  65.0069404 126.6362998  39.0243834  64.7134132 125.2724607  39.6123144
  56.4669825 115.6175078  41.2774886  55.8197740 116.3165028  41.1839363
  57.2370840 116.0511222  41.6451134  56.6433959 123.4555843  39.3371706
  57.5726019 123.6067003  39.1640673  56.2224989 123.5439864  38.4820352
  50.9671750 122.2655740  40.0211662  50.8291548 121.5335979  40.6223201
  51.8776674 122.1764640  39.7395850  59.9286698 124.2044145  24.7696141
  59.3115869 123.4790973  24.6729194  59.4603186 124.9653505  24.4263215
  53.5954051 121.9775700  39.5095342  54.3053669 121.3368892  39.4681961
  53.5523359 122.2288594  40.4321523  52.3082985 118.9640918  41.3290982
  51.7720342 118.5131656  41.9812578  51.7199693 119.0986826  40.5861446
  51.7185244 118.4229569  23.8917445  50.8414710 118.3018370  23.5279692
  52.1942997 117.6315647  23.6396334  48.0422106 118.0996925  38.4143976
  47.9580295 117.4922595  37.6794386  47.2204812 118.5905944  38.4153472
  58.2145820 116.5850489  33.7814171  58.7114519 115.8320451  33.4615241
  57.4432801 116.6214805  33.2157380  66.0675577 122.2890854  35.4232463
  66.0565454 123.1715570  35.0526396  65.1992957 121.9362405  35.2287000
  54.7980789 118.7267872  33.5085856  54.4278576 118.1738912  34.1966761
  55.2939881 118.1226005  32.9560856  62.6848152 121.1839495  31.8902629
  63.1508604 122.0167487  31.8162931  63.1355653 120.7184477  32.5947887
  60.6564815 113.5520082  35.9293530  59.7427895 113.7824309  36.0975737
  61.0857916 113.6358526  36.7807562  60.4271273 121.7409974  38.4293424
  59.7742723 121.9885882  37.7745877  60.8051653 120.9274112  38.0955901
  56.4758846 122.4829785  44.9159461  55.7999483 122.3823915  45.5861836
  57.2986480 122.3268999  45.3795458  50.1946122 116.1371863  39.7538962
  50.2587449 116.9986693  39.3416359  50.1313243 115.5245864  39.0211320
  49.6698395 118.2094995  43.4011996  50.2970434 117.8272072  44.0149520
  48.8126314 117.9909197  43.7667689  46.4463938 120.0171424  29.3330351
  46.7417379 119.1082103  29.2797405  45.5451973 119.9959164  29.0111353
  49.9758185 118.0927421  35.3157899  49.2544770 118.7063388  35.1765373
  50.7651440 118.6285186  35.2374545  52.7784498 115.4281847  41.5898551
  53.3018900 115.6744144  42.3524861  52.5596831 116.2601882  41.1701689
  48.1751779 117.6985522  29.4569676  47.8464485 116.8182901  29.2744782
  48.5291150 117.6433191  30.3446065  51.2893602 117.9858492  29.8245154
  51.6289675 118.5144413  29.1023762  51.7365723 118.3238898  30.6003720
  53.9837043 116.3695542  39.2748222  53.6433864 115.5703355  39.6768902
  53.2776049 116.6697253  38.7025055  54.6353515 113.4544855  37.7275545
  55.4579584 112.9805333  37.6054435  54.8791579 114.2335339  38.2274231
  53.2761750 116.4833113  28.0238446  53.9970112 116.8614366  27.5202163
  52.6527054 117.2021990  28.1273424  57.4192872 117.1878262  28.9596779
  57.6356487 118.0702900  28.6585607  56.9386940 116.7964476  28.2302421
  52.1592094 120.1463975  35.5367523  52.0136675 120.4604278  36.4291805
  51.6817297 120.7648876  34.9838422  54.0188477 117.1366523  35.5848413
  54.0050045 116.2407617  35.2480711  54.7360905 117.1437187  36.2186699
  55.8714607 117.5703864  37.6301540  55.6132385 118.4920934  37.6285871
  55.3399648 117.1734298  38.3202005  53.4225373 116.0180904  30.8535983
  53.5441284 115.0897550  31.0526871  53.1327415 116.0319590  29.9414299
  56.2916563 113.7035814  33.9902703  56.3138260 113.7675147  33.0354682
  56.7084622 112.8640323  34.1843209  66.6700187 123.4391074  32.0281926
  67.1131333 122.6898399  31.6301049  65.7926698 123.4301210  31.6455657
  52.9066452 117.5312901  45.0625916  52.9554608 118.4075024  44.6803685
  53.4488966 116.9890294  44.4897559  63.5119173 124.9246491  41.6559781
  63.5617178 124.7596498  42.5975304  63.4033096 124.0573750  41.2657662
  60.8022935 120.9077419  42.9719088  61.7032798 120.7683884  42.6803086
  60.8770910 121.0731874  43.9117265  55.1365741 118.2844273  41.8172274
  54.2669050 118.5777839  41.5454863  55.3725221 118.8684718  42.5379538
  66.2133052 124.9096312  34.4204373  67.0479943 125.3486116  34.5841933
  66.3492181 124.4334965  33.6012619  63.2624558 122.4676047  40.3681861
  63.7378680 122.6603693  39.5600712  62.3390123 122.5235233  40.1225245
  57.8404774 114.5023890  39.3337695  58.3586718 115.2384917  39.0084183
  57.4859907 114.8087884  40.1684454  49.4203712 119.3628572  27.4499101
  48.7272957 119.4372927  26.7939137  49.1755464 118.5988915  27.9720618
  58.0917369 110.9224173  34.8538591  58.3719122 110.2547362  35.4799018
  58.8767976 111.1153269  34.3413255  61.9626227 119.3441807  38.6010166
  62.9143650 119.4439905  38.6222390  61.7929677 118.5520075  39.1108251
  59.9840606 116.4297390  38.7869567  59.3890539 116.7102403  38.0916056
  59.6990303 116.9191291  39.5586308  64.4414305 122.5647927  37.7152466
  64.4090625 121.6263927  37.9012150  65.0514928 122.6431963  36.9818291
  56.2797636 121.4343980  23.7579670  57.2256740 121.3050188  23.8268088
  55.9011881 120.6958641  24.2349098  64.5908793 119.3558970  37.7610749
  64.0747842 118.5717427  37.5740678  65.4748742 119.0277687  37.9257269
  62.2519520 113.0999986  33.7206562  62.0544341 112.7915074  34.6049894
  62.8619226 113.8261624  33.8504492  70.2590855 123.6263933  36.8558503
  70.9894243 123.3649222  37.4166206  69.6497800 122.8892655  36.8960571
  68.3406152 121.7671796  37.4532954  67.6139315 121.6327761  36.8449446
  67.9253439 122.0748625  38.2589672  54.4640553 119.3593956  23.6934555
  53.5572008 119.0627069  23.7697269  54.7416534 119.0623774  22.8268842
  56.0802618 113.9030846  29.8478797  55.2703347 113.5577931  30.2234043
  56.7687035 113.5938389  30.4366408  58.0093167 112.9808892  31.4703093
  58.5624205 113.4004346  32.1293116  58.2463253 112.0544641  31.5126049
  54.0326266 118.9695966  47.2505857  53.9322993 119.9190323  47.1817948
  53.8147808 118.6414205  46.3781927  53.2339337 116.2180891  23.8346535
  54.0958501 116.5435789  24.0942352  53.4189682 115.4312387  23.3219600
  61.3871974 115.0909418  30.9781758  60.8070643 115.7494222  30.5959810
  61.1207907 114.2686762  30.5669175  59.8375540 114.4914475  33.1803078
  60.3375319 114.6031010  32.3717397  60.4811148 114.1875528  33.8203886
  53.8957536 122.3993105  46.0670919  53.4124618 123.1993465  46.2734808
  53.9818475 122.4101050  45.1138363  60.1696852 117.2509508  30.0338106
  59.2822707 117.5359159  29.8158301  60.5850841 117.0903271  29.1865383
  63.5211388 117.2756029  33.7492445  64.2971778 117.7652481  34.0217062
  62.7959522 117.7014083  34.2064315  65.9583947 117.9883648  34.8066386
  66.5528437 117.7479384  34.0959694  66.0310530 117.2690779  35.4339922
  60.1437876 122.7664044  30.2488396  60.0873077 123.2232595  29.4096028
  60.6966218 122.0054729  30.0711239  63.9542682 118.5553776  31.0738515
  63.6979616 118.1550411  31.9046723  63.3295550 119.2697570  30.9488655
  68.2655019 121.2949849  33.5809807  67.7054577 121.3643038  34.3541369
  67.6598523 121.1190834  32.8609303  60.8772655 123.9568825  27.5440925
  60.8221459 123.7913097  26.6029369  60.2518710 124.6644858  27.7003115
  45.6665170 119.1936890  41.3702347  46.3124034 118.6835844  41.8589573
  45.4582321 119.9305571  41.9445773  54.1868780 113.4576934  27.1226244
  54.1747450 114.4018774  27.2794514  55.0792202 113.2747080  26.8285705
  58.0020900 110.0519711  31.3772180  57.2353296 109.4978198  31.5228863
  58.4131605 110.1241580  32.2386332  50.0062661 116.3404507  45.4677362
  50.8694122 115.9841311  45.6780686  49.4328072 116.0018401  46.1552766
  69.4269286 127.1924205  38.3291871  69.0833555 128.0825847  38.2530982
  69.7948248 127.0025863  37.4661456  71.2256951 126.4517765  33.4309609
  71.5315828 125.5915128  33.1435524  71.9509556 127.0435385  33.2308603
  71.4958569 128.8812000  35.9293530  70.5821649 129.1116227  36.0975737
  71.9251671 128.9650444  36.7807562  68.9311123 126.2516091  34.8538591
  69.2112877 125.5839280  35.4799018  69.7161730 126.4445186  34.3413255
  73.0913275 128.4291903  33.7206562  72.8938096 128.1206991  34.6049894
  73.7012980 129.1553542  33.8504492  68.8486921 128.3100810  31.4703093
  69.4017960 128.7296264  32.1293116  69.0857008 127.3836558  31.5126049
  68.8414654 125.3811628  31.3772180  68.0747050 124.8270115  31.5228863
  69.2525359 125.4533497  32.2386332   2.6682773  29.3227826  30.6538627
   2.2246627  28.5364205  30.3359531   3.3299986  29.5106977  29.9882517
   4.7664011  29.6030626  28.6820028   4.7482486  30.4239507  28.1900297
   5.6883931  29.4784702  28.9070169   5.6779852  26.2426465  31.0770746
   5.5265358  26.0137016  30.1600830   5.6684531  27.1997066  31.0902091
   7.3872058  29.2745587  29.1547228   7.3284605  28.5904807  28.4877811
   7.7891577  30.0164577  28.7027854   5.8723732  28.9760504  31.7311038
   6.4163636  29.5890463  31.2365993   5.2910577  29.5340083  32.2478051
   9.1952527  28.4356558  31.0672359   8.4048070  28.4180697  30.5276859
   8.9585881  28.9744852  31.8221396  10.8168599  27.7045966  28.6247109
  10.5253407  28.0675947  29.4610570  10.2040730  26.9912975  28.4460442
   3.9949791  26.6220271  33.5939795   4.8640951  26.7960924  33.2326429
   3.5156542  27.4414688  33.4715524  15.6542267  38.3308897  22.9985069
  16.2920677  38.2115645  22.2948409  15.5363110  39.2789741  23.0573021
  12.4631973  38.2836325  22.9346594  12.1250484  38.1677390  22.0467129
  13.3321741  37.8827490  22.9147600  12.9451756  39.4371177  28.8932799
  12.9340397  39.0423975  28.0213303  13.1072395  38.7037250  29.4866571
   5.8683221  41.6322993  21.7627705   6.6604512  41.2913818  21.3474005
   6.1079871  41.7417968  22.6829859   9.6659017  42.2208289  27.8411983
   9.3748883  43.1253920  27.7258650  10.3016001  42.2624816  28.5556053
  10.5915224  39.5985137  24.4313343  11.1878796  39.3741160  23.7170306
  10.6490195  38.8569883  25.0338791  20.6091962  35.9935584  20.9771256
  21.3417134  35.4234801  21.2109085  19.8531318  35.6057185  21.4177761
  18.1317383  29.7057158  25.4365864  17.8000707  30.5752569  25.2127079
  17.5362996  29.3893442  26.1159895  14.6248902  41.9069704  24.8361777
  14.3249625  42.8094743  24.7277584  14.2799962  41.6401888  25.6882930
  18.0246046  34.4252245  22.5159214  17.1162923  34.3567653  22.2217975
  17.9733642  34.9024189  23.3441040   9.6069682  48.6714025  17.8032745
   9.5293712  49.6221850  17.8821225   9.0031326  48.3259897  18.4607671
  12.0986912  35.8441890  30.4594112  11.3220246  36.4035810  30.4496976
  12.7377475  36.3298673  30.9808982  19.8907692  32.6268683  24.2937088
  19.2482073  32.9201216  23.6476883  19.3862621  32.5121603  25.0990285
  10.3533284  38.6527343  30.0212079  11.0947968  39.1912387  29.7446902
   9.6470269  39.2793632  30.1783631  15.8288624  40.7956484  28.6184240
  16.2371980  40.3538894  27.8738873  15.1065885  40.2209111  28.8718433
  12.1819694  35.7329091  25.9917797  13.0280889  36.1568504  26.1352446
  12.1218331  35.0762715  26.6856360  16.1517438  41.3557675  22.3736529
  15.5226301  41.5203389  21.6712597  15.7643100  41.7699284  23.1447493
  20.0306670  42.2912112  19.7280893  19.3457708  42.6711014  19.1777926
  20.1150520  42.9007439  20.4612841  15.3319139  33.3933459  27.6498971
  15.0880071  34.1475520  27.1133246  15.6079070  33.7718807  28.4846218
  17.2857602  39.9372071  26.3276236  17.4974497  40.5803831  25.6510617
  17.2387350  39.1034388  25.8598166   8.5969481  40.6403564  22.5766377
   9.1670838  41.0690833  21.9383862   9.1877593  40.3586149  23.2750563
   9.0894648  35.8066992  30.8227389   8.4593308  36.4883273  31.0562786
   8.9830736  35.6950073  29.8780527  18.4003430  42.8144027  24.4998594
  19.2220873  42.4124214  24.2181275  18.3965833  42.7112261  25.4514710
  12.1660033  42.3628070  26.6559304  12.2304466  42.8248477  27.4917476
  11.4570957  41.7325435  26.7841614  26.4909423  39.1582775  20.8483565
  25.7373131  38.5890173  20.6927570  26.6256964  39.1245440  21.7954200
   8.3675390  30.1087758  33.1852640   7.9742336  29.5553956  33.8600284
   9.1841531  30.4198336  33.5759157   7.1432333  44.6637372  19.1788963
   7.3198961  45.5855337  18.9909947   7.9389166  44.3495791  19.6083343
  11.2843351  31.5245637  30.7772896  12.0253065  32.1252790  30.6977359
  11.5161274  30.7823274  30.2190939   6.4284689  36.7102004  29.0551126
   6.3138205  35.8087261  29.3558225   5.5729207  36.9565701  28.7035943
  13.5076527  44.6519744  30.6538627  13.0640381  43.8656123  30.3359531
  14.1693741  44.8398895  29.9882517   8.2663648  46.1815546  25.1799305
   8.8171074  46.0532609  24.4076299   7.4275124  46.4810435  24.8294198
  15.6057765  44.9322544  28.6820028  15.5876241  45.7531425  28.1900297
  16.5277685  44.8076619  28.9070169  12.0630819  42.4466674  29.5243536
  12.5959156  41.6854962  29.2942844  11.5344901  42.1540325  30.2667691
  18.4076378  39.7701687  22.1529395  17.7500053  40.4600948  22.2409523
  19.2116777  40.1598118  22.4963381  17.2181837  38.1246059  20.2033336
  17.7313719  38.7576051  20.7055046  17.8683061  37.5247255  19.8376696
  13.6962668  35.5995515  22.4491677  12.7785229  35.8210462  22.2913365
  14.1122811  35.6741825  21.5903384  17.9843633  43.1052061  18.3312479
  17.5305960  42.2642971  18.3877669  17.3537600  43.7413459  18.6687259
  16.4276572  44.9428557  19.2662297  16.7199547  45.5033614  18.5474663
  16.9375193  45.2357118  20.0215456  11.3910198  45.7208908  20.3555750
  11.3486376  45.9469755  19.4264282  12.3072896  45.4872283  20.5041551
  14.8375831  36.1892976  27.2536380  15.1925219  36.4164449  28.1130845
  15.4847963  36.5211353  26.6313635  20.5673568  39.3111412  17.9585709
  20.4291467  39.5013008  17.0306898  20.2109787  40.0730795  18.4153760
  20.5942948  41.3787939  22.9696980  21.0279455  41.2863228  23.8180034
  21.3074529  41.3545439  22.3316996   9.5075998  42.5971937  20.1517713
  10.3016597  42.1022258  19.9500288   8.7967691  42.0689801  19.7885419
  14.3270843  44.9790033  24.5030081  14.3807865  45.5480969  25.2707797
  13.4585624  45.1491918  24.1384118   7.2069236  34.6807589  25.9854532
   7.8792290  34.4724951  25.3367181   6.3799023  34.4829675  25.5459764
  21.4558498  41.4211640  25.5029865  21.6494388  42.3257450  25.7489140
  21.3559116  40.9619059  26.3368450  13.1094808  31.3069530  28.0020193
  12.4622723  32.0059480  27.9084669  13.8795824  31.7405674  28.3696441
  16.5173606  41.5718382  31.0770746  16.3659113  41.3428934  30.1600830
  16.5078286  42.5288984  31.0902091  13.2858943  39.1450295  26.0617013
  14.2151003  39.2961455  25.8885980  12.8649973  39.2334316  25.2065659
  12.0847274  43.1700959  23.8315550  11.9458360  42.8019744  24.7041488
  11.2961871  43.6848599  23.6599508  12.6795426  48.2710056  15.1741087
  12.8547182  47.7998099  15.9886709  11.9928214  48.8975822  15.4022347
  13.6352490  42.5482562  21.2204388  13.3002322  42.5083332  22.1162038
  13.1356435  41.8827278  20.7474798   7.6096734  37.9550192  26.7456969
   7.4716531  37.2230431  27.3468508   8.5201657  37.8659092  26.4641157
  10.2379034  37.6670152  26.2340649  10.9478653  37.0263344  26.1927267
  10.1948342  37.9183046  27.1566830  18.2265813  44.6037505  29.1547228
  18.1678359  43.9196725  28.4877811  18.6285331  45.3456495  28.7027854
   8.9507968  34.6535369  28.0536288   8.4145325  34.2026108  28.7057885
   8.3624677  34.7881278  27.3106753   7.2456512  51.4199419  21.9480947
   7.4853110  52.0517943  22.6259965   6.4025708  51.0687459  22.2346306
  18.2283220  42.5677089  27.3861208  17.3409999  42.2303011  27.5087606
  18.7981771  41.8360120  27.6229973  11.7584374  47.2278541  24.3522451
  11.6854545  48.0333513  24.8641755  11.3161767  47.4270507  23.5270472
  11.5474153  46.4650311  17.8625272  10.7641675  47.0071991  17.9563497
  12.2466898  46.9824291  18.2619514  22.7100561  37.9785306  22.1477769
  22.6990437  38.8610022  21.7771702  21.8417940  37.6256857  21.9532306
  14.2183057  47.1265375  26.5080609  14.9311029  47.7612840  26.4356511
  13.7273086  47.2229241  25.6920611  15.9400584  41.0316628  18.0797901
  15.0056863  41.1518090  17.9102605  16.1177252  40.1289095  17.8157911
  19.3273135  36.8733947  18.6147935  19.7933588  37.7061939  18.5408238
  19.7780636  36.4078929  19.3193194   9.2694971  44.8759819  27.3286180
   9.9704430  45.5096302  27.4815575   8.7990086  45.2174550  26.5681820
  17.0696257  37.4304426  25.1538731  16.4167707  37.6780334  24.4991183
  17.4476636  36.6168564  24.8201208  14.0303430  47.4664119  19.2566901
  14.2125825  46.6485775  19.7194653  14.8536416  47.6831812  18.8191791
  14.3645596  46.3932304  16.5181949  14.8933362  45.8824759  15.9052112
  14.6273816  46.0774835  17.3827482  13.1183830  38.1724237  31.6404768
  12.4424467  38.0718366  32.3107143  13.9411463  38.0163451  32.1040765
   4.8662689  44.4096174  24.2617283   5.4516125  43.6639862  24.3945187
   4.6687527  44.7200130  25.1453947   7.7201344  47.4447421  19.2779725
   7.0511719  47.9293549  18.7943765   7.5814214  47.6916642  20.1923104
  11.8606612  49.4791165  25.8762384  12.4124920  49.6422786  26.6411469
  12.2012806  50.0695602  25.2042409   6.3123378  33.8989447  30.1257303
   6.9395417  33.5166524  30.7394827   5.4551297  33.6803649  30.4912995
  16.7117487  44.3052422  31.7311038  17.2557391  44.9182380  31.2365993
  16.1304332  44.8632001  32.2478051  14.9975000  47.4273140  22.8626066
  14.8726139  46.6262880  22.3537011  15.6554091  47.9219333  22.3740036
  17.0609908  45.2282160  24.4905616  16.1140244  45.1087511  24.4183943
  17.4092681  44.3404658  24.5731877   9.4209481  31.1176299  28.3143858
   9.9443883  31.3638596  29.0770167   9.2021815  31.9496334  27.8946995
  14.0656341  45.0234876  20.6909968  13.9181304  44.0951584  20.8717538
  14.8909835  45.0454967  20.2067043  17.6690463  45.8463435  21.7774841
  18.5937011  45.6406296  21.6399292  17.5005767  45.5979836  22.6864182
  10.6262027  32.0589994  25.9993528  10.2858847  31.2597807  26.4014208
   9.9201033  32.3591705  25.4270362  12.5139591  33.2598315  24.3546847
  12.2557369  34.1815386  24.3531177  11.9824631  32.8628750  25.0447311
  17.4585779  46.3649103  17.1336932  17.6322657  45.7995525  16.3810785
  17.9514671  47.1649997  16.9516422   3.2762739  38.3763772  25.2000491
   2.7316207  39.1523580  25.3320766   4.1542089  38.7234576  25.0419613
  23.3125171  39.1285526  18.7527232  23.7556317  38.3792851  18.3546355
  22.4351681  39.1195662  18.3700964  18.4460952  45.6815867  14.2333831
  19.1411857  46.3022560  14.4521145  18.7884102  44.8311218  14.5086209
   4.0628761  37.5033668  28.0930648   3.3210497  37.6516303  28.6795279
   3.7421505  37.7641934  27.2297397  20.3452375  43.1315573  15.7621161
  20.8703699  43.4702845  15.0370481  20.2574728  42.1962588  15.5784296
  12.0072424  47.0449646  27.8911038  12.3159550  46.7998793  28.7633738
  12.8047906  47.2496285  27.4029908  12.0293036  49.1987556  20.1216415
  11.5898026  48.7063935  20.8149271  12.7801153  48.6560523  19.8808490
   4.5085375  45.3899097  20.1241043   5.3343395  45.0902869  19.7439686
   4.1579427  44.6206719  20.5730831   9.4766908  44.7425565  22.1938716
   8.8546917  44.0796270  21.8940944  10.1471775  44.7686697  21.5112364
   9.5491435  33.2207353  31.7871222   9.5979591  34.0969476  31.4048992
  10.0913950  32.6784746  31.2142866  20.0346281  43.7648476  31.0672359
  19.2441825  43.7472615  30.5276859  19.7979636  44.3036770  31.8221396
  20.1544156  40.6140943  28.3805088  20.2042161  40.4490950  29.3220611
  20.0458080  39.7468202  27.9902969  17.4447919  36.5971871  29.6964395
  18.3457781  36.4578335  29.4048392  17.5195893  36.7626325  30.6362572
  11.7790724  33.9738725  28.5417581  10.9094033  34.2672291  28.2700170
  12.0150204  34.5579170  29.2624845  21.6562353  43.0337884  28.6247109
  21.3647161  43.3967865  29.4610570  21.0434484  42.3204892  28.4460442
  22.8558035  40.5990764  21.1449680  23.6904927  41.0380568  21.3087240
  22.9917164  40.1229417  20.3257925  19.9049541  38.1570499  27.0927167
  20.3803663  38.3498145  26.2846019  18.9815107  38.2129685  26.8470551
  14.4829758  30.1918342  26.0583001  15.0011702  30.9279369  25.7329490
  14.1284891  30.4982336  26.8929760  18.6051210  35.0336259  25.3255473
  19.5568633  35.1334356  25.3467697  18.4354661  34.2414527  25.8353557
  16.6265590  32.1191842  25.5114874  16.0315522  32.3996855  24.8161363
  16.3415286  32.6085743  26.2831615  21.0839288  38.2542378  24.4397773
  21.0515608  37.3158379  24.6257457  21.6939912  38.3326415  23.7063598
  21.2333777  35.0453422  24.4856056  20.7172825  34.2611879  24.2985985
  22.1173725  34.7172139  24.6502575  26.9015838  39.3158385  23.5803810
  27.6319226  39.0543673  24.1411513  26.2922783  38.5787107  23.6205877
  24.9831135  37.4566248  24.1778261  24.2564299  37.3222213  23.5694752
  24.5678422  37.7643077  24.9834979  12.8061311  41.1756178  31.9425634
  13.7264321  41.3534777  32.1365680  12.7710894  40.2312223  31.7905333
   5.8023384  39.0857212  24.5848415   6.0209394  40.0174320  24.6036449
   6.2149158  38.7265187  25.3703219  10.6751249  34.6590418  33.9751164
  10.5747976  35.6084775  33.9063255  10.4572791  34.3308657  33.1027234
  10.5382519  38.0887557  32.7916225  10.0549601  38.8887917  32.9980115
  10.6243458  38.0995502  31.8383669   6.4655857  41.9792092  24.8284659
   7.4199110  41.9476034  24.7614591   6.2668380  41.5182715  25.6434885
   7.0555239  40.5493208  27.3955457   7.8748128  41.0437286  27.4190294
   7.3292047  39.6325176  27.3673024  20.1636371  32.9650481  20.4737752
  20.9396761  33.4546933  20.7462369  19.4384505  33.3908535  20.9309621
  22.6008930  33.6778100  21.5311692  23.1953421  33.4373836  20.8205001
  22.6735514  32.9585231  22.1585229   4.8206086  47.5211711  21.8454857
   4.6860554  46.7612112  21.2792855   4.4038148  48.2452611  21.3783646
  24.9080003  36.9844301  20.3055114  24.3479561  37.0537490  21.0786676
  24.3023506  36.8085286  19.5854610   7.9775212  48.4181028  22.0573300
   7.8607596  49.3626461  21.9551990   7.1567658  48.1154590  22.4459099
   2.3090153  34.8831341  28.0947654   2.9549017  34.3730295  28.5834879
   2.1007304  35.6200023  28.6691079  14.8343545  41.9512189  33.5939795
  15.7034705  42.1252841  33.2326429  14.3550297  42.7706606  33.4715524
   9.0029726  49.0709290  25.2729228   9.9056972  49.1032900  25.5895723
   8.7767096  48.1409741  25.2875564  10.7583328  47.8240276  21.9339307
   9.8078959  47.8242138  21.8203679  11.0615814  47.0773011  21.4175341
   6.6487644  32.0298959  32.1922668   7.5119106  31.6735763  32.4025993
   6.0753055  31.6912853  32.8798073  26.4936021  53.6600815  22.9985069
  27.1314431  53.5407562  22.2948409  26.3756864  54.6081659  23.0573021
  23.3025727  53.6128243  22.9346594  22.9644239  53.4969308  22.0467129
  24.1715496  53.2119408  22.9147600  19.1612543  55.4663719  18.9243485
  18.5977408  55.3753656  18.1559773  19.0464938  54.6463624  19.4045977
  23.7845510  54.7663095  28.8932799  23.7734151  54.3715893  28.0213303
  23.9466150  54.0329167  29.4866571  16.7076975  56.9614911  21.7627705
  17.4998267  56.6205736  21.3474005  16.9473625  57.0709886  22.6829859
  24.7412102  59.1334687  14.2357950  24.0900082  59.7188768  13.8491964
  25.5356465  59.6640882  14.2952987  18.6667729  56.2223824  14.6345084
  19.4398605  55.6752811  14.4957960  19.0193128  57.0868074  14.8459546
  20.5052772  57.5500207  27.8411983  20.2142638  58.4545837  27.7258650
  21.1409756  57.5916734  28.5556053  21.4308978  54.9277055  24.4313343
  22.0272551  54.7033077  23.7170306  21.4883950  54.1861801  25.0338791
  21.0034007  52.3816490  12.2663534  21.2559527  51.8598012  11.5046997
  20.0658566  52.2182636  12.3690218  26.0477290  51.3852269  20.0738277
  26.8340379  50.9671692  19.7228694  26.3115994  52.2898361  20.2419926
  26.2187367  56.8225119  14.7726934  25.5833200  56.8959746  15.4847839
  25.8884773  57.4118718  14.0946013  31.4485717  51.3227502  20.9771256
  32.1810889  50.7526719  21.2109085  30.6925072  50.9349102  21.4177761
  20.7230296  54.2844596  14.4687909  20.6066554  53.6089500  15.1368993
  20.8332555  53.7976970  13.6520062  23.0661836  53.7454743  18.1734598
  22.7020044  53.2185364  18.8847520  23.9228952  53.3553212  18.0001084
  28.9711137  45.0349076  25.4365864  28.6394462  45.9044487  25.2127079
  28.3756750  44.7185360  26.1159895  22.7067323  48.7744643  13.1695947
  22.8741726  49.6424880  13.5366418  22.5164493  48.9371925  12.2457236
  25.4642657  57.2361622  24.8361777  25.1643380  58.1386661  24.7277584
  25.1193716  56.9693805  25.6882930  18.9155138  53.6875419  20.8698482
  17.9905635  53.5551633  21.0776173  19.1639551  54.4669638  21.3668424
  28.8639800  49.7544162  22.5159214  27.9556678  49.6859571  22.2217975
  28.8127396  50.2316107  23.3441040  22.6856544  51.2302301  14.1542614
  22.5656170  51.6759351  14.9928094  21.9909133  51.5787618  13.5956152
  16.2763949  53.3308692  21.7042271  16.4056330  53.5843171  22.6181682
  15.5961400  53.9236400  21.3846926  20.4463436  64.0005942  17.8032745
  20.3687466  64.9513767  17.8821225  19.8425080  63.6551815  18.4607671
  22.9380666  51.1733808  30.4594112  22.1614000  51.7327728  30.4496976
  23.5771229  51.6590591  30.9808982  30.7301447  47.9560601  24.2937088
  30.0875827  48.2493134  23.6476883  30.2256375  47.8413521  25.0990285
  28.3841610  51.7023774  14.9822948  29.2959467  51.9351161  14.8070645
  27.8751258  52.2860818  14.4198026  21.1927039  53.9819261  30.0212079
  21.9341723  54.5204305  29.7446902  20.4864024  54.6085550  30.1783631
  26.6682378  56.1248402  28.6184240  27.0765734  55.6830812  27.8738873
  25.9459640  55.5501029  28.8718433  23.0213448  51.0621008  25.9917797
  23.8674643  51.4860422  26.1352446  22.9612086  50.4054633  26.6856360
  26.9911193  56.6849592  22.3736529  26.3620055  56.8495306  21.6712597
  26.6036855  57.0991202  23.1447493  30.8700425  57.6204030  19.7280893
  30.1851463  58.0002931  19.1777926  30.9544274  58.2299357  20.4612841
  26.1712894  48.7225377  27.6498971  25.9273825  49.4767437  27.1133246
  26.4472824  49.1010724  28.4846218  28.1251356  55.2663989  26.3276236
  28.3368252  55.9095749  25.6510617  28.0781105  54.4326306  25.8598166
  25.7277585  47.8781810  23.2312809  24.8662064  48.1763063  23.5229546
  25.7540020  48.0952209  22.2993841  22.5439155  56.4224000  19.6386614
  23.0077500  56.7011703  18.8491237  22.2795953  55.5207445  19.4559705
  19.4363236  55.9695482  22.5766377  20.0064593  56.3982750  21.9383862
  20.0271348  55.6878067  23.2750563  21.4808041  52.5447153  16.4476179
  22.1832084  52.9968196  16.9150106  21.1488669  51.9030972  17.0756072
  19.9288402  51.1358909  30.8227389  19.2987063  51.8175190  31.0562786
  19.8224490  51.0241991  29.8780527  15.2233375  50.8030705  21.7493313
  14.4332429  51.0588234  21.2733424  15.7144622  51.6179043  21.8545353
  29.2397184  58.1435945  24.4998594  30.0614628  57.7416132  24.2181275
  29.2359587  58.0404179  25.4514710  17.1748120  51.1675285  18.7076790
  16.3779283  51.2793979  19.2260285  16.9473712  51.5061937  17.8417680
  23.0053788  57.6919988  26.6559304  23.0698220  58.1540395  27.4917476
  22.2964712  57.0617353  26.7841614  13.5071078  51.0561196  24.1808304
  13.7579116  51.9408206  24.4465880  14.0430626  50.8765797  23.4083396
  37.3303177  54.4874693  20.8483565  36.5766886  53.9182091  20.6927570
  37.4650719  54.4537358  21.7954200  22.7201805  59.3588095  16.5238285
  22.5847480  60.2039631  16.9523132  23.2611618  59.5607373  15.7604218
  19.2069145  45.4379675  33.1852640  18.8136091  44.8845874  33.8600284
  20.0235285  45.7490254  33.5759157  16.1731203  56.8763533  17.0966210
  16.6855723  57.6706784  17.2471774  16.8253916  56.1789824  17.0299811
  17.9826087  59.9929290  19.1788963  18.1592716  60.9147254  18.9909947
  18.7782921  59.6787709  19.6083343  22.1237106  46.8537554  30.7772896
  22.8646819  47.4544707  30.6977359  22.3555029  46.1115192  30.2190939
  17.2678444  52.0393922  29.0551126  17.1531959  51.1379179  29.3558225
  16.4122962  52.2857618  28.7035943  24.3470282  59.9811662  30.6538627
  23.9034136  59.1948040  30.3359531  25.0087495  60.1690812  29.9882517
  19.1057403  61.5107463  25.1799305  19.6564828  61.3824527  24.4076299
  18.2668879  61.8102352  24.8294198  26.4451520  60.2614462  28.6820028
  26.4269995  61.0823343  28.1900297  27.3671440  60.1368537  28.9070169
  22.9024574  57.7758591  29.5243536  23.4352911  57.0146879  29.2942844
  22.3738655  57.4832243  30.2667691  26.0694269  42.8818657  25.0537178
  25.7258538  43.7720299  24.9776289  26.4373232  42.6920315  24.1906763
  14.1380120  55.2052188  17.8725780  14.9755342  55.6149196  17.6559488
  14.3158387  54.2651630  17.8425974  26.0344552  52.8727268  13.5609613
  25.5191175  53.6431873  13.7998001  25.7621860  52.1992404  14.1842675
  23.6191663  47.7176969  18.6194852  22.7633259  47.3283819  18.4400490
  24.0318614  47.7968930  17.7594637  25.1490809  45.2523312  23.0186411
  24.6455605  45.2153448  22.2054217  25.4421416  46.1616055  23.0783068
  21.3933695  45.3362042  22.0252593  22.2586692  45.1404851  21.6658482
  21.4611204  45.1072394  22.9521950  31.0078826  55.6259623  15.4962787
  30.2308269  55.2870782  15.0517949  31.6870307  55.6312246  14.8217752
  25.8230855  50.7454360  15.3869394  25.5180990  51.0600510  16.2379537
  26.7761297  50.8235780  15.4296727  24.2677287  56.9044584  17.0362348
  23.7398648  56.1697343  16.7235586  23.7664789  57.6819260  16.7902317
  29.2470133  55.0993604  22.1529395  28.5893807  55.7892866  22.2409523
  30.0510532  55.4890036  22.4963381  18.9996014  47.5664250  19.3968960
  19.5739766  47.3439432  18.6642153  19.5866997  47.6352945  20.1497561
  28.0575591  53.4537977  20.2033336  28.5707473  54.0867969  20.7055046
  28.7076815  52.8539172  19.8376696  19.3265601  49.5968711  13.4164845
  18.4902914  49.9343398  13.7374120  19.1870371  49.4617691  12.4791982
  21.3018682  44.4405499  18.1244029  20.6483094  44.1254516  17.5000644
  21.2599156  43.8181239  18.8503852  22.4129887  54.7224794  10.0397321
  21.5056949  54.4914047  10.2388470  22.9100919  53.9262413  10.2271303
  25.3197966  63.4322301  12.9594007  24.6459664  63.7353998  13.5678965
  25.7063788  64.2351382  12.6099465  24.5356422  50.9287432  22.4491677
  23.6178984  51.1502379  22.2913365  24.9516566  51.0033743  21.5903384
  25.3191470  52.3278848  17.5794357  26.0663289  52.8400245  17.2701479
  25.5883060  52.0062901  18.4398751  23.5918120  54.8237389  14.5621311
  22.6829340  54.5396422  14.6593781  23.6213204  55.2436467  13.7024618
  28.8237388  58.4343978  18.3312479  28.3699715  57.5934888  18.3877669
  28.1931354  59.0705377  18.6687259  27.7670307  49.3635964  19.5613146
  27.0293064  48.8513351  19.8923389  28.0197081  48.9236346  18.7496423
  27.2670327  60.2720475  19.2662297  27.5593301  60.8325532  18.5474663
  27.7768948  60.5649036  20.0215456  27.8681935  42.1412216  20.1554916
  28.1740811  41.2809580  19.8680831  28.5934539  42.7329837  19.9553910
  14.1606291  52.5442903  18.5436514  13.9630690  51.9512264  17.8187580
  13.6052955  52.2395113  19.2612452  22.1403014  52.4366009  20.6631107
  22.1951624  51.4839846  20.5873583  21.3294216  52.5925449  21.1472405
  23.2894208  56.3646133  11.9009390  22.8513638  55.6481991  11.4415027
  24.0304649  56.5922247  11.3394481  20.0795374  51.0543069  18.4221486
  19.2663240  51.3537240  18.8286678  20.5754368  50.6598758  19.1395968
  22.2303952  61.0500826  20.3555750  22.1880131  61.2761672  19.4264282
  23.1466651  60.8164201  20.5041551  25.6769586  51.5184894  27.2536380
  26.0318974  51.7456367  28.1130845  26.3241717  51.8503270  26.6313635
  31.4067323  54.6403330  17.9585709  31.2685221  54.8304926  17.0306898
  31.0503542  55.4022712  18.4153760  19.5709449  48.6261425  24.0382721
  20.2108828  48.4850184  23.3405684  18.7386980  48.3395938  23.6621323
  31.4336702  56.7079857  22.9696980  31.8673209  56.6155146  23.8180034
  32.1468283  56.6837357  22.3316996  20.3469753  57.9263855  20.1517713
  21.1410351  57.4314175  19.9500288  19.6361445  57.3981718  19.7885419
  25.1664597  60.3081951  24.5030081  25.2201620  60.8772887  25.2707797
  24.2979379  60.4783836  24.1384118  16.6552516  52.0706937  16.2277466
  15.7250104  52.0091392  16.4447428  16.7509988  51.5482890  15.4314107
  16.5738065  48.5961750  18.8155707  16.8344883  49.5107083  18.7064868
  17.3955238  48.1286192  18.9652320  18.0462991  50.0099507  25.9854532
  18.7186044  49.8016869  25.3367181  17.2192777  49.8121593  25.5459764
  32.2952252  56.7503557  25.5029865  32.4888142  57.6549368  25.7489140
  32.1952870  56.2910976  26.3368450  23.9488563  46.6361448  28.0020193
  23.3016478  47.3351397  27.9084669  24.7189578  47.0697592  28.3696441
  27.3567361  56.9010300  31.0770746  27.2052867  56.6720852  30.1600830
  27.3472040  57.8580901  31.0902091  24.1252697  54.4742213  26.0617013
  25.0544757  54.6253372  25.8885980  23.7043727  54.5626234  25.2065659
  22.9241029  58.4992877  23.8315550  22.7852115  58.1311662  24.7041488
  22.1355625  59.0140517  23.6599508  23.5189181  63.6001974  15.1741087
  23.6940937  63.1290017  15.9886709  22.8321969  64.2267740  15.4022347
  24.4746244  57.8774480  21.2204388  24.1396077  57.8375250  22.1162038
  23.9750190  57.2119196  20.7474798  18.4490488  53.2842110  26.7456969
  18.3110286  52.5522349  27.3468508  19.3595411  53.1951010  26.4641157
  27.4105436  55.2230514  11.4941448  26.7934606  54.4977342  11.3974500
  26.9421924  55.9839874  11.1508522  21.0772789  52.9962069  26.2340649
  21.7872407  52.3555261  26.1927267  21.0342097  53.2474964  27.1566830
  29.0659567  59.9329423  29.1547228  29.0072114  59.2488643  28.4877811
  29.4679086  60.6748413  28.7027854  19.7901723  49.9827287  28.0536288
  19.2539080  49.5318026  28.7057885  19.2018431  50.1173196  27.3106753
  18.0850266  66.7491336  21.9480947  18.3246864  67.3809861  22.6259965
  17.2419463  66.3979376  22.2346306  29.0676975  57.8969006  27.3861208
  28.1803753  57.5594928  27.5087606  29.6375526  57.1652038  27.6229973
  10.7206122  54.2293098  20.7104259  11.4077162  53.9154828  20.1225274
  10.5654250  55.1334463  20.4371510  15.5240844  49.1183295  25.1389283
  15.4399033  48.5108964  24.4039693  14.7023550  49.6092313  25.1398779
  22.5978128  62.5570459  24.3522451  22.5248299  63.3625430  24.8641755
  22.1555521  62.7562425  23.5270472  22.3867908  61.7942229  17.8625272
  21.6035430  62.3363909  17.9563497  23.0860653  62.3116208  18.2619514
  25.6964558  47.6036858  20.5059478  26.1933257  46.8506821  20.1860548
  24.9251539  47.6401175  19.9402687  33.5494315  53.3077224  22.1477769
  33.5384191  54.1901939  21.7771702  32.6811695  52.9548775  21.9532306
  25.0576812  62.4557293  26.5080609  25.7704784  63.0904758  26.4356511
  24.5666840  62.5521159  25.6920611  26.7794338  56.3608546  18.0797901
  25.8450617  56.4810008  17.9102605  26.9571007  55.4581012  17.8157911
  22.2799527  49.7454241  20.2331162  21.9097314  49.1925282  20.9212068
  22.7758619  49.1412375  19.6806162  30.1666890  52.2025865  18.6147935
  30.6327342  53.0353856  18.5408238  30.6174390  51.7370846  19.3193194
  20.1088725  60.2051736  27.3286180  20.8098185  60.8388219  27.4815575
  19.6383840  60.5466468  26.5681820  28.2343121  58.5469686  15.6134087
  28.5102965  58.4326281  16.5227961  27.3647620  58.1487171  15.5746260
  28.1383553  44.5706452  22.6538837  27.2246632  44.8010679  22.8221044
  28.5676654  44.6544896  23.5052869  27.9090011  52.7596344  25.1538731
  27.2561461  53.0072251  24.4991183  28.2870391  51.9460482  24.8201208
  24.8697185  62.7956037  19.2566901  25.0519579  61.9777693  19.7194653
  25.6930171  63.0123729  18.8191791  25.2039350  61.7224222  16.5181949
  25.7327117  61.2116677  15.9052112  25.4667570  61.4066752  17.3827482
  23.9577584  53.5016155  31.6404768  23.2818221  53.4010284  32.3107143
  24.7805218  53.3455369  32.1040765  15.7056443  59.7388091  24.2617283
  16.2909880  58.9931779  24.3945187  15.5081282  60.0492048  25.1453947
  18.5595098  62.7739339  19.2779725  17.8905474  63.2585466  18.7943765
  18.4207968  63.0208559  20.1923104  10.2974098  52.3093692  22.9821726
  10.3358197  51.7757282  23.7758844   9.7914391  51.7828897  22.3632703
  22.7000367  64.8083082  25.8762384  23.2518675  64.9714704  26.6411469
  23.0406560  65.3987520  25.2042409  17.6764860  47.1558232  26.4784268
  17.7406187  48.0173063  26.0661666  17.6131980  46.5432234  25.7456627
  17.1517133  49.2281365  30.1257303  17.7789172  48.8458442  30.7394827
  16.2945052  49.0095567  30.4912995  27.5511241  59.6344340  31.7311038
  28.0951145  60.2474298  31.2365993  26.9698086  60.1923918  32.2478051
  13.9282675  51.0357794  16.0575658  14.2236117  50.1268472  16.0042711
  13.0270711  51.0145533  15.7356660  25.8368754  62.7565058  22.8626066
  25.7119894  61.9554798  22.3537011  26.4947845  63.2511251  22.3740036
  17.4576922  49.1113790  22.0403206  16.7363508  49.7249758  21.9010679
  18.2470178  49.6471555  21.9619852  27.9003663  60.5574078  24.4905616
  26.9533998  60.4379429  24.4183943  28.2486436  59.6696576  24.5731877
  20.2603236  46.4468217  28.3143858  20.7837638  46.6930513  29.0770167
  20.0415569  47.2788252  27.8946995  15.6570517  48.7171891  16.1814983
  15.3283223  47.8369270  15.9990089  16.0109888  48.6619560  17.0691372
  24.9050096  60.3526794  20.6909968  24.7575058  59.4243502  20.8717538
  25.7303589  60.3746885  20.2067043  18.7712340  49.0044861  16.5490460
  19.1108413  49.5330782  15.8269069  19.2184461  49.3425267  17.3249027
  28.5084218  61.1755353  21.7774841  29.4330765  60.9698214  21.6399292
  28.3399521  60.9271754  22.6864182  21.4655781  47.3881912  25.9993528
  21.1252601  46.5889725  26.4014208  20.7594787  47.6883623  25.4270362
  22.1172253  44.4731224  24.4520851  22.9398322  43.9991703  24.3299742
  22.3610316  45.2521708  24.9519538  20.7580487  47.5019483  14.7483753
  21.4788850  47.8800736  14.2447470  20.1345791  48.2208360  14.8518731
  24.9011610  48.2064632  15.6842085  25.1175225  49.0889270  15.3830914
  24.4205677  47.8150845  14.9547727  19.6410832  51.1650345  22.2612830
  19.4955412  51.4790648  23.1537112  19.1636035  51.7835245  21.7083729
  21.5007214  48.1552893  22.3093720  21.4868783  47.2593986  21.9726018
  22.2179643  48.1623557  22.9432006  23.3533345  48.5890233  24.3546847
  23.0951123  49.5107304  24.3531177  22.8218386  48.1920668  25.0447311
  28.2979534  61.6941020  17.1336932  28.4716411  61.1287443  16.3810785
  28.7908425  62.4941915  16.9516422  14.1156494  53.7055689  25.2000491
  13.5709962  54.4815497  25.3320766  14.9935844  54.0526494  25.0419613
  20.9044110  47.0367273  17.5781290  21.0260022  46.1083919  17.7772177
  20.6146153  47.0505959  16.6659605  23.7735301  44.7222184  20.7148010
  23.7956998  44.7861517  19.7599989  24.1903360  43.8826692  20.9088516
  34.1518925  54.4577443  18.7527232  34.5950071  53.7084768  18.3546355
  33.2745435  54.4487580  18.3700964  29.2854706  61.0107785  14.2333831
  29.9805611  61.6314477  14.4521145  29.6277857  60.1603136  14.5086209
  14.9022516  52.8325586  28.0930648  14.1604252  52.9808221  28.6795279
  14.5815260  53.0933851  27.2297397  31.1846130  58.4607490  15.7621161
  31.7097454  58.7994763  15.0370481  31.0968482  57.5254506  15.5784296
  22.8466178  62.3741564  27.8911038  23.1553305  62.1290711  28.7633738
  23.6441660  62.5788202  27.4029908  22.8686790  64.5279473  20.1216415
  22.4291781  64.0355852  20.8149271  23.6194907  63.9852441  19.8808490
  15.3479129  60.7191014  20.1241043  16.1737149  60.4194786  19.7439686
  14.9973181  59.9498637  20.5730831  20.3160662  60.0717483  22.1938716
  19.6940672  59.4088188  21.8940944  20.9865529  60.0978614  21.5112364
  13.5487734  58.6377341  21.0829976  12.7119643  58.2099515  20.9013978
  13.5211380  58.8309784  22.0200767  20.3885190  48.5499271  31.7871222
  20.4373345  49.4261393  31.4048992  20.9307704  48.0076664  31.2142866
  30.8740036  59.0940394  31.0672359  30.0835579  59.0764533  30.5276859
  30.6373390  59.6328688  31.8221396  30.9937911  55.9432860  28.3805088
  31.0435916  55.7782868  29.3220611  30.8851834  55.0760119  27.9902969
  19.8774169  58.6221406  15.6697177  20.0262290  59.3056870  15.0163850
  20.6840613  58.6026496  16.1846633  28.2841673  51.9263788  29.6964395
  29.1851536  51.7870253  29.4048392  28.3589648  52.0918243  30.6362572
  22.6184478  49.3030643  28.5417581  21.7487788  49.5964209  28.2700170
  22.8543959  49.8871088  29.2624845  32.4956108  58.3629802  28.6247109
  32.2040916  58.7259782  29.4610570  31.8828239  57.6496810  28.4460442
  33.6951790  55.9282682  21.1449680  34.5298681  56.3672486  21.3087240
  33.8310919  55.4521335  20.3257925  30.7443296  53.4862416  27.0927167
  31.2197417  53.6790063  26.2846019  29.8208861  53.5421602  26.8470551
  17.6326802  54.6486584  16.6758246  17.3872844  53.7448914  16.8738456
  17.8022717  54.6503734  15.7337724  25.3223512  45.5210260  26.0583001
  25.8405456  46.2571287  25.7329490  24.9678645  45.8274253  26.8929760
  16.9022450  50.3814941  14.1744407  16.2091695  50.4559296  13.5184443
  16.6574202  49.6175285  14.6965924  25.5736106  41.9410542  21.5783898
  25.8537860  41.2733732  22.2044325  26.3586713  42.1339638  21.0658562
  23.3769575  61.1169536  13.1408924  22.8043542  61.7359723  12.6879396
  23.9502369  61.6668898  13.6748846  29.4444965  50.3628176  25.3255473
  30.3962388  50.4626274  25.3467697  29.2748415  49.5706445  25.8353557
  27.4659344  47.4483760  25.5114874  26.8709276  47.7288772  24.8161363
  27.1809041  47.9377661  26.2831615  26.5966835  61.4006686  14.2717507
  27.5297508  61.3352248  14.4750382  26.5090048  62.2362953  13.8132039
  29.2254851  60.7172557  11.2321454  29.1468483  60.3832420  12.1257212
  30.0464518  61.2094325  11.2312926  31.9233043  53.5834296  24.4397773
  31.8909363  52.6450297  24.6257457  32.5333666  53.6618333  23.7063598
  23.7616373  52.4530349  10.4824977  24.7075478  52.3236557  10.5513395
  23.3830618  51.7145011  10.9594405  32.0727531  50.3745340  24.4856056
  31.5566580  49.5903796  24.2985985  32.9567480  50.0464056  24.6502575
  29.7338258  44.1186355  20.4451869  29.5363079  43.8101443  21.3295201
  30.3437964  44.8447994  20.5749798  37.7409592  54.6450303  23.5803810
  38.4712981  54.3835591  24.1411513  37.1316538  53.9079025  23.6205877
  35.8224890  52.7858166  24.1778261  35.0958053  52.6514131  23.5694752
  35.4072176  53.0934994  24.9834979  23.6455066  56.5048095  31.9425634
  24.5658075  56.6826694  32.1365680  23.6104649  55.5604141  31.7905333
  21.9459291  50.3780326  10.4179862  21.0390746  50.0813438  10.4942576
  22.2235272  50.0810144   9.5514148  12.8637231  51.6986689  20.8678908
  12.5440015  50.8451997  20.5753282  12.3170659  51.9135267  21.6236876
  16.6417138  54.4149130  24.5848415  16.8603148  55.3466238  24.6036449
  17.0542912  54.0557104  25.3703219  23.5621356  44.9217215  16.5724103
  22.7522085  44.5764300  16.9479349  24.2505773  44.6124759  17.1611715
  25.4911905  43.9995262  18.1948400  26.0442943  44.4190715  18.8538423
  25.7281991  43.0731010  18.2371356  21.5145004  49.9882336  33.9751164
  21.4141731  50.9376693  33.9063255  21.2966546  49.6600575  33.1027234
  12.7325491  55.3189600  22.8372030  12.0388962  54.9043553  22.3241984
  13.4798482  55.3610137  22.2405449  28.8690712  46.1095787  17.7027064
  28.2889381  46.7680591  17.3205117  28.6026644  45.2873132  17.2914482
  27.3194278  45.5100845  19.9048385  27.8194056  45.6217379  19.0962703
  27.9629886  45.2061898  20.5449193  21.3776274  53.4179475  32.7916225
  20.8943356  54.2179835  32.9980115  21.4637213  53.4287419  31.8383669
  14.6462233  55.2507854  20.7138045  14.6232922  55.3495541  19.7619928
  14.9562870  56.0973005  21.0355211  17.3049611  57.3084009  24.8284659
  18.2592865  57.2767952  24.7614591  17.1062135  56.8474633  25.6434885
  17.8948993  55.8785125  27.3955457  18.7141882  56.3729204  27.4190294
  18.1685801  54.9617093  27.3673024  27.6515590  48.2695878  16.7583412
  26.7641445  48.5545528  16.5403607  28.0669579  48.1089641  15.9110689
  31.0030126  48.2942399  20.4737752  31.7790516  48.7838851  20.7462369
  30.2778260  48.7200453  20.9309621  33.4402684  49.0070018  21.5311692
  34.0347175  48.7665754  20.8205001  33.5129268  48.2877148  22.1585229
  15.6599840  62.8503629  21.8454857  15.5254308  62.0904030  21.2792855
  15.2431902  63.5744529  21.3783646  26.7958803  58.0340552  10.8531432
  27.4994653  58.2390555  11.4689088  26.0721452  58.6017314  11.1180516
  27.6256613  53.7850414  16.9733703  27.5691815  54.2418965  16.1341335
  28.1784956  53.0241098  16.7956545  31.4361419  49.5740145  17.7983822
  31.1798354  49.1736781  18.6292030  30.8114287  50.2883939  17.6733961
  35.7473757  52.3136219  20.3055114  35.1873315  52.3829408  21.0786676
  35.1417261  52.1377203  19.5854610  18.8168966  63.7472946  22.0573300
  18.7001350  64.6918378  21.9551990  17.9961412  63.4446507  22.4459099
  28.7045501  58.4723081  12.9029892  29.5391104  58.0404280  12.7207367
  28.5429843  58.3005095  13.8306787  28.3591393  54.9755195  14.2686232
  28.3040197  54.8099466  13.3274676  27.7337448  55.6831228  14.4248422
  13.1483908  50.2123259  28.0947654  13.7942771  49.7022213  28.5834879
  12.9401059  50.9491941  28.6691079  25.6737300  57.2804107  33.5939795
  26.5428460  57.4544759  33.2326429  25.1944051  58.0998523  33.4715524
  21.6687518  44.4763304  13.8471550  21.6566188  45.4205144  14.0039821
  22.5610940  44.2933449  13.5531011  19.8423480  64.4001208  25.2729228
  20.7450727  64.4324818  25.5895723  19.6160850  63.4701659  25.2875564
  21.5977082  63.1532194  21.9339307  20.6472713  63.1534056  21.8203679
  21.9009568  62.4064929  21.4175341  25.4839638  41.0706080  18.1017487
  24.7172033  40.5164567  18.2474169  25.8950343  41.1427949  18.9631639
  17.4881399  47.3590876  32.1922668  18.3512860  47.0027681  32.4025993
  16.9146809  47.0204771  32.8798073  37.3329776  68.9892733  22.9985069
  37.9708186  68.8699480  22.2948409  37.2150619  69.9373577  23.0573021
  34.1419482  68.9420161  22.9346594  33.8037993  68.8261225  22.0467129
  35.0109250  68.5411326  22.9147600  30.0006298  70.7955637  18.9243485
  29.4371163  70.7045574  18.1559773  29.8858693  69.9755542  19.4045977
  34.6239265  70.0955012  28.8932799  34.6127906  69.7007811  28.0213303
  34.7859904  69.3621085  29.4866571  27.5470730  72.2906829  21.7627705
  28.3392021  71.9497653  21.3474005  27.7867380  72.4001804  22.6829859
  35.5805856  74.4626605  14.2357950  34.9293836  75.0480685  13.8491964
  36.3750219  74.9932800  14.2952987  29.5061483  71.5515742  14.6345084
  30.2792359  71.0044729  14.4957960  29.8586882  72.4159991  14.8459546
  31.3446526  72.8792124  27.8411983  31.0536392  73.7837755  27.7258650
  31.9803510  72.9208652  28.5556053  32.2702733  70.2568973  24.4313343
  32.8666305  70.0324995  23.7170306  32.3277704  69.5153718  25.0338791
  31.8427761  67.7108408  12.2663534  32.0953282  67.1889929  11.5046997
  30.9052320  67.5474553  12.3690218  36.8871044  66.7144186  20.0738277
  37.6734133  66.2963610  19.7228694  37.1509748  67.6190279  20.2419926
  37.0581121  72.1517037  14.7726934  36.4226954  72.2251663  15.4847839
  36.7278528  72.7410636  14.0946013  42.2879471  66.6519420  20.9771256
  43.0204643  66.0818636  21.2109085  41.5318827  66.2641020  21.4177761
  31.5624050  69.6136514  14.4687909  31.4460308  68.9381417  15.1368993
  31.6726310  69.1268888  13.6520062  33.9055591  69.0746661  18.1734598
  33.5413798  68.5477282  18.8847520  34.7622707  68.6845130  18.0001084
  39.8104892  60.3640994  25.4365864  39.4788216  61.2336405  25.2127079
  39.2150505  60.0477278  26.1159895  33.5461078  64.1036561  13.1695947
  33.7135480  64.9716797  13.5366418  33.3558247  64.2663842  12.2457236
  36.3036411  72.5653540  24.8361777  36.0037134  73.4678579  24.7277584
  35.9587471  72.2985723  25.6882930  29.7548893  69.0167337  20.8698482
  28.8299389  68.8843551  21.0776173  30.0033306  69.7961556  21.3668424
  39.7033555  65.0836080  22.5159214  38.7950432  65.0151488  22.2217975
  39.6521151  65.5608025  23.3441040  33.5250299  66.5594218  14.1542614
  33.4049924  67.0051269  14.9928094  32.8302887  66.9079536  13.5956152
  27.1157704  68.6600610  21.7042271  27.2450085  68.9135089  22.6181682
  26.4355155  69.2528318  21.3846926  31.2857191  79.3297860  17.8032745
  31.2081221  80.2805685  17.8821225  30.6818835  78.9843733  18.4607671
  33.7774421  66.5025725  30.4594112  33.0007755  67.0619646  30.4496976
  34.4164984  66.9882508  30.9808982  41.5695201  63.2852518  24.2937088
  40.9269582  63.5785051  23.6476883  41.0650130  63.1705439  25.0990285
  39.2235365  67.0315691  14.9822948  40.1353221  67.2643078  14.8070645
  38.7145012  67.6152736  14.4198026  32.0320793  69.3111179  30.0212079
  32.7735477  69.8496223  29.7446902  31.3257778  69.9377468  30.1783631
  37.5076133  71.4540319  28.6184240  37.9159489  71.0122730  27.8738873
  36.7853394  70.8792947  28.8718433  33.8607203  66.3912926  25.9917797
  34.7068398  66.8152340  26.1352446  33.8005840  65.7346550  26.6856360
  37.8304947  72.0141510  22.3736529  37.2013810  72.1787224  21.6712597
  37.4430609  72.4283119  23.1447493  41.7094179  72.9495948  19.7280893
  41.0245217  73.3294849  19.1777926  41.7938028  73.5591274  20.4612841
  37.0106648  64.0517294  27.6498971  36.7667580  64.8059355  27.1133246
  37.2866579  64.4302642  28.4846218  38.9645111  70.5955907  26.3276236
  39.1762006  71.2387667  25.6510617  38.9174859  69.7618223  25.8598166
  36.5671340  63.2073727  23.2312809  35.7055819  63.5054981  23.5229546
  36.5933774  63.4244126  22.2993841  33.3832909  71.7515918  19.6386614
  33.8471255  72.0303621  18.8491237  33.1189707  70.8499363  19.4559705
  30.2756990  71.2987400  22.5766377  30.8458347  71.7274668  21.9383862
  30.8665102  71.0169984  23.2750563  32.3201795  67.8739070  16.4476179
  33.0225839  68.3260114  16.9150106  31.9882424  67.2322889  17.0756072
  30.7682157  66.4650827  30.8227389  30.1380817  67.1467108  31.0562786
  30.6618245  66.3533909  29.8780527  26.0627129  66.1322623  21.7493313
  25.2726183  66.3880152  21.2733424  26.5538377  66.9470961  21.8545353
  40.0790939  73.4727862  24.4998594  40.9008382  73.0708049  24.2181275
  40.0753342  73.3696096  25.4514710  28.0141875  66.4967202  18.7076790
  27.2173038  66.6085897  19.2260285  27.7867467  66.8353855  17.8417680
  33.8447542  73.0211906  26.6559304  33.9091975  73.4832313  27.4917476
  33.1358466  72.3909270  26.7841614  24.3464832  66.3853113  24.1808304
  24.5972871  67.2700123  24.4465880  24.8824381  66.2057715  23.4083396
  48.1696932  69.8166611  20.8483565  47.4160640  69.2474009  20.6927570
  48.3044473  69.7829275  21.7954200  33.5595560  74.6880013  16.5238285
  33.4241235  75.5331549  16.9523132  34.1005372  74.8899291  15.7604218
  30.0462899  60.7671593  33.1852640  29.6529845  60.2137791  33.8600284
  30.8629040  61.0782171  33.5759157  27.0124957  72.2055451  17.0966210
  27.5249478  72.9998701  17.2471774  27.6647670  71.5081741  17.0299811
  28.8219842  75.3221207  19.1788963  28.9986470  76.2439172  18.9909947
  29.6176675  75.0079627  19.6083343  32.9630860  62.1829472  30.7772896
  33.7040574  62.7836625  30.6977359  33.1948783  61.4407110  30.2190939
  28.1072198  67.3685839  29.0551126  27.9925714  66.4671096  29.3558225
  27.2516716  67.6149536  28.7035943  35.1864036  75.3103580  30.6538627
  34.7427890  74.5239958  30.3359531  35.8481250  75.4982730  29.9882517
  29.9451157  76.8399381  25.1799305  30.4958583  76.7116444  24.4076299
  29.1062633  77.1394270  24.8294198  37.2845274  75.5906379  28.6820028
  37.2663750  76.4115260  28.1900297  38.2065194  75.4660455  28.9070169
  33.7418328  73.1050509  29.5243536  34.2746665  72.3438797  29.2942844
  33.2132410  72.8124161  30.2667691  36.9088023  58.2110575  25.0537178
  36.5652293  59.1012217  24.9776289  37.2766986  58.0212233  24.1906763
  24.9773874  70.5344105  17.8725780  25.8149096  70.9441114  17.6559488
  25.1552142  69.5943548  17.8425974  36.8738306  68.2019186  13.5609613
  36.3584930  68.9723791  13.7998001  36.6015615  67.5284322  14.1842675
  34.4585417  63.0468887  18.6194852  33.6027014  62.6575737  18.4400490
  34.8712369  63.1260848  17.7594637  35.9884564  60.5815230  23.0186411
  35.4849359  60.5445365  22.2054217  36.2815171  61.4907973  23.0783068
  32.2327450  60.6653960  22.0252593  33.0980446  60.4696768  21.6658482
  32.3004959  60.4364312  22.9521950  41.8472580  70.9551541  15.4962787
  41.0702023  70.6162700  15.0517949  42.5264061  70.9604164  14.8217752
  36.6624609  66.0746278  15.3869394  36.3574745  66.3892427  16.2379537
  37.6155051  66.1527698  15.4296727  35.1071041  72.2336501  17.0362348
  34.5792403  71.4989261  16.7235586  34.6058544  73.0111178  16.7902317
  40.0863887  70.4285522  22.1529395  39.4287562  71.1184783  22.2409523
  40.8904286  70.8181954  22.4963381  29.8389769  62.8956168  19.3968960
  30.4133521  62.6731349  18.6642153  30.4260751  62.9644862  20.1497561
  38.8969346  68.7829895  20.2033336  39.4101228  69.4159886  20.7055046
  39.5470570  68.1831090  19.8376696  30.1659356  64.9260629  13.4164845
  29.3296668  65.2635315  13.7374120  30.0264126  64.7909609  12.4791982
  32.1412436  59.7697417  18.1244029  31.4876849  59.4546434  17.5000644
  32.0992911  59.1473157  18.8503852  33.2523641  70.0516712  10.0397321
  32.3450703  69.8205965  10.2388470  33.7494673  69.2554331  10.2271303
  36.1591720  78.7614219  12.9594007  35.4853419  79.0645916  13.5678965
  36.5457542  79.5643299  12.6099465  35.3750177  66.2579350  22.4491677
  34.4572738  66.4794297  22.2913365  35.7910320  66.3325661  21.5903384
  36.1585225  67.6570766  17.5794357  36.9057044  68.1692163  17.2701479
  36.4276814  67.3354819  18.4398751  34.4311875  70.1529307  14.5621311
  33.5223094  69.8688339  14.6593781  34.4606959  70.5728385  13.7024618
  39.6631142  73.7635896  18.3312479  39.2093469  72.9226806  18.3877669
  39.0325109  74.3997294  18.6687259  38.6064062  64.6927882  19.5613146
  37.8686819  64.1805268  19.8923389  38.8590835  64.2528264  18.7496423
  38.1064081  75.6012393  19.2662297  38.3987056  76.1617450  18.5474663
  38.6162702  75.8940954  20.0215456  38.7075689  57.4704134  20.1554916
  39.0134566  56.6101497  19.8680831  39.4328294  58.0621754  19.9553910
  25.0000045  67.8734821  18.5436514  24.8024445  67.2804181  17.8187580
  24.4446709  67.5687031  19.2612452  32.9796769  67.7657927  20.6631107
  33.0345379  66.8131764  20.5873583  32.1687971  67.9217366  21.1472405
  34.1287963  71.6938050  11.9009390  33.6907392  70.9773909  11.4415027
  34.8698403  71.9214165  11.3394481  30.9189129  66.3834987  18.4221486
  30.1056994  66.6829157  18.8286678  31.4148123  65.9890676  19.1395968
  33.0697707  76.3792744  20.3555750  33.0273885  76.6053590  19.4264282
  33.9860405  76.1456118  20.5041551  36.5163340  66.8476811  27.2536380
  36.8712728  67.0748284  28.1130845  37.1635472  67.1795188  26.6313635
  42.2461077  69.9695247  17.9585709  42.1078976  70.1596843  17.0306898
  41.8897296  70.7314630  18.4153760  30.4103203  63.9553342  24.0382721
  31.0502583  63.8142102  23.3405684  29.5780734  63.6687856  23.6621323
  42.2730457  72.0371774  22.9696980  42.7066964  71.9447063  23.8180034
  42.9862038  72.0129275  22.3316996  31.1863507  73.2555773  20.1517713
  31.9804106  72.7606093  19.9500288  30.4755200  72.7273636  19.7885419
  36.0058352  75.6373868  24.5030081  36.0595374  76.2064805  25.2707797
  35.1373133  75.8075753  24.1384118  27.4946271  67.3998855  16.2277466
  26.5643859  67.3383310  16.4447428  27.5903743  66.8774807  15.4314107
  27.4131820  63.9253667  18.8155707  27.6738637  64.8399001  18.7064868
  28.2348992  63.4578110  18.9652320  28.8856745  65.3391425  25.9854532
  29.5579799  65.1308787  25.3367181  28.0586532  65.1413511  25.5459764
  43.1346007  72.0795475  25.5029865  43.3281897  72.9841285  25.7489140
  43.0346625  71.6202894  26.3368450  34.7882317  61.9653365  28.0020193
  34.1410232  62.6643315  27.9084669  35.5583333  62.3989509  28.3696441
  38.1961115  72.2302218  31.0770746  38.0446622  72.0012769  30.1600830
  38.1865795  73.1872819  31.0902091  34.9646452  69.8034130  26.0617013
  35.8938512  69.9545290  25.8885980  34.5437482  69.8918151  25.2065659
  33.7634783  73.8284795  23.8315550  33.6245869  73.4603579  24.7041488
  32.9749380  74.3432434  23.6599508  34.3582935  78.9293891  15.1741087
  34.5334691  78.4581934  15.9886709  33.6715723  79.5559657  15.4022347
  35.3139999  73.2066398  21.2204388  34.9789831  73.1667167  22.1162038
  34.8143944  72.5411113  20.7474798  29.2884242  68.6134028  26.7456969
  29.1504040  67.8814266  27.3468508  30.1989166  68.5242928  26.4641157
  38.2499190  70.5522432  11.4941448  37.6328361  69.8269260  11.3974500
  37.7815679  71.3131792  11.1508522  31.9166543  68.3253987  26.2340649
  32.6266162  67.6847179  26.1927267  31.8735851  68.5766882  27.1566830
  39.9053322  75.2621340  29.1547228  39.8465868  74.5780560  28.4877811
  40.3072840  76.0040330  28.7027854  30.6295477  65.3119205  28.0536288
  30.0932834  64.8609943  28.7057885  30.0412186  65.4465114  27.3106753
  28.9244021  82.0783254  21.9480947  29.1640619  82.7101778  22.6259965
  28.0813217  81.7271294  22.2346306  30.0397736  64.7707856  10.6162752
  29.1627202  64.6496657  10.2524999  30.5155489  63.9793934  10.3641641
  39.9070729  73.2260924  27.3861208  39.0197508  72.8886846  27.5087606
  40.4769280  72.4943955  27.6229973  21.5599876  69.5585016  20.7104259
  22.2470916  69.2446746  20.1225274  21.4048005  70.4626381  20.4371510
  26.3634598  64.4475212  25.1389283  26.2792787  63.8400882  24.4039693
  25.5417305  64.9384231  25.1398779  33.4371883  77.8862376  24.3522451
  33.3642054  78.6917348  24.8641755  32.9949276  78.0854342  23.5270472
  33.2261662  77.1234147  17.8625272  32.4429184  77.6655827  17.9563497
  33.9254407  77.6408126  18.2619514  36.5358312  62.9328776  20.5059478
  37.0327012  62.1798738  20.1860548  35.7645294  62.9693093  19.9402687
  44.3888070  68.6369142  22.1477769  44.3777946  69.5193857  21.7771702
  43.5205449  68.2840692  21.9532306  35.8970566  77.7849211  26.5080609
  36.6098538  78.4196675  26.4356511  35.4060595  77.8813077  25.6920611
  37.6188093  71.6900463  18.0797901  36.6844372  71.8101926  17.9102605
  37.7964761  70.7872930  17.8157911  33.1193281  65.0746159  20.2331162
  32.7491069  64.5217199  20.9212068  33.6152373  64.4704292  19.6806162
  41.0060644  67.5317782  18.6147935  41.4721096  68.3645774  18.5408238
  41.4568145  67.0662764  19.3193194  30.9482480  75.5343654  27.3286180
  31.6491939  76.1680137  27.4815575  30.4777595  75.8758386  26.5681820
  39.0736875  73.8761604  15.6134087  39.3496719  73.7618198  16.5227961
  38.2041374  73.4779089  15.5746260  38.9777307  59.8998369  22.6538837
  38.0640387  60.1302596  22.8221044  39.4070408  59.9836814  23.5052869
  38.7483766  68.0888261  25.1538731  38.0955216  68.3364169  24.4991183
  39.1264145  67.2752400  24.8201208  35.7090939  78.1247955  19.2566901
  35.8913334  77.3069611  19.7194653  36.5323925  78.3415647  18.8191791
  36.0433105  77.0516140  16.5181949  36.5720871  76.5408594  15.9052112
  36.3061324  76.7358670  17.3827482  34.7971339  68.8308072  31.6404768
  34.1211976  68.7302202  32.3107143  35.6198972  68.6747286  32.1040765
  26.5450198  75.0680009  24.2617283  27.1303634  74.3223697  24.3945187
  26.3475036  75.3783966  25.1453947  29.3988853  78.1031256  19.2779725
  28.7299228  78.5877384  18.7943765  29.2601723  78.3500477  20.1923104
  21.1367852  67.6385609  22.9821726  21.1751952  67.1049200  23.7758844
  20.6308145  67.1120815  22.3632703  33.5394121  80.1375000  25.8762384
  34.0912429  80.3006621  26.6411469  33.8800315  80.7279438  25.2042409
  28.5158615  62.4850150  26.4784268  28.5799941  63.3464981  26.0661666
  28.4525735  61.8724151  25.7456627  27.9910887  64.5573282  30.1257303
  28.6182926  64.1750360  30.7394827  27.1338806  64.3387484  30.4912995
  38.3904996  74.9636257  31.7311038  38.9344900  75.5766216  31.2365993
  37.8091841  75.5215836  32.2478051  24.7676430  66.3649711  16.0575658
  25.0629871  65.4560390  16.0042711  23.8664466  66.3437451  15.7356660
  36.6762509  78.0856975  22.8626066  36.5513648  77.2846715  22.3537011
  37.3341600  78.5803169  22.3740036  28.2970677  64.4405708  22.0403206
  27.5757263  65.0541676  21.9010679  29.0863933  64.9763473  21.9619852
  38.7397417  75.8865996  24.4905616  37.7927753  75.7671347  24.4183943
  39.0880190  74.9988494  24.5731877  31.0996990  61.7760134  28.3143858
  31.6231392  62.0222431  29.0770167  30.8809324  62.6080169  27.8946995
  26.4964272  64.0463809  16.1814983  26.1676978  63.1661188  15.9990089
  26.8503642  63.9911478  17.0691372  35.7443850  75.6818712  20.6909968
  35.5968813  74.7535419  20.8717538  36.5697344  75.7038802  20.2067043
  29.6106095  64.3336779  16.5490460  29.9502167  64.8622700  15.8269069
  30.0578215  64.6717185  17.3249027  39.3477972  76.5047270  21.7774841
  40.2724520  76.2990132  21.6399292  39.1793276  76.2563672  22.6864182
  32.3049536  62.7173830  25.9993528  31.9646356  61.9181643  26.4014208
  31.5988542  63.0175540  25.4270362  32.9566007  59.8023142  24.4520851
  33.7792077  59.3283620  24.3299742  33.2004071  60.5813626  24.9519538
  31.5974242  62.8311400  14.7483753  32.3182604  63.2092653  14.2447470
  30.9739546  63.5500277  14.8518731  35.7405365  63.5356549  15.6842085
  35.9568979  64.4181187  15.3830914  35.2599432  63.1442763  14.9547727
  30.4804586  66.4942263  22.2612830  30.3349167  66.8082566  23.1537112
  30.0029790  67.1127163  21.7083729  32.3400969  63.4844811  22.3093720
  32.3262538  62.5885904  21.9726018  33.0573397  63.4915474  22.9432006
  34.1927100  63.9182151  24.3546847  33.9344878  64.8399221  24.3531177
  33.6612140  63.5212585  25.0447311  39.1373288  77.0232938  17.1336932
  39.3110166  76.4579360  16.3810785  39.6302180  77.8233833  16.9516422
  24.9550248  69.0347607  25.2000491  24.4103716  69.8107415  25.3320766
  25.8329598  69.3818412  25.0419613  31.7437865  62.3659191  17.5781290
  31.8653776  61.4375837  17.7772177  31.4539907  62.3797877  16.6659605
  34.6129055  60.0514101  20.7148010  34.6350752  60.1153434  19.7599989
  35.0297114  59.2118610  20.9088516  44.9912680  69.7869361  18.7527232
  45.4343826  69.0376686  18.3546355  44.1139190  69.7779497  18.3700964
  40.1248461  76.3399702  14.2333831  40.8199366  76.9606395  14.4521145
  40.4671611  75.4895054  14.5086209  25.7416270  68.1617503  28.0930648
  24.9998006  68.3100139  28.6795279  25.4209014  68.4225769  27.2297397
  42.0239884  73.7899408  15.7621161  42.5491208  74.1286681  15.0370481
  41.9362237  72.8546423  15.5784296  33.6859933  77.7033482  27.8911038
  33.9947059  77.4582628  28.7633738  34.4835415  77.9080120  27.4029908
  33.7080545  79.8571391  20.1216415  33.2685535  79.3647770  20.8149271
  34.4588662  79.3144359  19.8808490  26.1872884  76.0482932  20.1241043
  27.0130904  75.7486704  19.7439686  25.8366936  75.2790554  20.5730831
  31.1554417  75.4009400  22.1938716  30.5334426  74.7380105  21.8940944
  31.8259284  75.4270532  21.5112364  24.3881489  73.9669258  21.0829976
  23.5513397  73.5391433  20.9013978  24.3605134  74.1601702  22.0200767
  31.2278944  63.8791188  31.7871222  31.2767100  64.7553311  31.4048992
  31.7701459  63.3368581  31.2142866  41.7133790  74.4232312  31.0672359
  40.9229334  74.4056450  30.5276859  41.4767145  74.9620605  31.8221396
  41.8331665  71.2724778  28.3805088  41.8829670  71.1074785  29.3220611
  41.7245589  70.4052037  27.9902969  30.7167924  73.9513324  15.6697177
  30.8656044  74.6348788  15.0163850  31.5234367  73.9318414  16.1846633
  39.1235428  67.2555706  29.6964395  40.0245290  67.1162171  29.4048392
  39.1983402  67.4210161  30.6362572  33.4578233  64.6322561  28.5417581
  32.5881542  64.9256127  28.2700170  33.6937713  65.2163006  29.2624845
  43.3349862  73.6921719  28.6247109  43.0434670  74.0551700  29.4610570
  42.7221993  72.9788728  28.4460442  44.5345544  71.2574599  21.1449680
  45.3692436  71.6964403  21.3087240  44.6704673  70.7813252  20.3257925
  41.5837050  68.8154334  27.0927167  42.0591172  69.0081980  26.2846019
  40.6602616  68.8713520  26.8470551  28.4720557  69.9778501  16.6758246
  28.2266599  69.0740831  16.8738456  28.6416471  69.9795652  15.7337724
  36.1617267  60.8502178  26.0583001  36.6799211  61.5863205  25.7329490
  35.8072399  61.1566171  26.8929760  27.7416204  65.7106859  14.1744407
  27.0485449  65.7851214  13.5184443  27.4967956  64.9467202  14.6965924
  36.4129861  57.2702460  21.5783898  36.6931615  56.6025649  22.2044325
  37.1980468  57.4631556  21.0658562  34.2163329  76.4461454  13.1408924
  33.6437296  77.0651641  12.6879396  34.7896123  76.9960816  13.6748846
  40.2838719  65.6920094  25.3255473  41.2356142  65.7918192  25.3467697
  40.1142170  64.8998363  25.8353557  38.3053099  62.7775677  25.5114874
  37.7103031  63.0580690  24.8161363  38.0202795  63.2669578  26.2831615
  37.4360589  76.7298604  14.2717507  38.3691262  76.6644166  14.4750382
  37.3483802  77.5654871  13.8132039  40.0648606  76.0464475  11.2321454
  39.9862237  75.7124338  12.1257212  40.8858273  76.5386242  11.2312926
  42.7626797  68.9126214  24.4397773  42.7303117  67.9742215  24.6257457
  43.3727421  68.9910251  23.7063598  34.6010128  67.7822267  10.4824977
  35.5469233  67.6528475  10.5513395  34.2224373  67.0436929  10.9594405
  42.9121286  65.7037257  24.4856056  42.3960334  64.9195714  24.2985985
  43.7961234  65.3755974  24.6502575  40.5732012  59.4478273  20.4451869
  40.3756834  59.1393361  21.3295201  41.1831718  60.1739912  20.5749798
  48.5803347  69.9742221  23.5803810  49.3106735  69.7127509  24.1411513
  47.9710292  69.2370943  23.6205877  46.6618644  68.1150083  24.1778261
  45.9351808  67.9806048  23.5694752  46.2465931  68.4226912  24.9834979
  34.4848820  71.8340013  31.9425634  35.4051830  72.0118612  32.1365680
  34.4498403  70.8896058  31.7905333  32.7853045  65.7072243  10.4179862
  31.8784500  65.4105356  10.4942576  33.0629026  65.4102061   9.5514148
  23.7030985  67.0278607  20.8678908  23.3833770  66.1743915  20.5753282
  23.1564414  67.2427185  21.6236876  27.4810893  69.7441048  24.5848415
  27.6996903  70.6758155  24.6036449  27.8936667  69.3849022  25.3703219
  34.4015111  60.2509133  16.5724103  33.5915839  59.9056218  16.9479349
  35.0899528  59.9416677  17.1611715  36.3305659  59.3287180  18.1948400
  36.8836698  59.7482633  18.8538423  36.5675745  58.4022928  18.2371356
  32.3538758  65.3174253  33.9751164  32.2535485  66.2668610  33.9063255
  32.1360300  64.9892492  33.1027234  31.5551830  62.5659178  10.5591841
  32.4170994  62.8914077  10.8187659  31.7402174  61.7790674  10.0464907
  23.5719245  70.6481518  22.8372030  22.8782717  70.2335471  22.3241984
  24.3192236  70.6902055  22.2405449  39.7084466  61.4387705  17.7027064
  39.1283135  62.0972509  17.3205117  39.4420399  60.6165049  17.2914482
  38.1588033  60.8392763  19.9048385  38.6587811  60.9509297  19.0962703
  38.8023640  60.5353815  20.5449193  32.2170028  68.7471392  32.7916225
  31.7337110  69.5471752  32.9980115  32.3030967  68.7579337  31.8383669
  25.4855988  70.5799772  20.7138045  25.4626676  70.6787459  19.7619928
  25.7956624  71.4264923  21.0355211  28.1443366  72.6375927  24.8284659
  29.0986619  72.6059869  24.7614591  27.9455889  72.1766551  25.6434885
  28.7342748  71.2077043  27.3955457  29.5535637  71.7021122  27.4190294
  29.0079556  70.2909011  27.3673024  38.4909344  63.5987795  16.7583412
  37.6035199  63.8837446  16.5403607  38.9063333  63.4381559  15.9110689
  41.8423880  63.6234316  20.4737752  42.6184270  64.1130769  20.7462369
  41.1172014  64.0492370  20.9309621  44.2796439  64.3361935  21.5311692
  44.8740930  64.0957671  20.8205001  44.3523023  63.6169066  22.1585229
  26.4993595  78.1795546  21.8454857  26.3648063  77.4195947  21.2792855
  26.0825657  78.9036446  21.3783646  37.6352558  73.3632470  10.8531432
  38.3388408  73.5682472  11.4689088  36.9115206  73.9309232  11.1180516
  38.4650368  69.1142331  16.9733703  38.4085569  69.5710883  16.1341335
  39.0178710  68.3533016  16.7956545  42.2755174  64.9032063  17.7983822
  42.0192108  64.5028699  18.6292030  41.6508042  65.6175857  17.6733961
  46.5867512  67.6428136  20.3055114  46.0267070  67.7121326  21.0786676
  45.9811015  67.4669121  19.5854610  29.6562720  79.0764863  22.0573300
  29.5395105  80.0210296  21.9551990  28.8355167  78.7738425  22.4459099
  39.5439255  73.8014999  12.9029892  40.3784859  73.3696198  12.7207367
  39.3823598  73.6297013  13.8306787  39.1985147  70.3047112  14.2686232
  39.1433951  70.1391384  13.3274676  38.5731202  71.0123145  14.4248422
  23.9877662  65.5415177  28.0947654  24.6336526  65.0314131  28.5834879
  23.7794813  66.2783858  28.6691079  36.5131054  72.6096024  33.5939795
  37.3822214  72.7836677  33.2326429  36.0337806  73.4290441  33.4715524
  32.5081273  59.8055221  13.8471550  32.4959942  60.7497061  14.0039821
  33.4004695  59.6225367  13.5531011  30.6817235  79.7293125  25.2729228
  31.5844481  79.7616736  25.5895723  30.4554605  78.7993576  25.2875564
  32.4370837  78.4824112  21.9339307  31.4866468  78.4825973  21.8203679
  32.7403323  77.7356846  21.4175341  36.3233392  56.3997998  18.1017487
  35.5565788  55.8456485  18.2474169  36.7344097  56.4719867  18.9631639
  28.3275153  62.6882794  32.1922668  29.1906615  62.3319599  32.4025993
  27.7540564  62.3496689  32.8798073  48.1723530  84.3184650  22.9985069
  48.8101940  84.1991398  22.2948409  48.0544373  85.2665494  23.0573021
  44.9813236  84.2712078  22.9346594  44.6431748  84.1553143  22.0467129
  45.8503005  83.8703243  22.9147600  40.8400052  86.1247555  18.9243485
  40.2764917  86.0337492  18.1559773  40.7252447  85.3047459  19.4045977
  45.4633019  85.4246930  28.8932799  45.4521660  85.0299728  28.0213303
  45.6253659  84.6913003  29.4866571  38.3864484  87.6198746  21.7627705
  39.1785776  87.2789571  21.3474005  38.6261134  87.7293721  22.6829859
  46.4199611  89.7918522  14.2357950  45.7687591  90.3772603  13.8491964
  47.2143974  90.3224717  14.2952987  40.3455238  86.8807660  14.6345084
  41.1186114  86.3336647  14.4957960  40.6980637  87.7451909  14.8459546
  42.1840281  88.2084042  27.8411983  41.8930147  89.1129673  27.7258650
  42.8197265  88.2500569  28.5556053  43.1096487  85.5860890  24.4313343
  43.7060060  85.3616913  23.7170306  43.1671459  84.8445636  25.0338791
  42.6821516  83.0400326  12.2663534  42.9347036  82.5181847  11.5046997
  41.7446075  82.8766471  12.3690218  47.7264799  82.0436104  20.0738277
  48.5127888  81.6255527  19.7228694  47.9903503  82.9482196  20.2419926
  47.8974876  87.4808954  14.7726934  47.2620709  87.5543581  15.4847839
  47.5672282  88.0702553  14.0946013  53.1273226  81.9811337  20.9771256
  53.8598398  81.4110554  21.2109085  52.3712581  81.5932938  21.4177761
  42.4017805  84.9428432  14.4687909  42.2854063  84.2673335  15.1368993
  42.5120064  84.4560806  13.6520062  44.7449345  84.4038579  18.1734598
  44.3807553  83.8769200  18.8847520  45.6016461  84.0137048  18.0001084
  50.6498646  75.6932911  25.4365864  50.3181971  76.5628322  25.2127079
  50.0544259  75.3769195  26.1159895  44.3854832  79.4328478  13.1695947
  44.5529235  80.3008715  13.5366418  44.1952002  79.5955760  12.2457236
  47.1430166  87.8945457  24.8361777  46.8430889  88.7970496  24.7277584
  46.7981225  87.6277641  25.6882930  40.5942647  84.3459254  20.8698482
  39.6693144  84.2135468  21.0776173  40.8427060  85.1253473  21.3668424
  50.5427309  80.4127998  22.5159214  49.6344187  80.3443406  22.2217975
  50.4914905  80.8899942  23.3441040  44.3644053  81.8886136  14.1542614
  44.2443679  82.3343187  14.9928094  43.6696642  82.2371454  13.5956152
  37.9551458  83.9892528  21.7042271  38.0843839  84.2427007  22.6181682
  37.2748909  84.5820236  21.3846926  42.1250945  94.6589778  17.8032745
  42.0474975  95.6097603  17.8821225  41.5212589  94.3135650  18.4607671
  44.6168175  81.8317643  30.4594112  43.8401509  82.3911563  30.4496976
  45.2558738  82.3174426  30.9808982  52.4088956  78.6144436  24.2937088
  51.7663336  78.9076969  23.6476883  51.9043884  78.4997356  25.0990285
  50.0629119  82.3607609  14.9822948  50.9746976  82.5934996  14.8070645
  49.5538767  82.9444653  14.4198026  42.8714547  84.6403097  30.0212079
  43.6129232  85.1788140  29.7446902  42.1651533  85.2669385  30.1783631
  48.3469887  86.7832237  28.6184240  48.7553243  86.3414647  27.8738873
  47.6247149  86.2084864  28.8718433  44.7000957  81.7204844  25.9917797
  45.5462152  82.1444257  26.1352446  44.6399595  81.0638468  26.6856360
  48.6698702  87.3433428  22.3736529  48.0407564  87.5079142  21.6712597
  48.2824364  87.7575037  23.1447493  52.5487934  88.2787865  19.7280893
  51.8638972  88.6586767  19.1777926  52.6331783  88.8883192  20.4612841
  47.8500403  79.3809212  27.6498971  47.6061334  80.1351273  27.1133246
  48.1260333  79.7594560  28.4846218  49.8038865  85.9247824  26.3276236
  50.0155761  86.5679584  25.6510617  49.7568614  85.0910141  25.8598166
  47.4065094  78.5365645  23.2312809  46.5449573  78.8346899  23.5229546
  47.4327529  78.7536044  22.2993841  44.2226664  87.0807836  19.6386614
  44.6865009  87.3595539  18.8491237  43.9583462  86.1791280  19.4559705
  41.1150745  86.6279317  22.5766377  41.6852102  87.0566586  21.9383862
  41.7058857  86.3461902  23.2750563  43.1595550  83.2030988  16.4476179
  43.8619593  83.6552032  16.9150106  42.8276178  82.5614807  17.0756072
  41.6075911  81.7942745  30.8227389  40.9774572  82.4759026  31.0562786
  41.5011999  81.6825826  29.8780527  36.9020884  81.4614541  21.7493313
  36.1119938  81.7172069  21.2733424  37.3932131  82.2762879  21.8545353
  50.9184693  88.8019780  24.4998594  51.7402137  88.3999967  24.2181275
  50.9147096  88.6988014  25.4514710  38.8535629  81.8259120  18.7076790
  38.0566792  81.9377814  19.2260285  38.6261221  82.1645772  17.8417680
  44.6841297  88.3503823  26.6559304  44.7485729  88.8124230  27.4917476
  43.9752221  87.7201188  26.7841614  35.1858587  81.7145031  24.1808304
  35.4366625  82.5992041  24.4465880  35.7218135  81.5349633  23.4083396
  59.0090686  85.1458528  20.8483565  58.2554395  84.5765926  20.6927570
  59.1438227  85.1121193  21.7954200  44.3989314  90.0171931  16.5238285
  44.2634989  90.8623466  16.9523132  44.9399127  90.2191208  15.7604218
  40.8856654  76.0963511  33.1852640  40.4923600  75.5429709  33.8600284
  41.7022794  76.4074089  33.5759157  37.8518712  87.5347369  17.0966210
  38.3643232  88.3290619  17.2471774  38.5041425  86.8373659  17.0299811
  39.6613596  90.6513125  19.1788963  39.8380225  91.5731090  18.9909947
  40.4570430  90.3371544  19.6083343  43.8024615  77.5121390  30.7772896
  44.5434328  78.1128543  30.6977359  44.0342538  76.7699027  30.2190939
  38.9465953  82.6977757  29.0551126  38.8319468  81.7963014  29.3558225
  38.0910471  82.9441454  28.7035943  46.0257791  90.6395497  30.6538627
  45.5821645  89.8531876  30.3359531  46.6875004  90.8274648  29.9882517
  40.7844912  92.1691299  25.1799305  41.3352337  92.0408362  24.4076299
  39.9456388  92.4686188  24.8294198  48.1239029  90.9198297  28.6820028
  48.1057504  91.7407178  28.1900297  49.0458949  90.7952372  28.9070169
  44.5812083  88.4342427  29.5243536  45.1140420  87.6730715  29.2942844
  44.0526164  88.1416078  30.2667691  47.7481778  73.5402493  25.0537178
  47.4046047  74.4304134  24.9776289  48.1160741  73.3504150  24.1906763
  35.8167629  85.8636023  17.8725780  36.6542851  86.2733031  17.6559488
  35.9945896  84.9235465  17.8425974  47.7132061  83.5311104  13.5609613
  47.1978684  84.3015708  13.7998001  47.4409369  82.8576240  14.1842675
  45.2979172  78.3760804  18.6194852  44.4420768  77.9867655  18.4400490
  45.7106123  78.4552765  17.7594637  46.8278318  75.9107148  23.0186411
  46.3243114  75.8737283  22.2054217  47.1208925  76.8199890  23.0783068
  43.0721204  75.9945877  22.0252593  43.9374201  75.7988686  21.6658482
  43.1398713  75.7656229  22.9521950  52.6866335  86.2843458  15.4962787
  51.9095778  85.9454618  15.0517949  53.3657816  86.2896081  14.8217752
  47.5018364  81.4038196  15.3869394  47.1968499  81.7184345  16.2379537
  48.4548806  81.4819616  15.4296727  45.9464796  87.5628419  17.0362348
  45.4186157  86.8281179  16.7235586  45.4452298  88.3403095  16.7902317
  50.9257642  85.7577440  22.1529395  50.2681316  86.4476701  22.2409523
  51.7298041  86.1473872  22.4963381  40.6783523  78.2248085  19.3968960
  41.2527275  78.0023267  18.6642153  41.2654506  78.2936780  20.1497561
  49.7363100  84.1121812  20.2033336  50.2494982  84.7451804  20.7055046
  50.3864324  83.5123008  19.8376696  41.0053110  80.2552546  13.4164845
  40.1690423  80.5927233  13.7374120  40.8657880  80.1201526  12.4791982
  42.9806191  75.0989334  18.1244029  42.3270603  74.7838351  17.5000644
  42.9386665  74.4765075  18.8503852  44.0917396  85.3808629  10.0397321
  43.1844458  85.1497883  10.2388470  44.5888428  84.5846249  10.2271303
  46.9985475  94.0906137  12.9594007  46.3247173  94.3937833  13.5678965
  47.3851297  94.8935217  12.6099465  46.2143931  81.5871268  22.4491677
  45.2966493  81.8086215  22.2913365  46.6304075  81.6617578  21.5903384
  46.9978979  82.9862683  17.5794357  47.7450798  83.4984081  17.2701479
  47.2670569  82.6646736  18.4398751  45.2705629  85.4821224  14.5621311
  44.3616849  85.1980257  14.6593781  45.3000713  85.9020303  13.7024618
  50.5024897  89.0927814  18.3312479  50.0487224  88.2518724  18.3877669
  49.8718863  89.7289212  18.6687259  49.4457816  80.0219800  19.5613146
  48.7080573  79.5097186  19.8923389  49.6984590  79.5820181  18.7496423
  48.9457836  90.9304310  19.2662297  49.2380810  91.4909368  18.5474663
  49.4556456  91.2232871  20.0215456  49.5469444  72.7996052  20.1554916
  49.8528320  71.9393415  19.8680831  50.2722048  73.3913672  19.9553910
  35.8393800  83.2026738  18.5436514  35.6418199  82.6096099  17.8187580
  35.2840464  82.8978949  19.2612452  43.8190523  83.0949845  20.6631107
  43.8739133  82.1423681  20.5873583  43.0081725  83.2509284  21.1472405
  44.9681717  87.0229968  11.9009390  44.5301147  86.3065827  11.4415027
  45.7092158  87.2506083  11.3394481  41.7582883  81.7126905  18.4221486
  40.9450749  82.0121075  18.8286678  42.2541877  81.3182593  19.1395968
  43.9091461  91.7084661  20.3555750  43.8667640  91.9345508  19.4264282
  44.8254160  91.4748036  20.5041551  47.3557095  82.1768729  27.2536380
  47.7106483  82.4040202  28.1130845  48.0029226  82.5087106  26.6313635
  53.0854832  85.2987165  17.9585709  52.9472730  85.4888761  17.0306898
  52.7291051  86.0606548  18.4153760  41.2496958  79.2845260  24.0382721
  41.8896337  79.1434019  23.3405684  40.4174489  78.9979773  23.6621323
  53.1124211  87.3663692  22.9696980  53.5460718  87.2738981  23.8180034
  53.8255792  87.3421192  22.3316996  42.0257262  88.5847690  20.1517713
  42.8197860  88.0898011  19.9500288  41.3148954  88.0565554  19.7885419
  46.8452106  90.9665786  24.5030081  46.8989129  91.5356722  25.2707797
  45.9766888  91.1367671  24.1384118  38.3340025  82.7290772  16.2277466
  37.4037613  82.6675228  16.4447428  38.4297497  82.2066725  15.4314107
  38.2525574  79.2545585  18.8155707  38.5132392  80.1690918  18.7064868
  39.0742747  78.7870028  18.9652320  39.7250500  80.6683342  25.9854532
  40.3973553  80.4600704  25.3367181  38.8980286  80.4705428  25.5459764
  53.9739761  87.4087393  25.5029865  54.1675651  88.3133203  25.7489140
  53.8740379  86.9494812  26.3368450  45.6276072  77.2945283  28.0020193
  44.9803987  77.9935233  27.9084669  46.3977087  77.7281427  28.3696441
  49.0354870  87.5594135  31.0770746  48.8840376  87.3304687  30.1600830
  49.0259549  88.5164737  31.0902091  45.8040206  85.1326048  26.0617013
  46.7332266  85.2837208  25.8885980  45.3831236  85.2210069  25.2065659
  44.6028538  89.1576712  23.8315550  44.4639624  88.7895497  24.7041488
  43.8143134  89.6724352  23.6599508  45.1976690  94.2585809  15.1741087
  45.3728446  93.7873852  15.9886709  44.5109478  94.8851575  15.4022347
  46.1533753  88.5358315  21.2204388  45.8183586  88.4959085  22.1162038
  45.6537699  87.8703031  20.7474798  40.1277997  83.9425945  26.7456969
  39.9897795  83.2106184  27.3468508  41.0382920  83.8534845  26.4641157
  49.0892945  85.8814350  11.4941448  48.4722115  85.1561178  11.3974500
  48.6209433  86.6423710  11.1508522  42.7560298  83.6545905  26.2340649
  43.4659916  83.0139097  26.1927267  42.7129606  83.9058799  27.1566830
  50.7447076  90.5913258  29.1547228  50.6859622  89.9072478  28.4877811
  51.1466595  91.3332248  28.7027854  41.4689232  80.6411122  28.0536288
  40.9326589  80.1901861  28.7057885  40.8805940  80.7757031  27.3106753
  39.7637775  97.4075172  21.9480947  40.0034373  98.0393696  22.6259965
  38.9206972  97.0563212  22.2346306  40.8791491  80.0999774  10.6162752
  40.0020957  79.9788575  10.2524999  41.3549244  79.3085852  10.3641641
  50.7464484  88.5552842  27.3861208  49.8591262  88.2178764  27.5087606
  51.3163035  87.8235873  27.6229973  32.3993631  84.8876934  20.7104259
  33.0864671  84.5738664  20.1225274  32.2441759  85.7918298  20.4371510
  37.2028353  79.7767130  25.1389283  37.1186542  79.1692800  24.4039693
  36.3811059  80.2676148  25.1398779  44.2765637  93.2154294  24.3522451
  44.2035808  94.0209266  24.8641755  43.8343030  93.4146260  23.5270472
  44.0655417  92.4526064  17.8625272  43.2822939  92.9947744  17.9563497
  44.7648162  92.9700044  18.2619514  47.3752067  78.2620694  20.5059478
  47.8720766  77.5090656  20.1860548  46.6039048  78.2985010  19.9402687
  55.2281824  83.9661059  22.1477769  55.2171700  84.8485775  21.7771702
  54.3599204  83.6132610  21.9532306  46.7364321  93.1141128  26.5080609
  47.4492293  93.7488593  26.4356511  46.2454349  93.2104994  25.6920611
  48.4581847  87.0192381  18.0797901  47.5238126  87.1393843  17.9102605
  48.6358516  86.1164848  17.8157911  43.9587035  80.4038077  20.2331162
  43.5884823  79.8509117  20.9212068  44.4546128  79.7996210  19.6806162
  51.8454399  82.8609700  18.6147935  52.3114851  83.6937692  18.5408238
  52.2961899  82.3954682  19.3193194  41.7876234  90.8635572  27.3286180
  42.4885694  91.4972055  27.4815575  41.3171349  91.2050303  26.5681820
  49.9130630  89.2053521  15.6134087  50.1890474  89.0910116  16.5227961
  49.0435129  88.8071006  15.5746260  49.8171062  75.2290287  22.6538837
  48.9034141  75.4594514  22.8221044  50.2464163  75.3128731  23.5052869
  49.5877520  83.4180179  25.1538731  48.9348970  83.6656087  24.4991183
  49.9657900  82.6044317  24.8201208  46.5484694  93.4539872  19.2566901
  46.7307088  92.6361528  19.7194653  47.3717680  93.6707565  18.8191791
  46.8826859  92.3808057  16.5181949  47.4114626  91.8700512  15.9052112
  47.1455079  92.0650588  17.3827482  45.6365093  84.1599990  31.6404768
  44.9605730  84.0594119  32.3107143  46.4592727  84.0039204  32.1040765
  37.3843952  90.3971927  24.2617283  37.9697389  89.6515615  24.3945187
  37.1868791  90.7075883  25.1453947  40.2382607  93.4323174  19.2779725
  39.5692983  93.9169302  18.7943765  40.0995477  93.6792395  20.1923104
  31.9761607  82.9677527  22.9821726  32.0145706  82.4341118  23.7758844
  31.4701900  82.4412732  22.3632703  44.3787876  95.4666918  25.8762384
  44.9306184  95.6298539  26.6411469  44.7194069  96.0571355  25.2042409
  39.3552369  77.8142067  26.4784268  39.4193696  78.6756898  26.0661666
  39.2919489  77.2016069  25.7456627  38.8304642  79.8865200  30.1257303
  39.4576680  79.5042277  30.7394827  37.9732561  79.6679402  30.4912995
  49.2298750  90.2928175  31.7311038  49.7738654  90.9058133  31.2365993
  48.6485595  90.8507754  32.2478051  35.6070184  81.6941629  16.0575658
  35.9023626  80.7852307  16.0042711  34.7058220  81.6729369  15.7356660
  47.5156263  93.4148893  22.8626066  47.3907403  92.6138633  22.3537011
  48.1735354  93.9095087  22.3740036  39.1364431  79.7697626  22.0403206
  38.4151017  80.3833593  21.9010679  39.9257687  80.3055390  21.9619852
  49.5791172  91.2157913  24.4905616  48.6321507  91.0963264  24.4183943
  49.9273945  90.3280411  24.5731877  41.9390745  77.1052052  28.3143858
  42.4625147  77.3514349  29.0770167  41.7203078  77.9372087  27.8946995
  37.3358026  79.3755727  16.1814983  37.0070732  78.4953106  15.9990089
  37.6897397  79.3203395  17.0691372  46.5837605  91.0110629  20.6909968
  46.4362567  90.0827337  20.8717538  47.4091098  91.0330720  20.2067043
  40.4499849  79.6628697  16.5490460  40.7895922  80.1914618  15.8269069
  40.8971970  80.0009103  17.3249027  50.1871727  91.8339188  21.7774841
  51.1118274  91.6282050  21.6399292  50.0187030  91.5855589  22.6864182
  43.1443290  78.0465747  25.9993528  42.8040110  77.2473560  26.4014208
  42.4382296  78.3467458  25.4270362  43.7959762  75.1315060  24.4520851
  44.6185831  74.6575538  24.3299742  44.0397825  75.9105543  24.9519538
  42.4367996  78.1603318  14.7483753  43.1576359  78.5384571  14.2447470
  41.8133300  78.8792195  14.8518731  46.5799119  78.8648467  15.6842085
  46.7962734  79.7473105  15.3830914  46.0993186  78.4734681  14.9547727
  41.3198341  81.8234180  22.2612830  41.1742921  82.1374483  23.1537112
  40.8423544  82.4419081  21.7083729  43.1794723  78.8136728  22.3093720
  43.1656292  77.9177822  21.9726018  43.8967152  78.8207392  22.9432006
  45.0320854  79.2474069  24.3546847  44.7738632  80.1691139  24.3531177
  44.5005895  78.8504503  25.0447311  49.9767043  92.3524856  17.1336932
  50.1503920  91.7871278  16.3810785  50.4695934  93.1525751  16.9516422
  35.7944003  84.3639525  25.2000491  35.2497471  85.1399333  25.3320766
  36.6723353  84.7110329  25.0419613  42.5831619  77.6951109  17.5781290
  42.7047531  76.7667755  17.7772177  42.2933662  77.7089795  16.6659605
  45.4522810  75.3806019  20.7148010  45.4744507  75.4445352  19.7599989
  45.8690869  74.5410528  20.9088516  55.8306434  85.1161279  18.7527232
  56.2737580  84.3668604  18.3546355  54.9532944  85.1071415  18.3700964
  50.9642215  91.6691620  14.2333831  51.6593120  92.2898313  14.4521145
  51.3065366  90.8186971  14.5086209  36.5810025  83.4909421  28.0930648
  35.8391761  83.6392056  28.6795279  36.2602769  83.7517687  27.2297397
  52.8633639  89.1191326  15.7621161  53.3884963  89.4578598  15.0370481
  52.7755991  88.1838341  15.5784296  44.5253687  93.0325399  27.8911038
  44.8340814  92.7874546  28.7633738  45.3229169  93.2372038  27.4029908
  44.5474299  95.1863309  20.1216415  44.1079290  94.6939688  20.8149271
  45.2982416  94.6436277  19.8808490  37.0266638  91.3774850  20.1241043
  37.8524658  91.0778622  19.7439686  36.6760690  90.6082472  20.5730831
  41.9948171  90.7301318  22.1938716  41.3728181  90.0672023  21.8940944
  42.6653038  90.7562450  21.5112364  35.2275243  89.2961176  21.0829976
  34.3907152  88.8683351  20.9013978  35.1998889  89.4893620  22.0200767
  42.0672699  79.2083106  31.7871222  42.1160854  80.0845229  31.4048992
  42.6095213  78.6660499  31.2142866  52.5527545  89.7524229  31.0672359
  51.7623088  89.7348368  30.5276859  52.3160899  90.2912523  31.8221396
  52.6725420  86.6016696  28.3805088  52.7223425  86.4366703  29.3220611
  52.5639343  85.7343955  27.9902969  41.5561678  89.2805241  15.6697177
  41.7049799  89.9640706  15.0163850  42.3628122  89.2610331  16.1846633
  49.9629182  82.5847624  29.6964395  50.8639045  82.4454088  29.4048392
  50.0377157  82.7502078  30.6362572  44.2971987  79.9614478  28.5417581
  43.4275297  80.2548044  28.2700170  44.5331468  80.5454923  29.2624845
  54.1743616  89.0213637  28.6247109  53.8828425  89.3843618  29.4610570
  53.5615748  88.3080645  28.4460442  55.3739299  86.5866517  21.1449680
  56.2086190  87.0256321  21.3087240  55.5098428  86.1105170  20.3257925
  52.4230805  84.1446252  27.0927167  52.8984926  84.3373898  26.2846019
  51.4996370  84.2005438  26.8470551  39.3114311  85.3070419  16.6758246
  39.0660353  84.4032749  16.8738456  39.4810226  85.3087569  15.7337724
  47.0011021  76.1794095  26.0583001  47.5192965  76.9155122  25.7329490
  46.6466154  76.4858089  26.8929760  38.5809959  81.0398776  14.1744407
  37.8879204  81.1143131  13.5184443  38.3361711  80.2759120  14.6965924
  47.2523615  72.5994378  21.5783898  47.5325369  71.9317567  22.2044325
  48.0374222  72.7923473  21.0658562  45.0557084  91.7753372  13.1408924
  44.4831051  92.3943559  12.6879396  45.6289878  92.3252733  13.6748846
  51.1232474  81.0212012  25.3255473  52.0749897  81.1210109  25.3467697
  50.9535924  80.2290280  25.8353557  49.1446853  78.1067595  25.5114874
  48.5496785  78.3872608  24.8161363  48.8596550  78.5961496  26.2831615
  48.2754344  92.0590522  14.2717507  49.2085017  91.9936084  14.4750382
  48.1877556  92.8946789  13.8132039  50.9042360  91.3756392  11.2321454
  50.8255992  91.0416256  12.1257212  51.7252027  91.8678160  11.2312926
  53.6020552  84.2418132  24.4397773  53.5696872  83.3034132  24.6257457
  54.2121175  84.3202168  23.7063598  45.4403882  83.1114184  10.4824977
  46.3862987  82.9820393  10.5513395  45.0618127  82.3728846  10.9594405
  53.7515040  81.0329175  24.4856056  53.2354089  80.2487632  24.2985985
  54.6354989  80.7047892  24.6502575  51.4125767  74.7770191  20.4451869
  51.2150588  74.4685279  21.3295201  52.0225472  75.5031829  20.5749798
  59.4197101  85.3034138  23.5803810  60.1500490  85.0419426  24.1411513
  58.8104047  84.5662860  23.6205877  57.5012398  83.4442001  24.1778261
  56.7745562  83.3097966  23.5694752  57.0859685  83.7518830  24.9834979
  45.3242575  87.1631931  31.9425634  46.2445584  87.3410530  32.1365680
  45.2892158  86.2187976  31.7905333  43.6246800  81.0364161  10.4179862
  42.7178255  80.7397274  10.4942576  43.9022781  80.7393979   9.5514148
  34.5424740  82.3570524  20.8678908  34.2227524  81.5035832  20.5753282
  33.9958168  82.5719102  21.6236876  38.3204647  85.0732965  24.5848415
  38.5390657  86.0050073  24.6036449  38.7330421  84.7140940  25.3703219
  45.2408865  75.5801051  16.5724103  44.4309594  75.2348136  16.9479349
  45.9293282  75.2708594  17.1611715  47.1699414  74.6579097  18.1948400
  47.7230452  75.0774551  18.8538423  47.4069500  73.7314845  18.2371356
  43.1932513  80.6466171  33.9751164  43.0929240  81.5960528  33.9063255
  42.9754055  80.3184410  33.1027234  42.3945584  77.8951096  10.5591841
  43.2564748  78.2205994  10.8187659  42.5795928  77.1082592  10.0464907
  34.4113000  85.9773436  22.8372030  33.7176471  85.5627389  22.3241984
  35.1585991  86.0193972  22.2405449  50.5478221  76.7679623  17.7027064
  49.9676890  77.4264427  17.3205117  50.2814153  75.9456967  17.2914482
  48.9981787  76.1684680  19.9048385  49.4981565  76.2801215  19.0962703
  49.6417395  75.8645733  20.5449193  43.0563783  84.0763310  32.7916225
  42.5730865  84.8763670  32.9980115  43.1424722  84.0871255  31.8383669
  36.3249742  85.9091690  20.7138045  36.3020431  86.0079377  19.7619928
  36.6350379  86.7556840  21.0355211  38.9837120  87.9667845  24.8284659
  39.9380374  87.9351787  24.7614591  38.7849644  87.5058468  25.6434885
  39.5736502  86.5368961  27.3955457  40.3929391  87.0313039  27.4190294
  39.8473310  85.6200929  27.3673024  49.3303099  78.9279713  16.7583412
  48.4428954  79.2129364  16.5403607  49.7457088  78.7673476  15.9110689
  52.6817635  78.9526234  20.4737752  53.4578025  79.4422686  20.7462369
  51.9565769  79.3784288  20.9309621  55.1190193  79.6653853  21.5311692
  55.7134684  79.4249589  20.8205001  55.1916777  78.9460984  22.1585229
  37.3387349  93.5087464  21.8454857  37.2041817  92.7487865  21.2792855
  36.9219411  94.2328364  21.3783646  48.4746312  88.6924388  10.8531432
  49.1782162  88.8974390  11.4689088  47.7508961  89.2601149  11.1180516
  49.3044122  84.4434249  16.9733703  49.2479324  84.9002800  16.1341335
  49.8572465  83.6824933  16.7956545  53.1148928  80.2323981  17.7983822
  52.8585863  79.8320616  18.6292030  52.4901796  80.9467775  17.6733961
  57.4261266  82.9720054  20.3055114  56.8660824  83.0413243  21.0786676
  56.8204770  82.7961039  19.5854610  40.4956475  94.4056781  22.0573300
  40.3788859  95.3502214  21.9551990  39.6748921  94.1030343  22.4459099
  50.3833010  89.1306917  12.9029892  51.2178613  88.6988115  12.7207367
  50.2217352  88.9588930  13.8306787  50.0378902  85.6339030  14.2686232
  49.9827705  85.4683302  13.3274676  49.4124957  86.3415063  14.4248422
  34.8271417  80.8707094  28.0947654  35.4730280  80.3606048  28.5834879
  34.6188568  81.6075776  28.6691079  47.3524809  87.9387942  33.5939795
  48.2215969  88.1128594  33.2326429  46.8731560  88.7582359  33.4715524
  43.3475027  75.1347139  13.8471550  43.3353697  76.0788979  14.0039821
  44.2398449  74.9517285  13.5531011  41.5210989  95.0585043  25.2729228
  42.4238236  95.0908653  25.5895723  41.2948359  94.1285494  25.2875564
  43.2764591  93.8116030  21.9339307  42.3260222  93.8117891  21.8203679
  43.5797077  93.0648764  21.4175341  47.1627147  71.7289916  18.1017487
  46.3959542  71.1748402  18.2474169  47.5737852  71.8011785  18.9631639
  39.1668908  78.0174712  32.1922668  40.0300369  77.6611516  32.4025993
  38.5934318  77.6788606  32.8798073  59.0117285  99.6476568  22.9985069
  59.6495695  99.5283315  22.2948409  58.8938127 100.5957412  23.0573021
  55.8206991  99.6003996  22.9346594  55.4825502  99.4845061  22.0467129
  56.6896759  99.1995161  22.9147600  51.6793807 101.4539472  18.9243485
  51.1158672 101.3629409  18.1559773  51.5646202 100.6339377  19.4045977
  56.3026774 100.7538848  28.8932799  56.2915415 100.3591646  28.0213303
  56.4647413 100.0204920  29.4866571  49.2258239 102.9490664  21.7627705
  50.0179530 102.6081489  21.3474005  49.4654889 103.0585639  22.6829859
  57.2593365 105.1210440  14.2357950  56.6081345 105.7064521  13.8491964
  58.0537728 105.6516635  14.2952987  51.1848992 102.2099577  14.6345084
  51.9579868 101.6628564  14.4957960  51.5374391 103.0743827  14.8459546
  53.0234035 103.5375960  27.8411983  52.7323901 104.4421590  27.7258650
  53.6591019 103.5792487  28.5556053  53.9490242 100.9152808  24.4313343
  54.5453814 100.6908830  23.7170306  54.0065213 100.1737554  25.0338791
  53.5215270  98.3692243  12.2663534  53.7740791  97.8473765  11.5046997
  52.5839829  98.2058389  12.3690218  58.5658553  97.3728022  20.0738277
  59.3521642  96.9547445  19.7228694  58.8297257  98.2774114  20.2419926
  58.7368630 102.8100872  14.7726934  58.1014463 102.8835499  15.4847839
  58.4066037 103.3994471  14.0946013  63.9666980  97.3103255  20.9771256
  64.6992152  96.7402472  21.2109085  63.2106336  96.9224855  21.4177761
  53.2411559 100.2720349  14.4687909  53.1247817  99.5965253  15.1368993
  53.3513819  99.7852723  13.6520062  55.5843100  99.7330496  18.1734598
  55.2201307  99.2061117  18.8847520  56.4410216  99.3428966  18.0001084
  61.4892401  91.0224829  25.4365864  61.1575725  91.8920240  25.2127079
  60.8938014  90.7061113  26.1159895  55.2248587  94.7620396  13.1695947
  55.3922989  95.6300633  13.5366418  55.0345756  94.9247678  12.2457236
  57.9823920 103.2237375  24.8361777  57.6824643 104.1262414  24.7277584
  57.6374980 102.9569558  25.6882930  51.4336402  99.6751172  20.8698482
  50.5086898  99.5427386  21.0776173  51.6820815 100.4545391  21.3668424
  61.3821064  95.7419915  22.5159214  60.4737941  95.6735324  22.2217975
  61.3308660  96.2191860  23.3441040  55.2037808  97.2178054  14.1542614
  55.0837433  97.6635104  14.9928094  54.5090396  97.5663371  13.5956152
  48.7945213  99.3184445  21.7042271  48.9237594  99.5718924  22.6181682
  48.1142664  99.9112153  21.3846926  52.9644700 109.9881695  17.8032745
  52.8868730 110.9389520  17.8821225  52.3606343 109.6427568  18.4607671
  55.4561930  97.1609561  30.4594112  54.6795264  97.7203481  30.4496976
  56.0952493  97.6466344  30.9808982  63.2482710  93.9436354  24.2937088
  62.6057091  94.2368887  23.6476883  62.7437639  93.8289274  25.0990285
  60.9022874  97.6899527  14.9822948  61.8140730  97.9226914  14.8070645
  60.3932521  98.2736571  14.4198026  53.7108302  99.9695014  30.0212079
  54.4522986 100.5080058  29.7446902  53.0045287 100.5961303  30.1783631
  59.1863642 102.1124155  28.6184240  59.5946998 101.6706565  27.8738873
  58.4640903 101.5376782  28.8718433  55.5394712  97.0496761  25.9917797
  56.3855907  97.4736175  26.1352446  55.4793349  96.3930386  26.6856360
  59.5092456 102.6725345  22.3736529  58.8801319 102.8371059  21.6712597
  59.1218118 103.0866955  23.1447493  63.3881688 103.6079783  19.7280893
  62.7032726 103.9878684  19.1777926  63.4725537 104.2175110  20.4612841
  58.6894157  94.7101130  27.6498971  58.4455089  95.4643190  27.1133246
  58.9654088  95.0886477  28.4846218  60.6432620 101.2539742  26.3276236
  60.8549515 101.8971502  25.6510617  60.5962368 100.4202059  25.8598166
  58.2458849  93.8657563  23.2312809  57.3843328  94.1638816  23.5229546
  58.2721283  94.0827962  22.2993841  55.0620418 102.4099753  19.6386614
  55.5258764 102.6887456  18.8491237  54.7977216 101.5083198  19.4559705
  51.9544499 101.9571235  22.5766377  52.5245856 102.3858503  21.9383862
  52.5452611 101.6753820  23.2750563  53.9989304  98.5322906  16.4476179
  54.7013348  98.9843949  16.9150106  53.6669933  97.8906725  17.0756072
  52.4469666  97.1234662  30.8227389  51.8168326  97.8050943  31.0562786
  52.3405754  97.0117744  29.8780527  47.7414638  96.7906458  21.7493313
  46.9513692  97.0463987  21.2733424  48.2325886  97.6054796  21.8545353
  61.7578448 104.1311698  24.4998594  62.5795891 103.7291885  24.2181275
  61.7540851 104.0279932  25.4514710  49.6929384  97.1551038  18.7076790
  48.8960547  97.2669732  19.2260285  49.4654976  97.4937690  17.8417680
  55.5235051 103.6795741  26.6559304  55.5879484 104.1416148  27.4917476
  54.8145975 103.0493106  26.7841614  46.0252341  97.0436949  24.1808304
  46.2760380  97.9283959  24.4465880  46.5611890  96.8641550  23.4083396
  69.8484441 100.4750446  20.8483565  69.0948149  99.9057844  20.6927570
  69.9831982 100.4413111  21.7954200  55.2383069 105.3463848  16.5238285
  55.1028744 106.1915384  16.9523132  55.7792881 105.5483126  15.7604218
  51.7250408  91.4255428  33.1852640  51.3317354  90.8721627  33.8600284
  52.5416549  91.7366007  33.5759157  48.6912466 102.8639286  17.0966210
  49.2036987 103.6582537  17.2471774  49.3435179 102.1665577  17.0299811
  50.5007351 105.9805043  19.1788963  50.6773979 106.9023007  18.9909947
  51.2964184 105.6663462  19.6083343  54.6418369  92.8413307  30.7772896
  55.3828083  93.4420460  30.6977359  54.8736292  92.0990945  30.2190939
  49.7859707  98.0269675  29.0551126  49.6713223  97.1254932  29.3558225
  48.9304225  98.2733371  28.7035943  56.8651545 105.9687415  30.6538627
  56.4215399 105.1823793  30.3359531  57.5268759 106.1566565  29.9882517
  51.6238666 107.4983216  25.1799305  52.1746091 107.3700280  24.4076299
  50.7850142 107.7978105  24.8294198  58.9632783 106.2490215  28.6820028
  58.9451259 107.0699096  28.1900297  59.8852703 106.1244290  28.9070169
  55.4205837 103.7634344  29.5243536  55.9534174 103.0022632  29.2942844
  54.8919919 103.4707996  30.2667691  58.5875532  88.8694410  25.0537178
  58.2439802  89.7596052  24.9776289  58.9554495  88.6796068  24.1906763
  46.6561383 101.1927941  17.8725780  47.4936605 101.6024949  17.6559488
  46.8339651 100.2527383  17.8425974  58.5525815  98.8603021  13.5609613
  58.0372439  99.6307626  13.7998001  58.2803124  98.1868158  14.1842675
  56.1372926  93.7052722  18.6194852  55.2814522  93.3159573  18.4400490
  56.5499878  93.7844683  17.7594637  57.6672073  91.2399065  23.0186411
  57.1636868  91.2029201  22.2054217  57.9602680  92.1491808  23.0783068
  53.9114959  91.3237795  22.0252593  54.7767955  91.1280604  21.6658482
  53.9792468  91.0948147  22.9521950  63.5260089 101.6135376  15.4962787
  62.7489532 101.2746535  15.0517949  64.2051570 101.6187999  14.8217752
  58.3412118  96.7330113  15.3869394  58.0362254  97.0476263  16.2379537
  59.2942560  96.8111533  15.4296727  56.7858550 102.8920337  17.0362348
  56.2579912 102.1573096  16.7235586  56.2846053 103.6695013  16.7902317
  61.7651396 101.0869357  22.1529395  61.1075071 101.7768619  22.2409523
  62.5691795 101.4765789  22.4963381  51.5177278  93.5540003  19.3968960
  52.0921030  93.3315185  18.6642153  52.1048260  93.6228698  20.1497561
  60.5756855  99.4413730  20.2033336  61.0888737 100.0743722  20.7055046
  61.2258079  98.8414925  19.8376696  51.8446865  95.5844464  13.4164845
  51.0084177  95.9219151  13.7374120  51.7051634  95.4493444  12.4791982
  53.8199945  90.4281252  18.1244029  53.1664358  90.1130269  17.5000644
  53.7780420  89.8056992  18.8503852  54.9311150 100.7100547  10.0397321
  54.0238212 100.4789800  10.2388470  55.4282182  99.9138166  10.2271303
  57.0537686  96.9163185  22.4491677  56.1360247  97.1378132  22.2913365
  57.4697829  96.9909496  21.5903384  57.8372734  98.3154601  17.5794357
  58.5844553  98.8275998  17.2701479  58.1064323  97.9938654  18.4398751
  56.1099384 100.8113142  14.5621311  55.2010603 100.5272175  14.6593781
  56.1394468 101.2312220  13.7024618  61.3418651 104.4219731  18.3312479
  60.8880978 103.5810641  18.3877669  60.7112618 105.0581130  18.6687259
  60.2851571  95.3511717  19.5613146  59.5474328  94.8389104  19.8923389
  60.5378344  94.9112099  18.7496423  59.7851590 106.2596228  19.2662297
  60.0774565 106.8201285  18.5474663  60.2950211 106.5524789  20.0215456
  60.3863198  88.1287969  20.1554916  60.6922075  87.2685333  19.8680831
  61.1115803  88.7205590  19.9553910  46.6787554  98.5318656  18.5436514
  46.4811954  97.9388017  17.8187580  46.1234218  98.2270866  19.2612452
  54.6584278  98.4241762  20.6631107  54.7132888  97.4715599  20.5873583
  53.8475480  98.5801202  21.1472405  55.8075472 102.3521886  11.9009390
  55.3694901 101.6357744  11.4415027  56.5485912 102.5798000  11.3394481
  52.5976638  97.0418822  18.4221486  51.7844503  97.3412993  18.8286678
  53.0935632  96.6474511  19.1395968  54.7485216 107.0376579  20.3555750
  54.7061394 107.2637425  19.4264282  55.6647914 106.8039954  20.5041551
  58.1950849  97.5060647  27.2536380  58.5500237  97.7332120  28.1130845
  58.8422981  97.8379023  26.6313635  63.9248586 100.6279083  17.9585709
  63.7866485 100.8180679  17.0306898  63.5684805 101.3898465  18.4153760
  52.0890712  94.6137178  24.0382721  52.7290092  94.4725937  23.3405684
  51.2568243  94.3271691  23.6621323  63.9517966 102.6955610  22.9696980
  64.3854473 102.6030899  23.8180034  64.6649547 102.6713110  22.3316996
  52.8651016 103.9139608  20.1517713  53.6591615 103.4189928  19.9500288
  52.1542709 103.3857471  19.7885419  57.6845861 106.2957704  24.5030081
  57.7382883 106.8648640  25.2707797  56.8160642 106.4659589  24.1384118
  49.1733780  98.0582690  16.2277466  48.2431368  97.9967145  16.4447428
  49.2691252  97.5358643  15.4314107  49.0919329  94.5837503  18.8155707
  49.3526146  95.4982836  18.7064868  49.9136501  94.1161945  18.9652320
  50.5644254  95.9975260  25.9854532  51.2367308  95.7892622  25.3367181
  49.7374041  95.7997346  25.5459764  64.8133516 102.7379310  25.5029865
  65.0069406 103.6425121  25.7489140  64.7134134 102.2786729  26.3368450
  56.4669826  92.6237201  28.0020193  55.8197741  93.3227150  27.9084669
  57.2370842  93.0573345  28.3696441  59.8748624 102.8886053  31.0770746
  59.7234131 102.6596605  30.1600830  59.8653304 103.8456654  31.0902091
  56.6433961 100.4617966  26.0617013  57.5726021 100.6129125  25.8885980
  56.2224991 100.5501987  25.2065659  55.4422292 104.4868630  23.8315550
  55.3033378 104.1187415  24.7041488  54.6536889 105.0016270  23.6599508
  56.0370444 109.5877727  15.1741087  56.2122200 109.1165770  15.9886709
  55.3503232 110.2143493  15.4022347  56.9927508 103.8650233  21.2204388
  56.6577340 103.8251003  22.1162038  56.4931453 103.1994949  20.7474798
  50.9671751  99.2717863  26.7456969  50.8291549  98.5398102  27.3468508
  51.8776675  99.1826763  26.4641157  59.9286699 101.2106267  11.4941448
  59.3115870 100.4853095  11.3974500  59.4603188 101.9715627  11.1508522
  53.5954052  98.9837822  26.2340649  54.3053671  98.3431014  26.1927267
  53.5523360  99.2350717  27.1566830  61.5840831 105.9205176  29.1547228
  61.5253377 105.2364396  28.4877811  61.9860349 106.6624166  28.7027854
  52.3082986  95.9703040  28.0536288  51.7720343  95.5193779  28.7057885
  51.7199695  96.1048949  27.3106753  50.6031530 112.7367089  21.9480947
  50.8428128 113.3685614  22.6259965  49.7600726 112.3855129  22.2346306
  51.7185245  95.4291692  10.6162752  50.8414711  95.3080492  10.2524999
  52.1942998  94.6377770  10.3641641  61.5858238 103.8844759  27.3861208
  60.6985017 103.5470681  27.5087606  62.1556789 103.1527791  27.6229973
  43.2387385 100.2168851  20.7104259  43.9258425  99.9030581  20.1225274
  43.0835514 101.1210216  20.4371510  48.0422107  95.1059048  25.1389283
  47.9580296  94.4984717  24.4039693  47.2204814  95.5968066  25.1398779
  55.1159391 108.5446212  24.3522451  55.0429563 109.3501183  24.8641755
  54.6736785 108.7438178  23.5270472  54.9049171 107.7817982  17.8625272
  54.1216693 108.3239662  17.9563497  55.6041916 108.2991962  18.2619514
  58.2145821  93.5912611  20.5059478  58.7114521  92.8382574  20.1860548
  57.4432803  93.6276928  19.9402687  66.0675579  99.2952977  22.1477769
  66.0565455 100.1777692  21.7771702  65.1992958  98.9424528  21.9532306
  57.5758075 108.4433046  26.5080609  58.2886047 109.0780511  26.4356511
  57.0848104 108.5396912  25.6920611  59.2975602 102.3484299  18.0797901
  58.3631881 102.4685761  17.9102605  59.4752270 101.4456765  17.8157911
  54.7980790  95.7329994  20.2331162  54.4278577  95.1801035  20.9212068
  55.2939882  95.1288128  19.6806162  62.6848153  98.1901618  18.6147935
  63.1508605  99.0229609  18.5408238  63.1355654  97.7246599  19.3193194
  52.6269989 106.1927489  27.3286180  53.3279448 106.8263972  27.4815575
  52.1565104 106.5342221  26.5681820  60.7524384 104.5345439  15.6134087
  61.0284228 104.4202034  16.5227961  59.8828883 104.1362924  15.5746260
  60.6564816  90.5582205  22.6538837  59.7427896  90.7886432  22.8221044
  61.0857917  90.6420649  23.5052869  60.4271275  98.7472097  25.1538731
  59.7742725  98.9948004  24.4991183  60.8051654  97.9336235  24.8201208
  57.3878448 108.7831790  19.2566901  57.5700843 107.9653446  19.7194653
  58.2111434 108.9999482  18.8191791  57.7220614 107.7099975  16.5181949
  58.2508380 107.1992430  15.9052112  57.9848833 107.3942505  17.3827482
  56.4758848  99.4891908  31.6404768  55.7999485  99.3886037  32.3107143
  57.2986481  99.3331122  32.1040765  48.2237707 105.7263844  24.2617283
  48.8091143 104.9807532  24.3945187  48.0262545 106.0367801  25.1453947
  51.0776362 108.7615092  19.2779725  50.4086737 109.2461219  18.7943765
  50.9389232 109.0084312  20.1923104  42.8155361  98.2969445  22.9821726
  42.8539461  97.7633035  23.7758844  42.3095654  97.7704650  22.3632703
  55.2181630 110.7958835  25.8762384  55.7699938 110.9590457  26.6411469
  55.5587824 111.3863273  25.2042409  50.1946124  93.1433985  26.4784268
  50.2587450  94.0048816  26.0661666  50.1313244  92.5307987  25.7456627
  49.6698396  95.2157118  30.1257303  50.2970435  94.8334195  30.7394827
  48.8126315  94.9971320  30.4912995  60.0692505 105.6220093  31.7311038
  60.6132409 106.2350051  31.2365993  59.4879350 106.1799671  32.2478051
  46.4463939  97.0233547  16.0575658  46.7417380  96.1144225  16.0042711
  45.5451975  97.0021286  15.7356660  58.3550018 108.7440811  22.8626066
  58.2301157 107.9430551  22.3537011  59.0129109 109.2387004  22.3740036
  49.9758186  95.0989543  22.0403206  49.2544772  95.7125511  21.9010679
  50.7651442  95.6347308  21.9619852  60.4184926 106.5449831  24.4905616
  59.4715262 106.4255182  24.4183943  60.7667699 105.6572329  24.5731877
  52.7784499  92.4343970  28.3143858  53.3018901  92.6806266  29.0770167
  52.5596833  93.2664005  27.8946995  48.1751781  94.7047644  16.1814983
  47.8464487  93.8245023  15.9990089  48.5291151  94.6495313  17.0691372
  57.4231359 106.3402547  20.6909968  57.2756322 105.4119255  20.8717538
  58.2484853 106.3622638  20.2067043  51.2893604  94.9920614  16.5490460
  51.6289676  95.5206535  15.8269069  51.7365724  95.3301020  17.3249027
  61.0265481 107.1631106  21.7774841  61.9512029 106.9573967  21.6399292
  60.8580785 106.9147507  22.6864182  53.9837044  93.3757665  25.9993528
  53.6433865  92.5765478  26.4014208  53.2776051  93.6759376  25.4270362
  54.6353516  90.4606977  24.4520851  55.4579586  89.9867456  24.3299742
  54.8791580  91.2397461  24.9519538  53.2761751  93.4895236  14.7483753
  53.9970113  93.8676489  14.2447470  52.6527055  94.2084113  14.8518731
  57.4192874  94.1940385  15.6842085  57.6356488  95.0765023  15.3830914
  56.9386941  93.8026598  14.9547727  52.1592095  97.1526098  22.2612830
  52.0136676  97.4666401  23.1537112  51.6817299  97.7710998  21.7083729
  54.0188478  94.1428646  22.3093720  54.0050047  93.2469739  21.9726018
  54.7360906  94.1499310  22.9432006  55.8714609  94.5765986  24.3546847
  55.6132386  95.4983057  24.3531177  55.3399649  94.1796421  25.0447311
  60.8160797 107.6816773  17.1336932  60.9897675 107.1163196  16.3810785
  61.3089689 108.4817668  16.9516422  46.6337757  99.6931442  25.2000491
  46.0891225 100.4691250  25.3320766  47.5117107 100.0402247  25.0419613
  53.4225374  93.0243026  17.5781290  53.5441285  92.0959672  17.7772177
  53.1327416  93.0381712  16.6659605  56.2916564  90.7097937  20.7148010
  56.3138261  90.7737270  19.7599989  56.7084623  89.8702445  20.9088516
  66.6700189 100.4453196  18.7527232  67.1131335  99.6960521  18.3546355
  65.7926699 100.4363333  18.3700964  61.8035970 106.9983538  14.2333831
  62.4986875 107.6190230  14.4521145  62.1459120 106.1478889  14.5086209
  47.4203779  98.8201339  28.0930648  46.6785515  98.9683974  28.6795279
  47.0996523  99.0809604  27.2297397  63.7027393 104.4483243  15.7621161
  64.2278717 104.7870516  15.0370481  63.6149746 103.5130259  15.5784296
  55.3647442 108.3617317  27.8911038  55.6734568 108.1166464  28.7633738
  56.1622924 108.5663955  27.4029908  55.3868054 110.5155227  20.1216415
  54.9473044 110.0231605  20.8149271  56.1376171 109.9728194  19.8808490
  47.8660393 106.7066767  20.1241043  48.6918413 106.4070539  19.7439686
  47.5154445 105.9374390  20.5730831  52.8341926 106.0593236  22.1938716
  52.2121935 105.3963941  21.8940944  53.5046793 106.0854367  21.5112364
  46.0668998 104.6253094  21.0829976  45.2300906 104.1975268  20.9013978
  46.0392643 104.8185537  22.0200767  52.9066453  94.5375024  31.7871222
  52.9554609  95.4137146  31.4048992  53.4488968  93.9952417  31.2142866
  63.3921299 105.0816147  31.0672359  62.6016843 105.0640286  30.5276859
  63.1554654 105.6204441  31.8221396  63.5119174 101.9308613  28.3805088
  63.5617179 101.7658621  29.3220611  63.4033097 101.0635872  27.9902969
  52.3955433 104.6097159  15.6697177  52.5443553 105.2932623  15.0163850
  53.2021876 104.5902249  16.1846633  60.8022937  97.9139541  29.6964395
  61.7032799  97.7746006  29.4048392  60.8770911  98.0793996  30.6362572
  55.1365742  95.2906396  28.5417581  54.2669051  95.5839962  28.2700170
  55.3725222  95.8746841  29.2624845  65.0137371 104.3505555  28.6247109
  64.7222179 104.7135535  29.4610570  64.4009502 103.6372563  28.4460442
  66.2133053 101.9158435  21.1449680  67.0479945 102.3548239  21.3087240
  66.3492182 101.4397088  20.3257925  63.2624559  99.4738169  27.0927167
  63.7378681  99.6665816  26.2846019  62.3390125  99.5297355  26.8470551
  50.1508066 100.6362337  16.6758246  49.9054108  99.7324667  16.8738456
  50.3203980 100.6379487  15.7337724  57.8404776  91.5086013  26.0583001
  58.3586720  92.2447040  25.7329490  57.4859908  91.8150006  26.8929760
  49.4203713  96.3690694  14.1744407  48.7272958  96.4435049  13.5184443
  49.1755465  95.6051038  14.6965924  58.0917370  87.9286295  21.5783898
  58.3719124  87.2609485  22.2044325  58.8767977  88.1215391  21.0658562
  55.8950838 107.1045289  13.1408924  55.3224805 107.7235477  12.6879396
  56.4683632 107.6544651  13.6748846  61.9626228  96.3503929  25.3255473
  62.9143651  96.4502027  25.3467697  61.7929679  95.5582198  25.8353557
  59.9840608  93.4359513  25.5114874  59.3890540  93.7164525  24.8161363
  59.6990304  93.9253414  26.2831615  59.1148098 107.3882440  14.2717507
  60.0478771 107.3228001  14.4750382  59.0271311 108.2238706  13.8132039
  64.4414306  99.5710049  24.4397773  64.4090626  98.6326050  24.6257457
  65.0514930  99.6494086  23.7063598  56.2797637  98.4406102  10.4824977
  57.2256742  98.3112310  10.5513395  55.9011882  97.7020764  10.9594405
  64.5908794  96.3621093  24.4856056  64.0747843  95.5779549  24.2985985
  65.4748743  96.0339809  24.6502575  62.2519521  90.1062108  20.4451869
  62.0544343  89.7977196  21.3295201  62.8619227  90.8323747  20.5749798
  70.2590856 100.6326056  23.5803810  70.9894244 100.3711344  24.1411513
  69.6497801  99.8954778  23.6205877  68.3406153  98.7733919  24.1778261
  67.6139317  98.6389884  23.5694752  67.9253440  99.0810747  24.9834979
  56.1636329 102.4923848  31.9425634  57.0839339 102.6702447  32.1365680
  56.1285912 101.5479894  31.7905333  54.4640554  96.3656079  10.4179862
  53.5572009  96.0689191  10.4942576  54.7416535  96.0685897   9.5514148
  45.3818494  97.6862442  20.8678908  45.0621279  96.8327750  20.5753282
  44.8351923  97.9011020  21.6236876  49.1598402 100.4024883  24.5848415
  49.3784412 101.3341991  24.6036449  49.5724176 100.0432857  25.3703219
  56.0802620  90.9092968  16.5724103  55.2703348  90.5640053  16.9479349
  56.7687037  90.6000512  17.1611715  58.0093168  89.9871015  18.1948400
  58.5624207  90.4066468  18.8538423  58.2463254  89.0606763  18.2371356
  54.0326267  95.9758089  33.9751164  53.9322994  96.9252446  33.9063255
  53.8147809  95.6476328  33.1027234  53.2339339  93.2243014  10.5591841
  54.0958503  93.5497912  10.8187659  53.4189683  92.4374510  10.0464907
  45.2506754 101.3065353  22.8372030  44.5570226 100.8919306  22.3241984
  45.9979745 101.3485890  22.2405449  61.3871975  92.0971540  17.7027064
  60.8070644  92.7556344  17.3205117  61.1207908  91.2748885  17.2914482
  59.8375541  91.4976598  19.9048385  60.3375320  91.6093132  19.0962703
  60.4811149  91.1937651  20.5449193  53.8957537  99.4055228  32.7916225
  53.4124619 100.2055588  32.9980115  53.9818476  99.4163172  31.8383669
  47.1643497 101.2383607  20.7138045  47.1414185 101.3371294  19.7619928
  47.4744133 102.0848758  21.0355211  49.8230875 103.2959762  24.8284659
  50.7774128 103.2643705  24.7614591  49.6243398 102.8350386  25.6434885
  50.4130257 101.8660878  27.3955457  51.2323146 102.3604957  27.4190294
  50.6867065 100.9492846  27.3673024  60.1696853  94.2571631  16.7583412
  59.2822708  94.5421281  16.5403607  60.5850842  94.0965394  15.9110689
  63.5211389  94.2818152  20.4737752  64.2971779  94.7714604  20.7462369
  62.7959523  94.7076206  20.9309621  65.9583948  94.9945771  21.5311692
  66.5528439  94.7541507  20.8205001  66.0310532  94.2752901  22.1585229
  48.1781104 108.8379382  21.8454857  48.0435572 108.0779783  21.2792855
  47.7613166 109.5620282  21.3783646  59.3140067 104.0216305  10.8531432
  60.0175917 104.2266308  11.4689088  58.5902715 104.5893067  11.1180516
  60.1437877  99.7726167  16.9733703  60.0873078 100.2294718  16.1341335
  60.6966219  99.0116851  16.7956545  63.9542683  95.5615898  17.7983822
  63.6979617  95.1612534  18.6292030  63.3295551  96.2759692  17.6733961
  68.2655021  98.3011972  20.3055114  67.7054579  98.3705161  21.0786676
  67.6598524  98.1252956  19.5854610  51.3350229 109.7348699  22.0573300
  51.2182614 110.6794131  21.9551990  50.5142676 109.4322260  22.4459099
  61.2226764 104.4598834  12.9029892  62.0572368 104.0280033  12.7207367
  61.0611107 104.2880848  13.8306787  60.8772656 100.9630948  14.2686232
  60.8221460 100.7975219  13.3274676  60.2518711 101.6706981  14.4248422
  45.6665171  96.1999012  28.0947654  46.3124035  95.6897966  28.5834879
  45.4582322  96.9367694  28.6691079  58.1918563 103.2679860  33.5939795
  59.0609723 103.4420512  33.2326429  57.7125315 104.0874276  33.4715524
  54.1868782  90.4639057  13.8471550  54.1747451  91.4080897  14.0039821
  55.0792204  90.2809202  13.5531011  52.3604744 110.3876961  25.2729228
  53.2631990 110.4200571  25.5895723  52.1342114 109.4577412  25.2875564
  54.1158346 109.1407947  21.9339307  53.1653977 109.1409809  21.8203679
  54.4190832 108.3940682  21.4175341  58.0020901  87.0581833  18.1017487
  57.2353297  86.5040320  18.2474169  58.4131606  87.1303702  18.9631639
  50.0062662  93.3466629  32.1922668  50.8694124  92.9903434  32.4025993
  49.4328073  93.0080524  32.8798073  69.8511039 114.9768486  22.9985069
  70.4889449 114.8575233  22.2948409  69.7331882 115.9249330  23.0573021
  66.6600745 114.9295914  22.9346594  66.3219257 114.8136978  22.0467129
  67.5290514 114.5287079  22.9147600  67.1420528 116.0830765  28.8932799
  67.1309169 115.6883564  28.0213303  67.3041168 115.3496838  29.4866571
  60.0651993 118.2782582  21.7627705  60.8573285 117.9373406  21.3474005
  60.3048643 118.3877557  22.6829859  63.8627790 118.8667877  27.8411983
  63.5717655 119.7713508  27.7258650  64.4984774 118.9084405  28.5556053
  64.7883996 116.2444726  24.4313343  65.3847569 116.0200748  23.7170306
  64.8458968 115.5029471  25.0338791  69.4052308 112.7019939  20.0738277
  70.1915397 112.2839363  19.7228694  69.6691012 113.6066032  20.2419926
  72.3286155 106.3516747  25.4365864  71.9969480 107.2212158  25.2127079
  71.7331768 106.0353031  26.1159895  68.8217675 118.5529293  24.8361777
  68.5218398 119.4554332  24.7277584  68.4768734 118.2861476  25.6882930
  62.2730156 115.0043090  20.8698482  61.3480653 114.8719304  21.0776173
  62.5214569 115.7837309  21.3668424  72.2214818 111.0711833  22.5159214
  71.3131696 111.0027241  22.2217975  72.1702414 111.5483778  23.3441040
  59.6338967 114.6476363  21.7042271  59.7631348 114.9010842  22.6181682
  58.9536418 115.2404071  21.3846926  66.2955684 112.4901479  30.4594112
  65.5189018 113.0495399  30.4496976  66.9346247 112.9758261  30.9808982
  74.0876465 109.2728271  24.2937088  73.4450845 109.5660804  23.6476883
  73.5831393 109.1581192  25.0990285  64.5502056 115.2986932  30.0212079
  65.2916741 115.8371976  29.7446902  63.8439042 115.9253221  30.1783631
  70.0257396 117.4416072  28.6184240  70.4340752 116.9998483  27.8738873
  69.3034658 116.8668700  28.8718433  66.3788466 112.3788679  25.9917797
  67.2249661 112.8028093  26.1352446  66.3187104 111.7222303  26.6856360
  69.5287911 110.0393047  27.6498971  69.2848843 110.7935108  27.1133246
  69.8047842 110.4178395  28.4846218  71.4826374 116.5831660  26.3276236
  71.6943269 117.2263420  25.6510617  71.4356123 115.7493976  25.8598166
  69.0852603 109.1949480  23.2312809  68.2237082 109.4930734  23.5229546
  69.1115038 109.4119879  22.2993841  62.7938254 117.2863153  22.5766377
  63.3639611 117.7150421  21.9383862  63.3846366 117.0045737  23.2750563
  63.2863420 112.4526580  30.8227389  62.6562081 113.1342861  31.0562786
  63.1799508 112.3409662  29.8780527  58.5808393 112.1198376  21.7493313
  57.7907447 112.3755905  21.2733424  59.0719640 112.9346714  21.8545353
  60.5323138 112.4842955  18.7076790  59.7354301 112.5961650  19.2260285
  60.3048730 112.8229608  17.8417680  66.3628806 119.0087659  26.6559304
  66.4273238 119.4708066  27.4917476  65.6539730 118.3785023  26.7841614
  56.8646096 112.3728867  24.1808304  57.1154134 113.2575876  24.4465880
  57.4005644 112.1933468  23.4083396  62.5644163 106.7547346  33.1852640
  62.1711109 106.2013544  33.8600284  63.3810303 107.0657924  33.5759157
  65.4812124 108.1705225  30.7772896  66.2221837 108.7712378  30.6977359
  65.7130047 107.4282863  30.2190939  60.6253462 113.3561592  29.0551126
  60.5106977 112.4546849  29.3558225  59.7697980 113.6025289  28.7035943
  67.7045300 121.2979333  30.6538627  67.2609154 120.5115711  30.3359531
  68.3662513 121.4858483  29.9882517  62.4632421 122.8275134  25.1799305
  63.0139846 122.6992197  24.4076299  61.6243897 123.1270023  24.8294198
  69.8026538 121.5782132  28.6820028  69.7845013 122.3991014  28.1900297
  70.7246458 121.4536208  28.9070169  66.2599592 119.0926262  29.5243536
  66.7927929 118.3314550  29.2942844  65.7313673 118.7999914  30.2667691
  69.4269287 104.1986328  25.0537178  69.0833556 105.0887970  24.9776289
  69.7948249 104.0087986  24.1906763  57.4955137 116.5219858  17.8725780
  58.3330359 116.9316867  17.6559488  57.6733405 115.5819301  17.8425974
  66.9766681 109.0344640  18.6194852  66.1208277 108.6451490  18.4400490
  67.3893632 109.1136601  17.7594637  68.5065827 106.5690983  23.0186411
  68.0030623 106.5321118  22.2054217  68.7996434 107.4783726  23.0783068
  64.7508713 106.6529713  22.0252593  65.6161710 106.4572521  21.6658482
  64.8186222 106.4240065  22.9521950  62.3571032 108.8831921  19.3968960
  62.9314784 108.6607102  18.6642153  62.9442015 108.9520615  20.1497561
  64.6593700 105.7573170  18.1244029  64.0058112 105.4422187  17.5000644
  64.6174174 105.1348910  18.8503852  67.8931440 112.2455103  22.4491677
  66.9754002 112.4670050  22.2913365  68.3091584 112.3201414  21.5903384
  71.2256953 103.4579887  20.1554916  71.5315829 102.5977251  19.8680831
  71.9509557 104.0497507  19.9553910  57.5181309 113.8610574  18.5436514
  57.3205708 113.2679934  17.8187580  56.9627973 113.5562784  19.2612452
  65.4978032 113.7533680  20.6631107  65.5526642 112.8007517  20.5873583
  64.6869234 113.9093119  21.1472405  63.4370392 112.3710740  18.4221486
  62.6238258 112.6704910  18.8286678  63.9329386 111.9766429  19.1395968
  69.0344604 112.8352564  27.2536380  69.3893992 113.0624038  28.1130845
  69.6816735 113.1670941  26.6313635  62.9284467 109.9429095  24.0382721
  63.5683846 109.8017855  23.3405684  62.0961998 109.6563609  23.6621323
  68.5239615 121.6249621  24.5030081  68.5776638 122.1940558  25.2707797
  67.6554397 121.7951506  24.1384118  59.9313083 109.9129420  18.8155707
  60.1919901 110.8274754  18.7064868  60.7530256 109.4453863  18.9652320
  61.4038009 111.3267178  25.9854532  62.0761062 111.1184540  25.3367181
  60.5767795 111.1289264  25.5459764  67.3063581 107.9529119  28.0020193
  66.6591496 108.6519068  27.9084669  68.0764596 108.3865262  28.3696441
  70.7142379 118.2177971  31.0770746  70.5627885 117.9888522  30.1600830
  70.7047058 119.1748572  31.0902091  67.4827715 115.7909883  26.0617013
  68.4119775 115.9421043  25.8885980  67.0618745 115.8793904  25.2065659
  66.2816047 119.8160548  23.8315550  66.1427133 119.4479332  24.7041488
  65.4930643 120.3308187  23.6599508  61.8065506 114.6009781  26.7456969
  61.6685304 113.8690019  27.3468508  62.7170429 114.5118681  26.4641157
  64.4347807 114.3129740  26.2340649  65.1447425 113.6722932  26.1927267
  64.3917115 114.5642635  27.1566830  72.4234585 121.2497093  29.1547228
  72.3647131 120.5656313  28.4877811  72.8254104 121.9916083  28.7027854
  63.1476741 111.2994958  28.0536288  62.6114098 110.8485696  28.7057885
  62.5593449 111.4340867  27.3106753  72.4251993 119.2136677  27.3861208
  71.5378771 118.8762599  27.5087606  72.9950544 118.4819708  27.6229973
  54.0781140 115.5460769  20.7104259  54.7652180 115.2322499  20.1225274
  53.9229268 116.4502134  20.4371510  58.8815862 110.4350965  25.1389283
  58.7974051 109.8276635  24.4039693  58.0598568 110.9259984  25.1398779
  69.0539576 108.9204529  20.5059478  69.5508275 108.1674491  20.1860548
  68.2826557 108.9568846  19.9402687  68.4151829 123.7724964  26.5080609
  69.1279802 124.4072428  26.4356511  67.9241858 123.8688830  25.6920611
  65.6374544 111.0621912  20.2331162  65.2672332 110.5092952  20.9212068
  66.1333637 110.4580045  19.6806162  63.4663743 121.5219407  27.3286180
  64.1673203 122.1555890  27.4815575  62.9958858 121.8634139  26.5681820
  71.4958570 105.8874122  22.6538837  70.5821650 106.1178349  22.8221044
  71.9251672 105.9712567  23.5052869  71.2665029 114.0764014  25.1538731
  70.6136479 114.3239922  24.4991183  71.6445409 113.2628153  24.8201208
  67.3152602 114.8183826  31.6404768  66.6393239 114.7177955  32.3107143
  68.1380236 114.6623039  32.1040765  59.0631461 121.0555762  24.2617283
  59.6484898 120.3099450  24.3945187  58.8656300 121.3659719  25.1453947
  53.6549116 113.6261362  22.9821726  53.6933215 113.0924953  23.7758844
  53.1489409 113.0996568  22.3632703  61.0339878 108.4725903  26.4784268
  61.0981205 109.3340734  26.0661666  60.9706998 107.8599904  25.7456627
  60.5092151 110.5449035  30.1257303  61.1364189 110.1626113  30.7394827
  59.6520070 110.3263237  30.4912995  70.9086259 120.9512010  31.7311038
  71.4526163 121.5641969  31.2365993  70.3273104 121.5091589  32.2478051
  57.2857693 112.3525464  16.0575658  57.5811134 111.4436143  16.0042711
  56.3845729 112.3313204  15.7356660  60.8151940 110.4281461  22.0403206
  60.0938526 111.0417429  21.9010679  61.6045196 110.9639226  21.9619852
  63.6178254 107.7635887  28.3143858  64.1412656 108.0098184  29.0770167
  63.3990587 108.5955922  27.8946995  59.0145535 110.0339562  16.1814983
  58.6858241 109.1536941  15.9990089  59.3684906 109.9787231  17.0691372
  62.1287358 110.3212532  16.5490460  62.4683431 110.8498453  15.8269069
  62.5759479 110.6592938  17.3249027  64.8230799 108.7049583  25.9993528
  64.4827619 107.9057396  26.4014208  64.1169805 109.0051293  25.4270362
  65.4747271 105.7898895  24.4520851  66.2973340 105.3159373  24.3299742
  65.7185334 106.5689379  24.9519538  62.9985850 112.4818016  22.2612830
  62.8530430 112.7958319  23.1537112  62.5211053 113.1002916  21.7083729
  64.8582232 109.4720564  22.3093720  64.8443801 108.5761657  21.9726018
  65.5754661 109.4791227  22.9432006  66.7108363 109.9057904  24.3546847
  66.4526141 110.8274975  24.3531177  66.1793404 109.5088338  25.0447311
  57.4731512 115.0223360  25.2000491  56.9284980 115.7983168  25.3320766
  58.3510862 115.3694165  25.0419613  64.2619128 108.3534944  17.5781290
  64.3835040 107.4251590  17.7772177  63.9721171 108.3673630  16.6659605
  67.1310319 106.0389854  20.7148010  67.1532016 106.1029187  19.7599989
  67.5478378 105.1994363  20.9088516  58.2597534 114.1493256  28.0930648
  57.5179270 114.2975892  28.6795279  57.9390278 114.4101522  27.2297397
  66.2041196 123.6909235  27.8911038  66.5128323 123.4458381  28.7633738
  67.0016678 123.8955873  27.4029908  56.9062752 119.9545012  21.0829976
  56.0694661 119.5267186  20.9013978  56.8786398 120.1477455  22.0200767
  63.7460208 109.8666941  31.7871222  63.7948363 110.7429064  31.4048992
  64.2882722 109.3244334  31.2142866  74.2315054 120.4108065  31.0672359
  73.4410597 120.3932203  30.5276859  73.9948408 120.9496358  31.8221396
  74.3512929 117.2600531  28.3805088  74.4010934 117.0950538  29.3220611
  74.2426852 116.3927790  27.9902969  71.6416691 113.2431459  29.6964395
  72.5426554 113.1037924  29.4048392  71.7164666 113.4085914  30.6362572
  65.9759496 110.6198314  28.5417581  65.1062806 110.9131880  28.2700170
  66.2118977 111.2038759  29.2624845  75.8531125 119.6797472  28.6247109
  75.5615934 120.0427453  29.4610570  75.2403257 118.9664481  28.4460442
  74.1018314 114.8030087  27.0927167  74.5772435 114.9957733  26.2846019
  73.1783879 114.8589273  26.8470551  68.6798530 106.8377931  26.0583001
  69.1980474 107.5738958  25.7329490  68.3253663 107.1441924  26.8929760
  68.9311124 103.2578213  21.5783898  69.2112878 102.5901402  22.2044325
  69.7161731 103.4507309  21.0658562  72.8019983 111.6795847  25.3255473
  73.7537406 111.7793945  25.3467697  72.6323433 110.8874116  25.8353557
  70.8234362 108.7651430  25.5114874  70.2284294 109.0456443  24.8161363
  70.5384059 109.2545331  26.2831615  75.2808060 114.9001967  24.4397773
  75.2484381 113.9617968  24.6257457  75.8908684 114.9786004  23.7063598
  75.4302549 111.6913010  24.4856056  74.9141598 110.9071467  24.2985985
  76.3142497 111.3631727  24.6502575  73.0913276 105.4354026  20.4451869
  72.8938097 105.1269114  21.3295201  73.7012981 106.1615665  20.5749798
  67.0030084 117.8215766  31.9425634  67.9233093 117.9994365  32.1365680
  66.9679667 116.8771811  31.7905333  56.2212249 113.0154360  20.8678908
  55.9015033 112.1619668  20.5753282  55.6745677 113.2302938  21.6236876
  59.9992156 115.7316801  24.5848415  60.2178166 116.6633908  24.6036449
  60.4117930 115.3724775  25.3703219  66.9196374 106.2384886  16.5724103
  66.1097103 105.8931971  16.9479349  67.6080791 105.9292430  17.1611715
  68.8486923 105.3162933  18.1948400  69.4017961 105.7358386  18.8538423
  69.0857009 104.3898681  18.2371356  64.8720022 111.3050006  33.9751164
  64.7716749 112.2544363  33.9063255  64.6541564 110.9768245  33.1027234
  56.0900509 116.6357271  22.8372030  55.3963980 116.2211224  22.3241984
  56.8373500 116.6777808  22.2405449  70.6769296 106.8268516  19.9048385
  71.1769074 106.9385050  19.0962703  71.3204904 106.5229568  20.5449193
  64.7351292 114.7347145  32.7916225  64.2518374 115.5347505  32.9980115
  64.8212231 114.7455090  31.8383669  58.0037251 116.5675525  20.7138045
  57.9807940 116.6663212  19.7619928  58.3137888 117.4140676  21.0355211
  60.6624629 118.6251680  24.8284659  61.6167883 118.5935622  24.7614591
  60.4637153 118.1642304  25.6434885  61.2524011 117.1952796  27.3955457
  62.0716900 117.6896875  27.4190294  61.5260819 116.2784764  27.3673024
  74.3605144 109.6110069  20.4737752  75.1365534 110.1006522  20.7462369
  73.6353278 110.0368123  20.9309621  56.5058926 111.5290930  28.0947654
  57.1517789 111.0189884  28.5834879  56.2976077 112.2659611  28.6691079
  69.0312318 118.5971777  33.5939795  69.9003477 118.7712430  33.2326429
  68.5519069 119.4166194  33.4715524  63.1998498 125.7168878  25.2729228
  64.1025745 125.7492489  25.5895723  62.9735868 124.7869329  25.2875564
  68.8414656 102.3873751  18.1017487  68.0747051 101.8332238  18.2474169
  69.2525361 102.4595620  18.9631639  60.8456417 108.6758547  32.1922668
  61.7087878 108.3195352  32.4025993  60.2721827 108.3372442  32.8798073
  73.4037917 122.0839264  33.1852640  73.0104863 121.5305462  33.8600284
  74.2204058 122.3949842  33.5759157  76.3205878 123.4997143  30.7772896
  77.0615592 124.1004296  30.6977359  76.5523801 122.7574780  30.2190939
  71.3485905 125.8740953  30.1257303  71.9757944 125.4918030  30.7394827
  70.4913824 125.6555155  30.4912995  74.5853962 125.1958859  31.7871222
  74.6342118 126.0720982  31.4048992  75.1276477 124.6536252  31.2142866
  75.7113776 126.6341924  33.9751164  75.6110503 127.5836281  33.9063255
  75.4935318 126.3060163  33.1027234  67.3452680 126.8582848  28.0947654
  67.9911544 126.3481801  28.5834879  67.1369831 127.5951529  28.6691079
  71.6850171 124.0050465  32.1922668  72.5481633 123.6487269  32.4025993
  71.1115582 123.6664359  32.8798073  24.3470283  36.9873784  17.3783933
  23.9034137  36.2010163  17.0604838  25.0087497  37.1752935  16.7127824
  26.4451521  37.2676584  15.4065335  26.4269996  38.0885465  14.9145604
  27.3671441  37.1430660  15.6315476  27.3567362  33.9072423  17.8016053
  27.2052868  33.6782974  16.8846136  27.3472041  34.8643024  17.8147398
  29.0659569  36.9391545  15.8792535  29.0072115  36.2550765  15.2123118
  29.4679087  37.6810535  15.4273161  27.5511243  36.6406462  18.4556345
  28.0951146  37.2536421  17.9611300  26.9698087  37.1986041  18.9723358
  30.8740037  36.1002516  17.7917666  30.0835581  36.0826655  17.2522165
  30.6373391  36.6390810  18.5466703  32.4956109  35.3691924  15.3492416
  32.2040917  35.7321905  16.1855877  31.8828240  34.6558933  15.1705748
  25.6737301  34.2866229  20.3185101  26.5428461  34.4606881  19.9571736
  25.1944053  35.1060646  20.1960831  37.3329777  45.9954855   9.7230376
  37.9708187  45.8761603   9.0193716  37.2150620  46.9435699   9.7818328
  34.1419483  45.9482283   9.6591901  33.8037995  45.8323348   8.7712435
  35.0109251  45.5473448   9.6392907  34.6239266  47.1017135  15.6178106
  34.6127907  46.7069933  14.7458610  34.7859906  46.3683208  16.2111878
  27.5470731  49.2968951   8.4873012  28.3392023  48.9559776   8.0719311
  27.7867381  49.4063926   9.4075165  31.3446527  49.8854247  14.5657290
  31.0536393  50.7899878  14.4503956  31.9803512  49.9270774  15.2801360
  32.2702734  47.2631095  11.1558650  32.8666306  47.0387118  10.4415613
  32.3277706  46.5215841  11.7584098  42.2879473  43.6581542   7.7016562
  43.0204644  43.0880759   7.9354392  41.5318828  43.2703143   8.1423068
  39.8104893  37.3703116  12.1611171  39.4788218  38.2398527  11.9372386
  39.2150506  37.0539400  12.8405201  36.3036412  49.5715662  11.5607084
  36.0037135  50.4740701  11.4522891  35.9587472  49.3047846  12.4128237
  39.7033556  42.0898202   9.2404521  38.7950434  42.0213611   8.9463282
  39.6521152  42.5670147  10.0686347  31.2857192  56.3359983   4.5278051
  31.2081222  57.2867808   4.6066532  30.6818836  55.9905855   5.1852978
  33.7774422  43.5087848  17.1839418  33.0007756  44.0681768  17.1742283
  34.4164985  43.9944631  17.7054288  41.5695203  40.2914641  11.0182395
  40.9269583  40.5847174  10.3722190  41.0650131  40.1767561  11.8235592
  32.0320794  46.3173301  16.7457385  32.7735479  46.8558345  16.4692209
  31.3257780  46.9439590  16.9028937  37.5076134  48.4602442  15.3429547
  37.9159490  48.0184852  14.5984179  36.7853395  47.8855069  15.5963740
  33.8607204  43.3975049  12.7163104  34.7068399  43.8214462  12.8597753
  33.8005842  42.7408673  13.4101667  37.8304949  49.0203633   9.0981836
  37.2013811  49.1849347   8.3957904  37.4430611  49.4345242   9.8692800
  41.7094180  49.9558070   6.4526199  41.0245219  50.3356972   5.9023233
  41.7938030  50.5653397   7.1858147  37.0106649  41.0579417  14.3744277
  36.7667581  41.8121478  13.8378553  37.2866580  41.4364765  15.2091525
  38.9645112  47.6018029  13.0521543  39.1762007  48.2449789  12.3755924
  38.9174860  46.7680346  12.5843473  30.2756991  48.3049522   9.3011684
  30.8458349  48.7336791   8.6629169  30.8665103  48.0232107   9.9995870
  30.7682158  43.4712950  17.5472695  30.1380819  44.1529230  17.7808092
  30.6618246  43.3596031  16.6025834  40.0790940  50.4789985  11.2243900
  40.9008384  50.0770172  10.9426582  40.0753343  50.3758219  12.1760016
  33.8447543  50.0274028  13.3804611  33.9091976  50.4894435  14.2162783
  33.1358467  49.3971393  13.5086921  48.1696933  46.8228733   7.5728872
  47.4160641  46.2536131   7.4172876  48.3044474  46.7891398   8.5199507
  30.0462901  37.7733715  19.9097946  29.6529846  37.2199914  20.5845591
  30.8629041  38.0844294  20.3004464  28.8219843  52.3283330   5.9034269
  28.9986472  53.2501295   5.7155253  29.6176677  52.0141749   6.3328649
  32.9630862  39.1891595  17.5018203  33.7040575  39.7898748  17.4222665
  33.1948785  38.4469232  16.9436246  28.1072200  44.3747962  15.7796433
  27.9925715  43.4733219  16.0803532  27.2516717  44.6211659  15.4281249
  35.1864037  52.3165702  17.3783933  34.7427892  51.5302081  17.0604838
  35.8481251  52.5044853  16.7127824  29.9451159  53.8461504  11.9044612
  30.4958584  53.7178567  11.1321606  29.1062635  54.1456393  11.5539505
  37.2845276  52.5968502  15.4065335  37.2663751  53.4177383  14.9145604
  38.2065196  52.4722577  15.6315476  33.7418330  50.1112632  16.2488843
  34.2746666  49.3500920  16.0188151  33.2132411  49.8186283  16.9912997
  40.0863888  47.4347644   8.8774701  39.4287563  48.1246906   8.9654830
  40.8904288  47.8244076   9.2208688  38.8969347  45.7892017   6.9278643
  39.4101229  46.4222009   7.4300353  39.5470571  45.1893213   6.5622003
  35.3750178  43.2641473   9.1736984  34.4572739  43.4856420   9.0158672
  35.7910322  43.3387783   8.3148691  39.6631143  50.7698019   5.0557786
  39.2093471  49.9288929   5.1122976  39.0325110  51.4059417   5.3932566
  38.1064083  52.6074515   5.9907604  38.3987057  53.1679572   5.2719969
  38.6162703  52.9003076   6.7460763  33.0697708  53.3854866   7.0801057
  33.0273887  53.6115713   6.1509589  33.9860407  53.1518241   7.2286858
  36.5163342  43.8538934  13.9781686  36.8712729  44.0810407  14.8376152
  37.1635473  44.1857311  13.3558941  42.2461079  46.9757370   4.6831015
  42.1078977  47.1658966   3.7552204  41.8897297  47.7376753   5.1399066
  42.2730458  49.0433897   9.6942287  42.7066965  48.9509186  10.5425341
  42.9862039  49.0191397   9.0562303  31.1863509  50.2617895   6.8763020
  31.9804107  49.7668216   6.6745595  30.4755201  49.7335759   6.5130725
  36.0058353  52.6435991  11.2275387  36.0595375  53.2126927  11.9953103
  35.1373134  52.8137876  10.8629424  28.8856746  42.3453547  12.7099839
  29.5579800  42.1370909  12.0612487  28.0586533  42.1475633  12.2705071
  43.1346008  49.0857598  12.2275172  43.3281898  49.9903408  12.4734447
  43.0346626  48.6265017  13.0613757  34.7882319  38.9715488  14.7265499
  34.1410234  39.6705438  14.6329976  35.5583334  39.4051632  15.0941748
  38.1961116  49.2364340  17.8016053  38.0446623  49.0074892  16.8846136
  38.1865796  50.1934942  17.8147398  34.9646453  46.8096253  12.7862319
  35.8938513  46.9607413  12.6131286  34.5437483  46.8980274  11.9310966
  33.7634785  50.8346917  10.5560857  33.6245870  50.4665702  11.4286795
  32.9749381  51.3494557  10.3844815  34.3582937  55.9356014   1.8986393
  34.5334692  55.4644057   2.7132016  33.6715725  56.5621780   2.1267654
  35.3140000  50.2128520   7.9449695  34.9789832  50.1729290   8.8407344
  34.8143945  49.5473236   7.4720105  29.2884244  45.6196150  13.4702276
  29.1504042  44.8876389  14.0713815  30.1989167  45.5305050  13.1886463
  31.9166544  45.3316109  12.9585955  32.6266163  44.6909302  12.9172574
  31.8735853  45.5829004  13.8812136  39.9053323  52.2683463  15.8792535
  39.8465869  51.5842683  15.2123118  40.3072841  53.0102453  15.4273161
  30.6295478  42.3181327  14.7781595  30.0932835  41.8672066  15.4303191
  30.0412187  42.4527236  14.0352059  28.9244022  59.0845377   8.6726253
  29.1640620  59.7163901   9.3505272  28.0813218  58.7333417   8.9591613
  39.9070730  50.2323047  14.1106514  39.0197509  49.8948969  14.2332913
  40.4769281  49.5006078  14.3475280  33.4371884  54.8924499  11.0767757
  33.3642055  55.6979471  11.5887062  32.9949277  55.0916465  10.2515779
  33.2261663  54.1296269   4.5870579  32.4429185  54.6717949   4.6808804
  33.9254409  54.6470249   4.9864820  44.3888071  45.6431264   8.8723076
  44.3777947  46.5255980   8.5017009  43.5205450  45.2902815   8.6777613
  35.8970567  54.7911333  13.2325916  36.6098539  55.4258798  13.1601818
  35.4060596  54.8875199  12.4165918  37.6188094  48.6962586   4.8043208
  36.6844373  48.8164048   4.6347912  37.7964763  47.7935053   4.5403218
  41.0060646  44.5379905   5.3393242  41.4721098  45.3707897   5.2653545
  41.4568146  44.0724887   6.0438500  30.9482481  52.5405777  14.0531487
  31.6491940  53.1742260  14.2060881  30.4777596  52.8820508  13.2927126
  38.7483767  45.0950384  11.8784037  38.0955217  45.3426291  11.2236490
  39.1264147  44.2814522  11.5446515  35.7090941  55.1310077   5.9812208
  35.8913335  54.3131733   6.4439960  36.5323927  55.3477769   5.5437098
  36.0433106  54.0578262   3.2427256  36.5720873  53.5470717   2.6297418
  36.3061326  53.7420793   4.1072789  34.7971340  45.8370195  18.3650074
  34.1211977  45.7364324  19.0352450  35.6198974  45.6809409  18.8286072
  26.5450199  52.0742132  10.9862590  27.1303636  51.3285820  11.1190494
  26.3475037  52.3846088  11.8699254  29.3988854  55.1093379   6.0025032
  28.7299229  55.5939507   5.5189072  29.2601724  55.3562599   6.9168411
  33.5394123  57.1437123  12.6007690  34.0912431  57.3068744  13.3656776
  33.8800316  57.7341560  11.9287715  27.9910888  41.5635405  16.8502609
  28.6182927  41.1812482  17.4640134  27.1338807  41.3449607  17.2158302
  38.3904997  51.9698380  18.4556345  38.9344901  52.5828338  17.9611300
  37.8091842  52.5277958  18.9723358  36.6762510  55.0919098   9.5871373
  36.5513649  54.2908838   9.0782318  37.3341601  55.5865291   9.0985342
  38.7397418  52.8928118  11.2150923  37.7927754  52.7733469  11.1429249
  39.0880191  52.0050616  11.2977184  31.0996992  38.7822257  15.0389165
  31.6231394  39.0284554  15.8015474  30.8809325  39.6142292  14.6192302
  35.7443852  52.6880834   7.4155275  35.5968814  51.7597542   7.5962845
  36.5697345  52.7100925   6.9312350  39.3477973  53.5109393   8.5020148
  40.2724521  53.3052254   8.3644599  39.1793277  53.2625794   9.4109489
  32.3049537  39.7235952  12.7238835  31.9646357  38.9243765  13.1259515
  31.5988543  40.0237663  12.1515668  34.1927101  40.9244273  11.0792154
  33.9344879  41.8461344  11.0776484  33.6612141  40.5274708  11.7692618
  39.1373290  54.0295061   3.8582239  39.3110167  53.4641483   3.1056092
  39.6302181  54.8295955   3.6761729  24.9550249  46.0409730  11.9245798
  24.4103718  46.8169538  12.0566072  25.8329599  46.3880534  11.7664919
  44.9912681  46.7931483   5.4772539  45.4343827  46.0438809   5.0791662
  44.1139191  46.7841620   5.0946271  40.1248462  53.3461825   0.9579137
  40.8199367  53.9668518   1.1766452  40.4671612  52.4957176   1.2331515
  25.7416271  45.1679626  14.8175955  24.9998007  45.3162261  15.4040585
  25.4209016  45.4287892  13.9542704  42.0239885  50.7961530   2.4866468
  42.5491209  51.1348803   1.7615788  41.9362238  49.8608546   2.3029603
  33.6859934  54.7095604  14.6156345  33.9947060  54.4644751  15.4879044
  34.4835416  54.9142243  14.1275215  33.7080546  56.8633514   6.8461721
  33.2685536  56.3709892   7.5394578  34.4588663  56.3206481   6.6053797
  26.1872885  53.0545055   6.8486349  27.0130905  52.7548826   6.4684993
  25.8366937  52.2852677   7.2976138  31.1554418  52.4071523   8.9184023
  30.5334427  51.7442228   8.6186251  31.8259285  52.4332655   8.2357671
  31.2278946  40.8853311  18.5116529  31.2767101  41.7615434  18.1294299
  31.7701460  40.3430704  17.9388172  41.7133791  51.4294434  17.7917666
  40.9229335  51.4118573  17.2522165  41.4767146  51.9682728  18.5466703
  41.8331666  48.2786900  15.1050395  41.8829671  48.1136908  16.0465917
  41.7245590  47.4114160  14.7148275  39.1235429  44.2617829  16.4209701
  40.0245292  44.1224293  16.1293699  39.1983403  44.4272283  17.3607879
  33.4578234  41.6384683  15.2662888  32.5881544  41.9318249  14.9945476
  33.6937715  42.2225128  15.9870151  43.3349863  50.6983842  15.3492416
  43.0434672  51.0613823  16.1855877  42.7221995  49.9850850  15.1705748
  44.5345546  48.2636722   7.8694986  45.3692437  48.7026526   8.0332547
  44.6704674  47.7875375   7.0503232  41.5837051  45.8216457  13.8172474
  42.0591173  46.0144103  13.0091326  40.6602617  45.8775642  13.5715858
  36.1617268  37.8564300  12.7828308  36.6799212  38.5925327  12.4574797
  35.8072401  38.1628293  13.6175067  40.2838720  42.6982217  12.0500780
  41.2356143  42.7980314  12.0713004  40.1142171  41.9060485  12.5598864
  38.3053100  39.7837800  12.2360181  37.7103032  40.0642813  11.5406669
  38.0202797  40.2731701  13.0076922  42.7626798  45.9188336  11.1643079
  42.7303118  44.9804337  11.3502763  43.3727422  45.9972373  10.4308904
  42.9121287  42.7099380  11.2101363  42.3960335  41.9257836  11.0231291
  43.7961235  42.3818096  11.3747882  48.5803348  46.9804343  10.3049116
  49.3106737  46.7189631  10.8656820  47.9710294  46.2433065  10.3451184
  46.6618645  45.1212206  10.9023567  45.9351809  44.9868171  10.2940059
  46.2465932  45.4289034  11.7080285  34.4848822  48.8402136  18.6670940
  35.4051831  49.0180735  18.8610987  34.4498405  47.8958181  18.5150640
  27.4810894  46.7503170  11.3093722  27.6996904  47.6820278  11.3281755
  27.8936668  46.3911145  12.0948525  32.3538760  42.3236376  20.6996470
  32.2535486  43.2730733  20.6308562  32.1360302  41.9954615  19.8272541
  32.2170030  45.7533515  19.5161532  31.7337111  46.5533875  19.7225421
  32.3030969  45.7641460  18.5628976  28.1443367  49.6438049  11.5529966
  29.0986621  49.6121992  11.4859897  27.9455891  49.1828673  12.3680192
  28.7342749  48.2139166  14.1200764  29.5535638  48.7083244  14.1435601
  29.0079557  47.2971134  14.0918331  41.8423882  40.6296439   7.1983058
  42.6184272  41.1192891   7.4707675  41.1172016  41.0554493   7.6554928
  44.2796440  41.3424058   8.2556999  44.8740931  41.1019794   7.5450307
  44.3523024  40.6231189   8.8830535  26.4993596  55.1857669   8.5700164
  26.3648064  54.4258070   8.0038162  26.0825658  55.9098569   8.1028953
  46.5867513  44.6490259   7.0300420  46.0267071  44.7183448   7.8031982
  45.9811016  44.4731244   6.3099916  29.6562722  56.0826986   8.7818606
  29.5395106  57.0272418   8.6797297  28.8355168  55.7800548   9.1704406
  23.9877663  42.5477299  14.8192961  24.6336527  42.0376253  15.3080186
  23.7794815  43.2845981  15.3936386  36.5131056  49.6158147  20.3185101
  37.3822215  49.7898799  19.9571736  36.0337807  50.4352564  20.1960831
  30.6817236  56.7355248  11.9974535  31.5844483  56.7678858  12.3141030
  30.4554606  55.8055699  12.0120871  32.4370838  55.4886234   8.6584613
  31.4866469  55.4888096   8.5448986  32.7403324  54.7418969   8.1420648
  28.3275154  39.6944916  18.9167975  29.1906616  39.3381721  19.1271299
  27.7540565  39.3558811  19.6043379  48.1723531  61.3246773   9.7230376
  48.8101941  61.2053520   9.0193716  48.0544374  62.2727617   9.7818328
  44.9813238  61.2774201   9.6591901  44.6431749  61.1615266   8.7712435
  45.8503006  60.8765366   9.6392907  40.8400053  63.1309677   5.6488792
  40.2764918  63.0399614   4.8805079  40.7252448  62.3109582   6.1291284
  45.4633021  62.4309053  15.6178106  45.4521661  62.0361851  14.7458610
  45.6253660  61.6975125  16.2111878  38.3864485  64.6260869   8.4873012
  39.1785777  64.2851694   8.0719311  38.6261135  64.7355844   9.4075165
  46.4199612  66.7980645   0.9603256  45.7687592  67.3834725   0.5737270
  47.2143975  67.3286840   1.0198294  40.3455239  63.8869782   1.3590391
  41.1186115  63.3398769   1.2203267  40.6980638  64.7514032   1.5704852
  42.1840282  65.2146164  14.5657290  41.8930148  66.1191795  14.4503956
  42.8197266  65.2562692  15.2801360  43.1096489  62.5923013  11.1558650
  43.7060061  62.3679035  10.4415613  43.1671460  61.8507758  11.7584098
  42.6821517  60.0462448  -1.0091159  42.9347038  59.5243970  -1.7707696
  41.7446076  59.8828594  -0.9064476  47.7264800  59.0498227   6.7983584
  48.5127889  58.6317650   6.4474001  47.9903504  59.9544319   6.9665232
  47.8974877  64.4871077   1.4972241  47.2620710  64.5605703   2.2093145
  47.5672284  65.0764676   0.8191320  53.1273227  58.9873460   7.7016562
  53.8598399  58.4172677   7.9354392  52.3712583  58.5995060   8.1423068
  42.4017806  61.9490554   1.1933216  42.2854064  61.2735458   1.8614300
  42.5120066  61.4622928   0.3765369  44.7449347  61.4100701   4.8979905
  44.3807554  60.8831322   5.6092826  45.6016463  61.0199170   4.7246390
  50.6498647  52.6995034  12.1611171  50.3181972  53.5690445  11.9372386
  50.0544261  52.3831318  12.8405201  44.3854834  56.4390601  -0.1058747
  44.5529236  57.3070837   0.2611724  44.1952003  56.6017883  -1.0297457
  47.1430167  64.9007580  11.5607084  46.8430890  65.8032619  11.4522891
  46.7981226  64.6339763  12.4128237  40.5942648  61.3521377   7.5943788
  39.6693145  61.2197591   7.8021480  40.8427062  62.1315596   8.0913731
  50.5427311  57.4190120   9.2404521  49.6344188  57.3505529   8.9463282
  50.4914906  57.8962065  10.0686347  44.3644055  58.8948259   0.8787920
  44.2443680  59.3405309   1.7173401  43.6696643  59.2433576   0.3201458
  37.9551459  60.9954650   8.4287577  38.0843841  61.2489129   9.3426989
  37.2748911  61.5882358   8.1092232  42.1250947  71.6651900   4.5278051
  42.0474976  72.6159725   4.6066532  41.5212590  71.3197773   5.1852978
  44.6168176  58.8379766  17.1839418  43.8401511  59.3973686  17.1742283
  45.2558739  59.3236549  17.7054288  52.4088957  55.6206559  11.0182395
  51.7663337  55.9139092  10.3722190  51.9043886  55.5059479  11.8235592
  50.0629121  59.3669732   1.7068254  50.9746977  59.5997118   1.5315952
  49.5538768  59.9506776   1.1443333  42.8714549  61.6465219  16.7457385
  43.6129233  62.1850263  16.4692209  42.1651534  62.2731508  16.9028937
  48.3469888  63.7894360  15.3429547  48.7553244  63.3476770  14.5984179
  47.6247150  63.2146987  15.5963740  44.7000958  58.7266966  12.7163104
  45.5462154  59.1506380  12.8597753  44.6399596  58.0700591  13.4101667
  48.6698703  64.3495550   9.0981836  48.0407565  64.5141264   8.3957904
  48.2824365  64.7637160   9.8692800  52.5487935  65.2849988   6.4526199
  51.8638973  65.6648889   5.9023233  52.6331784  65.8945315   7.1858147
  47.8500404  56.3871335  14.3744277  47.6061336  57.1413395  13.8378553
  48.1260334  56.7656682  15.2091525  49.8038867  62.9309947  13.0521543
  50.0155762  63.5741707  12.3755924  49.7568615  62.0972264  12.5843473
  47.4065095  55.5427768   9.9558115  46.5449575  55.8409021  10.2474853
  47.4327530  55.7598167   9.0239148  44.2226665  64.0869958   6.3631921
  44.6865010  64.3657661   5.5736543  43.9583463  63.1853403   6.1805012
  41.1150746  63.6341440   9.3011684  41.6852103  64.0628708   8.6629169
  41.7058858  63.3524025   9.9995870  43.1595551  60.2093111   3.1721486
  43.8619594  60.6614154   3.6395412  42.8276179  59.5676930   3.8001379
  41.6075912  58.8004867  17.5472695  40.9774573  59.4821148  17.7808092
  41.5012000  58.6887949  16.6025834  36.9020885  58.4676663   8.4738620
  36.1119939  58.7234192   7.9978730  37.3932132  59.2825001   8.5790660
  50.9184694  65.8081902  11.2243900  51.7402138  65.4062090  10.9426582
  50.9147097  65.7050137  12.1760016  38.8535630  58.8321243   5.4322096
  38.0566794  58.9439937   5.9505592  38.6261223  59.1707895   4.5662987
  44.6841298  65.3565946  13.3804611  44.7485730  65.8186353  14.2162783
  43.9752222  64.7263311  13.5086921  35.1858588  58.7207154  10.9053610
  35.4366626  59.6054164  11.1711186  35.7218136  58.5411755  10.1328702
  59.0090688  62.1520651   7.5728872  58.2554396  61.5828049   7.4172876
  59.1438229  62.1183315   8.5199507  44.3989316  67.0234053   3.2483591
  44.2634990  67.8685589   3.6768439  44.9399128  67.2253331   2.4849525
  40.8856655  53.1025633  19.9097946  40.4923601  52.5491832  20.5845591
  41.7022796  53.4136212  20.3004464  37.8518713  64.5409491   3.8211516
  38.3643234  65.3352742   3.9717081  38.5041426  63.8435782   3.7545118
  39.6613598  67.6575248   5.9034269  39.8380226  68.5793212   5.7155253
  40.4570431  67.3433667   6.3328649  43.8024616  54.5183512  17.5018203
  44.5434330  55.1190665  17.4222665  44.0342539  53.7761150  16.9436246
  38.9465954  59.7039879  15.7796433  38.8319469  58.8025137  16.0803532
  38.0910472  59.9503576  15.4281249  46.0257792  67.6457620  17.3783933
  45.5821646  66.8593998  17.0604838  46.6875006  67.8336770  16.7127824
  40.7844913  69.1753421  11.9044612  41.3352338  69.0470485  11.1321606
  39.9456389  69.4748310  11.5539505  48.1239030  67.9260420  15.4065335
  48.1057505  68.7469301  14.9145604  49.0458950  67.8014495  15.6315476
  44.5812084  65.4404549  16.2488843  45.1140421  64.6792837  16.0188151
  44.0526165  65.1478201  16.9912997  47.7481779  50.5464615  11.7782485
  47.4046049  51.4366257  11.7021595  48.1160742  50.3566273  10.9152070
  35.8167630  62.8698146   4.5971087  36.6542852  63.2795154   4.3804795
  35.9945897  61.9297588   4.5671281  47.7132062  60.5373226   0.2854920
  47.1978685  61.3077831   0.5243307  47.4409370  59.8638362   0.9087981
  45.2979173  55.3822927   5.3440158  44.4420769  54.9929777   5.1645797
  45.7106125  55.4614888   4.4839944  46.8278320  52.9169270   9.7431718
  46.3243115  52.8799405   8.9299523  47.1208926  53.8262013   9.8028375
  43.0721205  53.0008000   8.7497900  43.9374202  52.8050809   8.3903789
  43.1398714  52.7718352   9.6767256  52.6866336  63.2905581   2.2208093
  51.9095779  62.9516740   1.7763255  53.3657817  63.2958204   1.5463058
  47.5018365  58.4100318   2.1114701  47.1968501  58.7246468   2.9624844
  48.4548807  58.4881738   2.1542034  45.9464797  64.5690542   3.7607655
  45.4186158  63.8343301   3.4480892  45.4452300  65.3465218   3.5147623
  50.9257643  62.7639562   8.8774701  50.2681317  63.4538824   8.9654830
  51.7298042  63.1535994   9.2208688  40.6783525  55.2310208   6.1214266
  41.2527276  55.0085389   5.3887459  41.2654507  55.2998902   6.8742868
  49.7363102  61.1183935   6.9278643  50.2494983  61.7513927   7.4300353
  50.3864326  60.5185130   6.5622003  41.0053112  57.2614669   0.1410152
  40.1690424  57.5989356   0.4619426  40.8657881  57.1263649  -0.7962711
  42.9806192  52.1051457   4.8489336  42.3270605  51.7900474   4.2245951
  42.9386666  51.4827197   5.5749159  44.0917397  62.3870752  -3.2357372
  43.1844459  62.1560005  -3.0366223  44.5888429  61.5908371  -3.0483390
  46.9985476  71.0968259  -0.3160686  46.3247175  71.3999956   0.2924272
  47.3851298  71.8997339  -0.6655229  46.2143933  58.5933390   9.1736984
  45.2966494  58.8148337   9.0158672  46.6304076  58.6679701   8.3148691
  46.9978980  59.9924806   4.3039664  47.7450799  60.5046203   3.9946786
  47.2670570  59.6708859   5.1644057  45.2705631  62.4883347   1.2866618
  44.3616850  62.2042380   1.3839088  45.3000714  62.9082425   0.4269925
  50.5024898  66.0989936   5.0557786  50.0487225  65.2580846   5.1122976
  49.8718865  66.7351335   5.3932566  49.4457817  57.0281922   6.2858453
  48.7080574  56.5159309   6.6168696  49.6984591  56.5882304   5.4741730
  48.9457837  67.9366433   5.9907604  49.2380812  68.4971490   5.2719969
  49.4556458  68.2294994   6.7460763  49.5469445  49.8058174   6.8800222
  49.8528322  48.9455538   6.5926137  50.2722050  50.3975795   6.6799216
  35.8393801  60.2088861   5.2681820  35.6418201  59.6158222   4.5432887
  35.2840465  59.9041071   5.9857759  43.8190525  60.1011967   7.3876413
  43.8739134  59.1485804   7.3118890  43.0081727  60.2571407   7.8717712
  44.9681718  64.0292090  -1.3745303  44.5301148  63.3127949  -1.8339666
  45.7092159  64.2568205  -1.9360212  41.7582884  58.7189027   5.1466792
  40.9450750  59.0183198   5.5531984  42.2541879  58.3244716   5.8641275
  43.9091462  68.7146784   7.0801057  43.8667641  68.9407630   6.1509589
  44.8254161  68.4810159   7.2286858  47.3557096  59.1830852  13.9781686
  47.7106484  59.4102325  14.8376152  48.0029227  59.5149228  13.3558941
  53.0854833  62.3049288   4.6831015  52.9472732  62.4950883   3.7552204
  52.7291052  63.0668670   5.1399066  41.2496959  56.2907383  10.7628027
  41.8896339  56.1496142  10.0650991  40.4174490  56.0041896  10.3866629
  53.1124213  64.3725815   9.6942287  53.5460719  64.2801104  10.5425341
  53.8255793  64.3483315   9.0562303  42.0257263  65.5909813   6.8763020
  42.8197862  65.0960133   6.6745595  41.3148956  65.0627676   6.5130725
  46.8452108  67.9727909  11.2275387  46.8989130  68.5418845  11.9953103
  45.9766889  68.1429794  10.8629424  38.3340027  59.7352895   2.9522772
  37.4037615  59.6737350   3.1692735  38.4297499  59.2128848   2.1559414
  38.2525576  56.2607708   5.5401014  38.5132393  57.1753041   5.4310174
  39.0742748  55.7932150   5.6897627  39.7250501  57.6745465  12.7099839
  40.3973554  57.4662827  12.0612487  38.8980288  57.4767551  12.2705071
  53.9739762  64.4149515  12.2275172  54.1675652  65.3195326  12.4734447
  53.8740380  63.9556934  13.0613757  45.6276073  54.3007406  14.7265499
  44.9803988  54.9997355  14.6329976  46.3977088  54.7343550  15.0941748
  49.0354871  64.5656258  17.8016053  48.8840377  64.3366810  16.8846136
  49.0259550  65.5226859  17.8147398  45.8040207  62.1388171  12.7862319
  46.7332267  62.2899330  12.6131286  45.3831237  62.2272191  11.9310966
  44.6028539  66.1638835  10.5560857  44.4639625  65.7957619  11.4286795
  43.8143135  66.6786475  10.3844815  45.1976691  71.2647932   1.8986393
  45.3728447  70.7935975   2.7132016  44.5109479  71.8913698   2.1267654
  46.1533754  65.5420438   7.9449695  45.8183587  65.5021208   8.8407344
  45.6537700  64.8765154   7.4720105  40.1277998  60.9488068  13.4702276
  39.9897796  60.2168307  14.0713815  41.0382922  60.8596968  13.1886463
  49.0892946  62.8876472  -1.7813246  48.4722117  62.1623300  -1.8780193
  48.6209434  63.6485832  -2.1246172  42.7560299  60.6608027  12.9585955
  43.4659917  60.0201219  12.9172574  42.7129607  60.9120922  13.8812136
  50.7447078  67.5975380  15.8792535  50.6859624  66.9134601  15.2123118
  51.1466596  68.3394370  15.4273161  41.4689233  57.6473245  14.7781595
  40.9326590  57.1963983  15.4303191  40.8805941  57.7819154  14.0352059
  39.7637776  74.4137294   8.6726253  40.0034375  75.0455818   9.3505272
  38.9206973  74.0625334   8.9591613  50.7464485  65.5614964  14.1106514
  49.8591264  65.2240886  14.2332913  51.3163036  64.8297996  14.3475280
  32.3993632  61.8939056   7.4349566  33.0864672  61.5800786   6.8470581
  32.2441761  62.7980421   7.1616817  37.2028354  56.7829253  11.8634589
  37.1186543  56.1754922  11.1284999  36.3811061  57.2738271  11.8644086
  44.2765638  70.2216417  11.0767757  44.2035810  71.0271388  11.5887062
  43.8343031  70.4208383  10.2515779  44.0655418  69.4588187   4.5870579
  43.2822940  70.0009867   4.6808804  44.7648163  69.9762166   4.9864820
  47.3752068  55.2682816   7.2304784  47.8720768  54.5152779   6.9105855
  46.6039049  55.3047133   6.6647994  55.2281825  60.9723182   8.8723076
  55.2171702  61.8547897   8.5017009  54.3599205  60.6194733   8.6777613
  46.7364322  70.1203251  13.2325916  47.4492294  70.7550716  13.1601818
  46.2454350  70.2167117  12.4165918  48.4581849  64.0254503   4.8043208
  47.5238127  64.1455966   4.6347912  48.6358517  63.1226970   4.5403218
  43.9587037  57.4100199   6.9576469  43.5884824  56.8571240   7.6457375
  44.4546129  56.8058333   6.4051469  51.8454400  59.8671823   5.3393242
  52.3114852  60.6999814   5.2653545  52.2961901  59.4016804   6.0438500
  41.7876235  67.8697694  14.0531487  42.4885695  68.5034177  14.2060881
  41.3171350  68.2112426  13.2927126  49.9130631  66.2115644   2.3379394
  50.1890475  66.0972239   3.2473268  49.0435130  65.8133129   2.2991567
  49.8171063  52.2352410   9.3784143  48.9034143  52.4656637   9.5466350
  50.2464164  52.3190854  10.2298176  49.5877521  60.4242302  11.8784037
  48.9348972  60.6718209  11.2236490  49.9657901  59.6106440  11.5446515
  46.5484695  70.4601995   5.9812208  46.7307090  69.6423651   6.4439960
  47.3717681  70.6769687   5.5437098  46.8826861  69.3870180   3.2427256
  47.4114627  68.8762635   2.6297418  47.1455080  69.0712710   4.1072789
  45.6365094  61.1662113  18.3650074  44.9605731  61.0656242  19.0352450
  46.4592728  61.0101327  18.8286072  37.3843953  67.4034049  10.9862590
  37.9697390  66.6577737  11.1190494  37.1868792  67.7138006  11.8699254
  40.2382609  70.4385297   6.0025032  39.5692984  70.9231424   5.5189072
  40.0995478  70.6854517   6.9168411  31.9761608  59.9739650   9.7067033
  32.0145708  59.4403240  10.5004151  31.4701901  59.4474855   9.0878010
  44.3787877  72.4729040  12.6007690  44.9306185  72.6360662  13.3656776
  44.7194071  73.0633478  11.9287715  39.3552370  54.8204190  13.2029575
  39.4193697  55.6819021  12.7906973  39.2919491  54.2078192  12.4701934
  38.8304643  56.8927323  16.8502609  39.4576682  56.5104400  17.4640134
  37.9732562  56.6741524  17.2158302  49.2298751  67.2990298  18.4556345
  49.7738655  67.9120256  17.9611300  48.6485596  67.8569876  18.9723358
  35.6070186  58.7003752   2.7820964  35.9023627  57.7914430   2.7288018
  34.7058221  58.6791491   2.4601967  47.5156264  70.4211016   9.5871373
  47.3907404  69.6200756   9.0782318  48.1735356  70.9157209   9.0985342
  39.1364433  56.7759748   8.7648513  38.4151018  57.3895716   8.6255986
  39.9257688  57.3117513   8.6865159  49.5791173  68.2220036  11.2150923
  48.6321508  68.1025387  11.1429249  49.9273946  67.3342534  11.2977184
  41.9390746  54.1114175  15.0389165  42.4625148  54.3576471  15.8015474
  41.7203079  54.9434210  14.6192302  37.3358027  56.3817849   2.9060289
  37.0070733  55.5015228   2.7235395  37.6897398  56.3265518   3.7936679
  46.5837606  68.0172752   7.4155275  46.4362569  67.0889459   7.5962845
  47.4091100  68.0392843   6.9312350  40.4499850  56.6690819   3.2735767
  40.7895923  57.1976740   2.5514375  40.8971971  57.0071225   4.0494334
  50.1871728  68.8401311   8.5020148  51.1118275  68.6344172   8.3644599
  50.0187031  68.5917712   9.4109489  43.1443291  55.0527870  12.7238835
  42.8040112  54.2535683  13.1259515  42.4382298  55.3529581  12.1515668
  43.7959763  52.1377182  11.1766158  44.6185832  51.6637660  11.0545048
  44.0397827  52.9167666  11.6764844  42.4367998  55.1665441   1.4729060
  43.1576360  55.5446694   0.9692777  41.8133302  55.8854318   1.5764038
  46.5799120  55.8710590   2.4087392  46.7962735  56.7535228   2.1076220
  46.0993188  55.4796803   1.6793034  41.3198342  58.8296303   8.9858137
  41.1742923  59.1436606   9.8782418  40.8423545  59.4481203   8.4329035
  43.1794725  55.8198851   9.0339026  43.1656293  54.9239944   8.6971324
  43.8967153  55.8269515   9.6677312  45.0320855  56.2536191  11.0792154
  44.7738633  57.1753262  11.0776484  44.5005896  55.8566626  11.7692618
  49.9767044  69.3586978   3.8582239  50.1503922  68.7933401   3.1056092
  50.4695935  70.1587873   3.6761729  35.7944004  61.3701647  11.9245798
  35.2497472  62.1461455  12.0566072  36.6723354  61.7172452  11.7664919
  42.5831621  54.7013231   4.3026596  42.7047532  53.7729877   4.5017484
  42.2933663  54.7151917   3.3904912  45.4522811  52.3868142   7.4393316
  45.4744508  52.4507475   6.4845296  45.8690870  51.5472650   7.6333822
  55.8306435  62.1223401   5.4772539  56.2737581  61.3730726   5.0791662
  54.9532946  62.1133538   5.0946271  50.9642217  68.6753743   0.9579137
  51.6593121  69.2960435   1.1766452  51.3065367  67.8249094   1.2331515
  36.5810026  60.4971544  14.8175955  35.8391762  60.6454179  15.4040585
  36.2602770  60.7579809  13.9542704  52.8633640  66.1253448   2.4866468
  53.3884964  66.4640721   1.7615788  52.7755992  65.1900463   2.3029603
  44.5253688  70.0387522  14.6156345  44.8340815  69.7936669  15.4879044
  45.3229171  70.2434160  14.1275215  44.5474301  72.1925431   6.8461721
  44.1079291  71.7001810   7.5394578  45.2982417  71.6498399   6.6053797
  37.0266640  68.3836972   6.8486349  37.8524659  68.0840744   6.4684993
  36.6760692  67.6144595   7.2976138  41.9948173  67.7363441   8.9184023
  41.3728182  67.0734146   8.6186251  42.6653040  67.7624572   8.2357671
  35.2275245  66.3023299   7.8075283  34.3907153  65.8745473   7.6259284
  35.1998890  66.4955742   8.7446074  42.0672700  56.2145229  18.5116529
  42.1160856  57.0907351  18.1294299  42.6095214  55.6722622  17.9388172
  52.5527546  66.7586352  17.7917666  51.7623090  66.7410491  17.2522165
  52.3160900  67.2974645  18.5466703  52.6725421  63.6078818  15.1050395
  52.7223426  63.4428826  16.0465917  52.5639344  62.7406077  14.7148275
  41.5561680  66.2867364   2.3942484  41.7049800  66.9702828   1.7409156
  42.3628123  66.2672454   2.9091939  49.9629183  59.5909746  16.4209701
  50.8639046  59.4516211  16.1293699  50.0377158  59.7564201  17.3607879
  44.2971989  56.9676601  15.2662888  43.4275298  57.2610167  14.9945476
  44.5331469  57.5517046  15.9870151  54.1743618  66.0275760  15.3492416
  53.8828426  66.3905740  16.1855877  53.5615749  65.3142768  15.1705748
  55.3739300  63.5928639   7.8694986  56.2086191  64.0318444   8.0332547
  55.5098429  63.1167293   7.0503232  52.4230806  61.1508374  13.8172474
  52.8984928  61.3436021  13.0091326  51.4996371  61.2067560  13.5715858
  39.3114313  62.3132541   3.4003552  39.0660355  61.4094871   3.5983763
  39.4810227  62.3149692   2.4583030  47.0011022  53.1856218  12.7828308
  47.5192966  53.9217245  12.4574797  46.6466155  53.4920211  13.6175067
  38.5809960  58.0460899   0.8989714  37.8879205  58.1205254   0.2429750
  38.3361712  57.2821243   1.4211231  47.2523617  49.6056500   8.3029205
  47.5325370  48.9379689   8.9289631  48.0374224  49.7985596   7.7903868
  45.0557085  68.7815494  -0.1345769  44.4831052  69.4005681  -0.5875297
  45.6289879  69.3314856   0.3994153  51.1232475  58.0274134  12.0500780
  52.0749898  58.1272232  12.0713004  50.9535925  57.2352403  12.5598864
  49.1446854  55.1129718  12.2360181  48.5496787  55.3934730  11.5406669
  48.8596551  55.6023619  13.0076922  48.2754345  69.0652644   0.9962813
  49.2085018  68.9998206   1.1995689  48.1877558  69.9008911   0.5377346
  50.9042362  68.3818515  -2.0433239  50.8255993  68.0478378  -1.1497481
  51.7252028  68.8740283  -2.0441767  53.6020553  61.2480254  11.1643079
  53.5696873  60.3096255  11.3502763  54.2121176  61.3264291  10.4308904
  45.4403884  60.1176307  -2.7929717  46.3862988  59.9882515  -2.7241299
  45.0618129  59.3790969  -2.3160288  53.7515041  58.0391298  11.2101363
  53.2354090  57.2549754  11.0231291  54.6354990  57.7110014  11.3747882
  51.4125768  51.7832313   7.1697175  51.2150589  51.4747401   8.0540507
  52.0225474  52.5093952   7.2995105  59.4197103  62.3096261  10.3049116
  60.1500491  62.0481549  10.8656820  58.8104048  61.5724983  10.3451184
  57.5012400  60.4504124  10.9023567  56.7745563  60.3160088  10.2940059
  57.0859687  60.7580952  11.7080285  45.3242576  64.1694053  18.6670940
  46.2445586  64.3472652  18.8610987  45.2892159  63.2250099  18.5150640
  43.6246801  58.0426283  -2.8574831  42.7178256  57.7459396  -2.7812118
  43.9022782  57.7456102  -3.7240545  34.5424741  59.3632647   7.5924215
  34.2227526  58.5097955   7.2998589  33.9958169  59.5781225   8.3482182
  38.3204649  62.0795088  11.3093722  38.5390658  63.0112196  11.3281755
  38.7330423  61.7203062  12.0948525  45.2408867  52.5863173   3.2969410
  44.4309595  52.2410258   3.6724656  45.9293283  52.2770717   3.8857022
  47.1699415  51.6641220   4.9193707  47.7230453  52.0836673   5.5783730
  47.4069501  50.7376968   4.9616663  43.1932514  57.6528294  20.6996470
  43.0929241  58.6022651  20.6308562  42.9754056  57.3246533  19.8272541
  34.4113001  62.9835558   9.5617337  33.7176473  62.5689511   9.0487291
  35.1585992  63.0256095   8.9650756  50.5478222  53.7741745   4.4272371
  49.9676891  54.4326549   4.0450423  50.2814155  52.9519090   4.0159788
  48.9981788  53.1746803   6.6293691  49.4981567  53.2863337   5.8208010
  49.6417396  52.8707856   7.2694500  43.0563784  61.0825432  19.5161532
  42.5730866  61.8825793  19.7225421  43.1424723  61.0933377  18.5628976
  36.3249744  62.9153812   7.4383352  36.3020432  63.0141499   6.4865235
  36.6350380  63.7618963   7.7600518  38.9837122  64.9729967  11.5529966
  39.9380375  64.9413909  11.4859897  38.7849645  64.5120591  12.3680192
  39.5736504  63.5431083  14.1200764  40.3929393  64.0375162  14.1435601
  39.8473311  62.6263051  14.0918331  49.3303100  55.9341836   3.4828719
  48.4428955  56.2191486   3.2648914  49.7457089  55.7735599   2.6355996
  52.6817636  55.9588356   7.1983058  53.4578026  56.4484809   7.4707675
  51.9565770  56.3846411   7.6554928  55.1190195  56.6715976   8.2556999
  55.7134685  56.4311712   7.5450307  55.1916778  55.9523106   8.8830535
  37.3387350  70.5149587   8.5700164  37.2041818  69.7549988   8.0038162
  36.9219413  71.2390487   8.1028953  48.4746313  65.6986510  -2.4223261
  49.1782163  65.9036513  -1.8065605  47.7508962  66.2663272  -2.1574177
  49.3044124  61.4496371   3.6979009  49.2479325  61.9064923   2.8586642
  49.8572466  60.6887056   3.5201852  53.1148930  57.2386103   4.5229129
  52.8585864  56.8382739   5.3537336  52.4901798  57.9529897   4.3979268
  57.4261267  59.9782177   7.0300420  56.8660825  60.0475366   7.8031982
  56.8204771  59.8023161   6.3099916  40.4956476  71.4118904   8.7818606
  40.3788860  72.3564336   8.6797297  39.6748923  71.1092465   9.1704406
  50.3833011  66.1369039  -0.3724801  51.2178615  65.7050238  -0.5547326
  50.2217354  65.9651053   0.5552094  50.0378903  62.6401153   0.9931538
  49.9827707  62.4745424   0.0519983  49.4124958  63.3477186   1.1493728
  34.8271418  57.8769217  14.8192961  35.4730282  57.3668171  15.3080186
  34.6188569  58.6137899  15.3936386  47.3524810  64.9450065  20.3185101
  48.2215970  65.1190717  19.9571736  46.8731562  65.7644481  20.1960831
  43.3475028  52.1409262   0.5716857  43.3353698  53.0851102   0.7285128
  44.2398450  51.9579407   0.2776318  41.5210990  72.0647166  11.9974535
  42.4238237  72.0970776  12.3141030  41.2948360  71.1347617  12.0120871
  43.2764592  70.8178152   8.6584613  42.3260223  70.8180014   8.5448986
  43.5797079  70.0710887   8.1420648  47.1627148  48.7352038   4.8262794
  46.3959544  48.1810525   4.9719476  47.5737853  48.8073907   5.6876945
  39.1668909  55.0236834  18.9167975  40.0300370  54.6673639  19.1271299
  38.5934320  54.6850729  19.6043379  59.0117286  76.6538691   9.7230376
  59.6495696  76.5345438   9.0193716  58.8938129  77.6019534   9.7818328
  55.8206992  76.6066119   9.6591901  55.4825504  76.4907183   8.7712435
  56.6896760  76.2057284   9.6392907  51.6793808  78.4601595   5.6488792
  51.1158673  78.3691532   4.8805079  51.5646203  77.6401499   6.1291284
  56.3026775  77.7600970  15.6178106  56.2915416  77.3653769  14.7458610
  56.4647415  77.0267043  16.2111878  49.2258240  79.9552787   8.4873012
  50.0179532  79.6143611   8.0719311  49.4654890  80.0647762   9.4075165
  57.2593367  82.1272563   0.9603256  56.6081346  82.7126643   0.5737270
  58.0537729  82.6578758   1.0198294  51.1848994  79.2161700   1.3590391
  51.9579870  78.6690687   1.2203267  51.5374393  80.0805949   1.5704852
  53.0234036  80.5438082  14.5657290  52.7323902  81.4483713  14.4503956
  53.6591021  80.5854610  15.2801360  53.9490243  77.9214931  11.1558650
  54.5453815  77.6970953  10.4415613  54.0065215  77.1799676  11.7584098
  53.5215272  75.3754366  -1.0091159  53.7740792  74.8535887  -1.7707696
  52.5839831  75.2120511  -0.9064476  58.5658554  74.3790144   6.7983584
  59.3521644  73.9609568   6.4474001  58.8297259  75.2836237   6.9665232
  58.7368632  79.8162995   1.4972241  58.1014465  79.8897621   2.2093145
  58.4066038  80.4056593   0.8191320  63.9666981  74.3165378   7.7016562
  64.6992153  73.7464594   7.9354392  63.2106337  73.9286978   8.1423068
  53.2411560  77.2782472   1.1933216  53.1247818  76.6027375   1.8614300
  53.3513820  76.7914846   0.3765369  55.5843101  76.7392619   4.8979905
  55.2201308  76.2123240   5.6092826  56.4410217  76.3491088   4.7246390
  61.4892402  68.0286952  12.1611171  61.1575727  68.8982363  11.9372386
  60.8938015  67.7123236  12.8405201  55.2248588  71.7682519  -0.1058747
  55.3922991  72.6362755   0.2611724  55.0345757  71.9309800  -1.0297457
  57.9823921  80.2299498  11.5607084  57.6824644  81.1324536  11.4522891
  57.6374981  79.9631681  12.4128237  51.4336403  76.6813294   7.5943788
  50.5086899  76.5489509   7.8021480  51.6820816  77.4607514   8.0913731
  61.3821065  72.7482038   9.2404521  60.4737942  72.6797446   8.9463282
  61.3308661  73.2253983  10.0686347  55.2037809  74.2240176   0.8787920
  55.0837434  74.6697227   1.7173401  54.5090397  74.5725494   0.3201458
  48.7945214  76.3246568   8.4287577  48.9237595  76.5781047   9.3426989
  48.1142665  76.9174276   8.1092232  52.9644701  86.9943818   4.5278051
  52.8868731  87.9451643   4.6066532  52.3606345  86.6489690   5.1852978
  55.4561931  74.1671683  17.1839418  54.6795265  74.7265604  17.1742283
  56.0952494  74.6528466  17.7054288  63.2482712  70.9498476  11.0182395
  62.6057092  71.2431009  10.3722190  62.7437640  70.8351397  11.8235592
  60.9022875  74.6961649   1.7068254  61.8140731  74.9289036   1.5315952
  60.3932522  75.2798694   1.1443333  53.7108303  76.9757137  16.7457385
  54.4522988  77.5142181  16.4692209  53.0045289  77.6023426  16.9028937
  59.1863643  79.1186277  15.3429547  59.5946999  78.6768688  14.5984179
  58.4640904  78.5438905  15.5963740  55.5394713  74.0558884  12.7163104
  56.3855908  74.4798298  12.8597753  55.4793351  73.3992508  13.4101667
  59.5092458  79.6787468   9.0981836  58.8801320  79.8433182   8.3957904
  59.1218120  80.0929077   9.8692800  63.3881689  80.6141906   6.4526199
  62.7032728  80.9940807   5.9023233  63.4725539  81.2237232   7.1858147
  58.6894158  71.7163252  14.3744277  58.4455090  72.4705313  13.8378553
  58.9654089  72.0948600  15.2091525  60.6432621  78.2601865  13.0521543
  60.8549516  78.9033625  12.3755924  60.5962369  77.4264181  12.5843473
  58.2458850  70.8719685   9.9558115  57.3843329  71.1700939  10.2474853
  58.2721285  71.0890084   9.0239148  55.0620419  79.4161876   6.3631921
  55.5258765  79.6949579   5.5736543  54.7977218  78.5145321   6.1805012
  51.9544500  78.9633358   9.3011684  52.5245858  79.3920626   8.6629169
  52.5452612  78.6815942   9.9995870  53.9989305  75.5385028   3.1721486
  54.7013349  75.9906072   3.6395412  53.6669934  74.8968847   3.8001379
  52.4469667  74.1296785  17.5472695  51.8168328  74.8113066  17.7808092
  52.3405755  74.0179867  16.6025834  47.7414639  73.7968581   8.4738620
  46.9513693  74.0526110   7.9978730  48.2325887  74.6116919   8.5790660
  61.7578449  81.1373820  11.2243900  62.5795893  80.7354007  10.9426582
  61.7540852  81.0342054  12.1760016  49.6929385  74.1613160   5.4322096
  48.8960548  74.2731854   5.9505592  49.4654977  74.4999812   4.5662987
  55.5235052  80.6857863  13.3804611  55.5879485  81.1478271  14.2162783
  54.8145976  80.0555228  13.5086921  46.0252342  74.0499071  10.9053610
  46.2760381  74.9346081  11.1711186  46.5611891  73.8703673  10.1328702
  69.8484442  77.4812569   7.5728872  69.0948150  76.9119967   7.4172876
  69.9831983  77.4475233   8.5199507  55.2383070  82.3525971   3.2483591
  55.1028745  83.1977507   3.6768439  55.7792883  82.5545249   2.4849525
  51.7250410  68.4317551  19.9097946  51.3317355  67.8783749  20.5845591
  52.5416550  68.7428129  20.3004464  48.6912467  79.8701409   3.8211516
  49.2036988  80.6644659   3.9717081  49.3435180  79.1727699   3.7545118
  50.5007352  82.9867165   5.9034269  50.6773981  83.9085130   5.7155253
  51.2964186  82.6725584   6.3328649  54.6418371  69.8475430  17.5018203
  55.3828084  70.4482583  17.4222665  54.8736294  69.1053068  16.9436246
  49.7859709  75.0331797  15.7796433  49.6713224  74.1317054  16.0803532
  48.9304226  75.2795494  15.4281249  56.8651546  82.9749537  17.3783933
  56.4215401  82.1885916  17.0604838  57.5268760  83.1628688  16.7127824
  51.6238668  84.5045339  11.9044612  52.1746093  84.3762402  11.1321606
  50.7850144  84.8040228  11.5539505  58.9632785  83.2552337  15.4065335
  58.9451260  84.0761218  14.9145604  59.8852705  83.1306413  15.6315476
  55.4205839  80.7696467  16.2488843  55.9534175  80.0084755  16.0188151
  54.8919920  80.4770119  16.9912997  58.5875534  65.8756533  11.7782485
  58.2439803  66.7658175  11.7021595  58.9554496  65.6858190  10.9152070
  46.6561384  78.1990063   4.5971087  47.4936606  78.6087072   4.3804795
  46.8339652  77.2589505   4.5671281  58.5525816  75.8665144   0.2854920
  58.0372440  76.6369749   0.5243307  58.2803125  75.1930280   0.9087981
  56.1372927  70.7114845   5.3440158  55.2814524  70.3221695   5.1645797
  56.5499879  70.7906806   4.4839944  57.6672074  68.2461188   9.7431718
  57.1636870  68.2091323   8.9299523  57.9602681  69.1553931   9.8028375
  53.9114960  68.3299918   8.7497900  54.7767957  68.1342726   8.3903789
  53.9792469  68.1010269   9.6767256  63.5260090  78.6197499   2.2208093
  62.7489533  78.2808658   1.7763255  64.2051571  78.6250122   1.5463058
  58.3412120  73.7392236   2.1114701  58.0362255  74.0538385   2.9624844
  59.2942562  73.8173656   2.1542034  56.7858551  79.8982459   3.7607655
  56.2579913  79.1635219   3.4480892  56.2846054  80.6757136   3.5147623
  61.7651397  78.0931480   8.8774701  61.1075072  78.7830741   8.9654830
  62.5691797  78.4827912   9.2208688  51.5177279  70.5602126   6.1214266
  52.0921031  70.3377307   5.3887459  52.1048261  70.6290820   6.8742868
  60.5756856  76.4475853   6.9278643  61.0888738  77.0805844   7.4300353
  61.2258080  75.8477048   6.5622003  51.8446866  72.5906587   0.1410152
  51.0084178  72.9281273   0.4619426  51.7051636  72.4555566  -0.7962711
  53.8199947  67.4343375   4.8489336  53.1664359  67.1192392   4.2245951
  53.7780421  66.8119115   5.5749159  54.9311152  77.7162670  -3.2357372
  54.0238213  77.4851923  -3.0366223  55.4282184  76.9200289  -3.0483390
  57.0537687  73.9225308   9.1736984  56.1360248  74.1440255   9.0158672
  57.4697831  73.9971619   8.3148691  57.8372735  75.3216724   4.3039664
  58.5844554  75.8338121   3.9946786  58.1064324  75.0000776   5.1644057
  56.1099385  77.8175264   1.2866618  55.2010604  77.5334297   1.3839088
  56.1394469  78.2374343   0.4269925  61.3418652  81.4281854   5.0557786
  60.8880980  80.5872764   5.1122976  60.7112619  82.0643252   5.3932566
  60.2851572  72.3573840   6.2858453  59.5474329  71.8451226   6.6168696
  60.5378346  71.9174222   5.4741730  59.7851592  83.2658351   5.9907604
  60.0774566  83.8263408   5.2719969  60.2950212  83.5586912   6.7460763
  60.3863199  65.1350092   6.8800222  60.6922076  64.2747455   6.5926137
  61.1115804  65.7267712   6.6799216  46.6787555  75.5380779   5.2681820
  46.4811955  74.9450139   4.5432887  46.1234219  75.2332989   5.9857759
  54.6584279  75.4303885   7.3876413  54.7132889  74.4777721   7.3118890
  53.8475481  75.5863324   7.8717712  55.8075473  79.3584008  -1.3745303
  55.3694903  78.6419867  -1.8339666  56.5485914  79.5860123  -1.9360212
  52.5976639  74.0480945   5.1466792  51.7844505  74.3475115   5.5531984
  53.0935633  73.6536634   5.8641275  54.7485217  84.0438702   7.0801057
  54.7061396  84.2699548   6.1509589  55.6647916  83.8102076   7.2286858
  58.1950851  74.5122769  13.9781686  58.5500238  74.7394242  14.8376152
  58.8422982  74.8441146  13.3558941  63.9248588  77.6341205   4.6831015
  63.7866486  77.8242801   3.7552204  63.5684806  78.3960588   5.1399066
  52.0890714  71.6199300  10.7628027  52.7290093  71.4788059  10.0650991
  51.2568244  71.3333814  10.3866629  63.9517967  79.7017732   9.6942287
  64.3854474  79.6093021  10.5425341  64.6649548  79.6775233   9.0562303
  52.8651018  80.9201731   6.8763020  53.6591616  80.4252051   6.6745595
  52.1542710  80.3919594   6.5130725  57.6845862  83.3019826  11.2275387
  57.7382884  83.8710763  11.9953103  56.8160643  83.4721711  10.8629424
  49.1733781  75.0644813   2.9522772  48.2431369  75.0029268   3.1692735
  49.2691253  74.5420765   2.1559414  49.0919330  71.5899625   5.5401014
  49.3526147  72.5044959   5.4310174  49.9136502  71.1224068   5.6897627
  50.5644255  73.0037383  12.7099839  51.2367309  72.7954745  12.0612487
  49.7374042  72.8059469  12.2705071  64.8133517  79.7441433  12.2275172
  65.0069407  80.6487243  12.4734447  64.7134135  79.2848852  13.0613757
  56.4669827  69.6299323  14.7265499  55.8197743  70.3289273  14.6329976
  57.2370843  70.0635467  15.0941748  59.8748625  79.8948176  17.8016053
  59.7234132  79.6658727  16.8846136  59.8653305  80.8518777  17.8147398
  56.6433962  77.4680088  12.7862319  57.5726022  77.6191248  12.6131286
  56.2224992  77.5564109  11.9310966  55.4422294  81.4930753  10.5560857
  55.3033379  81.1249537  11.4286795  54.6536890  82.0078392  10.3844815
  56.0370446  86.5939849   1.8986393  56.2122201  86.1227892   2.7132016
  55.3503234  87.2205615   2.1267654  56.9927509  80.8712355   7.9449695
  56.6577341  80.8313125   8.8407344  56.4931454  80.2057071   7.4720105
  50.9671753  76.2779985  13.4702276  50.8291551  75.5460224  14.0713815
  51.8776676  76.1888886  13.1886463  59.9286700  78.2168390  -1.7813246
  59.3115871  77.4915218  -1.8780193  59.4603189  78.9777750  -2.1246172
  53.5954053  75.9899945  12.9585955  54.3053672  75.3493137  12.9172574
  53.5523362  76.2412840  13.8812136  61.5840832  82.9267298  15.8792535
  61.5253378  82.2426518  15.2123118  61.9860350  83.6686288  15.4273161
  52.3082987  72.9765163  14.7781595  51.7720344  72.5255901  15.4303191
  51.7199696  73.1111072  14.0352059  50.6031531  89.7429212   8.6726253
  50.8428129  90.3747736   9.3505272  49.7600727  89.3917252   8.9591613
  51.7185246  72.4353814  -2.6591942  50.8414713  72.3142615  -3.0229695
  52.1942999  71.6439892  -2.9113053  61.5858239  80.8906882  14.1106514
  60.6985018  80.5532804  14.2332913  62.1556790  80.1589913  14.3475280
  43.2387386  77.2230974   7.4349566  43.9258426  76.9092704   6.8470581
  43.0835515  78.1272338   7.1616817  48.0422109  72.1121170  11.8634589
  47.9580297  71.5046840  11.1284999  47.2204815  72.6030189  11.8644086
  55.1159393  85.5508334  11.0767757  55.0429564  86.3563306  11.5887062
  54.6736786  85.7500300  10.2515779  54.9049172  84.7880104   4.5870579
  54.1216694  85.3301785   4.6808804  55.6041918  85.3054084   4.9864820
  58.2145822  70.5974734   7.2304784  58.7114522  69.8444696   6.9105855
  57.4432804  70.6339051   6.6647994  66.0675580  76.3015099   8.8723076
  66.0565456  77.1839815   8.5017009  65.1992959  75.9486650   8.6777613
  57.5758076  85.4495168  13.2325916  58.2886048  86.0842633  13.1601818
  57.0848105  85.5459034  12.4165918  59.2975603  79.3546421   4.8043208
  58.3631882  79.4747884   4.6347912  59.4752272  78.4518888   4.5403218
  54.7980791  72.7392117   6.9576469  54.4278579  72.1863157   7.6457375
  55.2939884  72.1350250   6.4051469  62.6848155  75.1963740   5.3393242
  63.1508607  76.0291732   5.2653545  63.1355655  74.7308722   6.0438500
  52.6269990  83.1989612  14.0531487  53.3279449  83.8326095  14.2060881
  52.1565105  83.5404343  13.2927126  60.7524386  81.5407562   2.3379394
  61.0284230  81.4264156   3.2473268  59.8828884  81.1425047   2.2991567
  60.6564817  67.5644327   9.3784143  59.7427897  67.7948554   9.5466350
  61.0857919  67.6482771  10.2298176  60.4271276  75.7534219  11.8784037
  59.7742726  76.0010127  11.2236490  60.8051656  74.9398358  11.5446515
  57.3878450  85.7893913   5.9812208  57.5700844  84.9715568   6.4439960
  58.2111436  86.0061605   5.5437098  57.7220615  84.7162098   3.2427256
  58.2508382  84.2054552   2.6297418  57.9848835  84.4004628   4.1072789
  56.4758849  76.4954030  18.3650074  55.7999486  76.3948160  19.0352450
  57.2986483  76.3393244  18.8286072  48.2237708  82.7325967  10.9862590
  48.8091145  81.9869655  11.1190494  48.0262546  83.0429924  11.8699254
  51.0776363  85.7677214   6.0025032  50.4086738  86.2523342   5.5189072
  50.9389233  86.0146435   6.9168411  42.8155363  75.3031567   9.7067033
  42.8539462  74.7695158  10.5004151  42.3095655  74.7766773   9.0878010
  55.2181632  87.8020958  12.6007690  55.7699940  87.9652579  13.3656776
  55.5587825  88.3925396  11.9287715  50.1946125  70.1496108  13.2029575
  50.2587451  71.0110939  12.7906973  50.1313245  69.5370109  12.4701934
  49.6698397  72.2219240  16.8502609  50.2970436  71.8396318  17.4640134
  48.8126316  72.0033442  17.2158302  60.0692506  82.6282215  18.4556345
  60.6132410  83.2412174  17.9611300  59.4879351  83.1861794  18.9723358
  46.4463940  74.0295669   2.7820964  46.7417381  73.1206348   2.7288018
  45.5451976  74.0083409   2.4601967  58.3550019  85.7502933   9.5871373
  58.2301158  84.9492673   9.0782318  59.0129110  86.2449127   9.0985342
  49.9758187  72.1051666   8.7648513  49.2544773  72.7187634   8.6255986
  50.7651443  72.6409431   8.6865159  60.4184927  83.5511954  11.2150923
  59.4715263  83.4317305  11.1429249  60.7667700  82.6634452  11.2977184
  52.7784501  69.4406092  15.0389165  53.3018903  69.6868389  15.8015474
  52.5596834  70.2726127  14.6192302  48.1751782  71.7109767   2.9060289
  47.8464488  70.8307146   2.7235395  48.5291152  71.6557436   3.7936679
  57.4231361  83.3464670   7.4155275  57.2756323  82.4181377   7.5962845
  58.2484854  83.3684760   6.9312350  51.2893605  71.9982737   3.2735767
  51.6289677  72.5268658   2.5514375  51.7365725  72.3363143   4.0494334
  61.0265482  84.1693228   8.5020148  61.9512030  83.9636090   8.3644599
  60.8580786  83.9209630   9.4109489  53.9837046  70.3819788  12.7238835
  53.6433866  69.5827601  13.1259515  53.2776052  70.6821498  12.1515668
  54.6353518  67.4669100  11.1766158  55.4579587  66.9929578  11.0545048
  54.8791581  68.2459584  11.6764844  53.2761752  70.4957358   1.4729060
  53.9970115  70.8738611   0.9692777  52.6527056  71.2146235   1.5764038
  57.4192875  71.2002507   2.4087392  57.6356489  72.0827145   2.1076220
  56.9386942  70.8088721   1.6793034  52.1592096  74.1588221   8.9858137
  52.0136677  74.4728524   9.8782418  51.6817300  74.7773121   8.4329035
  54.0188479  71.1490769   9.0339026  54.0050048  70.2531862   8.6971324
  54.7360907  71.1561432   9.6677312  55.8714610  71.5828109  11.0792154
  55.6132388  72.5045179  11.0776484  55.3399650  71.1858543  11.7692618
  60.8160799  84.6878896   3.8582239  60.9897676  84.1225318   3.1056092
  61.3089690  85.4879791   3.6761729  46.6337758  76.6993565  11.9245798
  46.0891227  77.4753373  12.0566072  47.5117108  77.0464369  11.7664919
  53.4225375  70.0305149   4.3026596  53.5441286  69.1021795   4.5017484
  53.1327418  70.0443835   3.3904912  56.2916566  67.7160059   7.4393316
  56.3138262  67.7799392   6.4845296  56.7084625  66.8764568   7.6333822
  66.6700190  77.4515319   5.4772539  67.1131336  76.7022644   5.0791662
  65.7926700  77.4425455   5.0946271  61.8035971  84.0045660   0.9579137
  62.4986876  84.6252353   1.1766452  62.1459121  83.1541012   1.2331515
  47.4203780  75.8263461  14.8175955  46.6785516  75.9746097  15.4040585
  47.0996525  76.0871727  13.9542704  63.7027394  81.4545366   2.4866468
  64.2278718  81.7932639   1.7615788  63.6149747  80.5192381   2.3029603
  55.3647443  85.3679439  14.6156345  55.6734569  85.1228586  15.4879044
  56.1622925  85.5726078  14.1275215  55.3868055  87.5217349   6.8461721
  54.9473045  87.0293728   7.5394578  56.1376172  86.9790317   6.6053797
  47.8660394  83.7128890   6.8486349  48.6918414  83.4132662   6.4684993
  47.5154446  82.9436512   7.2976138  52.8341927  83.0655358   8.9184023
  52.2121936  82.4026063   8.6186251  53.5046794  83.0916490   8.2357671
  46.0668999  81.6315216   7.8075283  45.2300907  81.2037391   7.6259284
  46.0392644  81.8247660   8.7446074  52.9066455  71.5437146  18.5116529
  52.9554610  72.4199269  18.1294299  53.4488969  71.0014539  17.9388172
  63.3921300  82.0878269  17.7917666  62.6016844  82.0702408  17.2522165
  63.1554655  82.6266563  18.5466703  63.5119175  78.9370736  15.1050395
  63.5617180  78.7720743  16.0465917  63.4033099  78.0697995  14.7148275
  52.3955434  81.6159282   2.3942484  52.5443554  82.2994746   1.7409156
  53.2021878  81.5964372   2.9091939  60.8022938  74.9201664  16.4209701
  61.7032801  74.7808129  16.1293699  60.8770912  75.0856119  17.3607879
  55.1365743  72.2968519  15.2662888  54.2669053  72.5902085  14.9945476
  55.3725223  72.8808964  15.9870151  65.0137372  81.3567677  15.3492416
  64.7222181  81.7197658  16.1855877  64.4009504  80.6434686  15.1705748
  66.2133055  78.9220557   7.8694986  67.0479946  79.3610361   8.0332547
  66.3492183  78.4459210   7.0503232  63.2624560  76.4800292  13.8172474
  63.7378682  76.6727938  13.0091326  62.3390126  76.5359478  13.5715858
  50.1508067  77.6424459   3.4003552  49.9054109  76.7386789   3.5983763
  50.3203982  77.6441610   2.4583030  57.8404777  68.5148136  12.7828308
  58.3586721  69.2509162  12.4574797  57.4859910  68.8212129  13.6175067
  49.4203715  73.3752817   0.8989714  48.7272960  73.4497172   0.2429750
  49.1755467  72.6113160   1.4211231  58.0917371  64.9348418   8.3029205
  58.3719125  64.2671607   8.9289631  58.8767978  65.1277514   7.7903868
  55.8950840  84.1107412  -0.1345769  55.3224807  84.7297599  -0.5875297
  56.4683633  84.6606774   0.3994153  61.9626229  73.3566052  12.0500780
  62.9143652  73.4564150  12.0713004  61.7929680  72.5644321  12.5598864
  59.9840609  70.4421635  12.2360181  59.3890541  70.7226648  11.5406669
  59.6990306  70.9315536  13.0076922  59.1148099  84.3944562   0.9962813
  60.0478773  84.3290124   1.1995689  59.0271312  85.2300829   0.5377346
  64.4414307  76.5772172  11.1643079  64.4090627  75.6388172  11.3502763
  65.0514931  76.6556208  10.4308904  56.2797638  75.4468225  -2.7929717
  57.2256743  75.3174433  -2.7241299  55.9011883  74.7082887  -2.3160288
  64.5908796  73.3683215  11.2101363  64.0747844  72.5841672  11.0231291
  65.4748744  73.0401932  11.3747882  62.2519523  67.1124231   7.1697175
  62.0544344  66.8039319   8.0540507  62.8619228  67.8385870   7.2995105
  70.2590857  77.6388179  10.3049116  70.9894246  77.3773467  10.8656820
  69.6497803  76.9016901  10.3451184  68.3406154  75.7796041  10.9023567
  67.6139318  75.6452006  10.2940059  67.9253441  76.0872870  11.7080285
  56.1636331  79.4985971  18.6670940  57.0839340  79.6764570  18.8610987
  56.1285914  78.5542016  18.5150640  54.4640555  73.3718201  -2.8574831
  53.5572011  73.0751314  -2.7812118  54.7416536  73.0748019  -3.7240545
  45.3818496  74.6924565   7.5924215  45.0621280  73.8389873   7.2998589
  44.8351924  74.9073143   8.3482182  49.1598403  77.4087006  11.3093722
  49.3784413  78.3404113  11.3281755  49.5724177  77.0494980  12.0948525
  56.0802621  67.9155091   3.2969410  55.2703349  67.5702176   3.6724656
  56.7687038  67.6062635   3.8857022  58.0093169  66.9933138   4.9193707
  58.5624208  67.4128591   5.5783730  58.2463256  66.0668886   4.9616663
  54.0326269  72.9820211  20.6996470  53.9322995  73.9314568  20.6308562
  53.8147811  72.6538450  19.8272541  53.2339340  70.2305136  -2.7162852
  54.0958504  70.5560035  -2.4567035  53.4189684  69.4436632  -3.2289786
  45.2506756  78.3127476   9.5617337  44.5570227  77.8981429   9.0487291
  45.9979747  78.3548013   8.9650756  61.3871976  69.1033663   4.4272371
  60.8070645  69.7618467   4.0450423  61.1207909  68.2811007   4.0159788
  59.8375543  68.5038721   6.6293691  60.3375321  68.6155255   5.8208010
  60.4811151  68.1999773   7.2694500  53.8957539  76.4117350  19.5161532
  53.4124620  77.2117710  19.7225421  53.9818478  76.4225295  18.5628976
  47.1643498  78.2445730   7.4383352  47.1414186  78.3433417   6.4865235
  47.4744135  79.0910881   7.7600518  49.8230876  80.3021885  11.5529966
  50.7774130  80.2705827  11.4859897  49.6243400  79.8412509  12.3680192
  50.4130258  78.8723001  14.1200764  51.2323147  79.3667080  14.1435601
  50.6867066  77.9554969  14.0918331  60.1696854  71.2633753   3.4828719
  59.2822709  71.5483404   3.2648914  60.5850843  71.1027517   2.6355996
  63.5211391  71.2880274   7.1983058  64.2971781  71.7776727   7.4707675
  62.7959525  71.7138328   7.6554928  65.9583949  72.0007893   8.2556999
  66.5528440  71.7603629   7.5450307  66.0310533  71.2815024   8.8830535
  48.1781105  85.8441504   8.5700164  48.0435573  85.0841905   8.0038162
  47.7613167  86.5682404   8.1028953  59.3140068  81.0278428  -2.4223261
  60.0175918  81.2328430  -1.8065605  58.5902717  81.5955190  -2.1574177
  60.1437878  76.7788289   3.6979009  60.0873080  77.2356841   2.8586642
  60.6966221  76.0178974   3.5201852  63.9542684  72.5678021   4.5229129
  63.6979618  72.1674657   5.3537336  63.3295552  73.2821815   4.3979268
  68.2655022  75.3074094   7.0300420  67.7054580  75.3767284   7.8031982
  67.6598525  75.1315079   6.3099916  51.3350231  86.7410821   8.7818606
  51.2182615  87.6856254   8.6797297  50.5142677  86.4384383   9.1704406
  61.2226765  81.4660957  -0.3724801  62.0572369  81.0342156  -0.5547326
  61.0611108  81.2942971   0.5552094  60.8772657  77.9693070   0.9931538
  60.8221461  77.8037342   0.0519983  60.2518713  78.6769103   1.1493728
  45.6665172  73.2061135  14.8192961  46.3124036  72.6960089  15.3080186
  45.4582324  73.9429816  15.3936386  58.1918565  80.2741982  20.3185101
  59.0609724  80.4482635  19.9571736  57.7125316  81.0936399  20.1960831
  54.1868783  67.4701179   0.5716857  54.1747453  68.4143019   0.7285128
  55.0792205  67.2871325   0.2776318  52.3604745  87.3939083  11.9974535
  53.2631992  87.4262694  12.3141030  52.1342115  86.4639534  12.0120871
  54.1158347  86.1470070   8.6584613  53.1653978  86.1471931   8.5448986
  54.4190833  85.4002804   8.1420648  58.0020902  64.0643956   4.8262794
  57.2353298  63.5102443   4.9719476  58.4131607  64.1365825   5.6876945
  50.0062663  70.3528752  18.9167975  50.8694125  69.9965557  19.1271299
  49.4328074  70.0142647  19.6043379  69.8511040  91.9830608   9.7230376
  70.4889450  91.8637356   9.0193716  69.7331883  92.9311452   9.7818328
  66.6600747  91.9358036   9.6591901  66.3219258  91.8199101   8.7712435
  67.5290515  91.5349201   9.6392907  67.1420530  93.0892888  15.6178106
  67.1309170  92.6945686  14.7458610  67.3041169  92.3558961  16.2111878
  60.0651994  95.2844704   8.4873012  60.8573286  94.9435529   8.0719311
  60.3048644  95.3939679   9.4075165  63.8627791  95.8730000  14.5657290
  63.5717657  96.7775631  14.4503956  64.4984775  95.9146527  15.2801360
  64.7883998  93.2506848  11.1558650  65.3847570  93.0262871  10.4415613
  64.8458969  92.5091594  11.7584098  69.4052309  89.7082062   6.7983584
  70.1915398  89.2901485   6.4474001  69.6691013  90.6128154   6.9665232
  72.3286156  83.3578869  12.1611171  71.9969481  84.2274280  11.9372386
  71.7331770  83.0415153  12.8405201  68.8217676  95.5591415  11.5607084
  68.5218399  96.4616454  11.4522891  68.4768735  95.2923599  12.4128237
  62.2730157  92.0105212   7.5943788  61.3480654  91.8781426   7.8021480
  62.5214571  92.7899431   8.0913731  72.2214820  88.0773956   9.2404521
  71.3131697  88.0089364   8.9463282  72.1702415  88.5545900  10.0686347
  59.6338968  91.6538486   8.4287577  59.7631350  91.9072965   9.3426989
  58.9536420  92.2466194   8.1092232  66.2955685  89.4963601  17.1839418
  65.5189019  90.0557521  17.1742283  66.9346248  89.9820384  17.7054288
  74.0876466  86.2790394  11.0182395  73.4450846  86.5722927  10.3722190
  73.5831395  86.1643314  11.8235592  64.5502058  92.3049054  16.7457385
  65.2916742  92.8434098  16.4692209  63.8439043  92.9315343  16.9028937
  70.0257397  94.4478195  15.3429547  70.4340753  94.0060605  14.5984179
  69.3034659  93.8730822  15.5963740  66.3788467  89.3850802  12.7163104
  67.2249663  89.8090215  12.8597753  66.3187105  88.7284426  13.4101667
  69.5287913  87.0455170  14.3744277  69.2848845  87.7997231  13.8378553
  69.8047843  87.4240518  15.2091525  71.4826376  93.5893782  13.0521543
  71.6943271  94.2325542  12.3755924  71.4356124  92.7556099  12.5843473
  69.0852604  86.2011603   9.9558115  68.2237084  86.4992857  10.2474853
  69.1115039  86.4182002   9.0239148  62.7938255  94.2925275   9.3011684
  63.3639612  94.7212544   8.6629169  63.3846367  94.0107860   9.9995870
  63.2863421  89.4588703  17.5472695  62.6562082  90.1404983  17.7808092
  63.1799509  89.3471784  16.6025834  58.5808394  89.1260499   8.4738620
  57.7907448  89.3818027   7.9978730  59.0719641  89.9408837   8.5790660
  60.5323139  89.4905078   5.4322096  59.7354303  89.6023772   5.9505592
  60.3048731  89.8291730   4.5662987  66.3628807  96.0149781  13.3804611
  66.4273239  96.4770188  14.2162783  65.6539731  95.3847146  13.5086921
  56.8646097  89.3790989  10.9053610  57.1154135  90.2637999  11.1711186
  57.4005645  89.1995591  10.1328702  62.5644164  83.7609468  19.9097946
  62.1711110  83.2075667  20.5845591  63.3810305  84.0720047  20.3004464
  65.4812125  85.1767348  17.5018203  66.2221839  85.7774501  17.4222665
  65.7130048  84.4344985  16.9436246  60.6253463  90.3623715  15.7796433
  60.5106978  89.4608972  16.0803532  59.7697981  90.6087412  15.4281249
  67.7045301  98.3041455  17.3783933  67.2609155  97.5177834  17.0604838
  68.3662515  98.4920606  16.7127824  62.4632422  99.8337257  11.9044612
  63.0139847  99.7054320  11.1321606  61.6243898 100.1332146  11.5539505
  69.8026539  98.5844255  15.4065335  69.7845014  99.4053136  14.9145604
  70.7246459  98.4598330  15.6315476  66.2599593  96.0988385  16.2488843
  66.7927930  95.3376673  16.0188151  65.7313674  95.8062036  16.9912997
  69.4269288  81.2048451  11.7782485  69.0833558  82.0950092  11.7021595
  69.7948251  81.0150108  10.9152070  57.4955139  93.5281981   4.5971087
  58.3330361  93.9378989   4.3804795  57.6733406  92.5881423   4.5671281
  66.9766682  86.0406762   5.3440158  66.1208278  85.6513613   5.1645797
  67.3893634  86.1198723   4.4839944  68.5065829  83.5753106   9.7431718
  68.0030624  83.5383241   8.9299523  68.7996435  84.4845848   9.8028375
  64.7508714  83.6591835   8.7497900  65.6161711  83.4634644   8.3903789
  64.8186223  83.4302187   9.6767256  62.3571033  85.8894043   6.1214266
  62.9314785  85.6669225   5.3887459  62.9442016  85.9582738   6.8742868
  64.6593701  82.7635292   4.8489336  64.0058114  82.4484309   4.2245951
  64.6174175  82.1411033   5.5749159  67.8931442  89.2517226   9.1736984
  66.9754003  89.4732173   9.0158672  68.3091585  89.3263536   8.3148691
  71.2256954  80.4642010   6.8800222  71.5315831  79.6039373   6.5926137
  71.9509559  81.0559630   6.6799216  57.5181310  90.8672696   5.2681820
  57.3205710  90.2742057   4.5432887  56.9627974  90.5624906   5.9857759
  65.4978034  90.7595803   7.3876413  65.5526643  89.8069639   7.3118890
  64.6869236  90.9155242   7.8717712  63.4370393  89.3772863   5.1466792
  62.6238259  89.6767033   5.5531984  63.9329388  88.9828551   5.8641275
  69.0344605  89.8414687  13.9781686  69.3893993  90.0686160  14.8376152
  69.6816736  90.1733064  13.3558941  62.9284468  86.9491218  10.7628027
  63.5683848  86.8079977  10.0650991  62.0961999  86.6625731  10.3866629
  68.5239617  98.6311744  11.2275387  68.5776639  99.2002680  11.9953103
  67.6554398  98.8013629  10.8629424  59.9313085  86.9191543   5.5401014
  60.1919902  87.8336876   5.4310174  60.7530257  86.4515986   5.6897627
  61.4038010  88.3329300  12.7099839  62.0761063  88.1246662  12.0612487
  60.5767796  88.1351386  12.2705071  67.3063582  84.9591241  14.7265499
  66.6591497  85.6581191  14.6329976  68.0764597  85.3927385  15.0941748
  70.7142380  95.2240093  17.8016053  70.5627886  94.9950645  16.8846136
  70.7047059  96.1810695  17.8147398  67.4827716  92.7972006  12.7862319
  68.4119776  92.9483166  12.6131286  67.0618746  92.8856027  11.9310966
  66.2816048  96.8222670  10.5560857  66.1427134  96.4541455  11.4286795
  65.4930644  97.3370310  10.3844815  61.8065507  91.6071903  13.4702276
  61.6685305  90.8752142  14.0713815  62.7170431  91.5180803  13.1886463
  64.4347808  91.3191862  12.9585955  65.1447426  90.6785055  12.9172574
  64.3917116  91.5704757  13.8812136  72.4234587  98.2559216  15.8792535
  72.3647133  97.5718436  15.2123118  72.8254105  98.9978206  15.4273161
  63.1476742  88.3057080  14.7781595  62.6114099  87.8547819  15.4303191
  62.5593450  88.4402989  14.0352059  72.4251994  96.2198800  14.1106514
  71.5378773  95.8824722  14.2332913  72.9950545  95.4881831  14.3475280
  54.0781141  92.5522892   7.4349566  54.7652181  92.2384622   6.8470581
  53.9229270  93.4564256   7.1616817  58.8815863  87.4413088  11.8634589
  58.7974052  86.8338758  11.1284999  58.0598570  87.9322106  11.8644086
  69.0539577  85.9266652   7.2304784  69.5508277  85.1736614   6.9105855
  68.2826558  85.9630968   6.6647994  68.4151831 100.7787086  13.2325916
  69.1279803 101.4134551  13.1601818  67.9241859 100.8750952  12.4165918
  65.6374546  88.0684035   6.9576469  65.2672333  87.5155075   7.6457375
  66.1333638  87.4642168   6.4051469  63.4663744  98.5281530  14.0531487
  64.1673204  99.1618013  14.2060881  62.9958859  98.8696261  13.2927126
  71.4958572  82.8936245   9.3784143  70.5821652  83.1240472   9.5466350
  71.9251673  82.9774689  10.2298176  71.2665030  91.0826137  11.8784037
  70.6136480  91.3302045  11.2236490  71.6445410  90.2690275  11.5446515
  67.3152603  91.8245948  18.3650074  66.6393240  91.7240077  19.0352450
  68.1380237  91.6685162  18.8286072  59.0631462  98.0617885  10.9862590
  59.6484899  97.3161573  11.1190494  58.8656301  98.3721841  11.8699254
  53.6549117  90.6323485   9.7067033  53.6933217  90.0987076  10.5004151
  53.1489410  90.1058690   9.0878010  61.0339879  85.4788025  13.2029575
  61.0981206  86.3402856  12.7906973  60.9707000  84.8662027  12.4701934
  60.5092152  87.5511158  16.8502609  61.1364191  87.1688235  17.4640134
  59.6520071  87.3325360  17.2158302  70.9086260  97.9574133  18.4556345
  71.4526164  98.5704091  17.9611300  70.3273105  98.5153711  18.9723358
  57.2857695  89.3587587   2.7820964  57.5811136  88.4498265   2.7288018
  56.3845730  89.3375326   2.4601967  60.8151942  87.4343584   8.7648513
  60.0938527  88.0479551   8.6255986  61.6045197  87.9701348   8.6865159
  63.6178255  84.7698010  15.0389165  64.1412657  85.0160307  15.8015474
  63.3990588  85.6018045  14.6192302  59.0145536  87.0401685   2.9060289
  58.6858242  86.1599064   2.7235395  59.3684907  86.9849353   3.7936679
  62.1287359  87.3274654   3.2735767  62.4683432  87.8560576   2.5514375
  62.5759480  87.6655061   4.0494334  64.8230800  85.7111705  12.7238835
  64.4827621  84.9119518  13.1259515  64.1169806  86.0113416  12.1515668
  65.4747272  82.7961018  11.1766158  66.2973341  82.3221496  11.0545048
  65.7185336  83.5751501  11.6764844  62.9985851  89.4880138   8.9858137
  62.8530432  89.8020441   9.8782418  62.5211054  90.1065039   8.4329035
  64.8582234  86.4782686   9.0339026  64.8443802  85.5823780   8.6971324
  65.5754662  86.4853350   9.6677312  66.7108364  86.9120026  11.0792154
  66.4526142  87.8337097  11.0776484  66.1793405  86.5150461  11.7692618
  57.4731513  92.0285483  11.9245798  56.9284981  92.8045291  12.0566072
  58.3510863  92.3756287  11.7664919  64.2619130  85.3597067   4.3026596
  64.3835041  84.4313713   4.5017484  63.9721172  85.3735752   3.3904912
  67.1310320  83.0451977   7.4393316  67.1532017  83.1091310   6.4845296
  67.5478379  82.2056486   7.6333822  58.2597535  91.1555379  14.8175955
  57.5179271  91.3038014  15.4040585  57.9390279  91.4163645  13.9542704
  66.2041197 100.6971357  14.6156345  66.5128324 100.4520504  15.4879044
  67.0016679 100.9017996  14.1275215  56.9062754  96.9607134   7.8075283
  56.0694662  96.5329308   7.6259284  56.8786399  97.1539577   8.7446074
  63.7460209  86.8729064  18.5116529  63.7948365  87.7491187  18.1294299
  64.2882723  86.3306457  17.9388172  74.2315055  97.4170187  17.7917666
  73.4410599  97.3994326  17.2522165  73.9948409  97.9558481  18.5466703
  74.3512930  94.2662654  15.1050395  74.4010935  94.1012661  16.0465917
  74.2426853  93.3989913  14.7148275  71.6416692  90.2493582  16.4209701
  72.5426555  90.1100046  16.1293699  71.7164667  90.4148036  17.3607879
  65.9759498  87.6260436  15.2662888  65.1062807  87.9194002  14.9945476
  66.2118978  88.2100881  15.9870151  75.8531127  96.6859595  15.3492416
  75.5615935  97.0489576  16.1855877  75.2403258  95.9726603  15.1705748
  74.1018315  91.8092210  13.8172474  74.5772437  92.0019856  13.0091326
  73.1783880  91.8651395  13.5715858  68.6798531  83.8440053  12.7828308
  69.1980475  84.5801080  12.4574797  68.3253664  84.1504047  13.6175067
  68.9311126  80.2640336   8.3029205  69.2112879  79.5963525   8.9289631
  69.7161733  80.4569431   7.7903868  72.8019984  88.6857970  12.0500780
  73.7537407  88.7856067  12.0713004  72.6323434  87.8936238  12.5598864
  70.8234363  85.7713553  12.2360181  70.2284296  86.0518566  11.5406669
  70.5384060  86.2607454  13.0076922  75.2808062  91.9064089  11.1643079
  75.2484382  90.9680090  11.3502763  75.8908685  91.9848126  10.4308904
  75.4302550  88.6975133  11.2101363  74.9141599  87.9133590  11.0231291
  76.3142499  88.3693849  11.3747882  73.0913277  82.4416148   7.1697175
  72.8938098  82.1331237   8.0540507  73.7012983  83.1677787   7.2995105
  67.0030085  94.8277889  18.6670940  67.9233095  95.0056488  18.8610987
  66.9679668  93.8833934  18.5150640  56.2212250  90.0216482   7.5924215
  55.9015034  89.1681790   7.2998589  55.6745678  90.2365060   8.3482182
  59.9992158  92.7378923  11.3093722  60.2178167  93.6696031  11.3281755
  60.4117932  92.3786898  12.0948525  66.9196375  83.2447009   3.2969410
  66.1097104  82.8994093   3.6724656  67.6080792  82.9354552   3.8857022
  68.8486924  82.3225055   4.9193707  69.4017962  82.7420509   5.5783730
  69.0857010  81.3960803   4.9616663  64.8720023  88.3112129  20.6996470
  64.7716750  89.2606486  20.6308562  64.6541565  87.9830368  19.8272541
  56.0900510  93.6419394   9.5617337  55.3963982  93.2273347   9.0487291
  56.8373501  93.6839930   8.9650756  70.6769297  83.8330638   6.6293691
  71.1769076  83.9447173   5.8208010  71.3204905  83.5291691   7.2694500
  64.7351293  91.7409268  19.5161532  64.2518375  92.5409628  19.7225421
  64.8212232  91.7517213  18.5628976  58.0037253  93.5737647   7.4383352
  57.9807941  93.6725335   6.4865235  58.3137889  94.4202798   7.7600518
  60.6624631  95.6313803  11.5529966  61.6167884  95.5997745  11.4859897
  60.4637154  95.1704426  12.3680192  61.2524013  94.2014919  14.1200764
  62.0716902  94.6958997  14.1435601  61.5260820  93.2846887  14.0918331
  74.3605145  86.6172192   7.1983058  75.1365535  87.1068644   7.4707675
  73.6353279  87.0430246   7.6554928  56.5058927  88.5353052  14.8192961
  57.1517791  88.0252006  15.3080186  56.2976078  89.2721734  15.3936386
  69.0312319  95.6033900  20.3185101  69.9003479  95.7774552  19.9571736
  68.5519071  96.4228317  20.1960831  63.1998499 102.7231001  11.9974535
  64.1025746 102.7554611  12.3141030  62.9735869 101.7931452  12.0120871
  68.8414657  79.3935874   4.8262794  68.0747053  78.8394360   4.9719476
  69.2525362  79.4657742   5.6876945  60.8456418  85.6820669  18.9167975
  61.7087879  85.3257474  19.1271299  60.2721829  85.3434564  19.6043379
  73.4037919  99.0901386  19.9097946  73.0104864  98.5367585  20.5845591
  74.2204059  99.4011965  20.3004464  76.3205880 100.5059265  17.5018203
  77.0615593 101.1066418  17.4222665  76.5523803  99.7636903  16.9436246
  71.3485906 102.8803076  16.8502609  71.9757945 102.4980153  17.4640134
  70.4913825 102.6617278  17.2158302  74.5853964 102.2020982  18.5116529
  74.6342119 103.0783104  18.1294299  75.1276478 101.6598375  17.9388172
  75.7113777 103.6404047  20.6996470  75.6110504 104.5898404  20.6308562
  75.4935320 103.3122286  19.8272541  67.3452681 103.8644970  14.8192961
  67.9911545 103.3543924  15.3080186  67.1369833 104.6013652  15.3936386
  71.6850172 101.0112587  18.9167975  72.5481634 100.6549392  19.1271299
  71.1115583 100.6726482  19.6043379  46.0257793  44.6519742   4.1029240
  45.5821647  43.8656121   3.7850144  46.6875007  44.8398893   3.4373131
  48.1239031  44.9322542   2.1310641  48.1057507  45.7531423   1.6390910
  49.0458951  44.8076618   2.3560782  49.0354872  41.5718381   4.5261359
  48.8840379  41.3428932   3.6091443  49.0259552  42.5288982   4.5392704
  50.7447079  44.6037503   2.6037841  50.6859625  43.9196723   1.9368424
  51.1466597  45.3456493   2.1518467  49.2298753  44.3052420   5.1801651
  49.7738657  44.9182379   4.6856606  48.6485598  44.8631999   5.6968664
  52.5527547  43.7648474   4.5162973  51.7623091  43.7472613   3.9767472
  52.3160902  44.3036768   5.2712009  54.1743619  43.0337882   2.0737723
  53.8828427  43.3967863   2.9101184  53.5615750  42.3204891   1.8951055
  47.3524811  41.9512187   7.0430408  48.2215971  42.1252839   6.6817043
  46.8731563  42.7706604   6.9206137  59.0117287  53.6600813  -3.5524317
  59.6495697  53.5407560  -4.2560977  58.8938130  54.6081657  -3.4936365
  55.8206993  53.6128241  -3.6162793  55.4825505  53.4969306  -4.5042258
  56.6896762  53.2119406  -3.6361787  56.3026776  54.7663093   2.3423413
  56.2915417  54.3715891   1.4703916  56.4647416  54.0329166   2.9357184
  49.2258241  56.9614909  -4.7881681  50.0179533  56.6205734  -5.2035382
  49.4654891  57.0709884  -3.8679528  53.0234038  57.5500205   1.2902597
  52.7323904  58.4545836   1.1749263  53.6591022  57.5916732   2.0046666
  53.9490244  54.9277053  -2.1196044  54.5453817  54.7033076  -2.8339081
  54.0065216  54.1861799  -1.5170596  63.9666983  51.3227500  -5.5738131
  64.6992155  50.7526717  -5.3400301  63.2106338  50.9349101  -5.1331625
  61.4892403  45.0349074  -1.1143522  61.1575728  45.9044485  -1.3382307
  60.8938016  44.7185358  -0.4349492  57.9823923  57.2361620  -1.7147610
  57.6824646  58.1386659  -1.8231802  57.6374982  56.9693803  -0.8626457
  61.3821066  49.7544160  -4.0350172  60.4737944  49.6859569  -4.3291411
  61.3308662  50.2316105  -3.2068347  52.9644702  64.0005941  -8.7476642
  52.8868732  64.9513766  -8.6688161  52.3606346  63.6551813  -8.0901716
  55.4561932  51.1733806   3.9084725  54.6795266  51.7327726   3.8987590
  56.0952495  51.6590589   4.4299595  63.2482713  47.9560599  -2.2572298
  62.6057093  48.2493132  -2.9032504  62.7437641  47.8413519  -1.4519102
  53.7108304  53.9819259   3.4702692  54.4522989  54.5204303   3.1937516
  53.0045290  54.6085548   3.6274244  59.1863644  56.1248400   2.0674853
  59.5947000  55.6830810   1.3229486  58.4640906  55.5501027   2.3209046
  55.5394714  51.0621007  -0.5591590  56.3855909  51.4860420  -0.4156941
  55.4793352  50.4054631   0.1346974  59.5092459  56.6849590  -4.1772858
  58.8801321  56.8495305  -4.8796790  59.1218121  57.0991200  -3.4061894
  63.3881691  57.6204028  -6.8228494  62.7032729  58.0002930  -7.3731461
  63.4725540  58.2299355  -6.0896546  58.6894160  48.7225375   1.0989584
  58.4455091  49.4767436   0.5623860  58.9654090  49.1010723   1.9336831
  60.6432622  55.2663987  -0.2233150  60.8549518  55.9095747  -0.8998769
  60.5962371  54.4326304  -0.6911220  51.9544502  55.9695480  -3.9743009
  52.5245859  56.3982748  -4.6125525  52.5452614  55.6878065  -3.2758824
  52.4469668  51.1358908   4.2718002  51.8168329  51.8175188   4.5053399
  52.3405756  51.0241989   3.3271140  61.7578450  58.1435943  -2.0510793
  62.5795894  57.7416130  -2.3328111  61.7540853  58.0404177  -1.0994677
  55.5235054  57.6919986   0.1049918  55.5879486  58.1540393   0.9408089
  54.8145978  57.0617351   0.2332227  69.8484443  54.4874691  -5.7025822
  69.0948152  53.9182089  -5.8581817  69.9831984  54.4537356  -4.7555187
  51.7250411  45.4379673   6.6343253  51.3317357  44.8845872   7.3090897
  52.5416551  45.7490252   7.0249771  50.5007353  59.9929288  -7.3720424
  50.6773982  60.9147253  -7.5599440  51.2964187  59.6787707  -6.9426044
  54.6418372  46.8537552   4.2263510  55.3828085  47.4544706   4.1467972
  54.8736295  46.1115190   3.6681552  49.7859710  52.0393920   2.5041739
  49.6713225  51.1379177   2.8048838  48.9304228  52.2857617   2.1526556
  56.8651548  59.9811660   4.1029240  56.4215402  59.1948039   3.7850144
  57.5268761  60.1690811   3.4373131  51.6238669  61.5107462  -1.3710082
  52.1746094  61.3824525  -2.1433088  50.7850145  61.8102351  -1.7215189
  58.9632786  60.2614460   2.1310641  58.9451261  61.0823341   1.6390910
  59.8852706  60.1368535   2.3560782  55.4205840  57.7758589   2.9734150
  55.9534177  57.0146878   2.7433458  54.8919921  57.4832241   3.7158304
  61.7651399  55.0993602  -4.3979992  61.1075073  55.7892864  -4.3099863
  62.5691798  55.4890034  -4.0546006  60.5756857  53.4537975  -6.3476050
  61.0888739  54.0867967  -5.8454341  61.2258081  52.8539171  -6.7132690
  57.0537688  50.9287431  -4.1017710  56.1360250  51.1502378  -4.2596022
  57.4697832  51.0033741  -4.9606003  61.3418654  58.4343977  -8.2196908
  60.8880981  57.5934886  -8.1631717  60.7112620  59.0705375  -7.8822128
  59.7851593  60.2720473  -7.2847090  60.0774567  60.8325530  -8.0034724
  60.2950213  60.5649034  -6.5293931  54.7485218  61.0500824  -6.1953636
  54.7061397  61.2761671  -7.1245104  55.6647917  60.8164199  -6.0467835
  58.1950852  51.5184892   0.7026993  58.5500240  51.7456365   1.5621459
  58.8422983  51.8503269   0.0804248  63.9248589  54.6403328  -8.5923678
  63.7866487  54.8304924  -9.5202489  63.5684808  55.4022711  -8.1355627
  63.9517968  56.7079855  -3.5812407  64.3854475  56.6155144  -2.7329353
  64.6649549  56.6837355  -4.2192391  52.8651019  57.9263853  -6.3991674
  53.6591617  57.4314174  -6.6009099  52.1542711  57.3981717  -6.7623968
  57.6845863  60.3081949  -2.0479306  57.7382886  60.8772885  -1.2801590
  56.8160645  60.4783834  -2.4125269  50.5644257  50.0099505  -0.5654855
  51.2367310  49.8016867  -1.2142206  49.7374043  49.8121591  -1.0049623
  64.8133518  56.7503555  -1.0479521  65.0069408  57.6549366  -0.8020246
  64.7134136  56.2910975  -0.2140936  56.4669829  46.6361446   1.4510806
  55.8197744  47.3351396   1.3575282  57.2370844  47.0697590   1.8187054
  59.8748627  56.9010298   4.5261359  59.7234133  56.6720850   3.6091443
  59.8653306  57.8580900   4.5392704  56.6433963  54.4742211  -0.4892374
  57.5726023  54.6253371  -0.6623407  56.2224993  54.5626232  -1.3443728
  55.4422295  58.4992875  -2.7193837  55.3033381  58.1311660  -1.8467898
  54.6536891  59.0140515  -2.8909879  56.0370447  63.6001972 -11.3768300
  56.2122203  63.1290015 -10.5622677  55.3503235  64.2267738 -11.1487039
  56.9927510  57.8774478  -5.3304999  56.6577343  57.8375248  -4.4347349
  56.4931456  57.2119194  -5.8034589  50.9671754  53.2842108   0.1947582
  50.8291552  52.5522347   0.7959121  51.8776677  53.1951008  -0.0868230
  53.5954055  52.9962067  -0.3168738  54.3053673  52.3555260  -0.3582120
  53.5523363  53.2474962   0.6057443  61.5840833  59.9329421   2.6037841
  61.5253379  59.2488641   1.9368424  61.9860352  60.6748411   2.1518467
  52.3082989  49.9827285   1.5026901  51.7720346  49.5318024   2.1548498
  51.7199697  50.1173194   0.7597366  50.6031532  66.7491335  -4.6028440
  50.8428130  67.3809859  -3.9249421  49.7600729  66.3979375  -4.3163081
  61.5858241  57.8969005   0.8351821  60.6985019  57.5594926   0.9578220
  62.1556792  57.1652036   1.0720586  55.1159394  62.5570457  -2.1986936
  55.0429565  63.3625429  -1.6867631  54.6736787  62.7562423  -3.0238915
  54.9049174  61.7942227  -8.6884114  54.1216696  62.3363907  -8.5945890
  55.6041919  62.3116207  -8.2889873  66.0675581  53.3077222  -4.4031617
  66.0565457  54.1901937  -4.7737684  65.1992961  52.9548773  -4.5977080
  57.5758078  62.4557291  -0.0428777  58.2886050  63.0904756  -0.1152876
  57.0848106  62.5521157  -0.8588775  59.2975604  56.3608544  -8.4711486
  58.3631883  56.4810006  -8.6406781  59.4752273  55.4581011  -8.7351476
  62.6848156  52.2025863  -7.9361451  63.1508608  53.0353855  -8.0101149
  63.1355656  51.7370845  -7.2316193  52.6269991  60.2051735   0.7776794
  53.3279451  60.8388217   0.9306188  52.1565106  60.5466466   0.0172433
  60.4271277  52.7596342  -1.3970656  59.7742727  53.0072249  -2.0518203
  60.8051657  51.9460480  -1.7308179  57.3878451  62.7956035  -7.2942486
  57.5700845  61.9777691  -6.8314733  58.2111437  63.0123727  -7.7317596
  57.7220616  61.7224220 -10.0327437  58.2508383  61.2116675 -10.6457275
  57.9848836  61.4066751  -9.1681904  56.4758850  53.5016153   5.0895381
  55.7999487  53.4010282   5.7597756  57.2986484  53.3455367   5.5531378
  48.2237709  59.7388090  -2.2892104  48.8091146  58.9931777  -2.1564200
  48.0262548  60.0492046  -1.4055440  51.0776364  62.7739337  -7.2729661
  50.4086740  63.2585465  -7.7565621  50.9389234  63.0208557  -6.3586283
  55.2181633  64.8083080  -0.6747003  55.7699941  64.9714702   0.0902082
  55.5587826  65.3987518  -1.3466978  49.6698399  49.2281363   3.5747916
  50.2970437  48.8458440   4.1885440  48.8126318  49.0095565   3.9403608
  60.0692507  59.6344338   5.1801651  60.6132411  60.2474296   4.6856606
  59.4879352  60.1923916   5.6968664  58.3550020  62.7565056  -3.6883321
  58.2301160  61.9554796  -4.1972375  59.0129111  63.2511249  -4.1769351
  60.4184929  60.5574076  -2.0603771  59.4715264  60.4379427  -2.1325444
  60.7667702  59.6696574  -1.9777509  52.7784502  46.4468215   1.7634471
  53.3018904  46.6930512   2.5260780  52.5596835  47.2788250   1.3437608
  57.4231362  60.3526792  -5.8599419  57.2756324  59.4243500  -5.6791848
  58.2484855  60.3746883  -6.3442343  61.0265484  61.1755351  -4.7734546
  61.9512031  60.9698212  -4.9110095  60.8580787  60.9271752  -3.8645204
  53.9837047  47.3881910  -0.5515858  53.6433867  46.5889723  -0.1495178
  53.2776053  47.6883621  -1.1239025  55.8714611  48.5890231  -2.1962540
  55.6132389  49.5107302  -2.1978209  55.3399652  48.1920666  -1.5062076
  60.8160800  61.6941018  -9.4172454  60.9897677  61.1287441 -10.1698602
  61.3089691  62.4941913  -9.5992964  46.6337760  53.7055688  -1.3508896
  46.0891228  54.4815496  -1.2188621  47.5117110  54.0526492  -1.5089774
  66.6700191  54.4577441  -7.7982155  67.1131337  53.7084767  -8.1963031
  65.7926701  54.4487578  -8.1808423  61.8035972  61.0107783 -12.3175556
  62.4986877  61.6314476 -12.0988241  62.1459123  60.1603134 -12.0423178
  47.4203782  52.8325584   1.5421261  46.6785518  52.9808219   2.1285892
  47.0996526  53.0933849   0.6788011  63.7027396  58.4607488 -10.7888225
  64.2278720  58.7994761 -11.5138905  63.6149748  57.5254504 -10.9725091
  55.3647444  62.3741562   1.3401651  55.6734571  62.1290709   2.2124351
  56.1622926  62.5788201   0.8520522  55.3868056  64.5279472  -6.4292972
  54.9473047  64.0355850  -5.7360115  56.1376173  63.9852439  -6.6700897
  47.8660395  60.7191013  -6.4268344  48.6918415  60.4194784  -6.8069700
  47.5154447  59.9498635  -5.9778555  52.8341928  60.0717481  -4.3570670
  52.2121938  59.4088186  -4.6568443  53.5046795  60.0978613  -5.0397023
  52.9066456  48.5499269   5.2361836  52.9554611  49.4261392   4.8539605
  53.4488970  48.0076662   4.6633479  63.3921302  59.0940392   4.5162973
  62.6016845  59.0764531   3.9767472  63.1554656  59.6328686   5.2712009
  63.5119177  55.9432858   1.8295701  63.5617182  55.7782866   2.7711224
  63.4033100  55.0760117   1.4393582  60.8022939  51.9263786   3.1455008
  61.7032802  51.7870251   2.8539006  60.8770914  52.0918241   4.0853185
  55.1365744  49.3030641   1.9908194  54.2669054  49.5964207   1.7190783
  55.3725225  49.8871086   2.7115458  65.0137373  58.3629800   2.0737723
  64.7222182  58.7259781   2.9101184  64.4009505  57.6496808   1.8951055
  66.2133056  55.9282680  -5.4059707  67.0479947  56.3672484  -5.2422147
  66.3492185  55.4521333  -6.2251461  63.2624562  53.4862415   0.5417781
  63.7378683  53.6790061  -0.2663368  62.3390127  53.5421600   0.2961164
  57.8404778  45.5210258  -0.4926385  58.3586722  46.2571285  -0.8179897
  57.4859911  45.8274251   0.3420374  61.9626231  50.3628175  -1.2253914
  62.9143654  50.4626272  -1.2041690  61.7929681  49.5706443  -0.7155829
  59.9840610  47.4483758  -1.0394513  59.3890542  47.7288771  -1.7348024
  59.6990307  47.9377659  -0.2677772  64.4414309  53.5834294  -2.1111614
  64.4090629  52.6450295  -1.9251930  65.0514932  53.6618331  -2.8445789
  64.5908797  50.3745338  -2.0653331  64.0747846  49.5903794  -2.2523402
  65.4748746  50.0464054  -1.9006811  70.2590858  54.6450301  -2.9705577
  70.9894247  54.3835589  -2.4097874  69.6497804  53.9079023  -2.9303509
  68.3406155  52.7858164  -2.3731126  67.6139319  52.6514129  -2.9814634
  67.9253442  53.0934992  -1.5674408  56.1636332  56.5048093   5.3916247
  57.0839341  56.6826692   5.5856294  56.1285915  55.5604139   5.2395946
  49.1598404  54.4149128  -1.9660972  49.3784414  55.3466236  -1.9472938
  49.5724178  54.0557103  -1.1806168  54.0326270  49.9882334   7.4241777
  53.9322997  50.9376691   7.3553868  53.8147812  49.6600573   6.5517847
  53.8957540  53.4179473   6.2406839  53.4124622  54.2179833   6.4470728
  53.9818479  53.4287418   5.2874283  49.8230877  57.3084007  -1.7224727
  50.7774131  57.2767950  -1.7894796  49.6243401  56.8474631  -0.9074502
  50.4130259  55.8785123   0.8446070  51.2323148  56.3729202   0.8680908
  50.6867067  54.9617092   0.8163638  63.5211392  48.2942397  -6.0771635
  64.2971782  48.7838849  -5.8047018  62.7959526  48.7200451  -5.6199766
  65.9583950  49.0070016  -5.0197694  66.5528441  48.7665752  -5.7304386
  66.0310534  48.2877147  -4.3924158  48.1781106  62.8503627  -4.7054530
  48.0435574  62.0904028  -5.2716532  47.7613168  63.5744527  -5.1725741
  68.2655023  52.3136217  -6.2454273  67.7054581  52.3829406  -5.4722711
  67.6598527  52.1377201  -6.9654777  51.3350232  63.7472944  -4.4936087
  51.2182616  64.6918376  -4.5957397  50.5142678  63.4446505  -4.1050288
  45.6665174  50.2123257   1.5438267  46.3124037  49.7022211   2.0325492
  45.4582325  50.9491939   2.1181693  58.1918566  57.2804105   7.0430408
  59.0609726  57.4544757   6.6817043  57.7125317  58.0998522   6.9206137
  52.3604746  64.4001206  -1.2780159  53.2631993  64.4324816  -0.9613664
  52.1342116  63.4701657  -1.2633823  54.1158348  63.1532192  -4.6170080
  53.1653979  63.1534054  -4.7305708  54.4190834  62.4064927  -5.1334045
  50.0062665  47.3590874   5.6413282  50.8694126  47.0027679   5.8516606
  49.4328075  47.0204769   6.3288686  69.8511042  68.9892731  -3.5524317
  70.4889452  68.8699478  -4.2560977  69.7331885  69.9373575  -3.4936365
  66.6600748  68.9420159  -3.6162793  66.3219259  68.8261224  -4.5042258
  67.5290516  68.5411324  -3.6361787  67.1420531  70.0955011   2.3423413
  67.1309172  69.7007809   1.4703916  67.3041170  69.3621083   2.9357184
  60.0651996  72.2906827  -4.7881681  60.8573287  71.9497652  -5.2035382
  60.3048646  72.4001802  -3.8679528  63.8627792  72.8792122   1.2902597
  63.5717658  73.7837753   1.1749263  64.4984776  72.9208650   2.0046666
  64.7883999  70.2568971  -2.1196044  65.3847571  70.0324993  -2.8339081
  64.8458970  69.5153716  -1.5170596  69.4052310  66.7144185  -6.4771109
  70.1915399  66.2963608  -6.8280692  69.6691014  67.6190277  -6.3089461
  72.3286158  60.3640992  -1.1143522  71.9969482  61.2336403  -1.3382307
  71.7331771  60.0477276  -0.4349492  68.8217677  72.5653538  -1.7147610
  68.5218400  73.4678577  -1.8231802  68.4768737  72.2985721  -0.8626457
  62.2730159  69.0167335  -5.6810905  61.3480655  68.8843549  -5.4733213
  62.5214572  69.7961554  -5.1840963  72.2214821  65.0836078  -4.0350172
  71.3131698  65.0151487  -4.3291411  72.1702417  65.5608023  -3.2068347
  59.6338970  68.6600608  -4.8467116  59.7631351  68.9135087  -3.9327704
  58.9536421  69.2528316  -5.1662461  66.2955687  66.5025724   3.9084725
  65.5189021  67.0619644   3.8987590  66.9346250  66.9882507   4.4299595
  74.0876467  63.2852517  -2.2572298  73.4450848  63.5785050  -2.9032504
  73.5831396  63.1705437  -1.4519102  64.5502059  69.3111177   3.4702692
  65.2916743  69.8496221   3.1937516  63.8439044  69.9377466   3.6274244
  70.0257399  71.4540318   2.0674853  70.4340755  71.0122728   1.3229486
  69.3034660  70.8792945   2.3209046  66.3788469  66.3912924  -0.5591590
  67.2249664  66.8152338  -0.4156941  66.3187106  65.7346549   0.1346974
  69.5287914  64.0517293   1.0989584  69.2848846  64.8059353   0.5623860
  69.8047845  64.4302640   1.9336831  71.4826377  70.5955905  -0.2233150
  71.6943272  71.2387665  -0.8998769  71.4356125  69.7618222  -0.6911220
  69.0852606  63.2073726  -3.3196578  68.2237085  63.5054979  -3.0279841
  69.1115040  63.4244125  -4.2515546  62.7938256  71.2987398  -3.9743009
  63.3639613  71.7274666  -4.6125525  63.3846368  71.0169982  -3.2758824
  63.2863423  66.4650825   4.2718002  62.6562083  67.1467106   4.5053399
  63.1799511  66.3533907   3.3271140  58.5808395  66.1322621  -4.8016074
  57.7907449  66.3880150  -5.2775963  59.0719643  66.9470959  -4.6964033
  60.5323141  66.4967201  -7.8432597  59.7354304  66.6085895  -7.3249101
  60.3048733  66.8353853  -8.7091707  66.3628808  73.0211904   0.1049918
  66.4273241  73.4832311   0.9408089  65.6539732  72.3909269   0.2332227
  56.8646098  66.3853112  -2.3701083  57.1154137  67.2700122  -2.1043507
  57.4005647  66.2057713  -3.1425991  62.5644165  60.7671591   6.6343253
  62.1711111  60.2137790   7.3090897  63.3810306  61.0782170   7.0249771
  65.4812126  62.1829470   4.2263510  66.2221840  62.7836623   4.1467972
  65.7130049  61.4407108   3.6681552  60.6253464  67.3685837   2.5041739
  60.5106980  66.4671095   2.8048838  59.7697982  67.6149534   2.1526556
  67.7045302  75.3103578   4.1029240  67.2609156  74.5239956   3.7850144
  68.3662516  75.4982728   3.4373131  62.4632423  76.8399379  -1.3710082
  63.0139849  76.7116443  -2.1433088  61.6243899  77.1394268  -1.7215189
  69.8026540  75.5906378   2.1310641  69.7845016  76.4115259   1.6390910
  70.7246460  75.4660453   2.3560782  66.2599594  73.1050507   2.9734150
  66.7927931  72.3438795   2.7433458  65.7313676  72.8124159   3.7158304
  69.4269289  58.2110573  -1.4972209  69.0833559  59.1012215  -1.5733098
  69.7948252  58.0212231  -2.3602624  57.4955140  70.5344104  -8.6783607
  58.3330362  70.9441112  -8.8949899  57.6733408  69.5943546  -8.7083413
  66.9766683  63.0468885  -7.9314535  66.1208279  62.6575735  -8.1108897
  67.3893635  63.1260846  -8.7914750  68.5065830  60.5815228  -3.5322975
  68.0030625  60.5445363  -4.3455170  68.7996437  61.4907971  -3.4726319
  64.7508716  60.6653958  -4.5256794  65.6161712  60.4696767  -4.8850904
  64.8186225  60.4364310  -3.5987437  62.3571035  62.8956166  -7.1540427
  62.9314787  62.6731347  -7.8867234  62.9442017  62.9644860  -6.4011826
  64.6593702  59.7697415  -8.4265357  64.0058115  59.4546432  -9.0508743
  64.6174177  59.1473155  -7.7005535  67.8931443  66.2579348  -4.1017710
  66.9754004  66.4794295  -4.2596022  68.3091586  66.3325659  -4.9606003
  71.2256955  57.4704132  -6.3954471  71.5315832  56.6101496  -6.6828556
  71.9509560  58.0621752  -6.5955477  57.5181311  67.8734819  -8.0072873
  57.3205711  67.2804180  -8.7321807  56.9627975  67.5687029  -7.2896934
  65.4978035  67.7657925  -5.8878280  65.5526645  66.8131762  -5.9635803
  64.6869237  67.9217364  -5.4036982  63.4370395  66.3834985  -8.1287901
  62.6238260  66.6829156  -7.7222709  63.9329389  65.9890674  -7.4113419
  69.0344606  66.8476810   0.7026993  69.3893994  67.0748283   1.5621459
  69.6816738  67.1795186   0.0804248  62.9284469  63.9553341  -2.5126666
  63.5683849  63.8142100  -3.2103703  62.0962000  63.6687854  -2.8888064
  68.5239618  75.6373867  -2.0479306  68.5776640  76.2064803  -1.2801590
  67.6554399  75.8075752  -2.4125269  59.9313086  63.9253666  -7.7353679
  60.1919903  64.8398999  -7.8444519  60.7530258  63.4578108  -7.5857067
  61.4038011  65.3391423  -0.5654855  62.0761065  65.1308785  -1.2142206
  60.5767798  65.1413509  -1.0049623  67.3063583  61.9653364   1.4510806
  66.6591498  62.6643313   1.3575282  68.0764599  62.3989508   1.8187054
  70.7142381  72.2302216   4.5261359  70.5627888  72.0012768   3.6091443
  70.7047061  73.1872817   4.5392704  67.4827718  69.8034129  -0.4892374
  68.4119778  69.9545288  -0.6623407  67.0618748  69.8918149  -1.3443728
  66.2816049  73.8284793  -2.7193837  66.1427135  73.4603577  -1.8467898
  65.4930646  74.3432432  -2.8909879  61.8065508  68.6134026   0.1947582
  61.6685306  67.8814265   0.7959121  62.7170432  68.5242926  -0.0868230
  64.4347809  68.3253985  -0.3168738  65.1447428  67.6847177  -0.3582120
  64.3917117  68.5766880   0.6057443  72.4234588  75.2621338   2.6037841
  72.3647134  74.5780559   1.9368424  72.8254106  76.0040328   2.1518467
  63.1476743  65.3119203   1.5026901  62.6114100  64.8609941   2.1548498
  62.5593452  65.4465112   0.7597366  72.4251995  73.2260922   0.8351821
  71.5378774  72.8886844   0.9578220  72.9950546  72.4943954   1.0720586
  54.0781142  69.5585014  -5.8405128  54.7652182  69.2446744  -6.4284112
  53.9229271  70.4626379  -6.1137876  58.8815864  64.4475211  -1.4120104
  58.7974053  63.8400880  -2.1469694  58.0598571  64.9384229  -1.4110608
  69.0539578  62.9328774  -6.0449909  69.5508278  62.1798737  -6.3648839
  68.2826560  62.9693091  -6.6106700  68.4151832  77.7849209  -0.0428777
  69.1279804  78.4196674  -0.1152876  67.9241861  77.8813075  -0.8588775
  65.6374547  65.0746157  -6.3178224  65.2672335  64.5217198  -5.6297319
  66.1333639  64.4704291  -6.8703224  63.4663746  75.5343652   0.7776794
  64.1673205  76.1680135   0.9306188  62.9958861  75.8758384   0.0172433
  71.4958573  59.8998368  -3.8970550  70.5821653  60.1302595  -3.7288343
  71.9251674  59.9836812  -3.0456518  71.2665032  68.0888260  -1.3970656
  70.6136482  68.3364167  -2.0518203  71.6445411  67.2752398  -1.7308179
  67.3152605  68.8308071   5.0895381  66.6393242  68.7302200   5.7597756
  68.1380238  68.6747284   5.5531378  59.0631464  75.0680007  -2.2892104
  59.6484900  74.3223695  -2.1564200  58.8656302  75.3783964  -1.4055440
  53.6549118  67.6385607  -3.5687661  53.6933218  67.1049198  -2.7750542
  53.1489411  67.1120813  -4.1876683  61.0339881  62.4850148  -0.0725118
  61.0981207  63.3464979  -0.4847721  60.9707001  61.8724150  -0.8052760
  60.5092153  64.5573281   3.5747916  61.1364192  64.1750358   4.1885440
  59.6520072  64.3387482   3.9403608  70.9086262  74.9636256   5.1801651
  71.4526166  75.5766214   4.6856606  70.3273107  75.5215834   5.6968664
  57.2857696  66.3649710 -10.4933729  57.5811137  65.4560388 -10.5466676
  56.3845732  66.3437449 -10.8152727  60.8151943  64.4405706  -4.5106181
  60.0938529  65.0541674  -4.6498707  61.6045199  64.9763471  -4.5889535
  63.6178256  61.7760133   1.7634471  64.1412658  62.0222429   2.5260780
  63.3990590  62.6080168   1.3437608  59.0145538  64.0463807 -10.3694404
  58.6858244  63.1661186 -10.5519298  59.3684908  63.9911476  -9.4818015
  62.1287361  64.3336777 -10.0018926  62.4683433  64.8622698 -10.7240318
  62.5759481  64.6717183  -9.2260360  64.8230801  62.7173828  -0.5515858
  64.4827622  61.9181641  -0.1495178  64.1169808  63.0175539  -1.1239025
  65.4747273  59.8023140  -2.0988535  66.2973343  59.3283618  -2.2209645
  65.7185337  60.5813624  -1.5989849  62.9985852  66.4942261  -4.2896557
  62.8530433  66.8082564  -3.3972275  62.5211056  67.1127161  -4.8425658
  64.8582235  63.4844809  -4.2415667  64.8443804  62.5885902  -4.5783369
  65.5754663  63.4915473  -3.6077381  66.7108366  63.9182149  -2.1962540
  66.4526143  64.8399220  -2.1978209  66.1793406  63.5212584  -1.5062076
  57.4731514  69.0347605  -1.3508896  56.9284982  69.8107413  -1.2188621
  58.3510864  69.3818410  -1.5089774  64.2619131  62.3659189  -8.9728097
  64.3835042  61.4375835  -8.7737209  63.9721173  62.3797875  -9.8849782
  67.1310321  60.0514100  -5.8361377  67.1532018  60.1153433  -6.7909398
  67.5478380  59.2118608  -5.6420871  58.2597536  68.1617502   1.5421261
  57.5179272  68.3100137   2.1285892  57.9390280  68.4225767   0.6788011
  66.2041199  77.7033480   1.3401651  66.5128325  77.4582627   2.2124351
  67.0016681  77.9080118   0.8520522  56.9062755  73.9669257  -5.4679410
  56.0694663  73.5391431  -5.6495409  56.8786400  74.1601700  -4.5308619
  63.7460210  63.8791186   5.2361836  63.7948366  64.7553309   4.8539605
  64.2882725  63.3368580   4.6633479  74.2315056  74.4232310   4.5162973
  73.4410600  74.4056449   3.9767472  73.9948411  74.9620603   5.2712009
  74.3512931  71.2724776   1.8295701  74.4010936  71.1074784   2.7711224
  74.2426854  70.4052035   1.4393582  71.6416694  67.2555704   3.1455008
  72.5426556  67.1162169   2.8539006  71.7164668  67.4210159   4.0853185
  65.9759499  64.6322559   1.9908194  65.1062808  64.9256125   1.7190783
  66.2118979  65.2163004   2.7115458  75.8531128  73.6921718   2.0737723
  75.5615936  74.0551698   2.9101184  75.2403259  72.9788726   1.8951055
  74.1018316  68.8154332   0.5417781  74.5772438  69.0081979  -0.2663368
  73.1783882  68.8713518   0.2961164  68.6798533  60.8502176  -0.4926385
  69.1980477  61.5863203  -0.8179897  68.3253665  61.1566169   0.3420374
  68.9311127  57.2702458  -4.9725489  69.2112881  56.6025647  -4.3465062
  69.7161734  57.4631554  -5.4850825  72.8019985  65.6920092  -1.2253914
  73.7537408  65.7918190  -1.2041690  72.6323436  64.8998361  -0.7155829
  70.8234365  62.7775676  -1.0394513  70.2284297  63.0580688  -1.7348024
  70.5384061  63.2669576  -0.2677772  75.2808063  68.9126212  -2.1111614
  75.2484383  67.9742213  -1.9251930  75.8908687  68.9910249  -2.8445789
  75.4302551  65.7037255  -2.0653331  74.9141600  64.9195712  -2.2523402
  76.3142500  65.3755972  -1.9006811  73.0913278  59.4478271  -6.1057518
  72.8938100  59.1393359  -5.2214186  73.7012984  60.1739910  -5.9759588
  67.0030086  71.8340011   5.3916247  67.9233096  72.0118610   5.5856294
  66.9679669  70.8896057   5.2395946  56.2212251  67.0278605  -5.6830478
  55.9015036  66.1743913  -5.9756104  55.6745680  67.2427183  -4.9272511
  59.9992159  69.7441046  -1.9660972  60.2178169  70.6758154  -1.9472938
  60.4117933  69.3849020  -1.1806168  66.9196377  60.2509131  -9.9785283
  66.1097105  59.9056216  -9.6030037  67.6080794  59.9416675  -9.3897672
  68.8486925  59.3287178  -8.3560987  69.4017964  59.7482631  -7.6970964
  69.0857011  58.4022926  -8.3138031  64.8720024  65.3174252   7.4241777
  64.7716751  66.2668609   7.3553868  64.6541566  64.9892490   6.5517847
  56.0900511  70.6481516  -3.7137357  55.3963983  70.2335469  -4.2267402
  56.8373502  70.6902053  -4.3103938  70.6769298  60.8392761  -6.6461002
  71.1769077  60.9509295  -7.4546683  71.3204906  60.5353814  -6.0060194
  64.7351294  68.7471390   6.2406839  64.2518376  69.5471751   6.4470728
  64.8212233  68.7579335   5.2874283  58.0037254  70.5799770  -5.8371342
  57.9807942  70.6787457  -6.7889459  58.3137890  71.4264921  -5.5154176
  60.6624632  72.6375925  -1.7224727  61.6167885  72.6059867  -1.7894796
  60.4637155  72.1766549  -0.9074502  61.2524014  71.2077041   0.8446070
  62.0716903  71.7021120   0.8680908  61.5260822  70.2909009   0.8163638
  74.3605146  63.6234314  -6.0771635  75.1365536  64.1130767  -5.8047018
  73.6353280  64.0492369  -5.6199766  56.5058928  65.5415175   1.5438267
  57.1517792  65.0314129   2.0325492  56.2976079  66.2783857   2.1181693
  69.0312320  72.6096023   7.0430408  69.9003480  72.7836675   6.6817043
  68.5519072  73.4290439   6.9206137  63.1998501  79.7293124  -1.2780159
  64.1025747  79.7616734  -0.9613664  62.9735871  78.7993574  -1.2633823
  68.8414658  56.3997996  -8.4491900  68.0747054  55.8456483  -8.3035217
  69.2525363  56.4719865  -7.5877748  60.8456419  62.6882792   5.6413282
  61.7087881  62.3319597   5.8516606  60.2721830  62.3496687   6.3288686
  73.4037920  76.0963509   6.6343253  73.0104866  75.5429707   7.3090897
  74.2204060  76.4074087   7.0249771  76.3205881  77.5121388   4.2263510
  77.0615594  78.1128541   4.1467972  76.5523804  76.7699026   3.6681552
  71.3485908  79.8865198   3.5747916  71.9757946  79.5042276   4.1885440
  70.4913827  79.6679400   3.9403608  74.5853965  79.2083104   5.2361836
  74.6342120  80.0845227   4.8539605  75.1276479  78.6660497   4.6633479
  75.7113779  80.6466169   7.4241777  75.6110506  81.5960526   7.3553868
  75.4935321  80.3184408   6.5517847  67.3452683  80.8707093   1.5438267
  67.9911546  80.3606047   2.0325492  67.1369834  81.6075774   2.1181693
  71.6850174  78.0174710   5.6413282  72.5481635  77.6611515   5.8516606
  71.1115584  77.6788605   6.3288686  67.7045303  52.3165700  -9.1725453
  67.2609158  51.5302079  -9.4904549  68.3662517  52.5044851  -9.8381563
  69.8026542  52.5968500 -11.1444052  69.7845017  53.4177381 -11.6363783
  70.7246462  52.4722575 -10.9193911  70.7142382  49.2364338  -8.7493334
  70.5627889  49.0074890  -9.6663250  70.7047062  50.1934940  -8.7361989
  72.4234589  52.2683461 -10.6716852  72.3647135  51.5842681 -11.3386269
  72.8254107  53.0102451 -11.1236226  70.9086263  51.9698378  -8.0953042
  71.4526167  52.5828337  -8.5898087  70.3273108  52.5277957  -7.5786029
  74.2315057  51.4294432  -8.7591721  73.4410601  51.4118571  -9.2987221
  73.9948412  51.9682726  -8.0042684  75.8531129  50.6983840 -11.2016971
  75.5615938  51.0613821 -10.3653510  75.2403261  49.9850849 -11.3803639
  69.0312322  49.6158145  -6.2324286  69.9003481  49.7898797  -6.5937651
  68.5519073  50.4352562  -6.3548556  73.4037921  53.1025631  -6.6411440
  73.0104867  52.5491830  -5.9663796  74.2204062  53.4136210  -6.2504923
  76.3205882  54.5183510  -9.0491184  77.0615596  55.1190664  -9.1286721
  76.5523805  53.7761148  -9.6073141  71.3485909  56.8927321  -9.7006777
  71.9757948  56.5104398  -9.0869253  70.4913828  56.6741523  -9.3351085
  74.5853966  56.2145227  -8.0392858  74.6342122  57.0907350  -8.4215088
  75.1276480  55.6722620  -8.6121215  75.7113780  57.6528292  -5.8512916
  75.6110507  58.6022649  -5.9200825  75.4935322  57.3246531  -6.7236846
  67.3452684  57.8769215 -11.7316426  67.9911548  57.3668169 -11.2429201
  67.1369835  58.6137897 -11.1573001  71.6850175  55.0236832  -7.6341412
  72.5481636  54.6673637  -7.4238087  71.1115586  54.6850727  -6.9466008
   4.8121911 100.4750448  47.3992949   4.0585620  99.9057846  47.2436953
   4.9469453 100.4413112  48.3463584   1.6337659 100.4453198  45.3036616
   2.0768805  99.6960523  44.9055739   0.7564169 100.4363334  44.9210348
   1.1770524 101.9158436  47.6959063   2.0117415 102.3548240  47.8596624
   1.3129653 101.4397090  46.8767309   5.2228326 100.6326058  50.1313193
   5.9531715 100.3711346  50.6920897   4.6135272  99.8954780  50.1715261
   3.3043624  98.7733920  50.7287644   2.5776787  98.6389885  50.1204136
   2.8890910  99.0810749  51.5344362   0.9221418  94.9945773  48.0821076
   1.5165909  94.7541509  47.3714384   0.9948002  94.2752903  48.7094612
   3.2292491  98.3011973  46.8564497   2.6692049  98.3705163  47.6296059
   2.6235995  98.1252958  46.1363993   4.3906757 104.1986330  51.6046562
   4.0471027 105.0887971  51.5285672   4.7585720 104.0087987  50.7416147
   6.1894423 103.4579889  46.7064299   6.4953300 102.5977252  46.4190214
   6.9147028 104.0497509  46.5063293   6.4596041 105.8874124  49.2048220
   5.5459121 106.1178351  49.3730427   6.8889143 105.9712568  50.0562253
   3.8948595 103.2578215  48.1293282   4.1750349 102.5901404  48.7553708
   4.6799202 103.4507311  47.6167945   8.0550746 105.4354028  46.9961252
   7.8575568 105.1269116  47.8804584   8.6650452 106.1615667  47.1259182
   3.8124393 105.3162935  44.7457784   4.3655432 105.7358388  45.4047807
   4.0494479 104.3898683  44.7880740   3.8052126 102.3873753  44.6526871
   3.0384522 101.8332240  44.7983553   4.2162831 102.4595622  45.5141022
   4.8121913  77.4812570  34.1238255   4.0585621  76.9119969  33.9682260
   4.9469454  77.4475235  35.0708890   1.6337660  77.4515321  32.0281922
   2.0768806  76.7022646  31.6301046   0.7564171  77.4425457  31.6455654
   1.1770525  78.9220559  34.4204370   2.0117416  79.3610363  34.5841930
   1.3129654  78.4459212  33.6012616   5.2228328  77.6388180  36.8558500
   5.9531716  77.3773469  37.4166203   4.6135273  76.9016902  36.8960568
   3.3043625  75.7796043  37.4532951   2.5776788  75.6452008  36.8449443
   2.8890912  76.0872872  38.2589669   0.9221420  72.0007895  34.8066383
   1.5165911  71.7603631  34.0959691   0.9948003  71.2815026  35.4339919
   3.2292492  75.3074096  33.5809804   2.6692050  75.3767285  34.3541366
   2.6235996  75.1315081  32.8609300   4.8148511  91.9830610  36.2739760
   5.4526921  91.8637357  35.5703100   4.6969354  92.9311454  36.3327712
   1.6238217  91.9358038  36.2101284   1.2856729  91.8199103  35.3221819
   2.4927985  91.5349203  36.1902290   2.1058000  93.0892890  42.1687490
   2.0946641  92.6945688  41.2967993   2.2678640  92.3558962  42.7621261
   4.3689779  89.7082064  33.3492968   5.1552869  89.2901487  32.9983385
   4.6328484  90.6128156  33.5174616   9.7698207  89.6457297  34.2525946
  10.5023378  89.0756514  34.4863776   9.0137562  89.2578897  34.6932452
   1.3874326  92.0684539  31.4489289   1.0232533  91.5415159  32.1602210
   2.2441442  91.6783008  31.2755774   7.2923627  83.3578871  38.7120555
   6.9606952  84.2274282  38.4881770   6.6969240  83.0415155  39.3914585
   3.7855146  95.5591417  38.1116467   3.4855869  96.4616456  38.0032275
   3.4406206  95.2923600  38.9637620   7.1852290  88.0773957  35.7913905
   6.2769168  88.0089366  35.4972666   7.1339886  88.5545902  36.6195730
   1.2593156  89.4963603  43.7348802   0.4826490  90.0557523  43.7251667
   1.8983719  89.9820386  44.2563672   9.0513937  86.2790396  37.5691779
   8.4088317  86.5722929  36.9231573   8.5468865  86.1643316  38.3744975
   6.7054100  90.0253569  28.2577638   7.6171956  90.2580956  28.0825335
   6.1963747  90.6090613  27.6952717   4.9894868  94.4478197  41.8938931
   5.3978224  94.0060607  41.1493563   4.2672129  93.8730824  42.1473123
   1.3425938  89.3850803  39.2672487   2.1887133  89.8090217  39.4107136
   1.2824576  88.7284428  39.9611051   5.3123683  95.0079387  35.6491219
   4.6832545  95.1725101  34.9467287   4.9249345  95.4220997  36.4202183
   9.1912914  95.9433825  33.0035583   8.5063953  96.3232727  32.4532616
   9.2756764  96.5529152  33.7367531   4.4925383  87.0455172  40.9253661
   4.2486315  87.7997232  40.3887937   4.7685314  87.4240519  41.7600908
   6.4463846  93.5893784  39.6030927   6.6580741  94.2325544  38.9265308
   6.3993594  92.7556101  39.1352857   4.0490075  86.2011605  36.5067499
   3.1874554  86.4992858  36.7984236   4.0752510  86.4182004  35.5748531
   0.8651644  94.7453795  32.9141304   1.3289990  95.0241498  32.1245927
   0.6008443  93.8437240  32.7314395   7.5609674  96.4665740  37.7753284
   8.3827118  96.0645927  37.4935966   7.5572077  96.3633974  38.7269400
   1.3266277  96.0149783  39.9313995   1.3910710  96.4770190  40.7672166
   0.6177201  95.3847148  40.0596304  15.6515667  92.8104488  34.1238255
  14.8979375  92.2411886  33.9682260  15.7863208  92.7767153  35.0708890
   2.6682771  98.3041457  43.9293317   2.2246626  97.5177835  43.6114221
   3.3299985  98.4920607  43.2637208   4.7664010  98.5844257  41.9574718
   4.7482485  99.4053138  41.4654987   5.6883930  98.4598332  42.1824859
   1.2237064  96.0988386  42.7998227   1.7565401  95.3376675  42.5697535
   0.6951145  95.8062038  43.5422381   4.3906759  81.2048452  38.3291868
   4.0471028  82.0950094  38.2530979   4.7585721  81.0150110  37.4661453
   4.3557041  91.1957063  26.8364303   3.8403665  91.9661668  27.0752691
   4.0834350  90.5222200  27.4597365   1.9404152  86.0406764  31.8949542
   1.0845749  85.6513615  31.7155180   2.3531104  86.1198725  31.0349327
   3.4703299  83.5753107  36.2941102   2.9668095  83.5383243  35.4808907
   3.7633906  84.4845850  36.3537758   9.3291316  93.9489418  28.7717477
   8.5520758  93.6100578  28.3272639  10.0082797  93.9542041  28.0972442
   4.1443345  89.0684155  28.6624085   3.8393480  89.3830305  29.5134228
   5.0973787  89.1465575  28.7051418   7.5682622  93.4223399  35.4284085
   6.9106297  94.1122661  35.5164214   8.3723022  93.8119831  35.7718071
   6.3788081  91.7767772  33.4788027   6.8919963  92.4097764  33.9809736
   7.0289305  91.1768967  33.1131387   2.8568912  89.2517228  35.7246367
   1.9391473  89.4732175  35.5668055   3.2729056  89.3263538  34.8658074
   3.6403960  90.6508643  30.8549047   4.3875779  91.1630040  30.5456169
   3.9095549  90.3292696  31.7153441   7.1449877  96.7573773  31.6067169
   6.6912205  95.9164683  31.6632360   6.5143844  97.3935172  31.9441949
   6.0882797  87.6865759  32.8367837   5.3505554  87.1743146  33.1678079
   6.3409571  87.2466141  32.0251114   5.5882817  98.5950270  32.5416987
   5.8805791  99.1555327  31.8229353   6.0981437  98.8878831  33.2970147
   6.1894424  80.4642011  33.4309606   6.4953301  79.6039375  33.1435521
   6.9147029  81.0559632  33.2308600   3.9982076  89.8414689  40.5291070
   4.3531463  90.0686162  41.3885536   4.6454207  90.1733066  39.9068325
   9.7279813  92.9633125  31.2340399   9.5897711  93.1534721  30.3061588
   9.3716031  93.7252507  31.6908450   9.7549192  95.0309652  36.2451670
  10.1885699  94.9384941  37.0934724  10.4680773  95.0067152  35.6071686
   3.4877087  98.6311746  37.7784771   3.5414109  99.2002682  38.5462487
   2.6191868  98.8013631  37.4138808  10.6164742  95.0733352  38.7784556
  10.8100632  95.9779163  39.0243831  10.5165360  94.6140771  39.6123141
   2.2701053  84.9591243  41.2774883   1.6228968  85.6581193  41.1839359
   3.0402068  85.3927387  41.6451131   5.6779850  95.2240095  44.3525436
   5.5265357  94.9950647  43.4355520   5.6684530  96.1810696  44.3656781
   2.4465187  92.7972008  39.3371703   3.3757247  92.9483167  39.1640670
   2.0256217  92.8856029  38.4820349   2.7958734  96.2004275  34.4959078
   2.4608566  96.1605045  35.3916728   2.2962679  95.5348991  34.0229488
   7.3872057  98.2559218  42.4301918   7.3284603  97.5718438  41.7632501
   7.7891575  98.9978208  41.9782544   7.3889464  96.2198802  40.6615898
   6.5016243  95.8824723  40.7842297   7.9588015  95.4881833  40.8984663
   4.0177048  85.9266653  33.7814168   4.5145747  85.1736616  33.4615238
   3.2464029  85.9630970  33.2157377  11.8706805  91.6307019  35.4232460
  11.8596681  92.5131734  35.0526393  11.0024184  91.2778570  35.2286997
   3.3789301 100.7787088  39.7835300   4.0917274 101.4134553  39.7111201
   2.8879330 100.8750954  38.9675302   5.1006828  94.6838341  31.3552591
   4.1663107  94.8039803  31.1857296   5.2783497  93.7810807  31.0912601
   8.4879380  90.5255660  31.8902626   8.9539832  91.3583651  31.8162928
   8.9386880  90.0600641  32.5947884   6.5555611  96.8699481  28.8888778
   6.8315455  96.7556076  29.7982652   5.6860109  96.4716966  28.8500951
   6.4596042  82.8936247  35.9293527   5.5459122  83.1240474  36.0975734
   6.8889144  82.9774691  36.7807559   6.2302501  91.0826139  38.4293421
   5.5773951  91.3302046  37.7745874   6.6082881  90.2690277  38.0955898
   3.1909675 101.1185832  32.5321591   3.3732069 100.3007488  32.9949344
   4.0142661 101.3353524  32.0946481   2.2790074  91.8245950  44.9159458
   1.6030711  91.7240079  45.5861833   3.1017708  91.6685164  45.3795455
   1.0212857 103.1312877  39.1517074   1.5731165 103.2944499  39.9166159
   1.3619050 103.7217315  38.4797099   5.8723731  97.9574135  45.0065728
   6.4163635  98.5704093  44.5120683   5.2910576  98.5153713  45.5232741
   4.1581244 101.0794853  36.1380756   4.0332383 100.2784593  35.6291702
   4.8160335 101.5741046  35.6494726   6.2216152  98.8803873  37.7660306
   5.2746488  98.7609224  37.6938633   6.5698925  97.9926371  37.8486568
   3.2262586  98.6756589  33.9664658   3.0787548  97.7473297  34.1472229
   4.0516079  98.6976680  33.4821734   6.8296707  99.4985148  35.0529531
   7.7543255  99.2928009  34.9153982   6.6612011  99.2501549  35.9618873
   3.2224100  86.5294427  28.9596776   3.4387714  87.4119065  28.6585604
   2.7418167  86.1380640  28.2302418   1.6745835  86.9120028  37.6301537
   1.4163613  87.8337099  37.6285868   1.1430875  86.5150463  38.3202001
   6.6192024 100.0170815  30.4091623   6.7928901  99.4517238  29.6565475
   7.1120915 100.8171710  30.2271113   2.0947791  83.0451979  33.9902700
   2.1169487  83.1091312  33.0354679   2.5115850  82.2056487  34.1843206
  12.4731415  92.7807238  32.0281922  12.9162561  92.0314564  31.6301046
  11.5957925  92.7717375  31.6455654   9.5058619  96.7837285  29.0375852
  10.0309943  97.1224558  28.3125172   9.4180972  95.8484301  28.8538986
   1.1678668 100.6971359  41.1665728   1.4765794 100.4520506  42.0388428
   1.9654150 100.9017997  40.6784599   9.1952525  97.4170189  44.3427050
   8.4048069  97.3994328  43.8031549   8.9585880  97.9558483  45.0976086
   9.3150400  94.2662655  41.6559778   9.3648405  94.1012663  42.5975301
   9.2064324  93.3989914  41.2657659   6.6054163  90.2493583  42.9719085
   7.5064026  90.1100048  42.6803083   6.6802137  90.4148038  43.9117262
  10.8168597  96.6859597  41.9001800  10.5253406  97.0489577  42.7365261
  10.2040729  95.9726605  41.7215132  12.0164280  94.2512477  34.4204370
  12.8511171  94.6902281  34.5841930  12.1523408  93.7751130  33.6012616
   9.0655786  91.8092211  40.3681858   9.5409907  92.0019858  39.5600709
   8.1421351  91.8651397  40.1225241   3.6436002  83.8440055  39.3337692
   4.1617946  84.5801082  39.0084180   3.2891135  84.1504048  40.1684451
   3.8948596  80.2640338  34.8538588   4.1750350  79.5963527  35.4799015
   4.6799203  80.4569433  34.3413252   7.7657455  88.6857972  38.6010163
   8.7174877  88.7856069  38.6222387   7.5960905  87.8936240  39.1108248
   5.7871834  85.7713555  38.7869564   5.1921766  86.0518567  38.0916053
   5.5021531  86.2607456  39.5586305  10.2445532  91.9064091  37.7152463
  10.2121852  90.9680092  37.9012147  10.8546156  91.9848128  36.9818288
  10.3940021  88.6975135  37.7610746   9.8779069  87.9133591  37.5740675
  11.2779969  88.3693851  37.9257266   8.0550748  82.4416150  33.7206559
   7.8575569  82.1331238  34.6049891   8.6650453  83.1677789  33.8504489
  16.0622082  92.9680098  36.8558500  16.7925471  92.7065386  37.4166203
  15.4529028  92.2308820  36.8960568  14.1437379  91.1087961  37.4532951
  13.4170543  90.9743926  36.8449443  13.7284666  91.4164789  38.2589669
   1.9667556  94.8277890  45.2180324   2.8870565  95.0056489  45.4120371
   1.9317139  93.8833936  45.0660023   1.8833846  83.2447010  29.8478794
   1.0734574  82.8994095  30.2234040   2.5718263  82.9354554  30.4366405
   3.8124394  82.3225057  31.4703090   4.3655433  82.7420511  32.1293113
   4.0494481  81.3960805  31.5126046   7.1903201  84.4325582  30.9781754
   6.6101870  85.0910386  30.5959807   6.9239134  83.6102927  30.5669172
   5.6406768  83.8330640  33.1803075   6.1406546  83.9447175  32.3717394
   6.2842376  83.5291693  33.8203883   5.9728079  86.5925673  30.0338103
   5.0853934  86.8775323  29.8158297   6.3882069  86.4319436  29.1865380
   9.3242616  86.6172194  33.7492442  10.1003006  87.1068646  34.0217059
   8.5990750  87.0430248  34.2064311  11.7615174  87.3299813  34.8066383
  12.3559665  87.0895549  34.0959691  11.8341758  86.6106943  35.4339919
   5.9469103  92.1080209  30.2488393   5.8904305  92.5648760  29.4096025
   6.4997446  91.3470893  30.0711236   9.7573909  87.8969940  31.0738512
   9.5010843  87.4966576  31.9046720   9.1326777  88.6113734  30.9488652
  14.0686247  90.6366014  33.5809804  13.5085805  90.7059203  34.3541366
  13.4629750  90.4606998  32.8609300   6.6803882  93.2984990  27.5440922
   6.6252686  93.1329261  26.6029366   6.0549938  94.0061023  27.7003112
   3.9949790  95.6033902  46.8694485   4.8640949  95.7774554  46.5081120
   3.5156541  96.4228319  46.7470214   3.8052127  79.3935875  31.3772177
   3.0384523  78.8394362  31.5228860   4.2162832  79.4657744  32.2386329
  15.6542265 107.3122528  36.2739760  16.2920675 107.1929275  35.5703100
  15.5363108 108.2603372  36.3327712  12.4631972 107.2649956  36.2101284
  12.1250483 107.1491020  35.3221819  13.3321740 106.8641121  36.1902290
  12.9451755 108.4184807  42.1687490  12.9340395 108.0237606  41.2967993
  13.1072394 107.6850880  42.7621261  15.2083534 105.0373981  33.3492968
  15.9946623 104.6193405  32.9983385  15.4722238 105.9420074  33.5174616
  20.6091961 104.9749215  34.2525946  21.3417133 104.4048431  34.4863776
  19.8531317 104.5870815  34.6932452  12.2268081 107.3976456  31.4489289
  11.8626288 106.8707077  32.1602210  13.0835197 107.0074925  31.2755774
  18.1317381  98.6870789  38.7120555  17.8000706  99.5566200  38.4881770
  17.5362995  98.3707073  39.3914585  18.0246045 103.4065875  35.7913905
  17.1162922 103.3381283  35.4972666  17.9733640 103.8837820  36.6195730
  12.0986910 104.8255521  43.7348802  11.3220245 105.3849441  43.7251667
  12.7377474 105.3112304  44.2563672  19.8907691 101.6082313  37.5691779
  19.2482071 101.9014847  36.9231573  19.3862620 101.4935234  38.3744975
  17.5447855 105.3545487  28.2577638  18.4565711 105.5872873  28.0825335
  17.0357502 105.9382531  27.6952717  15.8288622 109.7770114  41.8938931
  16.2371978 109.3352525  41.1493563  15.1065884 109.2022742  42.1473123
  12.1819692 104.7142721  39.2672487  13.0280888 105.1382135  39.4107136
  12.1218330 104.0576345  39.9611051  15.3319138 102.3747090  40.9253661
  15.0880070 103.1289150  40.3887937  15.6079068 102.7532437  41.7600908
  17.2857601 108.9185702  39.6030927  17.4974496 109.5617462  38.9265308
  17.2387349 108.0848018  39.1352857  14.8883830 101.5303523  36.5067499
  14.0268309 101.8284776  36.7984236  14.9146264 101.7473921  35.5748531
  10.6414285 106.1968865  29.7230870  11.3438328 106.6489909  30.1904796
  10.3094913 105.5552684  30.3510763   9.0894647 104.7880622  44.0982079
   8.4593307 105.4696903  44.3317476   8.9830734 104.6763704  43.1535217
   4.3839619 104.4552418  35.0248003   3.5938673 104.7109947  34.5488114
   4.8750866 105.2700756  35.1300044  26.4909422 108.1396406  34.1238255
  25.7373130 107.5703804  33.9682260  26.6256963 108.1059070  35.0708890
   8.3675389  99.0901388  46.4607330   7.9742335  98.5367586  47.1354974
   9.1841530  99.4011966  46.8513848  11.2843350 100.5059267  44.0527587
  12.0253064 101.1066420  43.9732049  11.5161273  99.7636905  43.4945629
   6.4284688 105.6915634  42.3305816   6.3138203 104.7900892  42.6312915
   5.5729206 105.9379331  41.9790633  15.2300513  96.5340370  38.3291868
  14.8864783  97.4242012  38.2530979  15.5979476  96.3442028  37.4661453
  15.1950796 106.5248981  26.8364303  14.6797419 107.2953586  27.0752691
  14.9228104 105.8514117  27.4597365  12.7797907 101.3698682  31.8949542
  11.9239503 100.9805532  31.7155180  13.1924859 101.4490643  31.0349327
  14.3097054  98.9045025  36.2941102  13.8061849  98.8675160  35.4808907
  14.6027660  99.8137768  36.3537758  10.5539939  98.9883755  35.3007283
  11.4192936  98.7926564  34.9413173  10.6217448  98.7594107  36.2276640
  20.1685070 109.2781336  28.7717477  19.3914513 108.9392495  28.3272639
  20.8476551 109.2833959  28.0972442  14.9837099 104.3976073  28.6624085
  14.6787235 104.7122222  29.5134228  15.9367541 104.4757493  28.7051418
  18.4076377 108.7515317  35.4284085  17.7500051 109.4414578  35.5164214
  19.2116776 109.1411749  35.7718071   8.1602259 101.2185963  32.6723650
   8.7346010 100.9961144  31.9396843   8.7473241 101.2874657  33.4252251
  17.2181836 107.1059690  33.4788027  17.7313717 107.7389681  33.9809736
  17.8683060 106.5060885  33.1131387  10.4624926  98.0927212  31.3998720
   9.8089339  97.7776229  30.7755334  10.4205400  97.4702952  32.1258542
  13.6962667 104.5809145  35.7246367  12.7785228 104.8024092  35.5668055
  14.1122810 104.6555456  34.8658074  14.4797714 105.9800561  30.8549047
  15.2269533 106.4921958  30.5456169  14.7489304 105.6584614  31.7153441
  16.9276552 103.0157677  32.8367837  16.1899308 102.5035063  33.1678079
  17.1803325 102.5758059  32.0251114  17.0288179  95.7933929  33.4309606
  17.3347056  94.9331293  33.1435521  17.7540784  96.3851549  33.2308600
  11.3009259 106.0887722  33.9385797  11.3557868 105.1361559  33.8628274
  10.4900461 106.2447161  34.4227095   9.2401618 104.7064782  31.6976176
   8.4269484 105.0058953  32.1041368   9.7360613 104.3120471  32.4150658
  14.8375830 105.1706606  40.5291070  15.1925218 105.3978080  41.3885536
  15.4847961 105.5024983  39.9068325  20.5673567 108.2925042  31.2340399
  20.4291466 108.4826638  30.3061588  20.2109786 109.0544425  31.6908450
   8.7315693 102.2783137  37.3137411   9.3715073 102.1371897  36.6160374
   7.8993224 101.9917651  36.9376013  20.5942947 110.3601569  36.2451670
  21.0279453 110.2676858  37.0934724  21.3074527 110.3359070  35.6071686
   5.7344310 102.2483462  32.0910398   5.9951127 103.1628796  31.9819558
   6.5561482 101.7807905  32.2407010   7.2069235 103.6621220  39.2609222
   7.8792288 103.4538582  38.6121871   6.3799022 103.4643306  38.8214454
  21.4558496 110.4025270  38.7784556  21.6494386 111.3071080  39.0243831
  21.3559114 109.9432689  39.6123141  13.1094807 100.2883161  41.2774883
  12.4622722 100.9873110  41.1839359  13.8795822 100.7219304  41.6451131
  13.2858941 108.1263925  39.3371703  14.2151001 108.2775085  39.1640670
  12.8649971 108.2147946  38.4820349   7.6096732 106.9363823  40.0211659
   7.4716530 106.2044061  40.6223198   8.5201656 106.8472723  39.7395847
  10.2379033 106.6483782  39.5095339  10.9478651 106.0076974  39.4681957
  10.1948341 106.8996677  40.4321520   8.9507967 103.6349000  41.3290978
   8.4145324 103.1839738  41.9812575   8.3624675 103.7694909  40.5861443
   4.6847088 102.7705008  38.4143973   4.6005277 102.1630677  37.6794383
   3.8629795 103.2614026  38.4153469  14.8570802 101.2558571  33.7814168
  15.3539502 100.5028533  33.4615238  14.0857784 101.2922888  33.2157377
  22.7100559 106.9598937  35.4232460  22.6990436 107.8423652  35.0526393
  21.8417939 106.6070487  35.2286997  11.4405771 103.3975954  33.5085853
  11.0703558 102.8446994  34.1966758  11.9364863 102.7934088  32.9560853
  19.3273134 105.8547578  31.8902626  19.7933586 106.6875569  31.8162928
  19.7780635 105.3892559  32.5947884  17.2989797  98.2228165  35.9293527
  16.3852877  98.4532391  36.0975734  17.7282898  98.3066609  36.7807559
  17.0696255 106.4118057  38.4293421  16.4167706 106.6593964  37.7745874
  17.4476635 105.5982195  38.0955898  13.1183828 107.1537868  44.9159458
  12.4424465 107.0531997  45.5861833  13.9411462 106.9977081  45.3795455
   6.8371104 100.8079945  39.7538959   6.9012431 101.6694776  39.3416356
   6.7738225 100.1953946  39.0211317   6.3123377 102.8803077  43.4011993
   6.9395416 102.4980155  44.0149517   5.4551296 102.6617279  43.7667685
   6.6183167 102.7635503  35.3157896   5.8969752 103.3771471  35.1765370
   7.4076422 103.2993268  35.2374542   9.4209480 100.0989930  41.5898548
   9.9443882 100.3452226  42.3524857   9.2021813 100.9309964  41.1701685
  10.6262025 101.0403625  39.2748219  10.2858846 100.2411438  39.6768899
   9.9201032 101.3405335  38.7025052  11.2778497  98.1252937  37.7275542
  12.1004566  97.6513415  37.6054432  11.5216561  98.9043421  38.2274228
   9.9186732 101.1541196  28.0238443  10.6395094 101.5322448  27.5202160
   9.2952036 101.8730072  28.1273421  14.0617854 101.8586344  28.9596776
  14.2781469 102.7410982  28.6585604  13.5811922 101.4672558  28.2302418
   8.8017076 104.8172058  35.5367520   8.6561657 105.1312361  36.4291802
   8.3242279 105.4356958  34.9838419  10.6613459 101.8074606  35.5848410
  10.6475027 100.9115699  35.2480708  11.3785887 101.8145269  36.2186696
  12.5139589 102.2411946  37.6301537  12.2557367 103.1629017  37.6285868
  11.9824630 101.8442380  38.3202001  10.0650355 100.6888986  30.8535980
  10.1866266  99.7605632  31.0526868   9.7752397 100.7027672  29.9414295
  12.9341545  98.3743896  33.9902700  12.9563242  98.4383230  33.0354679
  13.3509604  97.5348405  34.1843206  23.3125169 108.1099156  32.0281922
  23.7556315 107.3606481  31.6301046  22.4351680 108.1009292  31.6455654
   9.5491434 102.2020983  45.0625913   9.5979590 103.0783106  44.6803682
  10.0913948 101.6598376  44.4897556  20.1544155 109.5954573  41.6559778
  20.2042160 109.4304580  42.5975301  20.0458078 108.7281832  41.2657659
  17.4447917 105.5785501  42.9719085  18.3457780 105.4391966  42.6803083
  17.5195892 105.7439956  43.9117262  11.7790723 102.9552356  41.8172271
  10.9094032 103.2485922  41.5454860  12.0150203 103.5392801  42.5379535
  22.8558034 109.5804394  34.4204370  23.6904925 110.0194198  34.5841930
  22.9917163 109.1043047  33.6012616  19.9049540 107.1384129  40.3681858
  20.3803662 107.3311775  39.5600709  18.9815105 107.1943315  40.1225241
  14.4829756  99.1731973  39.3337692  15.0011700  99.9093000  39.0084180
  14.1284889  99.4795966  40.1684451  14.7342351  95.5932255  34.8538588
  15.0144104  94.9255444  35.4799015  15.5192958  95.7861351  34.3413252
  18.6051209 104.0149889  38.6010163  19.5568632 104.1147987  38.6222387
  18.4354659 103.2228158  39.1108248  16.6265588 101.1005472  38.7869564
  16.0315521 101.3810485  38.0916053  16.3415285 101.5899373  39.5586305
  21.0839287 107.2356009  37.7152463  21.0515607 106.2972010  37.9012147
  21.6939910 107.3140046  36.9818288  21.2333775 104.0267052  37.7610746
  20.7172824 103.2425509  37.5740675  22.1173724 103.6985769  37.9257266
  18.8944502  97.7708068  33.7206559  18.6969323  97.4623156  34.6049891
  19.5044208  98.4969707  33.8504489  26.9015837 108.2972016  36.8558500
  27.6319225 108.0357304  37.4166203  26.2922782 107.5600738  36.8960568
  24.9831134 106.4379878  37.4532951  24.2564297 106.3035843  36.8449443
  24.5678421 106.7456707  38.2589669  12.7227601  98.5738928  29.8478794
  11.9128329  98.2286013  30.2234040  13.4112017  98.2646472  30.4366405
  14.6518149  97.6516975  31.4703090  15.2049187  98.0712428  32.1293113
  14.8888235  96.7252723  31.5126046  10.6751248 103.6404048  47.2505854
  10.5747975 104.5898405  47.1817945  10.4572790 103.3122287  46.3781924
  18.0296956  99.7617500  30.9781754  17.4495625 100.4202304  30.5959807
  17.7632889  98.9394845  30.5669172  16.4800522  99.1622558  33.1803075
  16.9800301  99.2739092  32.3717394  17.1236130  98.8583610  33.8203883
  10.5382518 107.0701187  46.0670916  10.0549600 107.8701547  46.2734805
  10.6243457 107.0809132  45.1138360  16.8121834 101.9217590  30.0338103
  15.9247689 102.2067241  29.8158297  17.2275823 101.7611354  29.1865380
  20.1636370 101.9464111  33.7492442  20.9396760 102.4360564  34.0217059
  19.4384504 102.3722165  34.2064311  22.6008929 102.6591731  34.8066383
  23.1953419 102.4187466  34.0959691  22.6735512 101.9398861  35.4339919
  16.7862858 107.4372126  30.2488393  16.7298059 107.8940678  29.4096025
  17.3391200 106.6762811  30.0711236  20.5967664 103.2261858  31.0738512
  20.3404598 102.8258494  31.9046720  19.9720532 103.9405652  30.9488652
  24.9080001 105.9657931  33.5809804  24.3479559 106.0351121  34.3541366
  24.3023505 105.7898916  32.8609300  17.5197637 108.6276908  27.5440922
  17.4646441 108.4621179  26.6029366  16.8943692 109.3352940  27.7003112
   2.3090152 103.8644972  41.3702344   2.9549016 103.3543926  41.8589569
   2.1007303 104.6013654  41.9445770  10.8293762  98.1285017  27.1226240
  10.8172432  99.0726856  27.2794511  11.7217184  97.9455162  26.8285702
  14.6445882  94.7227793  31.3772177  13.8778278  94.1686280  31.5228860
  15.0556587  94.7949662  32.2386329   6.6487643 101.0112589  45.4677359
   7.5119105 100.6549394  45.6780683   6.0753054 100.6726484  46.1552763
  26.0694268 111.8632288  38.3291868  25.7258537 112.7533929  38.2530979
  26.4373230 111.6733945  37.4661453  27.8681933 111.1225847  33.4309606
  28.1740810 110.2623210  33.1435521  28.5934538 111.7143467  33.2308600
  28.1383551 113.5520082  35.9293527  27.2246631 113.7824309  36.0975734
  28.5676653 113.6358526  36.7807559  25.5736105 110.9224173  34.8538588
  25.8537859 110.2547362  35.4799015  26.3586712 111.1153269  34.3413252
  29.7338257 113.0999986  33.7206559  29.5363078 112.7915074  34.6049891
  30.3437962 113.8261624  33.8504489  25.4911903 112.9808892  31.4703090
  26.0442942 113.4004346  32.1293113  25.7281990 112.0544641  31.5126046
  25.4839636 110.0519711  31.3772177  24.7172032 109.4978198  31.5228860
  25.8950341 110.1241580  32.2386329   4.8121914  54.4874693  20.8483562
   4.0585622  53.9182091  20.6927567   4.9469455  54.4537358  21.7954197
   1.6337662  54.4577443  18.7527229   2.0768808  53.7084768  18.3546352
   0.7564172  54.4487580  18.3700961   1.1770526  55.9282682  21.1449677
   2.0117418  56.3672486  21.3087237   1.3129655  55.4521335  20.3257922
   5.2228329  54.6450303  23.5803806   5.9531717  54.3835591  24.1411510
   4.6135274  53.9079025  23.6205874   3.3043626  52.7858166  24.1778258
   2.5776790  52.6514131  23.5694749   2.8890913  53.0934994  24.9834976
   0.9221421  49.0070018  21.5311689   1.5165912  48.7665754  20.8204997
   0.9948005  48.2877148  22.1585226   3.2292494  52.3136219  20.3055110
   2.6692052  52.3829408  21.0786672   2.6235997  52.1377203  19.5854607
   4.8148512  68.9892733  22.9985066   5.4526922  68.8699480  22.2948406
   4.6969355  69.9373577  23.0573018   1.6238218  68.9420161  22.9346591
   1.2856730  68.8261225  22.0467126   2.4927987  68.5411326  22.9147597
   2.1058001  70.0955012  28.8932796   2.0946642  69.7007811  28.0213300
   2.2678641  69.3621085  29.4866568   4.3689781  66.7144186  20.0738274
   5.1552870  66.2963610  19.7228691   4.6328485  67.6190279  20.2419923
   9.7698208  66.6519420  20.9771253  10.5023380  66.0818636  21.2109082
   9.0137563  66.2641020  21.4177758   1.3874327  69.0746661  18.1734595
   1.0232535  68.5477282  18.8847517   2.2441443  68.6845130  18.0001081
   7.2923628  60.3640994  25.4365861   6.9606953  61.2336405  25.2127076
   6.6969242  60.0477278  26.1159892   3.7855148  72.5653540  24.8361774
   3.4855871  73.4678579  24.7277581   3.4406207  72.2985723  25.6882927
   7.1852291  65.0836080  22.5159211   6.2769169  65.0151488  22.2217972
   7.1339887  65.5608025  23.3441037   1.2593157  66.5025725  30.4594109
   0.4826491  67.0619646  30.4496973   1.8983720  66.9882508  30.9808979
   9.0513938  63.2852518  24.2937085   8.4088318  63.5785051  23.6476880
   8.5468866  63.1705439  25.0990282   6.7054102  67.0315691  14.9822945
   7.6171958  67.2643078  14.8070642   6.1963749  67.6152736  14.4198023
   4.9894869  71.4540319  28.6184237   5.3978225  71.0122730  27.8738869
   4.2672131  70.8792947  28.8718430   1.3425939  66.3912926  25.9917794
   2.1887134  66.8152340  26.1352443   1.2824577  65.7346550  26.6856357
   5.3123684  72.0141510  22.3736526   4.6832546  72.1787224  21.6712594
   4.9249346  72.4283119  23.1447490   9.1912916  72.9495948  19.7280890
   8.5063954  73.3294849  19.1777923   9.2756765  73.5591274  20.4612838
   4.4925385  64.0517294  27.6498968   4.2486316  64.8059355  27.1133243
   4.7685315  64.4302642  28.4846215   6.4463847  70.5955907  26.3276233
   6.6580743  71.2387667  25.6510614   6.3993596  69.7618223  25.8598163
   4.0490076  63.2073727  23.2312805   3.1874555  63.5054981  23.5229543
   4.0752511  63.4244126  22.2993838   0.8651646  71.7515918  19.6386611
   1.3289991  72.0303621  18.8491234   0.6008444  70.8499363  19.4559702
   7.5609675  73.4727862  24.4998591   8.3827119  73.0708049  24.2181272
   7.5572078  73.3696096  25.4514706   1.3266279  73.0211906  26.6559301
   1.3910711  73.4832313  27.4917473   0.6177203  72.3909270  26.7841611
  15.6515668  69.8166611  20.8483562  14.8979377  69.2474009  20.6927567
  15.7863210  69.7829275  21.7954197   2.6682773  75.3103580  30.6538624
   2.2246627  74.5239958  30.3359528   3.3299986  75.4982730  29.9882514
   4.7664011  75.5906379  28.6820025   4.7482486  76.4115260  28.1900294
   5.6883931  75.4660455  28.9070166   1.2237065  73.1050509  29.5243533
   1.7565402  72.3438797  29.2942841   0.6951146  72.8124161  30.2667688
   4.3906760  58.2110575  25.0537175   4.0471029  59.1012217  24.9776286
   4.7585723  58.0212233  24.1906760   4.3557043  68.2019186  13.5609610
   3.8403666  68.9723791  13.7997997   4.0834351  67.5284322  14.1842671
   1.9404154  63.0468887  18.6194848   1.0845750  62.6575737  18.4400487
   2.3531105  63.1260848  17.7594634   3.4703300  60.5815230  23.0186408
   2.9668096  60.5445365  22.2054213   3.7633907  61.4907973  23.0783065
   9.3291317  70.9551541  15.4962784   8.5520760  70.6162700  15.0517946
  10.0082798  70.9604164  14.8217749   4.1443346  66.0746278  15.3869391
   3.8393481  66.3892427  16.2379534   5.0973788  66.1527698  15.4296724
   7.5682624  70.4285522  22.1529392   6.9106298  71.1184783  22.2409520
   8.3723023  70.8181954  22.4963378   6.3788083  68.7829895  20.2033333
   6.8919964  69.4159886  20.7055043   7.0289306  68.1831090  19.8376693
   2.8568913  66.2579350  22.4491674   1.9391475  66.4794297  22.2913362
   3.2729057  66.3325661  21.5903381   3.6403961  67.6570766  17.5794354
   4.3875780  68.1692163  17.2701476   3.9095551  67.3354819  18.4398748
   7.1449879  73.7635896  18.3312476   6.6912206  72.9226806  18.3877666
   6.5143845  74.3997294  18.6687256   6.0882798  64.6927882  19.5613143
   5.3505555  64.1805268  19.8923386   6.3409572  64.2528264  18.7496420
   5.5882818  75.6012393  19.2662294   5.8805792  76.1617450  18.5474660
   6.0981439  75.8940954  20.0215453   6.1894426  57.4704134  20.1554913
   6.4953302  56.6101497  19.8680828   6.9147030  58.0621754  19.9553907
   3.9982077  66.8476811  27.2536376   4.3531465  67.0748284  28.1130842
   4.6454208  67.1795188  26.6313632   9.7279814  69.9695247  17.9585705
   9.5897712  70.1596843  17.0306895   9.3716033  70.7314630  18.4153757
   9.7549193  72.0371774  22.9696977  10.1885700  71.9447063  23.8180031
  10.4680774  72.0129275  22.3316993   3.4877088  75.6373868  24.5030078
   3.5414111  76.2064805  25.2707793   2.6191870  75.8075753  24.1384115
  10.6164743  72.0795475  25.5029862  10.8100633  72.9841285  25.7489137
  10.5165361  71.6202894  26.3368447   2.2701054  61.9653365  28.0020190
   1.6228969  62.6643315  27.9084666   3.0402069  62.3989509  28.3696438
   5.6779852  72.2302218  31.0770743   5.5265358  72.0012769  30.1600827
   5.6684531  73.1872819  31.0902088   2.4465188  69.8034130  26.0617009
   3.3757248  69.9545290  25.8885977   2.0256218  69.8918151  25.2065656
   2.7958735  73.2066398  21.2204385   2.4608568  73.1667167  22.1162035
   2.2962681  72.5411113  20.7474795   7.3872058  75.2621340  29.1547225
   7.3284605  74.5780560  28.4877808   7.7891577  76.0040330  28.7027851
   7.3889466  73.2260924  27.3861205   6.5016244  72.8886846  27.5087603
   7.9588017  72.4943955  27.6229970   4.0177049  62.9328776  20.5059475
   4.5145748  62.1798738  20.1860545   3.2464030  62.9693093  19.9402684
  11.8706806  68.6369142  22.1477766  11.8596682  69.5193857  21.7771699
  11.0024186  68.2840692  21.9532303   3.3789303  77.7849211  26.5080606
   4.0917275  78.4196675  26.4356508   2.8879331  77.8813077  25.6920608
   5.1006829  71.6900463  18.0797898   4.1663108  71.8101926  17.9102602
   5.2783498  70.7872930  17.8157908   8.4879381  67.5317782  18.6147932
   8.9539833  68.3645774  18.5408235   8.9386881  67.0662764  19.3193191
   6.5555612  73.8761604  15.6134084   6.8315456  73.7618198  16.5227958
   5.6860111  73.4779089  15.5746257   6.4596044  59.8998369  22.6538834
   5.5459123  60.1302596  22.8221040   6.8889145  59.9836814  23.5052866
   6.2302502  68.0888261  25.1538728   5.5773952  68.3364169  24.4991180
   6.6082882  67.2752400  24.8201205   3.1909676  78.1247955  19.2566898
   3.3732070  77.3069611  19.7194650   4.0142662  78.3415647  18.8191788
   2.2790075  68.8308072  31.6404765   1.6030712  68.7302202  32.3107140
   3.1017709  68.6747286  32.1040762   1.0212858  80.1375000  25.8762381
   1.5731166  80.3006621  26.6411466   1.3619051  80.7279438  25.2042405
   5.8723732  74.9636257  31.7311035   6.4163636  75.5766216  31.2365990
   5.2910577  75.5215836  32.2478048   4.1581245  78.0856975  22.8626063
   4.0332385  77.2846715  22.3537008   4.8160336  78.5803169  22.3740033
   6.2216154  75.8865996  24.4905613   5.2746489  75.7671347  24.4183940
   6.5698927  74.9988494  24.5731874   3.2262587  75.6818712  20.6909965
   3.0787549  74.7535419  20.8717535   4.0516080  75.7038802  20.2067040
   6.8296709  76.5047270  21.7774838   7.7543256  76.2990132  21.6399289
   6.6612012  76.2563672  22.6864179   3.2224101  63.5356549  15.6842082
   3.4387716  64.4181187  15.3830911   2.7418168  63.1442763  14.9547724
   1.6745836  63.9182151  24.3546844   1.4163614  64.8399221  24.3531174
   1.1430877  63.5212585  25.0447308   6.6192025  77.0232938  17.1336929
   6.7928903  76.4579360  16.3810782   7.1120916  77.8233833  16.9516419
   2.0947792  60.0514101  20.7148006   2.1169489  60.1153434  19.7599986
   2.5115851  59.2118610  20.9088513  12.4731416  69.7869361  18.7527229
  12.9162562  69.0376686  18.3546352  11.5957926  69.7779497  18.3700961
   9.5058621  73.7899408  15.7621158  10.0309945  74.1286681  15.0370478
   9.4180973  72.8546423  15.5784293   1.1678669  77.7033482  27.8911035
   1.4765796  77.4582628  28.7633735   1.9654151  77.9080120  27.4029905
   9.1952527  74.4232312  31.0672356   8.4048070  74.4056450  30.5276856
   8.9585881  74.9620605  31.8221393   9.3150402  71.2724778  28.3805085
   9.3648407  71.1074785  29.3220608   9.2064325  70.4052037  27.9902966
   6.6054164  67.2555706  29.6964392   7.5064027  67.1162171  29.4048389
   6.6802139  67.4210161  30.6362569  10.8168599  73.6921719  28.6247106
  10.5253407  74.0551700  29.4610567  10.2040730  72.9788728  28.4460438
  12.0164281  71.2574599  21.1449677  12.8511172  71.6964403  21.3087237
  12.1523410  70.7813252  20.3257922   9.0655787  68.8154334  27.0927164
   9.5409908  69.0081980  26.2846016   8.1421352  68.8713520  26.8470548
   3.6436003  60.8502178  26.0582998   4.1617947  61.5863205  25.7329487
   3.2891136  61.1566171  26.8929757   3.8948597  57.2702460  21.5783895
   4.1750351  56.6025649  22.2044321   4.6799204  57.4631556  21.0658559
   7.7657456  65.6920094  25.3255470   8.7174879  65.7918192  25.3467694
   7.5960906  64.8998363  25.8353554   5.7871835  62.7775677  25.5114871
   5.1921767  63.0580690  24.8161360   5.5021532  63.2669578  26.2831612
  10.2445534  68.9126214  24.4397770  10.2121854  67.9742215  24.6257453
  10.8546157  68.9910251  23.7063595  10.3940022  65.7037257  24.4856053
   9.8779071  64.9195714  24.2985982  11.2779971  65.3755974  24.6502572
   8.0550749  59.4478273  20.4451866   7.8575570  59.1393361  21.3295197
   8.6650455  60.1739912  20.5749795  16.0622083  69.9742221  23.5803806
  16.7925472  69.7127509  24.1411510  15.4529029  69.2370943  23.6205874
  14.1437381  68.1150083  24.1778258  13.4170544  67.9806048  23.5694749
  13.7284667  68.4226912  24.9834976   1.9667557  71.8340013  31.9425631
   2.8870566  72.0118612  32.1365677   1.9317140  70.8896058  31.7905330
   1.8833847  60.2509133  16.5724100   1.0734576  59.9056218  16.9479346
   2.5718264  59.9416677  17.1611712   3.8124396  59.3287180  18.1948397
   4.3655434  59.7482633  18.8538420   4.0494482  58.4022928  18.2371353
   7.1903203  61.4387705  17.7027061   6.6101872  62.0972509  17.3205114
   6.9239135  60.6165049  17.2914479   5.6406769  60.8392763  19.9048381
   6.1406547  60.9509297  19.0962700   6.2842377  60.5353815  20.5449190
   5.9728081  63.5987795  16.7583409   5.0853936  63.8837446  16.5403604
   6.3882070  63.4381559  15.9110686   9.3242617  63.6234316  20.4737749
  10.1003007  64.1130769  20.7462365   8.5990751  64.0492370  20.9309618
  11.7615175  64.3361935  21.5311689  12.3559666  64.0957671  20.8204997
  11.8341759  63.6169066  22.1585226   5.9469104  69.1142331  16.9733700
   5.8904306  69.5710883  16.1341332   6.4997447  68.3533016  16.7956542
   9.7573910  64.9032063  17.7983819   9.5010845  64.5028699  18.6292027
   9.1326778  65.6175857  17.6733958  14.0686248  67.6428136  20.3055110
  13.5085806  67.7121326  21.0786672  13.4629752  67.4669121  19.5854607
   6.6803884  70.3047112  14.2686229   6.6252688  70.1391384  13.3274673
   6.0549939  71.0123145  14.4248418   3.9949791  72.6096024  33.5939791
   4.8640951  72.7836677  33.2326426   3.5156542  73.4290441  33.4715521
   3.8052129  56.3997998  18.1017484   3.0384524  55.8456485  18.2474166
   4.2162834  56.4719867  18.9631636  15.6542267  84.3184650  22.9985066
  16.2920677  84.1991398  22.2948406  15.5363110  85.2665494  23.0573018
  12.4631973  84.2712078  22.9346591  12.1250484  84.1553143  22.0467126
  13.3321741  83.8703243  22.9147597  12.9451756  85.4246930  28.8932796
  12.9340397  85.0299728  28.0213300  13.1072395  84.6913003  29.4866568
   9.6659017  88.2084042  27.8411980   9.3748883  89.1129673  27.7258647
  10.3016001  88.2500569  28.5556050  10.5915224  85.5860890  24.4313340
  11.1878796  85.3616913  23.7170303  10.6490195  84.8445636  25.0338788
  15.2083535  82.0436104  20.0738274  15.9946624  81.6255527  19.7228691
  15.4722239  82.9482196  20.2419923  20.6091962  81.9811337  20.9771253
  21.3417134  81.4110554  21.2109082  19.8531318  81.5932938  21.4177758
  12.2268082  84.4038579  18.1734595  11.8626289  83.8769200  18.8847517
  13.0835198  84.0137048  18.0001081  18.1317383  75.6932911  25.4365861
  17.8000707  76.5628322  25.2127076  17.5362996  75.3769195  26.1159892
  14.6248902  87.8945457  24.8361774  14.3249625  88.7970496  24.7277581
  14.2799962  87.6277641  25.6882927   8.0761384  84.3459254  20.8698478
   7.1511880  84.2135468  21.0776170   8.3245797  85.1253473  21.3668421
  18.0246046  80.4127998  22.5159211  17.1162923  80.3443406  22.2217972
  17.9733642  80.8899942  23.3441037  12.0986912  81.8317643  30.4594109
  11.3220246  82.3911563  30.4496973  12.7377475  82.3174426  30.9808979
  19.8907692  78.6144436  24.2937085  19.2482073  78.9076969  23.6476880
  19.3862621  78.4997356  25.0990282  17.5447856  82.3607609  14.9822945
  18.4565712  82.5934996  14.8070642  17.0357503  82.9444653  14.4198023
  10.3533284  84.6403097  30.0212076  11.0947968  85.1788140  29.7446899
   9.6470269  85.2669385  30.1783627  15.8288624  86.7832237  28.6184237
  16.2371980  86.3414647  27.8738869  15.1065885  86.2084864  28.8718430
  12.1819694  81.7204844  25.9917794  13.0280889  82.1444257  26.1352443
  12.1218331  81.0638468  26.6856357  16.1517438  87.3433428  22.3736526
  15.5226301  87.5079142  21.6712594  15.7643100  87.7575037  23.1447490
  20.0306670  88.2787865  19.7280890  19.3457708  88.6586767  19.1777923
  20.1150520  88.8883192  20.4612838  15.3319139  79.3809212  27.6498968
  15.0880071  80.1351273  27.1133243  15.6079070  79.7594560  28.4846215
  17.2857602  85.9247824  26.3276233  17.4974497  86.5679584  25.6510614
  17.2387350  85.0910141  25.8598163  14.8883831  78.5365645  23.2312805
  14.0268310  78.8346899  23.5229543  14.9146265  78.7536044  22.2993838
  11.7045400  87.0807836  19.6386611  12.1683746  87.3595539  18.8491234
  11.4402198  86.1791280  19.4559702   8.5969481  86.6279317  22.5766374
   9.1670838  87.0566586  21.9383859   9.1877593  86.3461902  23.2750560
  10.6414286  83.2030988  16.4476176  11.3438330  83.6552032  16.9150103
  10.3094915  82.5614807  17.0756069   9.0894648  81.7942745  30.8227386
   8.4593308  82.4759026  31.0562782   8.9830736  81.6825826  29.8780524
   4.3839620  81.4614541  21.7493310   3.5938674  81.7172069  21.2733420
   4.8750868  82.2762879  21.8545350  18.4003430  88.8019780  24.4998591
  19.2220873  88.3999967  24.2181272  18.3965833  88.6988014  25.4514706
  12.1660033  88.3503823  26.6559301  12.2304466  88.8124230  27.4917473
  11.4570957  87.7201188  26.7841611   2.6677323  81.7145031  24.1808301
   2.9185362  82.5992041  24.4465877   3.2036872  81.5349633  23.4083392
  26.4909423  85.1458528  20.8483562  25.7373131  84.5765926  20.6927567
  26.6256964  85.1121193  21.7954197   8.3675390  76.0963511  33.1852637
   7.9742336  75.5429709  33.8600281   9.1841531  76.4074089  33.5759154
  11.2843351  77.5121390  30.7772893  12.0253065  78.1128543  30.6977356
  11.5161274  76.7699027  30.2190936   6.4284689  82.6977757  29.0551123
   6.3138205  81.7963014  29.3558222   5.5729207  82.9441454  28.7035939
  13.5076527  90.6395497  30.6538624  13.0640381  89.8531876  30.3359528
  14.1693741  90.8274648  29.9882514   8.2663648  92.1691299  25.1799302
   8.8171074  92.0408362  24.4076296   7.4275124  92.4686188  24.8294195
  15.6057765  90.9198297  28.6820025  15.5876241  91.7407178  28.1900294
  16.5277685  90.7952372  28.9070166  12.0630819  88.4342427  29.5243533
  12.5959156  87.6730715  29.2942841  11.5344901  88.1416078  30.2667688
  15.2300514  73.5402493  25.0537175  14.8864784  74.4304134  24.9776286
  15.5979477  73.3504150  24.1906760  15.1950797  83.5311104  13.5609610
  14.6797421  84.3015708  13.7997997  14.9228106  82.8576240  14.1842671
  12.7797908  78.3760804  18.6194848  11.9239505  77.9867655  18.4400487
  13.1924860  78.4552765  17.7594634  14.3097055  75.9107148  23.0186408
  13.8061850  75.8737283  22.2054213  14.6027662  76.8199890  23.0783065
  10.5539941  75.9945877  22.0252590  11.4192937  75.7988686  21.6658479
  10.6217450  75.7656229  22.9521947  20.1685071  86.2843458  15.4962784
  19.3914514  85.9454618  15.0517946  20.8476552  86.2896081  14.8217749
  14.9837100  81.4038196  15.3869391  14.6787236  81.7184345  16.2379534
  15.9367542  81.4819616  15.4296724  18.4076378  85.7577440  22.1529392
  17.7500053  86.4476701  22.2409520  19.2116777  86.1473872  22.4963378
   8.1602260  78.2248085  19.3968957   8.7346012  78.0023267  18.6642150
   8.7473242  78.2936780  20.1497558  17.2181837  84.1121812  20.2033333
  17.7313719  84.7451804  20.7055043  17.8683061  83.5123008  19.8376693
  10.4624927  75.0989334  18.1244026   9.8089340  74.7838351  17.5000641
  10.4205402  74.4765075  18.8503849  13.6962668  81.5871268  22.4491674
  12.7785229  81.8086215  22.2913362  14.1122811  81.6617578  21.5903381
  14.4797716  82.9862683  17.5794354  15.2269535  83.4984081  17.2701476
  14.7489305  82.6646736  18.4398748  17.9843633  89.0927814  18.3312476
  17.5305960  88.2518724  18.3877666  17.3537600  89.7289212  18.6687256
  16.9276553  80.0219800  19.5613143  16.1899310  79.5097186  19.8923386
  17.1803326  79.5820181  18.7496420  16.4276572  90.9304310  19.2662294
  16.7199547  91.4909368  18.5474660  16.9375193  91.2232871  20.0215453
  17.0288180  72.7996052  20.1554913  17.3347057  71.9393415  19.8680828
  17.7540785  73.3913672  19.9553907  11.3009260  83.0949845  20.6631104
  11.3557870  82.1423681  20.5873580  10.4900462  83.2509284  21.1472402
   9.2401620  81.7126905  18.4221483   8.4269485  82.0121075  18.8286675
   9.7360614  81.3182593  19.1395965  14.8375831  82.1768729  27.2536376
  15.1925219  82.4040202  28.1130842  15.4847963  82.5087106  26.6313632
  20.5673568  85.2987165  17.9585705  20.4291467  85.4888761  17.0306895
  20.2109787  86.0606548  18.4153757   8.7315695  79.2845260  24.0382718
   9.3715074  79.1434019  23.3405681   7.8993225  78.9979773  23.6621319
  20.5942948  87.3663692  22.9696977  21.0279455  87.2738981  23.8180031
  21.3074529  87.3421192  22.3316993  14.3270843  90.9665786  24.5030078
  14.3807865  91.5356722  25.2707793  13.4585624  91.1367671  24.1384115
   5.7344311  79.2545585  18.8155704   5.9951128  80.1690918  18.7064865
   6.5561483  78.7870028  18.9652317   7.2069236  80.6683342  25.9854529
   7.8792290  80.4600704  25.3367178   6.3799023  80.4705428  25.5459761
  21.4558498  87.4087393  25.5029862  21.6494388  88.3133203  25.7489137
  21.3559116  86.9494812  26.3368447  13.1094808  77.2945283  28.0020190
  12.4622723  77.9935233  27.9084666  13.8795824  77.7281427  28.3696438
  16.5173606  87.5594135  31.0770743  16.3659113  87.3304687  30.1600827
  16.5078286  88.5164737  31.0902088  13.2858943  85.1326048  26.0617009
  14.2151003  85.2837208  25.8885977  12.8649973  85.2210069  25.2065656
  12.0847274  89.1576712  23.8315547  11.9458360  88.7895497  24.7041485
  11.2961871  89.6724352  23.6599505  13.6352490  88.5358315  21.2204385
  13.3002322  88.4959085  22.1162035  13.1356435  87.8703031  20.7474795
   7.6096734  83.9425945  26.7456966   7.4716531  83.2106184  27.3468505
   8.5201657  83.8534845  26.4641154  10.2379034  83.6545905  26.2340646
  10.9478653  83.0139097  26.1927264  10.1948342  83.9058799  27.1566826
  18.2265813  90.5913258  29.1547225  18.1678359  89.9072478  28.4877808
  18.6285331  91.3332248  28.7027851   8.9507968  80.6411122  28.0536285
   8.4145325  80.1901861  28.7057881   8.3624677  80.7757031  27.3106749
  18.2283220  88.5552842  27.3861205  17.3409999  88.2178764  27.5087603
  18.7981771  87.8235873  27.6229970   4.6847089  79.7767130  25.1389280
   4.6005278  79.1692800  24.4039690   3.8629796  80.2676148  25.1398776
  11.7584374  93.2154294  24.3522448  11.6854545  94.0209266  24.8641752
  11.3161767  93.4146260  23.5270469  14.8570803  78.2620694  20.5059475
  15.3539503  77.5090656  20.1860545  14.0857785  78.2985010  19.9402684
  22.7100561  83.9661059  22.1477766  22.6990437  84.8485775  21.7771699
  21.8417940  83.6132610  21.9532303  14.2183057  93.1141128  26.5080606
  14.9311029  93.7488593  26.4356508  13.7273086  93.2104994  25.6920608
  15.9400584  87.0192381  18.0797898  15.0056863  87.1393843  17.9102602
  16.1177252  86.1164848  17.8157908  11.4405772  80.4038077  20.2331159
  11.0703560  79.8509117  20.9212065  11.9364864  79.7996210  19.6806159
  19.3273135  82.8609700  18.6147932  19.7933588  83.6937692  18.5408235
  19.7780636  82.3954682  19.3193191   9.2694971  90.8635572  27.3286177
   9.9704430  91.4972055  27.4815571   8.7990086  91.2050303  26.5681816
  17.3949366  89.2053521  15.6134084  17.6709210  89.0910116  16.5227958
  16.5253865  88.8071006  15.5746257  17.2989798  75.2290287  22.6538834
  16.3852878  75.4594514  22.8221040  17.7282900  75.3128731  23.5052866
  17.0696257  83.4180179  25.1538728  16.4167707  83.6656087  24.4991180
  17.4476636  82.6044317  24.8201205  14.0303430  93.4539872  19.2566898
  14.2125825  92.6361528  19.7194650  14.8536416  93.6707565  18.8191788
  13.1183830  84.1599990  31.6404765  12.4424467  84.0594119  32.3107140
  13.9411463  84.0039204  32.1040762  11.8606612  95.4666918  25.8762381
  12.4124920  95.6298539  26.6411466  12.2012806  96.0571355  25.2042405
   6.8371106  77.8142067  26.4784265   6.9012432  78.6756898  26.0661663
   6.7738226  77.2016069  25.7456624   6.3123378  79.8865200  30.1257300
   6.9395417  79.5042277  30.7394824   5.4551297  79.6679402  30.4912992
  16.7117487  90.2928175  31.7311035  17.2557391  90.9058133  31.2365990
  16.1304332  90.8507754  32.2478048  14.9975000  93.4148893  22.8626063
  14.8726139  92.6138633  22.3537008  15.6554091  93.9095087  22.3740033
   6.6183168  79.7697626  22.0403203   5.8969754  80.3833593  21.9010676
   7.4076424  80.3055390  21.9619849  17.0609908  91.2157913  24.4905613
  16.1140244  91.0963264  24.4183940  17.4092681  90.3280411  24.5731874
   9.4209481  77.1052052  28.3143855   9.9443883  77.3514349  29.0770164
   9.2021815  77.9372087  27.8946992  14.0656341  91.0110629  20.6909965
  13.9181304  90.0827337  20.8717535  14.8909835  91.0330720  20.2067040
  17.6690463  91.8339188  21.7774838  18.5937011  91.6282050  21.6399289
  17.5005767  91.5855589  22.6864179  10.6262027  78.0465747  25.9993525
  10.2858847  77.2473560  26.4014205   9.9201033  78.3467458  25.4270359
  11.2778498  75.1315060  24.4520848  12.1004568  74.6575538  24.3299739
  11.5216562  75.9105543  24.9519535   9.9186733  78.1603318  14.7483750
  10.6395095  78.5384571  14.2447467   9.2952037  78.8792195  14.8518728
  14.0617856  78.8648467  15.6842082  14.2781470  79.7473105  15.3830911
  13.5811923  78.4734681  14.9547724   8.8017077  81.8234180  22.2612827
   8.6561658  82.1374483  23.1537108   8.3242281  82.4419081  21.7083726
  10.6613460  78.8136728  22.3093717  10.6475029  77.9177822  21.9726014
  11.3785888  78.8207392  22.9432003  12.5139591  79.2474069  24.3546844
  12.2557369  80.1691139  24.3531174  11.9824631  78.8504503  25.0447308
  17.4585779  92.3524856  17.1336929  17.6322657  91.7871278  16.3810782
  17.9514671  93.1525751  16.9516419   3.2762739  84.3639525  25.2000488
   2.7316207  85.1399333  25.3320762   4.1542089  84.7110329  25.0419610
  10.0650356  77.6951109  17.5781287  10.1866267  76.7667755  17.7772174
   9.7752398  77.7089795  16.6659602  12.9341546  75.3806019  20.7148006
  12.9563243  75.4445352  19.7599986  13.3509605  74.5410528  20.9088513
  23.3125171  85.1161279  18.7527229  23.7556317  84.3668604  18.3546352
  22.4351681  85.1071415  18.3700961   4.0628761  83.4909421  28.0930645
   3.3210497  83.6392056  28.6795275   3.7421505  83.7517687  27.2297394
  20.3452375  89.1191326  15.7621158  20.8703699  89.4578598  15.0370478
  20.2574728  88.1838341  15.5784293  12.0072424  93.0325399  27.8911035
  12.3159550  92.7874546  28.7633735  12.8047906  93.2372038  27.4029905
   9.4766908  90.7301318  22.1938713   8.8546917  90.0672023  21.8940941
  10.1471775  90.7562450  21.5112361   9.5491435  79.2083106  31.7871219
   9.5979591  80.0845229  31.4048989  10.0913950  78.6660499  31.2142862
  20.0346281  89.7524229  31.0672356  19.2441825  89.7348368  30.5276856
  19.7979636  90.2912523  31.8221393  20.1544156  86.6016696  28.3805085
  20.2042161  86.4366703  29.3220608  20.0458080  85.7343955  27.9902966
  17.4447919  82.5847624  29.6964392  18.3457781  82.4454088  29.4048389
  17.5195893  82.7502078  30.6362569  11.7790724  79.9614478  28.5417578
  10.9094033  80.2548044  28.2700166  12.0150204  80.5454923  29.2624842
  21.6562353  89.0213637  28.6247106  21.3647161  89.3843618  29.4610567
  21.0434484  88.3080645  28.4460438  22.8558035  86.5866517  21.1449677
  23.6904927  87.0256321  21.3087237  22.9917164  86.1105170  20.3257922
  19.9049541  84.1446252  27.0927164  20.3803663  84.3373898  26.2846016
  18.9815107  84.2005438  26.8470548  14.4829758  76.1794095  26.0582998
  15.0011702  76.9155122  25.7329487  14.1284891  76.4858089  26.8929757
  14.7342352  72.5994378  21.5783895  15.0144106  71.9317567  22.2044321
  15.5192959  72.7923473  21.0658559  18.6051210  81.0212012  25.3255470
  19.5568633  81.1210109  25.3467694  18.4354661  80.2290280  25.8353554
  16.6265590  78.1067595  25.5114871  16.0315522  78.3872608  24.8161360
  16.3415286  78.5961496  26.2831612  21.0839288  84.2418132  24.4397770
  21.0515608  83.3034132  24.6257453  21.6939912  84.3202168  23.7063595
  21.2333777  81.0329175  24.4856053  20.7172825  80.2487632  24.2985982
  22.1173725  80.7047892  24.6502572  18.8944503  74.7770191  20.4451866
  18.6969325  74.4685279  21.3295197  19.5044209  75.5031829  20.5749795
  26.9015838  85.3034138  23.5803806  27.6319226  85.0419426  24.1411510
  26.2922783  84.5662860  23.6205874  24.9831135  83.4442001  24.1778258
  24.2564299  83.3097966  23.5694749  24.5678422  83.7518830  24.9834976
  12.8061311  87.1631931  31.9425631  13.7264321  87.3410530  32.1365677
  12.7710894  86.2187976  31.7905330   5.8023384  85.0732965  24.5848412
   6.0209394  86.0050073  24.6036446   6.2149158  84.7140940  25.3703216
  12.7227602  75.5801051  16.5724100  11.9128330  75.2348136  16.9479346
  13.4112019  75.2708594  17.1611712  14.6518150  74.6579097  18.1948397
  15.2049189  75.0774551  18.8538420  14.8888236  73.7314845  18.2371353
  10.6751249  80.6466171  33.9751161  10.5747976  81.5960528  33.9063252
  10.4572791  80.3184410  33.1027231  18.0296957  76.7679623  17.7027061
  17.4495626  77.4264427  17.3205114  17.7632890  75.9456967  17.2914479
  16.4800524  76.1684680  19.9048381  16.9800302  76.2801215  19.0962700
  17.1236131  75.8645733  20.5449190  10.5382519  84.0763310  32.7916222
  10.0549601  84.8763670  32.9980111  10.6243458  84.0871255  31.8383666
   6.4655857  87.9667845  24.8284656   7.4199110  87.9351787  24.7614588
   6.2668380  87.5058468  25.6434882   7.0555239  86.5368961  27.3955454
   7.8748128  87.0313039  27.4190291   7.3292047  85.6200929  27.3673021
  16.8121835  78.9279713  16.7583409  15.9247690  79.2129364  16.5403604
  17.2275824  78.7673476  15.9110686  20.1636371  78.9526234  20.4737749
  20.9396761  79.4422686  20.7462365  19.4384505  79.3784288  20.9309618
  22.6008930  79.6653853  21.5311689  23.1953421  79.4249589  20.8204997
  22.6735514  78.9460984  22.1585226  16.7862859  84.4434249  16.9733700
  16.7298060  84.9002800  16.1341332  17.3391201  83.6824933  16.7956542
  20.5967665  80.2323981  17.7983819  20.3404599  79.8320616  18.6292027
  19.9720533  80.9467775  17.6733958  24.9080003  82.9720054  20.3055110
  24.3479561  83.0413243  21.0786672  24.3023506  82.7961039  19.5854607
  17.5197638  85.6339030  14.2686229  17.4646442  85.4683302  13.3274673
  16.8943693  86.3415063  14.4248418   2.3090153  80.8707094  28.0947651
   2.9549017  80.3606048  28.5834876   2.1007304  81.6075776  28.6691076
  14.8343545  87.9387942  33.5939791  15.7034705  88.1128594  33.2326426
  14.3550297  88.7582359  33.4715521  10.8293764  75.1347139  13.8471547
  10.8172434  76.0788979  14.0039818  11.7217186  74.9517285  13.5531008
   9.0029726  95.0585043  25.2729225   9.9056972  95.0908653  25.5895720
   8.7767096  94.1285494  25.2875561  14.6445883  71.7289916  18.1017484
  13.8778279  71.1748402  18.2474166  15.0556588  71.8011785  18.9631636
   6.6487644  78.0174712  32.1922665   7.5119106  77.6611516  32.4025990
   6.0753055  77.6788606  32.8798069  26.4936021  99.6476568  22.9985066
  27.1314431  99.5283315  22.2948406  26.3756864 100.5957412  23.0573018
  23.3025727  99.6003996  22.9346591  22.9644239  99.4845061  22.0467126
  24.1715496  99.1995161  22.9147597  23.7845510 100.7538848  28.8932796
  23.7734151 100.3591646  28.0213300  23.9466150 100.0204920  29.4866568
  20.5052772 103.5375960  27.8411980  20.2142638 104.4421590  27.7258647
  21.1409756 103.5792487  28.5556050  21.4308978 100.9152808  24.4313340
  22.0272551 100.6908830  23.7170303  21.4883950 100.1737554  25.0338788
  26.0477290  97.3728022  20.0738274  26.8340379  96.9547445  19.7228691
  26.3115994  98.2774114  20.2419923  31.4485717  97.3103255  20.9771253
  32.1810889  96.7402472  21.2109082  30.6925072  96.9224855  21.4177758
  23.0661836  99.7330496  18.1734595  22.7020044  99.2061117  18.8847517
  23.9228952  99.3428966  18.0001081  28.9711137  91.0224829  25.4365861
  28.6394462  91.8920240  25.2127076  28.3756750  90.7061113  26.1159892
  25.4642657 103.2237375  24.8361774  25.1643380 104.1262414  24.7277581
  25.1193716 102.9569558  25.6882927  18.9155138  99.6751172  20.8698478
  17.9905635  99.5427386  21.0776170  19.1639551 100.4545391  21.3668421
  28.8639800  95.7419915  22.5159211  27.9556678  95.6735324  22.2217972
  28.8127396  96.2191860  23.3441037  22.9380666  97.1609561  30.4594109
  22.1614000  97.7203481  30.4496973  23.5771229  97.6466344  30.9808979
  30.7301447  93.9436354  24.2937085  30.0875827  94.2368887  23.6476880
  30.2256375  93.8289274  25.0990282  28.3841610  97.6899527  14.9822945
  29.2959467  97.9226914  14.8070642  27.8751258  98.2736571  14.4198023
  21.1927039  99.9695014  30.0212076  21.9341723 100.5080058  29.7446899
  20.4864024 100.5961303  30.1783627  26.6682378 102.1124155  28.6184237
  27.0765734 101.6706565  27.8738869  25.9459640 101.5376782  28.8718430
  23.0213448  97.0496761  25.9917794  23.8674643  97.4736175  26.1352443
  22.9612086  96.3930386  26.6856357  26.9911193 102.6725345  22.3736526
  26.3620055 102.8371059  21.6712594  26.6036855 103.0866955  23.1447490
  30.8700425 103.6079783  19.7280890  30.1851463 103.9878684  19.1777923
  30.9544274 104.2175110  20.4612838  26.1712894  94.7101130  27.6498968
  25.9273825  95.4643190  27.1133243  26.4472824  95.0886477  28.4846215
  28.1251356 101.2539742  26.3276233  28.3368252 101.8971502  25.6510614
  28.0781105 100.4202059  25.8598163  25.7277585  93.8657563  23.2312805
  24.8662064  94.1638816  23.5229543  25.7540020  94.0827962  22.2993838
  22.5439155 102.4099753  19.6386611  23.0077500 102.6887456  18.8491234
  22.2795953 101.5083198  19.4559702  19.4363236 101.9571235  22.5766374
  20.0064593 102.3858503  21.9383859  20.0271348 101.6753820  23.2750560
  21.4808041  98.5322906  16.4476176  22.1832084  98.9843949  16.9150103
  21.1488669  97.8906725  17.0756069  19.9288402  97.1234662  30.8227386
  19.2987063  97.8050943  31.0562782  19.8224490  97.0117744  29.8780524
  15.2233375  96.7906458  21.7493310  14.4332429  97.0463987  21.2733420
  15.7144622  97.6054796  21.8545350  29.2397184 104.1311698  24.4998591
  30.0614628 103.7291885  24.2181272  29.2359587 104.0279932  25.4514706
  23.0053788 103.6795741  26.6559301  23.0698220 104.1416148  27.4917473
  22.2964712 103.0493106  26.7841611  13.5071078  97.0436949  24.1808301
  13.7579116  97.9283959  24.4465877  14.0430626  96.8641550  23.4083392
  37.3303177 100.4750446  20.8483562  36.5766886  99.9057844  20.6927567
  37.4650719 100.4413111  21.7954197  19.2069145  91.4255428  33.1852637
  18.8136091  90.8721627  33.8600281  20.0235285  91.7366007  33.5759154
  22.1237106  92.8413307  30.7772893  22.8646819  93.4420460  30.6977356
  22.3555029  92.0990945  30.2190936  17.2678444  98.0269675  29.0551123
  17.1531959  97.1254932  29.3558222  16.4122962  98.2733371  28.7035939
  24.3470282 105.9687415  30.6538624  23.9034136 105.1823793  30.3359528
  25.0087495 106.1566565  29.9882514  19.1057403 107.4983216  25.1799302
  19.6564828 107.3700280  24.4076296  18.2668879 107.7978105  24.8294195
  26.4451520 106.2490215  28.6820025  26.4269995 107.0699096  28.1900294
  27.3671440 106.1244290  28.9070166  22.9024574 103.7634344  29.5243533
  23.4352911 103.0022632  29.2942841  22.3738655 103.4707996  30.2667688
  26.0694269  88.8694410  25.0537175  25.7258538  89.7596052  24.9776286
  26.4373232  88.6796068  24.1906760  26.0344552  98.8603021  13.5609610
  25.5191175  99.6307626  13.7997997  25.7621860  98.1868158  14.1842671
  23.6191663  93.7052722  18.6194848  22.7633259  93.3159573  18.4400487
  24.0318614  93.7844683  17.7594634  25.1490809  91.2399065  23.0186408
  24.6455605  91.2029201  22.2054213  25.4421416  92.1491808  23.0783065
  21.3933695  91.3237795  22.0252590  22.2586692  91.1280604  21.6658479
  21.4611204  91.0948147  22.9521947  31.0078826 101.6135376  15.4962784
  30.2308269 101.2746535  15.0517946  31.6870307 101.6187999  14.8217749
  25.8230855  96.7330113  15.3869391  25.5180990  97.0476263  16.2379534
  26.7761297  96.8111533  15.4296724  29.2470133 101.0869357  22.1529392
  28.5893807 101.7768619  22.2409520  30.0510532 101.4765789  22.4963378
  18.9996014  93.5540003  19.3968957  19.5739766  93.3315185  18.6642150
  19.5866997  93.6228698  20.1497558  28.0575591  99.4413730  20.2033333
  28.5707473 100.0743722  20.7055043  28.7076815  98.8414925  19.8376693
  21.3018682  90.4281252  18.1244026  20.6483094  90.1130269  17.5000641
  21.2599156  89.8056992  18.8503849  24.5356422  96.9163185  22.4491674
  23.6178984  97.1378132  22.2913362  24.9516566  96.9909496  21.5903381
  25.3191470  98.3154601  17.5794354  26.0663289  98.8275998  17.2701476
  25.5883060  97.9938654  18.4398748  28.8237388 104.4219731  18.3312476
  28.3699715 103.5810641  18.3877666  28.1931354 105.0581130  18.6687256
  27.7670307  95.3511717  19.5613143  27.0293064  94.8389104  19.8923386
  28.0197081  94.9112099  18.7496420  27.2670327 106.2596228  19.2662294
  27.5593301 106.8201285  18.5474660  27.7768948 106.5524789  20.0215453
  27.8681935  88.1287969  20.1554913  28.1740811  87.2685333  19.8680828
  28.5934539  88.7205590  19.9553907  22.1403014  98.4241762  20.6631104
  22.1951624  97.4715599  20.5873580  21.3294216  98.5801202  21.1472402
  20.0795374  97.0418822  18.4221483  19.2663240  97.3412993  18.8286675
  20.5754368  96.6474511  19.1395965  25.6769586  97.5060647  27.2536376
  26.0318974  97.7332120  28.1130842  26.3241717  97.8379023  26.6313632
  31.4067323 100.6279083  17.9585705  31.2685221 100.8180679  17.0306895
  31.0503542 101.3898465  18.4153757  19.5709449  94.6137178  24.0382718
  20.2108828  94.4725937  23.3405681  18.7386980  94.3271691  23.6621319
  31.4336702 102.6955610  22.9696977  31.8673209 102.6030899  23.8180031
  32.1468283 102.6713110  22.3316993  25.1664597 106.2957704  24.5030078
  25.2201620 106.8648640  25.2707793  24.2979379 106.4659589  24.1384115
  16.5738065  94.5837503  18.8155704  16.8344883  95.4982836  18.7064865
  17.3955238  94.1161945  18.9652317  18.0462991  95.9975260  25.9854529
  18.7186044  95.7892622  25.3367178  17.2192777  95.7997346  25.5459761
  32.2952252 102.7379310  25.5029862  32.4888142 103.6425121  25.7489137
  32.1952870 102.2786729  26.3368447  23.9488563  92.6237201  28.0020190
  23.3016478  93.3227150  27.9084666  24.7189578  93.0573345  28.3696438
  27.3567361 102.8886053  31.0770743  27.2052867 102.6596605  30.1600827
  27.3472040 103.8456654  31.0902088  24.1252697 100.4617966  26.0617009
  25.0544757 100.6129125  25.8885977  23.7043727 100.5501987  25.2065656
  22.9241029 104.4868630  23.8315547  22.7852115 104.1187415  24.7041485
  22.1355625 105.0016270  23.6599505  24.4746244 103.8650233  21.2204385
  24.1396077 103.8251003  22.1162035  23.9750190 103.1994949  20.7474795
  18.4490488  99.2717863  26.7456966  18.3110286  98.5398102  27.3468505
  19.3595411  99.1826763  26.4641154  21.0772789  98.9837822  26.2340646
  21.7872407  98.3431014  26.1927264  21.0342097  99.2350717  27.1566826
  29.0659567 105.9205176  29.1547225  29.0072114 105.2364396  28.4877808
  29.4679086 106.6624166  28.7027851  19.7901723  95.9703040  28.0536285
  19.2539080  95.5193779  28.7057881  19.2018431  96.1048949  27.3106749
  29.0676975 103.8844759  27.3861205  28.1803753 103.5470681  27.5087603
  29.6375526 103.1527791  27.6229970  15.5240844  95.1059048  25.1389280
  15.4399033  94.4984717  24.4039690  14.7023550  95.5968066  25.1398776
  22.5978128 108.5446212  24.3522448  22.5248299 109.3501183  24.8641752
  22.1555521 108.7438178  23.5270469  25.6964558  93.5912611  20.5059475
  26.1933257  92.8382574  20.1860545  24.9251539  93.6276928  19.9402684
  33.5494315  99.2952977  22.1477766  33.5384191 100.1777692  21.7771699
  32.6811695  98.9424528  21.9532303  25.0576812 108.4433046  26.5080606
  25.7704784 109.0780511  26.4356508  24.5666840 108.5396912  25.6920608
  26.7794338 102.3484299  18.0797898  25.8450617 102.4685761  17.9102602
  26.9571007 101.4456765  17.8157908  22.2799527  95.7329994  20.2331159
  21.9097314  95.1801035  20.9212065  22.7758619  95.1288128  19.6806159
  30.1666890  98.1901618  18.6147932  30.6327342  99.0229609  18.5408235
  30.6174390  97.7246599  19.3193191  20.1088725 106.1927489  27.3286177
  20.8098185 106.8263972  27.4815571  19.6383840 106.5342221  26.5681816
  28.2343121 104.5345439  15.6134084  28.5102965 104.4202034  16.5227958
  27.3647620 104.1362924  15.5746257  28.1383553  90.5582205  22.6538834
  27.2246632  90.7886432  22.8221040  28.5676654  90.6420649  23.5052866
  27.9090011  98.7472097  25.1538728  27.2561461  98.9948004  24.4991180
  28.2870391  97.9336235  24.8201205  24.8697185 108.7831790  19.2566898
  25.0519579 107.9653446  19.7194650  25.6930171 108.9999482  18.8191788
  23.9577584  99.4891908  31.6404765  23.2818221  99.3886037  32.3107140
  24.7805218  99.3331122  32.1040762  22.7000367 110.7958835  25.8762381
  23.2518675 110.9590457  26.6411466  23.0406560 111.3863273  25.2042405
  17.6764860  93.1433985  26.4784265  17.7406187  94.0048816  26.0661663
  17.6131980  92.5307987  25.7456624  17.1517133  95.2157118  30.1257300
  17.7789172  94.8334195  30.7394824  16.2945052  94.9971320  30.4912992
  27.5511241 105.6220093  31.7311035  28.0951145 106.2350051  31.2365990
  26.9698086 106.1799671  32.2478048  25.8368754 108.7440811  22.8626063
  25.7119894 107.9430551  22.3537008  26.4947845 109.2387004  22.3740033
  17.4576922  95.0989543  22.0403203  16.7363508  95.7125511  21.9010676
  18.2470178  95.6347308  21.9619849  27.9003663 106.5449831  24.4905613
  26.9533998 106.4255182  24.4183940  28.2486436 105.6572329  24.5731874
  20.2603236  92.4343970  28.3143855  20.7837638  92.6806266  29.0770164
  20.0415569  93.2664005  27.8946992  24.9050096 106.3402547  20.6909965
  24.7575058 105.4119255  20.8717535  25.7303589 106.3622638  20.2067040
  28.5084218 107.1631106  21.7774838  29.4330765 106.9573967  21.6399289
  28.3399521 106.9147507  22.6864179  21.4655781  93.3757665  25.9993525
  21.1252601  92.5765478  26.4014205  20.7594787  93.6759376  25.4270359
  22.1172253  90.4606977  24.4520848  22.9398322  89.9867456  24.3299739
  22.3610316  91.2397461  24.9519535  20.7580487  93.4895236  14.7483750
  21.4788850  93.8676489  14.2447467  20.1345791  94.2084113  14.8518728
  24.9011610  94.1940385  15.6842082  25.1175225  95.0765023  15.3830911
  24.4205677  93.8026598  14.9547724  19.6410832  97.1526098  22.2612827
  19.4955412  97.4666401  23.1537108  19.1636035  97.7710998  21.7083726
  21.5007214  94.1428646  22.3093717  21.4868783  93.2469739  21.9726014
  22.2179643  94.1499310  22.9432003  23.3533345  94.5765986  24.3546844
  23.0951123  95.4983057  24.3531174  22.8218386  94.1796421  25.0447308
  28.2979534 107.6816773  17.1336929  28.4716411 107.1163196  16.3810782
  28.7908425 108.4817668  16.9516419  14.1156494  99.6931442  25.2000488
  13.5709962 100.4691250  25.3320762  14.9935844 100.0402247  25.0419610
  20.9044110  93.0243026  17.5781287  21.0260022  92.0959672  17.7772174
  20.6146153  93.0381712  16.6659602  23.7735301  90.7097937  20.7148006
  23.7956998  90.7737270  19.7599986  24.1903360  89.8702445  20.9088513
  34.1518925 100.4453196  18.7527229  34.5950071  99.6960521  18.3546352
  33.2745435 100.4363333  18.3700961  14.9022516  98.8201339  28.0930645
  14.1604252  98.9683974  28.6795275  14.5815260  99.0809604  27.2297394
  31.1846130 104.4483243  15.7621158  31.7097454 104.7870516  15.0370478
  31.0968482 103.5130259  15.5784293  22.8466178 108.3617317  27.8911035
  23.1553305 108.1166464  28.7633735  23.6441660 108.5663955  27.4029905
  20.3160662 106.0593236  22.1938713  19.6940672 105.3963941  21.8940941
  20.9865529 106.0854367  21.5112361  20.3885190  94.5375024  31.7871219
  20.4373345  95.4137146  31.4048989  20.9307704  93.9952417  31.2142862
  30.8740036 105.0816147  31.0672356  30.0835579 105.0640286  30.5276856
  30.6373390 105.6204441  31.8221393  30.9937911 101.9308613  28.3805085
  31.0435916 101.7658621  29.3220608  30.8851834 101.0635872  27.9902966
  28.2841673  97.9139541  29.6964392  29.1851536  97.7746006  29.4048389
  28.3589648  98.0793996  30.6362569  22.6184478  95.2906396  28.5417578
  21.7487788  95.5839962  28.2700166  22.8543959  95.8746841  29.2624842
  32.4956108 104.3505555  28.6247106  32.2040916 104.7135535  29.4610567
  31.8828239 103.6372563  28.4460438  33.6951790 101.9158435  21.1449677
  34.5298681 102.3548239  21.3087237  33.8310919 101.4397088  20.3257922
  30.7443296  99.4738169  27.0927164  31.2197417  99.6665816  26.2846016
  29.8208861  99.5297355  26.8470548  25.3223512  91.5086013  26.0582998
  25.8405456  92.2447040  25.7329487  24.9678645  91.8150006  26.8929757
  25.5736106  87.9286295  21.5783895  25.8537860  87.2609485  22.2044321
  26.3586713  88.1215391  21.0658559  29.4444965  96.3503929  25.3255470
  30.3962388  96.4502027  25.3467694  29.2748415  95.5582198  25.8353554
  27.4659344  93.4359513  25.5114871  26.8709276  93.7164525  24.8161360
  27.1809041  93.9253414  26.2831612  31.9233043  99.5710049  24.4397770
  31.8909363  98.6326050  24.6257453  32.5333666  99.6494086  23.7063595
  32.0727531  96.3621093  24.4856053  31.5566580  95.5779549  24.2985982
  32.9567480  96.0339809  24.6502572  29.7338258  90.1062108  20.4451866
  29.5363079  89.7977196  21.3295197  30.3437964  90.8323747  20.5749795
  37.7409592 100.6326056  23.5803806  38.4712981 100.3711344  24.1411510
  37.1316538  99.8954778  23.6205874  35.8224890  98.7733919  24.1778258
  35.0958053  98.6389884  23.5694749  35.4072176  99.0810747  24.9834976
  23.6455066 102.4923848  31.9425631  24.5658075 102.6702447  32.1365677
  23.6104649 101.5479894  31.7905330  16.6417138 100.4024883  24.5848412
  16.8603148 101.3341991  24.6036446  17.0542912 100.0432857  25.3703216
  23.5621356  90.9092968  16.5724100  22.7522085  90.5640053  16.9479346
  24.2505773  90.6000512  17.1611712  25.4911905  89.9871015  18.1948397
  26.0442943  90.4066468  18.8538420  25.7281991  89.0606763  18.2371353
  21.5145004  95.9758089  33.9751161  21.4141731  96.9252446  33.9063252
  21.2966546  95.6476328  33.1027231  28.8690712  92.0971540  17.7027061
  28.2889381  92.7556344  17.3205114  28.6026644  91.2748885  17.2914479
  27.3194278  91.4976598  19.9048381  27.8194056  91.6093132  19.0962700
  27.9629886  91.1937651  20.5449190  21.3776274  99.4055228  32.7916222
  20.8943356 100.2055588  32.9980111  21.4637213  99.4163172  31.8383666
  17.3049611 103.2959762  24.8284656  18.2592865 103.2643705  24.7614588
  17.1062135 102.8350386  25.6434882  17.8948993 101.8660878  27.3955454
  18.7141882 102.3604957  27.4190291  18.1685801 100.9492846  27.3673021
  27.6515590  94.2571631  16.7583409  26.7641445  94.5421281  16.5403604
  28.0669579  94.0965394  15.9110686  31.0030126  94.2818152  20.4737749
  31.7790516  94.7714604  20.7462365  30.2778260  94.7076206  20.9309618
  33.4402684  94.9945771  21.5311689  34.0347175  94.7541507  20.8204997
  33.5129268  94.2752901  22.1585226  27.6256613  99.7726167  16.9733700
  27.5691815 100.2294718  16.1341332  28.1784956  99.0116851  16.7956542
  31.4361419  95.5615898  17.7983819  31.1798354  95.1612534  18.6292027
  30.8114287  96.2759692  17.6733958  35.7473757  98.3011972  20.3055110
  35.1873315  98.3705161  21.0786672  35.1417261  98.1252956  19.5854607
  28.3591393 100.9630948  14.2686229  28.3040197 100.7975219  13.3274673
  27.7337448 101.6706981  14.4248418  13.1483908  96.1999012  28.0947651
  13.7942771  95.6897966  28.5834876  12.9401059  96.9367694  28.6691076
  25.6737300 103.2679860  33.5939791  26.5428460 103.4420512  33.2326426
  25.1944051 104.0874276  33.4715521  21.6687518  90.4639057  13.8471547
  21.6566188  91.4080897  14.0039818  22.5610940  90.2809202  13.5531008
  19.8423480 110.3876961  25.2729225  20.7450727 110.4200571  25.5895720
  19.6160850 109.4577412  25.2875561  25.4839638  87.0581833  18.1017484
  24.7172033  86.5040320  18.2474166  25.8950343  87.1303702  18.9631636
  17.4881399  93.3466629  32.1922665  18.3512860  92.9903434  32.4025990
  16.9146809  93.0080524  32.8798069  37.3329776 114.9768486  22.9985066
  37.9708186 114.8575233  22.2948406  37.2150619 115.9249330  23.0573018
  34.1419482 114.9295914  22.9346591  33.8037993 114.8136978  22.0467126
  35.0109250 114.5287079  22.9147597  34.6239265 116.0830765  28.8932796
  34.6127906 115.6883564  28.0213300  34.7859904 115.3496838  29.4866568
  36.8871044 112.7019939  20.0738274  37.6734133 112.2839363  19.7228691
  37.1509748 113.6066032  20.2419923  42.2879471 112.6395173  20.9771253
  43.0204643 112.0694389  21.2109082  41.5318827 112.2516773  21.4177758
  33.9055591 115.0622414  18.1734595  33.5413798 114.5353035  18.8847517
  34.7622707 114.6720883  18.0001081  39.8104892 106.3516747  25.4365861
  39.4788216 107.2212158  25.2127076  39.2150505 106.0353031  26.1159892
  39.7033555 111.0711833  22.5159211  38.7950432 111.0027241  22.2217972
  39.6521151 111.5483778  23.3441037  33.7774421 112.4901479  30.4594109
  33.0007755 113.0495399  30.4496973  34.4164984 112.9758261  30.9808979
  41.5695201 109.2728271  24.2937085  40.9269582 109.5660804  23.6476880
  41.0650130 109.1581192  25.0990282  39.2235365 113.0191445  14.9822945
  40.1353221 113.2518831  14.8070642  38.7145012 113.6028489  14.4198023
  37.5076133 117.4416072  28.6184237  37.9159489 116.9998483  27.8738869
  36.7853394 116.8668700  28.8718430  33.8607203 112.3788679  25.9917794
  34.7068398 112.8028093  26.1352443  33.8005840 111.7222303  26.6856357
  37.0106648 110.0393047  27.6498968  36.7667580 110.7935108  27.1133243
  37.2866579 110.4178395  28.4846215  38.9645111 116.5831660  26.3276233
  39.1762006 117.2263420  25.6510614  38.9174859 115.7493976  25.8598163
  36.5671340 109.1949480  23.2312805  35.7055819 109.4930734  23.5229543
  36.5933774 109.4119879  22.2993838  32.3201795 113.8614823  16.4476176
  33.0225839 114.3135867  16.9150103  31.9882424 113.2198642  17.0756069
  30.7682157 112.4526580  30.8227386  30.1380817 113.1342861  31.0562782
  30.6618245 112.3409662  29.8780524  26.0627129 112.1198376  21.7493310
  25.2726183 112.3755905  21.2733420  26.5538377 112.9346714  21.8545350
  48.1696932 115.8042364  20.8483562  47.4160640 115.2349762  20.6927567
  48.3044473 115.7705028  21.7954197  30.0462899 106.7547346  33.1852637
  29.6529845 106.2013544  33.8600281  30.8629040 107.0657924  33.5759154
  32.9630860 108.1705225  30.7772893  33.7040574 108.7712378  30.6977356
  33.1948783 107.4282863  30.2190936  28.1072198 113.3561592  29.0551123
  27.9925714 112.4546849  29.3558222  27.2516716 113.6025289  28.7035939
  36.9088023 104.1986328  25.0537175  36.5652293 105.0887970  24.9776286
  37.2766986 104.0087986  24.1906760  36.8738306 114.1894939  13.5609610
  36.3584930 114.9599544  13.7997997  36.6015615 113.5160075  14.1842671
  34.4585417 109.0344640  18.6194848  33.6027014 108.6451490  18.4400487
  34.8712369 109.1136601  17.7594634  35.9884564 106.5690983  23.0186408
  35.4849359 106.5321118  22.2054213  36.2815171 107.4783726  23.0783065
  32.2327450 106.6529713  22.0252590  33.0980446 106.4572521  21.6658479
  32.3004959 106.4240065  22.9521947  41.8472580 116.9427294  15.4962784
  41.0702023 116.6038453  15.0517946  42.5264061 116.9479917  14.8217749
  36.6624609 112.0622031  15.3869391  36.3574745 112.3768180  16.2379534
  37.6155051 112.1403451  15.4296724  40.0863887 116.4161275  22.1529392
  39.4287562 117.1060536  22.2409520  40.8904286 116.8057707  22.4963378
  29.8389769 108.8831921  19.3968957  30.4133521 108.6607102  18.6642150
  30.4260751 108.9520615  20.1497558  38.8969346 114.7705648  20.2033333
  39.4101228 115.4035639  20.7055043  39.5470570 114.1706843  19.8376693
  32.1412436 105.7573170  18.1244026  31.4876849 105.4422187  17.5000641
  32.0992911 105.1348910  18.8503849  35.3750177 112.2455103  22.4491674
  34.4572738 112.4670050  22.2913362  35.7910320 112.3201414  21.5903381
  36.1585225 113.6446519  17.5794354  36.9057044 114.1567916  17.2701476
  36.4276814 113.3230572  18.4398748  38.6064062 110.6803635  19.5613143
  37.8686819 110.1681021  19.8923386  38.8590835 110.2404017  18.7496420
  38.7075689 103.4579887  20.1554913  39.0134566 102.5977251  19.8680828
  39.4328294 104.0497507  19.9553907  32.9796769 113.7533680  20.6631104
  33.0345379 112.8007517  20.5873580  32.1687971 113.9093119  21.1472402
  30.9189129 112.3710740  18.4221483  30.1056994 112.6704910  18.8286675
  31.4148123 111.9766429  19.1395965  36.5163340 112.8352564  27.2536376
  36.8712728 113.0624038  28.1130842  37.1635472 113.1670941  26.6313632
  42.2461077 115.9571000  17.9585705  42.1078976 116.1472596  17.0306895
  41.8897296 116.7190383  18.4153757  30.4103203 109.9429095  24.0382718
  31.0502583 109.8017855  23.3405681  29.5780734 109.6563609  23.6621319
  42.2730457 118.0247527  22.9696977  42.7066964 117.9322816  23.8180031
  42.9862038 118.0005028  22.3316993  27.4131820 109.9129420  18.8155704
  27.6738637 110.8274754  18.7064865  28.2348992 109.4453863  18.9652317
  28.8856745 111.3267178  25.9854529  29.5579799 111.1184540  25.3367178
  28.0586532 111.1289264  25.5459761  43.1346007 118.0671228  25.5029862
  43.3281897 118.9717038  25.7489137  43.0346625 117.6078647  26.3368447
  34.7882317 107.9529119  28.0020190  34.1410232 108.6519068  27.9084666
  35.5583333 108.3865262  28.3696438  34.9646452 115.7909883  26.0617009
  35.8938512 115.9421043  25.8885977  34.5437482 115.8793904  25.2065656
  29.2884242 114.6009781  26.7456966  29.1504040 113.8690019  27.3468505
  30.1989166 114.5118681  26.4641154  31.9166543 114.3129740  26.2340646
  32.6266162 113.6722932  26.1927264  31.8735851 114.5642635  27.1566826
  30.6295477 111.2994958  28.0536285  30.0932834 110.8485696  28.7057881
  30.0412186 111.4340867  27.3106749  26.3634598 110.4350965  25.1389280
  26.2792787 109.8276635  24.4039690  25.5417305 110.9259984  25.1398776
  36.5358312 108.9204529  20.5059475  37.0327012 108.1674491  20.1860545
  35.7645294 108.9568846  19.9402684  44.3888070 114.6244895  22.1477766
  44.3777946 115.5069610  21.7771699  43.5205449 114.2716445  21.9532303
  33.1193281 111.0621912  20.2331159  32.7491069 110.5092952  20.9212065
  33.6152373 110.4580045  19.6806159  41.0060644 113.5193536  18.6147932
  41.4721096 114.3521527  18.5408235  41.4568145 113.0538517  19.3193191
  38.9777307 105.8874122  22.6538834  38.0640387 106.1178349  22.8221040
  39.4070408 105.9712567  23.5052866  38.7483766 114.0764014  25.1538728
  38.0955216 114.3239922  24.4991180  39.1264145 113.2628153  24.8201205
  34.7971339 114.8183826  31.6404765  34.1211976 114.7177955  32.3107140
  35.6198972 114.6623039  32.1040762  28.5158615 108.4725903  26.4784265
  28.5799941 109.3340734  26.0661663  28.4525735 107.8599904  25.7456624
  27.9910887 110.5449035  30.1257300  28.6182926 110.1626113  30.7394824
  27.1338806 110.3263237  30.4912992  28.2970677 110.4281461  22.0403203
  27.5757263 111.0417429  21.9010676  29.0863933 110.9639226  21.9619849
  31.0996990 107.7635887  28.3143855  31.6231392 108.0098184  29.0770164
  30.8809324 108.5955922  27.8946992  32.3049536 108.7049583  25.9993525
  31.9646356 107.9057396  26.4014205  31.5988542 109.0051293  25.4270359
  32.9566007 105.7898895  24.4520848  33.7792077 105.3159373  24.3299739
  33.2004071 106.5689379  24.9519535  31.5974242 108.8187153  14.7483750
  32.3182604 109.1968406  14.2447467  30.9739546 109.5376030  14.8518728
  35.7405365 109.5232302  15.6842082  35.9568979 110.4056940  15.3830911
  35.2599432 109.1318516  14.9547724  30.4804586 112.4818016  22.2612827
  30.3349167 112.7958319  23.1537108  30.0029790 113.1002916  21.7083726
  32.3400969 109.4720564  22.3093717  32.3262538 108.5761657  21.9726014
  33.0573397 109.4791227  22.9432003  34.1927100 109.9057904  24.3546844
  33.9344878 110.8274975  24.3531174  33.6612140 109.5088338  25.0447308
  31.7437865 108.3534944  17.5781287  31.8653776 107.4251590  17.7772174
  31.4539907 108.3673630  16.6659602  34.6129055 106.0389854  20.7148006
  34.6350752 106.1029187  19.7599986  35.0297114 105.1994363  20.9088513
  44.9912680 115.7745114  18.7527229  45.4343826 115.0252439  18.3546352
  44.1139190 115.7655250  18.3700961  31.2278944 109.8666941  31.7871219
  31.2767100 110.7429064  31.4048989  31.7701459 109.3244334  31.2142862
  41.8331665 117.2600531  28.3805085  41.8829670 117.0950538  29.3220608
  41.7245589 116.3927790  27.9902966  39.1235428 113.2431459  29.6964392
  40.0245290 113.1037924  29.4048389  39.1983402 113.4085914  30.6362569
  33.4578233 110.6198314  28.5417578  32.5881542 110.9131880  28.2700166
  33.6937713 111.2038759  29.2624842  44.5345544 117.2450352  21.1449677
  45.3692436 117.6840156  21.3087237  44.6704673 116.7689005  20.3257922
  41.5837050 114.8030087  27.0927164  42.0591172 114.9957733  26.2846016
  40.6602616 114.8589273  26.8470548  36.1617267 106.8377931  26.0582998
  36.6799211 107.5738958  25.7329487  35.8072399 107.1441924  26.8929757
  36.4129861 103.2578213  21.5783895  36.6931615 102.5901402  22.2044321
  37.1980468 103.4507309  21.0658559  40.2838719 111.6795847  25.3255470
  41.2356142 111.7793945  25.3467694  40.1142170 110.8874116  25.8353554
  38.3053099 108.7651430  25.5114871  37.7103031 109.0456443  24.8161360
  38.0202795 109.2545331  26.2831612  42.7626797 114.9001967  24.4397770
  42.7303117 113.9617968  24.6257453  43.3727421 114.9786004  23.7063595
  42.9121286 111.6913010  24.4856053  42.3960334 110.9071467  24.2985982
  43.7961234 111.3631727  24.6502572  40.5732012 105.4354026  20.4451866
  40.3756834 105.1269114  21.3295197  41.1831718 106.1615665  20.5749795
  48.5803347 115.9617974  23.5803806  49.3106735 115.7003262  24.1411510
  47.9710292 115.2246696  23.6205874  46.6618644 114.1025836  24.1778258
  45.9351808 113.9681801  23.5694749  46.2465931 114.4102665  24.9834976
  34.4015111 106.2384886  16.5724100  33.5915839 105.8931971  16.9479346
  35.0899528 105.9292430  17.1611712  36.3305659 105.3162933  18.1948397
  36.8836698 105.7358386  18.8538420  36.5675745 104.3898681  18.2371353
  32.3538758 111.3050006  33.9751161  32.2535485 112.2544363  33.9063252
  32.1360300 110.9768245  33.1027231  39.7084466 107.4263458  17.7027061
  39.1283135 108.0848262  17.3205114  39.4420399 106.6040802  17.2914479
  38.1588033 106.8268516  19.9048381  38.6587811 106.9385050  19.0962700
  38.8023640 106.5229568  20.5449190  32.2170028 114.7347145  32.7916222
  31.7337110 115.5347505  32.9980111  32.3030967 114.7455090  31.8383666
  38.4909344 109.5863548  16.7583409  37.6035199 109.8713199  16.5403604
  38.9063333 109.4257312  15.9110686  41.8423880 109.6110069  20.4737749
  42.6184270 110.1006522  20.7462365  41.1172014 110.0368123  20.9309618
  44.2796439 110.3237688  21.5311689  44.8740930 110.0833424  20.8204997
  44.3523023 109.6044819  22.1585226  38.4650368 115.1018084  16.9733700
  38.4085569 115.5586636  16.1341332  39.0178710 114.3408769  16.7956542
  42.2755174 110.8907816  17.7983819  42.0192108 110.4904452  18.6292027
  41.6508042 111.6051610  17.6733958  46.5867512 113.6303889  20.3055110
  46.0267070 113.6997079  21.0786672  45.9811015 113.4544874  19.5854607
  39.1985147 116.2922865  14.2686229  39.1433951 116.1267137  13.3274673
  38.5731202 116.9998898  14.4248418  23.9877662 111.5290930  28.0947651
  24.6336526 111.0189884  28.5834876  23.7794813 112.2659611  28.6691076
  32.5081273 105.7930974  13.8471547  32.4959942 106.7372814  14.0039818
  33.4004695 105.6101120  13.5531008  36.3233392 102.3873751  18.1017484
  35.5565788 101.8332238  18.2474166  36.7344097 102.4595620  18.9631636
  28.3275153 108.6758547  32.1922665  29.1906615 108.3195352  32.4025990
  27.7540564 108.3372442  32.8798069  47.7481778 119.5278246  25.0537175
  47.4046047 120.4179887  24.9776286  48.1160741 119.3379903  24.1906760
  49.5469444 118.7871805  20.1554913  49.8528320 117.9269168  19.8680828
  50.2722048 119.3789425  19.9553907  49.8171062 121.2166040  22.6538834
  48.9034141 121.4470267  22.8221040  50.2464163 121.3004484  23.5052866
  47.2523615 118.5870131  21.5783895  47.5325369 117.9193320  22.2044321
  48.0374222 118.7799226  21.0658559  51.4125767 120.7645944  20.4451866
  51.2150588 120.4561032  21.3295197  52.0225472 121.4907582  20.5749795
  47.1699414 120.6454850  18.1948397  47.7230452 121.0650304  18.8538420
  47.4069500 119.7190599  18.2371353  47.1627147 117.7165669  18.1017484
  46.3959542 117.1624155  18.2474166  47.5737852 117.7887538  18.9631636
   2.6682774  52.3165702  17.3783930   2.2246628  51.5302081  17.0604835
   3.3299988  52.5044853  16.7127821   4.7664012  52.5968502  15.4065331
   4.7482487  53.4177383  14.9145601   5.6883932  52.4722577  15.6315473
   5.6779853  49.2364340  17.8016050   5.5265359  49.0074892  16.8846133
   5.6684532  50.1934942  17.8147395   7.3872060  52.2683463  15.8792531
   7.3284606  51.5842683  15.2123115   7.7891578  53.0102453  15.4273157
   5.8723734  51.9698380  18.4556342   6.4163638  52.5828338  17.9611297
   5.2910578  52.5277958  18.9723355   9.1952528  51.4294434  17.7917663
   8.4048072  51.4118573  17.2522162   8.9585882  51.9682728  18.5466700
  10.8168600  50.6983842  15.3492413  10.5253408  51.0613823  16.1855874
  10.2040731  49.9850850  15.1705745   3.9949792  49.6158147  20.3185098
   4.8640952  49.7898799  19.9571733   3.5156544  50.4352564  20.1960827
  15.6542268  61.3246773   9.7230373  16.2920678  61.2053520   9.0193713
  15.5363111  62.2727617   9.7818325  12.4631974  61.2774201   9.6591898
  12.1250486  61.1615266   8.7712432  13.3321742  60.8765366   9.6392904
  12.9451757  62.4309053  15.6178103  12.9340398  62.0361851  14.7458607
  13.1072397  61.6975125  16.2111874   9.6659018  65.2146164  14.5657287
   9.3748884  66.1191795  14.4503953  10.3016003  65.2562692  15.2801357
  10.5915225  62.5923013  11.1558647  11.1878797  62.3679035  10.4415610
  10.6490197  61.8507758  11.7584095  20.6091964  58.9873460   7.7016559
  21.3417135  58.4172677   7.9354389  19.8531319  58.5995060   8.1423065
  18.1317384  52.6995034  12.1611168  17.8000709  53.5690445  11.9372383
  17.5362997  52.3831318  12.8405198  14.6248903  64.9007580  11.5607081
  14.3249626  65.8032619  11.4522888  14.2799963  64.6339763  12.4128234
  18.0246047  57.4190120   9.2404518  17.1162925  57.3505529   8.9463279
  17.9733643  57.8962065  10.0686344  12.0986913  58.8379766  17.1839415
  11.3220247  59.3973686  17.1742280  12.7377476  59.3236549  17.7054285
  19.8907694  55.6206559  11.0182392  19.2482074  55.9139092  10.3722187
  19.3862622  55.5059479  11.8235589  10.3533285  61.6465219  16.7457382
  11.0947970  62.1850263  16.4692206   9.6470271  62.2731508  16.9028934
  15.8288625  63.7894360  15.3429544  16.2371981  63.3476770  14.5984176
  15.1065886  63.2146987  15.5963737  12.1819695  58.7266966  12.7163101
  13.0280890  59.1506380  12.8597750  12.1218333  58.0700591  13.4101664
  16.1517440  64.3495550   9.0981833  15.5226302  64.5141264   8.3957901
  15.7643102  64.7637160   9.8692797  20.0306671  65.2849988   6.4526196
  19.3457710  65.6648889   5.9023230  20.1150521  65.8945315   7.1858144
  15.3319140  56.3871335  14.3744274  15.0880072  57.1413395  13.8378550
  15.6079071  56.7656682  15.2091521  17.2857603  62.9309947  13.0521540
  17.4974498  63.5741707  12.3755921  17.2387351  62.0972264  12.5843470
   8.5969483  63.6341440   9.3011681   9.1670840  64.0628708   8.6629166
   9.1877594  63.3524025   9.9995867   9.0894649  58.8004867  17.5472692
   8.4593310  59.4821148  17.7808089   8.9830737  58.6887949  16.6025831
  18.4003431  65.8081902  11.2243897  19.2220875  65.4062090  10.9426579
  18.3965834  65.7050137  12.1760013  12.1660034  65.3565946  13.3804608
  12.2304467  65.8186353  14.2162780  11.4570958  64.7263311  13.5086918
  26.4909424  62.1520651   7.5728869  25.7373132  61.5828049   7.4172873
  26.6256965  62.1183315   8.5199503   8.3675392  53.1025633  19.9097943
   7.9742337  52.5491832  20.5845588   9.1841532  53.4136212  20.3004461
  11.2843353  54.5183512  17.5018200  12.0253066  55.1190665  17.4222662
  11.5161276  53.7761150  16.9436242   6.4284691  59.7039879  15.7796430
   6.3138206  58.8025137  16.0803528   5.5729209  59.9503576  15.4281246
  13.5076529  67.6457620  17.3783930  13.0640383  66.8593998  17.0604835
  14.1693742  67.8336770  16.7127821   8.2663650  69.1753421  11.9044609
   8.8171075  69.0470485  11.1321603   7.4275126  69.4748310  11.5539502
  15.6057767  67.9260420  15.4065331  15.5876242  68.7469301  14.9145601
  16.5277687  67.8014495  15.6315473  12.0630821  65.4404549  16.2488840
  12.5959158  64.6792837  16.0188148  11.5344902  65.1478201  16.9912994
  18.4076379  62.7639562   8.8774698  17.7500054  63.4538824   8.9654827
  19.2116779  63.1535994   9.2208685  17.2181838  61.1183935   6.9278640
  17.7313720  61.7513927   7.4300350  17.8683062  60.5185130   6.5622000
  13.6962669  58.5933390   9.1736980  12.7785230  58.8148337   9.0158668
  14.1122813  58.6679701   8.3148688  17.9843634  66.0989936   5.0557783
  17.5305962  65.2580846   5.1122973  17.3537601  66.7351335   5.3932563
  16.4276574  67.9366433   5.9907601  16.7199548  68.4971490   5.2719966
  16.9375194  68.2294994   6.7460760  14.8375833  59.1830852  13.9781683
  15.1925220  59.4102325  14.8376149  15.4847964  59.5149228  13.3558938
  20.5673570  62.3049288   4.6831012  20.4291468  62.4950883   3.7552201
  20.2109788  63.0668670   5.1399063  20.5942949  64.3725815   9.6942284
  21.0279456  64.2801104  10.5425338  21.3074530  64.3483315   9.0562300
  14.3270844  67.9727909  11.2275384  14.3807866  68.5418845  11.9953100
  13.4585626  68.1429794  10.8629421   7.2069238  57.6745465  12.7099835
   7.8792291  57.4662827  12.0612484   6.3799024  57.4767551  12.2705068
  21.4558499  64.4149515  12.2275169  21.6494389  65.3195326  12.4734444
  21.3559117  63.9556934  13.0613754  13.1094810  54.3007406  14.7265496
  12.4622725  54.9997355  14.6329973  13.8795825  54.7343550  15.0941745
  16.5173607  64.5656258  17.8016050  16.3659114  64.3366810  16.8846133
  16.5078287  65.5226859  17.8147395  13.2858944  62.1388171  12.7862316
  14.2151004  62.2899330  12.6131283  12.8649974  62.2272191  11.9310963
  12.0847276  66.1638835  10.5560854  11.9458361  65.7957619  11.4286792
  11.2961872  66.6786475  10.3844811  13.6352491  65.5420438   7.9449691
  13.3002323  65.5021208   8.8407341  13.1356436  64.8765154   7.4720102
   7.6096735  60.9488068  13.4702273   7.4716533  60.2168307  14.0713812
   8.5201658  60.8596968  13.1886460  10.2379035  60.6608027  12.9585952
  10.9478654  60.0201219  12.9172571  10.1948344  60.9120922  13.8812133
  18.2265814  67.5975380  15.8792531  18.1678360  66.9134601  15.2123115
  18.6285332  68.3394370  15.4273157   8.9507969  57.6473245  14.7781592
   8.4145326  57.1963983  15.4303188   8.3624678  57.7819154  14.0352056
  18.2283221  65.5614964  14.1106511  17.3410000  65.2240886  14.2332910
  18.7981772  64.8297996  14.3475277  11.7584375  70.2216417  11.0767754
  11.6854546  71.0271388  11.5887059  11.3161768  70.4208383  10.2515776
  22.7100562  60.9723182   8.8723073  22.6990438  61.8547897   8.5017006
  21.8417941  60.6194733   8.6777610  14.2183058  70.1203251  13.2325913
  14.9311031  70.7550716  13.1601815  13.7273087  70.2167117  12.4165915
  15.9400585  64.0254503   4.8043205  15.0056864  64.1455966   4.6347909
  16.1177254  63.1226970   4.5403215  19.3273137  59.8671823   5.3393239
  19.7933589  60.6999814   5.2653542  19.7780637  59.4016804   6.0438497
   9.2694972  67.8697694  14.0531484   9.9704431  68.5034177  14.2060878
   8.7990087  68.2112426  13.2927123  17.0696258  60.4242302  11.8784034
  16.4167708  60.6718209  11.2236487  17.4476638  59.6106440  11.5446512
  14.0303432  70.4601995   5.9812205  14.2125826  69.6423651   6.4439957
  14.8536418  70.6769687   5.5437094  13.1183831  61.1662113  18.3650071
  12.4424468  61.0656242  19.0352447  13.9411465  61.0101327  18.8286069
  11.8606614  72.4729040  12.6007687  12.4124922  72.6360662  13.3656773
  12.2012807  73.0633478  11.9287712   6.3123379  56.8927323  16.8502606
   6.9395418  56.5104400  17.4640131   5.4551298  56.6741524  17.2158299
  16.7117488  67.2990298  18.4556342  17.2557392  67.9120256  17.9611297
  16.1304333  67.8569876  18.9723355  14.9975001  70.4211016   9.5871369
  14.8726140  69.6200756   9.0782315  15.6554092  70.9157209   9.0985339
  17.0609909  68.2220036  11.2150920  16.1140245  68.1025387  11.1429246
  17.4092682  67.3342534  11.2977181   9.4209483  54.1114175  15.0389161
   9.9443885  54.3576471  15.8015471   9.2021816  54.9434210  14.6192299
  14.0656343  68.0172752   7.4155272  13.9181305  67.0889459   7.5962842
  14.8909836  68.0392843   6.9312347  17.6690465  68.8401311   8.5020145
  18.5937012  68.6344172   8.3644596  17.5005768  68.5917712   9.4109486
  10.6262028  55.0527870  12.7238832  10.2858848  54.2535683  13.1259512
   9.9201034  55.3529581  12.1515665  12.5139592  56.2536191  11.0792151
  12.2557370  57.1753262  11.0776481  11.9824632  55.8566626  11.7692615
  17.4585781  69.3586978   3.8582236  17.6322658  68.7933401   3.1056088
  17.9514672  70.1587873   3.6761726   3.2762741  61.3701647  11.9245795
   2.7316209  62.1461455  12.0566069   4.1542090  61.7172452  11.7664916
  23.3125172  62.1223401   5.4772536  23.7556318  61.3730726   5.0791659
  22.4351682  62.1133538   5.0946268   4.0628762  60.4971544  14.8175952
   3.3210498  60.6454179  15.4040582   3.7421507  60.7579809  13.9542701
  20.3452376  66.1253448   2.4866465  20.8703700  66.4640721   1.7615785
  20.2574729  65.1900463   2.3029600  12.0072425  70.0387522  14.6156342
  12.3159551  69.7936669  15.4879041  12.8047907  70.2434160  14.1275212
   9.4766909  67.7363441   8.9184020   8.8546919  67.0734146   8.6186248
  10.1471776  67.7624572   8.2357668   9.5491437  56.2145229  18.5116526
   9.5979592  57.0907351  18.1294296  10.0913951  55.6722622  17.9388169
  20.0346282  66.7586352  17.7917663  19.2441826  66.7410491  17.2522162
  19.7979637  67.2974645  18.5466700  20.1544157  63.6078818  15.1050392
  20.2042162  63.4428826  16.0465914  20.0458081  62.7406077  14.7148272
  17.4447920  59.5909746  16.4209698  18.3457783  59.4516211  16.1293696
  17.5195894  59.7564201  17.3607876  11.7790725  56.9676601  15.2662885
  10.9094035  57.2610167  14.9945473  12.0150206  57.5517046  15.9870148
  21.6562354  66.0275760  15.3492413  21.3647163  66.3905740  16.1855874
  21.0434486  65.3142768  15.1705745  22.8558037  63.5928639   7.8694983
  23.6904928  64.0318444   8.0332544  22.9917165  63.1167293   7.0503229
  19.9049543  61.1508374  13.8172471  20.3803664  61.3436021  13.0091322
  18.9815108  61.2067560  13.5715855  14.4829759  53.1856218  12.7828305
  15.0011703  53.9217245  12.4574794  14.1284892  53.4920211  13.6175064
  18.6051212  58.0274134  12.0500777  19.5568634  58.1272232  12.0713001
  18.4354662  57.2352403  12.5598861  16.6265591  55.1129718  12.2360178
  16.0315523  55.3934730  11.5406666  16.3415288  55.6023619  13.0076919
  21.0839289  61.2480254  11.1643076  21.0515609  60.3096255  11.3502760
  21.6939913  61.3264291  10.4308901  21.2333778  58.0391298  11.2101359
  20.7172826  57.2549754  11.0231288  22.1173726  57.7110014  11.3747879
  26.9015839  62.3096261  10.3049113  27.6319228  62.0481549  10.8656816
  26.2922785  61.5724983  10.3451181  24.9831136  60.4504124  10.9023564
  24.2564300  60.3160088  10.2940056  24.5678423  60.7580952  11.7080282
  12.8061313  64.1694053  18.6670937  13.7264322  64.3472652  18.8610984
  12.7710896  63.2250099  18.5150637   5.8023385  62.0795088  11.3093718
   6.0209395  63.0112196  11.3281752   6.2149159  61.7203062  12.0948522
  10.6751251  57.6528294  20.6996467  10.5747977  58.6022651  20.6308559
  10.4572793  57.3246533  19.8272537  10.5382521  61.0825432  19.5161529
  10.0549602  61.8825793  19.7225418  10.6243460  61.0933377  18.5628973
   6.4655858  64.9729967  11.5529963   7.4199112  64.9413909  11.4859894
   6.2668382  64.5120591  12.3680189   7.0555240  63.5431083  14.1200761
   7.8748129  64.0375162  14.1435598   7.3292048  62.6263051  14.0918328
  20.1636373  55.9588356   7.1983055  20.9396763  56.4484809   7.4707672
  19.4384507  56.3846411   7.6554925  22.6008931  56.6715976   8.2556996
  23.1953422  56.4311712   7.5450304  22.6735515  55.9523106   8.8830532
  24.9080004  59.9782177   7.0300417  24.3479562  60.0475366   7.8031979
  24.3023507  59.8023161   6.3099913   2.3090154  57.8769217  14.8192958
   2.9549018  57.3668171  15.3080183   2.1007306  58.6137899  15.3936383
  14.8343547  64.9450065  20.3185098  15.7034706  65.1190717  19.9571733
  14.3550298  65.7644481  20.1960827   9.0029727  72.0647166  11.9974532
   9.9056974  72.0970776  12.3141027   8.7767097  71.1347617  12.0120868
   6.6487645  55.0236834  18.9167972   7.5119107  54.6673639  19.1271296
   6.0753056  54.6850729  19.6043376  26.4936022  76.6538691   9.7230373
  27.1314432  76.5345438   9.0193713  26.3756865  77.6019534   9.7818325
  23.3025729  76.6066119   9.6591898  22.9644240  76.4907183   8.7712432
  24.1715497  76.2057284   9.6392904  23.7845512  77.7600970  15.6178103
  23.7734152  77.3653769  14.7458607  23.9466151  77.0267043  16.2111874
  20.5052773  80.5438082  14.5657287  20.2142639  81.4483713  14.4503953
  21.1409757  80.5854610  15.2801357  21.4308980  77.9214931  11.1558647
  22.0272552  77.6970953  10.4415610  21.4883951  77.1799676  11.7584095
  26.0477291  74.3790144   6.7983581  26.8340380  73.9609568   6.4473998
  26.3115995  75.2836237   6.9665229  31.4485718  74.3165378   7.7016559
  32.1810890  73.7464594   7.9354389  30.6925074  73.9286978   8.1423065
  23.0661838  76.7392619   4.8979902  22.7020045  76.2123240   5.6092823
  23.9228954  76.3491088   4.7246387  28.9711138  68.0286952  12.1611168
  28.6394463  68.8982363  11.9372383  28.3756752  67.7123236  12.8405198
  25.4642658  80.2299498  11.5607081  25.1643381  81.1324536  11.4522888
  25.1193717  79.9631681  12.4128234  18.9155139  76.6813294   7.5943785
  17.9905636  76.5489509   7.8021477  19.1639553  77.4607514   8.0913728
  28.8639802  72.7482038   9.2404518  27.9556679  72.6797446   8.9463279
  28.8127397  73.2253983  10.0686344  22.9380667  74.1671683  17.1839415
  22.1614002  74.7265604  17.1742280  23.5771231  74.6528466  17.7054285
  30.7301448  70.9498476  11.0182392  30.0875828  71.2431009  10.3722187
  30.2256377  70.8351397  11.8235589  28.3841612  74.6961649   1.7068251
  29.2959468  74.9289036   1.5315949  27.8751259  75.2798694   1.1443330
  21.1927040  76.9757137  16.7457382  21.9341724  77.5142181  16.4692206
  20.4864025  77.6023426  16.9028934  26.6682379  79.1186277  15.3429544
  27.0765735  78.6768688  14.5984176  25.9459641  78.5438905  15.5963737
  23.0213449  74.0558884  12.7163101  23.8674645  74.4798298  12.8597750
  22.9612087  73.3992508  13.4101664  26.9911194  79.6787468   9.0981833
  26.3620056  79.8433182   8.3957901  26.6036856  80.0929077   9.8692797
  30.8700426  80.6141906   6.4526196  30.1851464  80.9940807   5.9023230
  30.9544275  81.2237232   7.1858144  26.1712895  71.7163252  14.3744274
  25.9273827  72.4705313  13.8378550  26.4472825  72.0948600  15.2091521
  28.1251358  78.2601865  13.0521540  28.3368253  78.9033625  12.3755921
  28.0781106  77.4264181  12.5843470  25.7277587  70.8719685   9.9558112
  24.8662066  71.1700939  10.2474850  25.7540021  71.0890084   9.0239145
  22.5439156  79.4161876   6.3631918  23.0077501  79.6949579   5.5736540
  22.2795954  78.5145321   6.1805008  19.4363237  78.9633358   9.3011681
  20.0064594  79.3920626   8.6629166  20.0271349  78.6815942   9.9995867
  21.4808042  75.5385028   3.1721483  22.1832085  75.9906072   3.6395409
  21.1488670  74.8968847   3.8001376  19.9288404  74.1296785  17.5472692
  19.2987064  74.8113066  17.7808089  19.8224491  74.0179867  16.6025831
  15.2233376  73.7968581   8.4738616  14.4332430  74.0526110   7.9978727
  15.7144623  74.6116919   8.5790657  29.2397186  81.1373820  11.2243897
  30.0614629  80.7354007  10.9426579  29.2359588  81.0342054  12.1760013
  23.0053789  80.6857863  13.3804608  23.0698221  81.1478271  14.2162780
  22.2964713  80.0555228  13.5086918  13.5071079  74.0499071  10.9053607
  13.7579117  74.9346081  11.1711183  14.0430627  73.8703673  10.1328699
  37.3303179  77.4812569   7.5728869  36.5766887  76.9119967   7.4172873
  37.4650720  77.4475233   8.5199503  19.2069146  68.4317551  19.9097943
  18.8136092  67.8783749  20.5845588  20.0235287  68.7428129  20.3004461
  22.1237107  69.8475430  17.5018200  22.8646821  70.4482583  17.4222662
  22.3555030  69.1053068  16.9436242  17.2678445  75.0331797  15.7796430
  17.1531960  74.1317054  16.0803528  16.4122963  75.2795494  15.4281246
  24.3470283  82.9749537  17.3783930  23.9034137  82.1885916  17.0604835
  25.0087497  83.1628688  16.7127821  19.1057404  84.5045339  11.9044609
  19.6564829  84.3762402  11.1321603  18.2668880  84.8040228  11.5539502
  26.4451521  83.2552337  15.4065331  26.4269996  84.0761218  14.9145601
  27.3671441  83.1306413  15.6315473  22.9024575  80.7696467  16.2488840
  23.4352912  80.0084755  16.0188148  22.3738656  80.4770119  16.9912994
  26.0694270  65.8756533  11.7782482  25.7258540  66.7658175  11.7021592
  26.4373233  65.6858190  10.9152067  26.0344553  75.8665144   0.2854917
  25.5191176  76.6369749   0.5243304  25.7621861  75.1930280   0.9087978
  23.6191664  70.7114845   5.3440155  22.7633260  70.3221695   5.1645794
  24.0318616  70.7906806   4.4839941  25.1490811  68.2461188   9.7431715
  24.6455606  68.2091323   8.9299520  25.4421417  69.1553931   9.8028371
  21.3933696  68.3299918   8.7497897  22.2586693  68.1342726   8.3903786
  21.4611205  68.1010269   9.6767253  31.0078827  78.6197499   2.2208090
  30.2308270  78.2808658   1.7763252  31.6870308  78.6250122   1.5463055
  25.8230856  73.7392236   2.1114698  25.5180992  74.0538385   2.9624841
  26.7761298  73.8173656   2.1542031  29.2470134  78.0931480   8.8774698
  28.5893808  78.7830741   8.9654827  30.0510533  78.4827912   9.2208685
  18.9996016  70.5602126   6.1214263  19.5739767  70.3377307   5.3887456
  19.5866998  70.6290820   6.8742865  28.0575593  76.4475853   6.9278640
  28.5707474  77.0805844   7.4300350  28.7076817  75.8477048   6.5622000
  21.3018683  67.4343375   4.8489333  20.6483096  67.1192392   4.2245948
  21.2599157  66.8119115   5.5749156  24.5356424  73.9225308   9.1736980
  23.6178985  74.1440255   9.0158668  24.9516567  73.9971619   8.3148688
  25.3191471  75.3216724   4.3039661  26.0663290  75.8338121   3.9946783
  25.5883061  75.0000776   5.1644054  28.8237389  81.4281854   5.0557783
  28.3699716  80.5872764   5.1122973  28.1931356  82.0643252   5.3932563
  27.7670309  72.3573840   6.2858450  27.0293065  71.8451226   6.6168693
  28.0197082  71.9174222   5.4741727  27.2670328  83.2658351   5.9907601
  27.5593303  83.8263408   5.2719966  27.7768949  83.5586912   6.7460760
  27.8681936  65.1350092   6.8800219  28.1740813  64.2747455   6.5926134
  28.5934541  65.7267712   6.6799213  22.1403016  75.4303885   7.3876410
  22.1951625  74.4777721   7.3118887  21.3294218  75.5863324   7.8717709
  20.0795375  74.0480945   5.1466789  19.2663241  74.3475115   5.5531981
  20.5754370  73.6536634   5.8641271  25.6769587  74.5122769  13.9781683
  26.0318975  74.7394242  14.8376149  26.3241718  74.8441146  13.3558938
  31.4067324  77.6341205   4.6831012  31.2685223  77.8242801   3.7552201
  31.0503543  78.3960588   5.1399063  19.5709450  71.6199300  10.7628024
  20.2108830  71.4788059  10.0650987  18.7386981  71.3333814  10.3866626
  31.4336704  79.7017732   9.6942284  31.8673210  79.6093021  10.5425338
  32.1468284  79.6775233   9.0562300  25.1664599  83.3019826  11.2275384
  25.2201621  83.8710763  11.9953100  24.2979380  83.4721711  10.8629421
  16.5738067  71.5899625   5.5401011  16.8344884  72.5044959   5.4310171
  17.3955239  71.1224068   5.6897624  18.0462992  73.0037383  12.7099835
  18.7186045  72.7954745  12.0612484  17.2192779  72.8059469  12.2705068
  32.2952253  79.7441433  12.2275169  32.4888143  80.6487243  12.4734444
  32.1952871  79.2848852  13.0613754  23.9488564  69.6299323  14.7265496
  23.3016479  70.3289273  14.6329973  24.7189579  70.0635467  15.0941745
  27.3567362  79.8948176  17.8016050  27.2052868  79.6658727  16.8846133
  27.3472041  80.8518777  17.8147395  24.1252698  77.4680088  12.7862316
  25.0544758  77.6191248  12.6131283  23.7043728  77.5564109  11.9310963
  22.9241030  81.4930753  10.5560854  22.7852116  81.1249537  11.4286792
  22.1355626  82.0078392  10.3844811  24.4746245  80.8712355   7.9449691
  24.1396078  80.8313125   8.8407341  23.9750191  80.2057071   7.4720102
  18.4490489  76.2779985  13.4702273  18.3110287  75.5460224  14.0713812
  19.3595413  76.1888886  13.1886460  21.0772790  75.9899945  12.9585952
  21.7872408  75.3493137  12.9172571  21.0342098  76.2412840  13.8812133
  29.0659569  82.9267298  15.8792531  29.0072115  82.2426518  15.2123115
  29.4679087  83.6686288  15.4273157  19.7901724  72.9765163  14.7781592
  19.2539081  72.5255901  15.4303188  19.2018432  73.1111072  14.0352056
  29.0676976  80.8906882  14.1106511  28.1803755  80.5532804  14.2332910
  29.6375527  80.1589913  14.3475277  15.5240845  72.1121170  11.8634586
  15.4399034  71.5046840  11.1284996  14.7023552  72.6030189  11.8644083
  22.5978129  85.5508334  11.0767754  22.5248301  86.3563306  11.5887059
  22.1555522  85.7500300  10.2515776  25.6964559  70.5974734   7.2304781
  26.1933259  69.8444696   6.9105852  24.9251541  70.6339051   6.6647991
  33.5494316  76.3015099   8.8723073  33.5384193  77.1839815   8.5017006
  32.6811696  75.9486650   8.6777610  25.0576813  85.4495168  13.2325913
  25.7704785  86.0842633  13.1601815  24.5666841  85.5459034  12.4165915
  26.7794340  79.3546421   4.8043205  25.8450618  79.4747884   4.6347909
  26.9571008  78.4518888   4.5403215  22.2799528  72.7392117   6.9576466
  21.9097315  72.1863157   7.6457371  22.7758620  72.1350250   6.4051466
  30.1666891  75.1963740   5.3393239  30.6327343  76.0291732   5.2653542
  30.6174392  74.7308722   6.0438497  20.1088726  83.1989612  14.0531484
  20.8098186  83.8326095  14.2060878  19.6383841  83.5404343  13.2927123
  28.2343122  81.5407562   2.3379391  28.5102966  81.4264156   3.2473265
  27.3647621  81.1425047   2.2991564  28.1383554  67.5644327   9.3784140
  27.2246634  67.7948554   9.5466347  28.5676655  67.6482771  10.2298173
  27.9090012  75.7534219  11.8784034  27.2561463  76.0010127  11.2236487
  28.2870392  74.9398358  11.5446512  24.8697186  85.7893913   5.9812205
  25.0519581  84.9715568   6.4439957  25.6930172  86.0061605   5.5437094
  23.9577585  76.4954030  18.3650071  23.2818222  76.3948160  19.0352447
  24.7805219  76.3393244  18.8286069  22.7000368  87.8020958  12.6007687
  23.2518676  87.9652579  13.3656773  23.0406562  88.3925396  11.9287712
  17.6764861  70.1496108  13.2029572  17.7406188  71.0110939  12.7906970
  17.6131982  69.5370109  12.4701931  17.1517134  72.2219240  16.8502606
  17.7789173  71.8396318  17.4640131  16.2945053  72.0033442  17.2158299
  27.5511243  82.6282215  18.4556342  28.0951146  83.2412174  17.9611297
  26.9698087  83.1861794  18.9723355  25.8368755  85.7502933   9.5871369
  25.7119895  84.9492673   9.0782315  26.4947847  86.2449127   9.0985339
  17.4576924  72.1051666   8.7648510  16.7363509  72.7187634   8.6255983
  18.2470179  72.6409431   8.6865156  27.9003664  83.5511954  11.2150920
  26.9533999  83.4317305  11.1429246  28.2486437  82.6634452  11.2977181
  20.2603237  69.4406092  15.0389161  20.7837639  69.6868389  15.8015471
  20.0415570  70.2726127  14.6192299  24.9050097  83.3464670   7.4155272
  24.7575060  82.4181377   7.5962842  25.7303591  83.3684760   6.9312347
  28.5084219  84.1693228   8.5020145  29.4330766  83.9636090   8.3644596
  28.3399522  83.9209630   9.4109486  21.4655782  70.3819788  12.7238832
  21.1252603  69.5827601  13.1259512  20.7594789  70.6821498  12.1515665
  22.1172254  67.4669100  11.1766155  22.9398323  66.9929578  11.0545045
  22.3610318  68.2459584  11.6764841  20.7580489  70.4957358   1.4729057
  21.4788851  70.8738611   0.9692774  20.1345793  71.2146235   1.5764035
  24.9011611  71.2002507   2.4087389  25.1175226  72.0827145   2.1076217
  24.4205679  70.8088721   1.6793031  19.6410833  74.1588221   8.9858134
  19.4955414  74.4728524   9.8782415  19.1636036  74.7773121   8.4329032
  21.5007216  71.1490769   9.0339023  21.4868784  70.2531862   8.6971321
  22.2179644  71.1561432   9.6677309  23.3533346  71.5828109  11.0792151
  23.0951124  72.5045179  11.0776481  22.8218387  71.1858543  11.7692615
  28.2979535  84.6878896   3.8582236  28.4716413  84.1225318   3.1056088
  28.7908426  85.4879791   3.6761726  14.1156495  76.6993565  11.9245795
  13.5709963  77.4753373  12.0566069  14.9935845  77.0464369  11.7664916
  20.9044112  70.0305149   4.3026593  21.0260023  69.1021795   4.5017481
  20.6146154  70.0443835   3.3904909  23.7735302  67.7160059   7.4393313
  23.7956999  67.7799392   6.4845293  24.1903361  66.8764568   7.6333819
  34.1518926  77.4515319   5.4772536  34.5950072  76.7022644   5.0791659
  33.2745437  77.4425455   5.0946268  14.9022517  75.8263461  14.8175952
  14.1604253  75.9746097  15.4040582  14.5815261  76.0871727  13.9542701
  31.1846131  81.4545366   2.4866465  31.7097455  81.7932639   1.7615785
  31.0968483  80.5192381   2.3029600  22.8466180  85.3679439  14.6156342
  23.1553306  85.1228586  15.4879041  23.6441662  85.5726078  14.1275212
  20.3160664  83.0655358   8.9184020  19.6940673  82.4026063   8.6186248
  20.9865531  83.0916490   8.2357668  20.3885191  71.5437146  18.5116526
  20.4373347  72.4199269  18.1294296  20.9307705  71.0014539  17.9388169
  30.8740037  82.0878269  17.7917663  30.0835581  82.0702408  17.2522162
  30.6373391  82.6266563  18.5466700  30.9937912  78.9370736  15.1050392
  31.0435917  78.7720743  16.0465914  30.8851835  78.0697995  14.7148272
  28.2841674  74.9201664  16.4209698  29.1851537  74.7808129  16.1293696
  28.3589649  75.0856119  17.3607876  22.6184480  72.2968519  15.2662885
  21.7487789  72.5902085  14.9945473  22.8543960  72.8808964  15.9870148
  32.4956109  81.3567677  15.3492413  32.2040917  81.7197658  16.1855874
  31.8828240  80.6434686  15.1705745  33.6951791  78.9220557   7.8694983
  34.5298682  79.3610361   8.0332544  33.8310920  78.4459210   7.0503229
  30.7443297  76.4800292  13.8172471  31.2197419  76.6727938  13.0091322
  29.8208862  76.5359478  13.5715855  25.3223513  68.5148136  12.7828305
  25.8405457  69.2509162  12.4574794  24.9678646  68.8212129  13.6175064
  25.5736108  64.9348418   8.3029202  25.8537861  64.2671607   8.9289628
  26.3586715  65.1277514   7.7903865  29.4444966  73.3566052  12.0500777
  30.3962389  73.4564150  12.0713001  29.2748416  72.5644321  12.5598861
  27.4659345  70.4421635  12.2360178  26.8709278  70.7226648  11.5406666
  27.1809042  70.9315536  13.0076919  31.9233044  76.5772172  11.1643076
  31.8909364  75.6388172  11.3502760  32.5333667  76.6556208  10.4308901
  32.0727532  73.3683215  11.2101359  31.5566581  72.5841672  11.0231288
  32.9567481  73.0401932  11.3747879  29.7338259  67.1124231   7.1697172
  29.5363080  66.8039319   8.0540504  30.3437965  67.8385870   7.2995102
  37.7409594  77.6388179  10.3049113  38.4712982  77.3773467  10.8656816
  37.1316539  76.9016901  10.3451181  35.8224891  75.7796041  10.9023564
  35.0958054  75.6452006  10.2940056  35.4072178  76.0872870  11.7080282
  23.6455067  79.4985971  18.6670937  24.5658077  79.6764570  18.8610984
  23.6104650  78.5542016  18.5150637  16.6417140  77.4087006  11.3093718
  16.8603150  78.3404113  11.3281752  17.0542914  77.0494980  12.0948522
  23.5621358  67.9155091   3.2969407  22.7522086  67.5702176   3.6724653
  24.2505774  67.6062635   3.8857018  25.4911906  66.9933138   4.9193703
  26.0442944  67.4128591   5.5783727  25.7281992  66.0668886   4.9616660
  21.5145005  72.9820211  20.6996467  21.4141732  73.9314568  20.6308559
  21.2966547  72.6538450  19.8272537  28.8690713  69.1033663   4.4272368
  28.2889382  69.7618467   4.0450420  28.6026646  68.2811007   4.0159785
  27.3194279  68.5038721   6.6293688  27.8194058  68.6155255   5.8208007
  27.9629887  68.1999773   7.2694497  21.3776275  76.4117350  19.5161529
  20.8943357  77.2117710  19.7225418  21.4637214  76.4225295  18.5628973
  17.3049613  80.3021885  11.5529963  18.2592866  80.2705827  11.4859894
  17.1062136  79.8412509  12.3680189  17.8948995  78.8723001  14.1200761
  18.7141884  79.3667080  14.1435598  18.1685802  77.9554969  14.0918328
  27.6515591  71.2633753   3.4828716  26.7641446  71.5483404   3.2648911
  28.0669580  71.1027517   2.6355993  31.0030127  71.2880274   7.1983055
  31.7790517  71.7776727   7.4707672  30.2778261  71.7138328   7.6554925
  33.4402686  72.0007893   8.2556996  34.0347176  71.7603629   7.5450304
  33.5129269  71.2815024   8.8830532  27.6256615  76.7788289   3.6979006
  27.5691816  77.2356841   2.8586639  28.1784957  76.0178974   3.5201849
  31.4361421  72.5678021   4.5229126  31.1798355  72.1674657   5.3537333
  30.8114289  73.2821815   4.3979265  35.7473758  75.3074094   7.0300417
  35.1873316  75.3767284   7.8031979  35.1417262  75.1315079   6.3099913
  28.3591394  77.9693070   0.9931535  28.3040198  77.8037342   0.0519979
  27.7337449  78.6769103   1.1493725  13.1483909  73.2061135  14.8192958
  13.7942773  72.6960089  15.3080183  12.9401060  73.9429816  15.3936383
  25.6737301  80.2741982  20.3185098  26.5428461  80.4482635  19.9571733
  25.1944053  81.0936399  20.1960827  21.6687519  67.4701179   0.5716854
  21.6566189  68.4143019   0.7285125  22.5610941  67.2871325   0.2776315
  19.8423481  87.3939083  11.9974532  20.7450728  87.4262694  12.3141027
  19.6160851  86.4639534  12.0120868  25.4839639  64.0643956   4.8262791
  24.7172035  63.5102443   4.9719473  25.8950344  64.1365825   5.6876942
  17.4881400  70.3528752  18.9167972  18.3512862  69.9965557  19.1271296
  16.9146811  70.0142647  19.6043376  37.3329777  91.9830608   9.7230373
  37.9708187  91.8637356   9.0193713  37.2150620  92.9311452   9.7818325
  34.1419483  91.9358036   9.6591898  33.8037995  91.8199101   8.7712432
  35.0109251  91.5349201   9.6392904  34.6239266  93.0892888  15.6178103
  34.6127907  92.6945686  14.7458607  34.7859906  92.3558961  16.2111874
  31.3446527  95.8730000  14.5657287  31.0536393  96.7775631  14.4503953
  31.9803512  95.9146527  15.2801357  32.2702734  93.2506848  11.1558647
  32.8666306  93.0262871  10.4415610  32.3277706  92.5091594  11.7584095
  36.8871045  89.7082062   6.7983581  37.6734135  89.2901485   6.4473998
  37.1509750  90.6128154   6.9665229  42.2879473  89.6457295   7.7016559
  43.0204644  89.0756512   7.9354389  41.5318828  89.2578896   8.1423065
  33.9055592  92.0684537   4.8979902  33.5413799  91.5415158   5.6092823
  34.7622708  91.6783006   4.7246387  39.8104893  83.3578869  12.1611168
  39.4788218  84.2274280  11.9372383  39.2150506  83.0415153  12.8405198
  36.3036412  95.5591415  11.5607081  36.0037135  96.4616454  11.4522888
  35.9587472  95.2923599  12.4128234  29.7548894  92.0105212   7.5943785
  28.8299390  91.8781426   7.8021477  30.0033307  92.7899431   8.0913728
  39.7033556  88.0773956   9.2404518  38.7950434  88.0089364   8.9463279
  39.6521152  88.5545900  10.0686344  33.7774422  89.4963601  17.1839415
  33.0007756  90.0557521  17.1742280  34.4164985  89.9820384  17.7054285
  41.5695203  86.2790394  11.0182392  40.9269583  86.5722927  10.3722187
  41.0650131  86.1643314  11.8235589  39.2235366  90.0253567   1.7068251
  40.1353222  90.2580954   1.5315949  38.7145013  90.6090611   1.1443330
  32.0320794  92.3049054  16.7457382  32.7735479  92.8434098  16.4692206
  31.3257780  92.9315343  16.9028934  37.5076134  94.4478195  15.3429544
  37.9159490  94.0060605  14.5984176  36.7853395  93.8730822  15.5963737
  33.8607204  89.3850802  12.7163101  34.7068399  89.8090215  12.8597750
  33.8005842  88.7284426  13.4101664  37.8304949  95.0079386   9.0981833
  37.2013811  95.1725100   8.3957901  37.4430611  95.4220995   9.8692797
  41.7094180  95.9433823   6.4526196  41.0245219  96.3232725   5.9023230
  41.7938030  96.5529150   7.1858144  37.0106649  87.0455170  14.3744274
  36.7667581  87.7997231  13.8378550  37.2866580  87.4240518  15.2091521
  38.9645112  93.5893782  13.0521540  39.1762007  94.2325542  12.3755921
  38.9174860  92.7556099  12.5843470  36.5671341  86.2011603   9.9558112
  35.7055820  86.4992857  10.2474850  36.5933776  86.4182002   9.0239145
  33.3832910  94.7453794   6.3631918  33.8471256  95.0241497   5.5736540
  33.1189709  93.8437238   6.1805008  30.2756991  94.2925275   9.3011681
  30.8458349  94.7212544   8.6629166  30.8665103  94.0107860   9.9995867
  32.3201796  90.8676946   3.1721483  33.0225840  91.3197990   3.6395409
  31.9882425  90.2260765   3.8001376  30.7682158  89.4588703  17.5472692
  30.1380819  90.1404983  17.7808089  30.6618246  89.3471784  16.6025831
  26.0627130  89.1260499   8.4738616  25.2726184  89.3818027   7.9978727
  26.5538378  89.9408837   8.5790657  40.0790940  96.4665738  11.2243897
  40.9008384  96.0645925  10.9426579  40.0753343  96.3633972  12.1760013
  33.8447543  96.0149781  13.3804608  33.9091976  96.4770188  14.2162780
  33.1358467  95.3847146  13.5086918  24.3464833  89.3790989  10.9053607
  24.5972872  90.2637999  11.1711183  24.8824382  89.1995591  10.1328699
  48.1696933  92.8104486   7.5728869  47.4160641  92.2411884   7.4172873
  48.3044474  92.7767151   8.5199503  30.0462901  83.7609468  19.9097943
  29.6529846  83.2075667  20.5845588  30.8629041  84.0720047  20.3004461
  32.9630862  85.1767348  17.5018200  33.7040575  85.7774501  17.4222662
  33.1948785  84.4344985  16.9436242  28.1072200  90.3623715  15.7796430
  27.9925715  89.4608972  16.0803528  27.2516717  90.6087412  15.4281246
  35.1864037  98.3041455  17.3783930  34.7427892  97.5177834  17.0604835
  35.8481251  98.4920606  16.7127821  29.9451159  99.8337257  11.9044609
  30.4958584  99.7054320  11.1321603  29.1062635 100.1332146  11.5539502
  37.2845276  98.5844255  15.4065331  37.2663751  99.4053136  14.9145601
  38.2065196  98.4598330  15.6315473  33.7418330  96.0988385  16.2488840
  34.2746666  95.3376673  16.0188148  33.2132411  95.8062036  16.9912994
  36.9088025  81.2048451  11.7782482  36.5652294  82.0950092  11.7021592
  37.2766987  81.0150108  10.9152067  36.8738307  91.1957062   0.2854917
  36.3584931  91.9661666   0.5243304  36.6015616  90.5222198   0.9087978
  34.4585418  86.0406762   5.3440155  33.6027015  85.6513613   5.1645794
  34.8712370  86.1198723   4.4839941  35.9884565  83.5753106   9.7431715
  35.4849361  83.5383241   8.9299520  36.2815172  84.4845848   9.8028371
  32.2327451  83.6591835   8.7497897  33.0980448  83.4634644   8.3903786
  32.3004960  83.4302187   9.6767253  41.8472582  93.9489416   2.2208090
  41.0702024  93.6100576   1.7763252  42.5264062  93.9542039   1.5463055
  36.6624611  89.0684154   2.1114698  36.3574746  89.3830303   2.9624841
  37.6155053  89.1465574   2.1542031  40.0863888  93.4223398   8.8774698
  39.4287563  94.1122659   8.9654827  40.8904288  93.8119829   9.2208685
  29.8389770  85.8894043   6.1214263  30.4133522  85.6669225   5.3887456
  30.4260752  85.9582738   6.8742865  38.8969347  91.7767770   6.9278640
  39.4101229  92.4097762   7.4300350  39.5470571  91.1768966   6.5622000
  32.1412438  82.7635292   4.8489333  31.4876850  82.4484309   4.2245948
  32.0992912  82.1411033   5.5749156  35.3750178  89.2517226   9.1736980
  34.4572739  89.4732173   9.0158668  35.7910322  89.3263536   8.3148688
  36.1585226  90.6508641   4.3039661  36.9057045  91.1630039   3.9946783
  36.4276815  90.3292694   5.1644054  39.6631143  96.7573772   5.0557783
  39.2093471  95.9164682   5.1122973  39.0325110  97.3935170   5.3932563
  38.6064063  87.6865758   6.2858450  37.8686820  87.1743144   6.6168693
  38.8590837  87.2466139   5.4741727  38.1064083  98.5950268   5.9907601
  38.3987057  99.1555325   5.2719966  38.6162703  98.8878829   6.7460760
  38.7075690  80.4642010   6.8800219  39.0134567  79.6039373   6.5926134
  39.4328295  81.0559630   6.6799213  32.9796770  90.7595803   7.3876410
  33.0345380  89.8069639   7.3118887  32.1687972  90.9155242   7.8717709
  30.9189130  89.3772863   5.1466789  30.1056996  89.6767033   5.5531981
  31.4148124  88.9828551   5.8641271  36.5163342  89.8414687  13.9781683
  36.8712729  90.0686160  14.8376149  37.1635473  90.1733064  13.3558938
  42.2461079  92.9633123   4.6831012  42.1078977  93.1534719   3.7552201
  41.8897297  93.7252506   5.1399063  30.4103205  86.9491218  10.7628024
  31.0502584  86.8079977  10.0650987  29.5780735  86.6625731  10.3866626
  42.2730458  95.0309650   9.6942284  42.7066965  94.9384939  10.5425338
  42.9862039  95.0067150   9.0562300  36.0058353  98.6311744  11.2275384
  36.0595375  99.2002680  11.9953100  35.1373134  98.8013629  10.8629421
  27.4131821  86.9191543   5.5401011  27.6738638  87.8336876   5.4310171
  28.2348993  86.4515986   5.6897624  28.8856746  88.3329300  12.7099835
  29.5579800  88.1246662  12.0612484  28.0586533  88.1351386  12.2705068
  43.1346008  95.0733351  12.2275169  43.3281898  95.9779161  12.4734444
  43.0346626  94.6140770  13.0613754  34.7882319  84.9591241  14.7265496
  34.1410234  85.6581191  14.6329973  35.5583334  85.3927385  15.0941745
  38.1961116  95.2240093  17.8016050  38.0446623  94.9950645  16.8846133
  38.1865796  96.1810695  17.8147395  34.9646453  92.7972006  12.7862316
  35.8938513  92.9483166  12.6131283  34.5437483  92.8856027  11.9310963
  33.7634785  96.8222670  10.5560854  33.6245870  96.4541455  11.4286792
  32.9749381  97.3370310  10.3844811  35.3140000  96.2004273   7.9449691
  34.9789832  96.1605043   8.8407341  34.8143945  95.5348989   7.4720102
  29.2884244  91.6071903  13.4702273  29.1504042  90.8752142  14.0713812
  30.1989167  91.5180803  13.1886460  31.9166544  91.3191862  12.9585952
  32.6266163  90.6785055  12.9172571  31.8735853  91.5704757  13.8812133
  39.9053323  98.2559216  15.8792531  39.8465869  97.5718436  15.2123115
  40.3072841  98.9978206  15.4273157  30.6295478  88.3057080  14.7781592
  30.0932835  87.8547819  15.4303188  30.0412187  88.4402989  14.0352056
  39.9070730  96.2198800  14.1106511  39.0197509  95.8824722  14.2332910
  40.4769281  95.4881831  14.3475277  26.3634600  87.4413088  11.8634586
  26.2792788  86.8338758  11.1284996  25.5417306  87.9322106  11.8644083
  33.4371884 100.8800252  11.0767754  33.3642055 101.6855224  11.5887059
  32.9949277 101.0792218  10.2515776  36.5358313  85.9266652   7.2304781
  37.0327013  85.1736614   6.9105852  35.7645295  85.9630968   6.6647991
  44.3888071  91.6307017   8.8723073  44.3777947  92.5131733   8.5017006
  43.5205450  91.2778568   8.6777610  35.8970567 100.7787086  13.2325913
  36.6098539 101.4134551  13.1601815  35.4060596 100.8750952  12.4165915
  37.6188094  94.6838339   4.8043205  36.6844373  94.8039801   4.6347909
  37.7964763  93.7810806   4.5403215  33.1193282  88.0684035   6.9576466
  32.7491070  87.5155075   7.6457371  33.6152375  87.4642168   6.4051466
  41.0060646  90.5255658   5.3393239  41.4721098  91.3583650   5.2653542
  41.4568146  90.0600640   6.0438497  30.9482481  98.5281530  14.0531484
  31.6491940  99.1618013  14.2060878  30.4777596  98.8696261  13.2927123
  39.0736877  96.8699479   2.3379391  39.3496721  96.7556074   3.2473265
  38.2041375  96.4716964   2.2991564  38.9777308  82.8936245   9.3784140
  38.0640388  83.1240472   9.5466347  39.4070410  82.9774689  10.2298173
  38.7483767  91.0826137  11.8784034  38.0955217  91.3302045  11.2236487
  39.1264147  90.2690275  11.5446512  35.7090941 101.1185830   5.9812205
  35.8913335 100.3007486   6.4439957  36.5323927 101.3353522   5.5437094
  34.7971340  91.8245948  18.3650071  34.1211977  91.7240077  19.0352447
  35.6198974  91.6685162  18.8286069  33.5394123 103.1312876  12.6007687
  34.0912431 103.2944497  13.3656773  33.8800316 103.7217313  11.9287712
  28.5158616  85.4788025  13.2029572  28.5799942  86.3402856  12.7906970
  28.4525736  84.8662027  12.4701931  27.9910888  87.5511158  16.8502606
  28.6182927  87.1688235  17.4640131  27.1338807  87.3325360  17.2158299
  38.3904997  97.9574133  18.4556342  38.9344901  98.5704091  17.9611297
  37.8091842  98.5153711  18.9723355  36.6762510 101.0794851   9.5871369
  36.5513649 100.2784591   9.0782315  37.3341601 101.5741044   9.0985339
  28.2970678  87.4343584   8.7648510  27.5757264  88.0479551   8.6255983
  29.0863934  87.9701348   8.6865156  38.7397418  98.8803871  11.2150920
  37.7927754  98.7609222  11.1429246  39.0880191  97.9926369  11.2977181
  31.0996992  84.7698010  15.0389161  31.6231394  85.0160307  15.8015471
  30.8809325  85.6018045  14.6192299  35.7443852  98.6756587   7.4155272
  35.5968814  97.7473295   7.5962842  36.5697345  98.6976678   6.9312347
  39.3477973  99.4985146   8.5020145  40.2724521  99.2928007   8.3644596
  39.1793277  99.2501547   9.4109486  32.3049537  85.7111705  12.7238832
  31.9646357  84.9119518  13.1259512  31.5988543  86.0113416  12.1515665
  32.9566009  82.7961018  11.1766155  33.7792078  82.3221496  11.0545045
  33.2004072  83.5751501  11.6764841  31.5974243  85.8249276   1.4729057
  32.3182606  86.2030529   0.9692774  30.9739547  86.5438153   1.5764035
  35.7405366  86.5294425   2.4087389  35.9568980  87.4119063   2.1076217
  35.2599433  86.1380638   1.6793031  30.4804587  89.4880138   8.9858134
  30.3349168  89.8020441   9.8782415  30.0029791  90.1065039   8.4329032
  32.3400970  86.4782686   9.0339023  32.3262539  85.5823780   8.6971321
  33.0573398  86.4853350   9.6677309  34.1927101  86.9120026  11.0792151
  33.9344879  87.8337097  11.0776481  33.6612141  86.5150461  11.7692615
  39.1373290 100.0170814   3.8582236  39.3110167  99.4517236   3.1056088
  39.6302181 100.8171708   3.6761726  24.9550249  92.0285483  11.9245795
  24.4103718  92.8045291  12.0566069  25.8329599  92.3756287  11.7664916
  31.7437866  85.3597067   4.3026593  31.8653777  84.4313713   4.5017481
  31.4539909  85.3735752   3.3904909  34.6129057  83.0451977   7.4393313
  34.6350753  83.1091310   6.4845293  35.0297116  82.2056486   7.6333819
  44.9912681  92.7807237   5.4772536  45.4343827  92.0314562   5.0791659
  44.1139191  92.7717373   5.0946268  25.7416271  91.1555379  14.8175952
  24.9998007  91.3038014  15.4040582  25.4209016  91.4163645  13.9542701
  42.0239885  96.7837284   2.4866465  42.5491209  97.1224556   1.7615785
  41.9362238  95.8484299   2.3029600  33.6859934 100.6971357  14.6156342
  33.9947060 100.4520504  15.4879041  34.4835416 100.9017996  14.1275212
  31.1554418  98.3947276   8.9184020  30.5334427  97.7317981   8.6186248
  31.8259285  98.4208408   8.2357668  31.2278946  86.8729064  18.5116526
  31.2767101  87.7491187  18.1294296  31.7701460  86.3306457  17.9388169
  41.7133791  97.4170187  17.7917663  40.9229335  97.3994326  17.2522162
  41.4767146  97.9558481  18.5466700  41.8331666  94.2662654  15.1050392
  41.8829671  94.1012661  16.0465914  41.7245590  93.3989913  14.7148272
  39.1235429  90.2493582  16.4209698  40.0245292  90.1100046  16.1293696
  39.1983403  90.4148036  17.3607876  33.4578234  87.6260436  15.2662885
  32.5881544  87.9194002  14.9945473  33.6937715  88.2100881  15.9870148
  43.3349863  96.6859595  15.3492413  43.0434672  97.0489576  16.1855874
  42.7221995  95.9726603  15.1705745  44.5345546  94.2512475   7.8694983
  45.3692437  94.6902279   8.0332544  44.6704674  93.7751128   7.0503229
  41.5837051  91.8092210  13.8172471  42.0591173  92.0019856  13.0091322
  40.6602617  91.8651395  13.5715855  36.1617268  83.8440053  12.7828305
  36.6799212  84.5801080  12.4574794  35.8072401  84.1504047  13.6175064
  36.4129862  80.2640336   8.3029202  36.6931616  79.5963525   8.9289628
  37.1980469  80.4569431   7.7903865  40.2838720  88.6857970  12.0500777
  41.2356143  88.7856067  12.0713001  40.1142171  87.8936238  12.5598861
  38.3053100  85.7713553  12.2360178  37.7103032  86.0518566  11.5406666
  38.0202797  86.2607454  13.0076919  42.7626798  91.9064089  11.1643076
  42.7303118  90.9680090  11.3502760  43.3727422  91.9848126  10.4308901
  42.9121287  88.6975133  11.2101359  42.3960335  87.9133590  11.0231288
  43.7961235  88.3693849  11.3747879  40.5732014  82.4416148   7.1697172
  40.3756835  82.1331237   8.0540504  41.1831719  83.1677787   7.2995102
  48.5803348  92.9680096  10.3049113  49.3106737  92.7065384  10.8656816
  47.9710294  92.2308818  10.3451181  46.6618645  91.1087959  10.9023564
  45.9351809  90.9743924  10.2940056  46.2465932  91.4164787  11.7080282
  34.4848822  94.8277889  18.6670937  35.4051831  95.0056488  18.8610984
  34.4498405  93.8833934  18.5150637  27.4810894  92.7378923  11.3093718
  27.6996904  93.6696031  11.3281752  27.8936668  92.3786898  12.0948522
  34.4015112  83.2447009   3.2969407  33.5915840  82.8994093   3.6724653
  35.0899529  82.9354552   3.8857018  36.3305660  82.3225055   4.9193703
  36.8836699  82.7420509   5.5783727  36.5675747  81.3960803   4.9616660
  32.3538760  88.3112129  20.6996467  32.2535486  89.2606486  20.6308559
  32.1360302  87.9830368  19.8272537  39.7084467  84.4325580   4.4272368
  39.1283136  85.0910385   4.0450420  39.4420400  83.6102925   4.0159785
  38.1588034  83.8330638   6.6293688  38.6587812  83.9447173   5.8208007
  38.8023642  83.5291691   7.2694497  32.2170030  91.7409268  19.5161529
  31.7337111  92.5409628  19.7225418  32.3030969  91.7517213  18.5628973
  28.1443367  95.6313803  11.5529963  29.0986621  95.5997745  11.4859894
  27.9455891  95.1704426  12.3680189  28.7342749  94.2014919  14.1200761
  29.5535638  94.6958997  14.1435598  29.0079557  93.2846887  14.0918328
  38.4909345  86.5925671   3.4828716  37.6035200  86.8775321   3.2648911
  38.9063334  86.4319434   2.6355993  41.8423882  86.6172192   7.1983055
  42.6184272  87.1068644   7.4707672  41.1172016  87.0430246   7.6554925
  44.2796440  87.3299811   8.2556996  44.8740931  87.0895547   7.5450304
  44.3523024  86.6106942   8.8830532  38.4650369  92.1080207   3.6979006
  38.4085571  92.5648758   2.8586639  39.0178712  91.3470891   3.5201849
  42.2755175  87.8969939   4.5229126  42.0192109  87.4966574   5.3537333
  41.6508043  88.6113733   4.3979265  46.5867513  90.6366012   7.0300417
  46.0267071  90.7059201   7.8031979  45.9811016  90.4606997   6.3099913
  39.1985148  93.2984988   0.9931535  39.1433952  93.1329259   0.0519979
  38.5731204  94.0061021   1.1493725  23.9877663  88.5353052  14.8192958
  24.6336527  88.0252006  15.3080183  23.7794815  89.2721734  15.3936383
  36.5131056  95.6033900  20.3185098  37.3822215  95.7774552  19.9571733
  36.0337807  96.4228317  20.1960827  32.5081274  82.7993097   0.5716854
  32.4959944  83.7434937   0.7285125  33.4004696  82.6163242   0.2776315
  30.6817236 102.7231001  11.9974532  31.5844483 102.7554611  12.3141027
  30.4554606 101.7931452  12.0120868  36.3233393  79.3935874   4.8262791
  35.5565789  78.8394360   4.9719473  36.7344098  79.4657742   5.6876942
  28.3275154  85.6820669  18.9167972  29.1906616  85.3257474  19.1271296
  27.7540565  85.3434564  19.6043376  48.1723531 107.3122526   9.7230373
  48.8101941 107.1929273   9.0193713  48.0544374 108.2603370   9.7818325
  44.9813238 107.2649954   9.6591898  44.6431749 107.1491019   8.7712432
  45.8503006 106.8641119   9.6392904  45.4633021 108.4184806  15.6178103
  45.4521661 108.0237604  14.7458607  45.6253660 107.6850878  16.2111874
  42.1840282 111.2021917  14.5657287  41.8930148 112.1067548  14.4503953
  42.8197266 111.2438445  15.2801357  43.1096489 108.5798766  11.1558647
  43.7060061 108.3554788  10.4415610  43.1671460 107.8383511  11.7584095
  47.7264800 105.0373980   6.7983581  48.5127889 104.6193403   6.4473998
  47.9903504 105.9420072   6.9665229  50.6498647  98.6870787  12.1611168
  50.3181972  99.5566198  11.9372383  50.0544261  98.3707071  12.8405198
  47.1430167 110.8883333  11.5607081  46.8430890 111.7908372  11.4522888
  46.7981226 110.6215516  12.4128234  40.5942648 107.3397130   7.5943785
  39.6693145 107.2073344   7.8021477  40.8427062 108.1191349   8.0913728
  50.5427311 103.4065873   9.2404518  49.6344188 103.3381282   8.9463279
  50.4914906 103.8837818  10.0686344  44.6168176 104.8255519  17.1839415
  43.8401511 105.3849439  17.1742280  45.2558739 105.3112302  17.7054285
  52.4088957 101.6082312  11.0182392  51.7663337 101.9014845  10.3722187
  51.9043886 101.4935232  11.8235589  42.8714549 107.6340972  16.7457382
  43.6129233 108.1726016  16.4692206  42.1651534 108.2607261  16.9028934
  48.3469888 109.7770113  15.3429544  48.7553244 109.3352523  14.5984176
  47.6247150 109.2022740  15.5963737  44.7000958 104.7142719  12.7163101
  45.5462154 105.1382133  12.8597750  44.6399596 104.0576344  13.4101664
  47.8500404 102.3747088  14.3744274  47.6061336 103.1289148  13.8378550
  48.1260334 102.7532435  15.2091521  49.8038867 108.9185700  13.0521540
  50.0155762 109.5617460  12.3755921  49.7568615 108.0848017  12.5843470
  47.4065095 101.5303521   9.9558112  46.5449575 101.8284774  10.2474850
  47.4327530 101.7473920   9.0239145  41.1150746 109.6217193   9.3011681
  41.6852103 110.0504461   8.6629166  41.7058858 109.3399778   9.9995867
  41.6075912 104.7880620  17.5472692  40.9774573 105.4696901  17.7808089
  41.5012000 104.6763702  16.6025831  36.9020885 104.4552416   8.4738616
  36.1119939 104.7109945   7.9978727  37.3932132 105.2700754   8.5790657
  44.6841298 111.3441699  13.3804608  44.7485730 111.8062106  14.2162780
  43.9752222 110.7139064  13.5086918  35.1858588 104.7082907  10.9053607
  35.4366626 105.5929917  11.1711183  35.7218136 104.5287508  10.1328699
  40.8856655  99.0901386  19.9097943  40.4923601  98.5367585  20.5845588
  41.7022796  99.4011965  20.3004461  43.8024616 100.5059265  17.5018200
  44.5434330 101.1066418  17.4222662  44.0342539  99.7636903  16.9436242
  38.9465954 105.6915633  15.7796430  38.8319469 104.7900890  16.0803528
  38.0910472 105.9379329  15.4281246  46.0257792 113.6333373  17.3783930
  45.5821646 112.8469751  17.0604835  46.6875006 113.8212523  16.7127821
  40.7844913 115.1629174  11.9044609  41.3352338 115.0346238  11.1321603
  39.9456389 115.4624063  11.5539502  48.1239030 113.9136173  15.4065331
  48.1057505 114.7345054  14.9145601  49.0458950 113.7890248  15.6315473
  44.5812084 111.4280302  16.2488840  45.1140421 110.6668590  16.0188148
  44.0526165 111.1353954  16.9912994  47.7481779  96.5340368  11.7782482
  47.4046049  97.4242010  11.7021592  48.1160742  96.3442026  10.9152067
  45.2979173 101.3698680   5.3440155  44.4420769 100.9805530   5.1645794
  45.7106125 101.4490641   4.4839941  46.8278320  98.9045023   9.7431715
  46.3243115  98.8675159   8.9299520  47.1208926  99.8137766   9.8028371
  43.0721205  98.9883753   8.7497897  43.9374202  98.7926562   8.3903786
  43.1398714  98.7594105   9.6767253  40.6783525 101.2185961   6.1214263
  41.2527276 100.9961142   5.3887456  41.2654507 101.2874655   6.8742865
  42.9806192  98.0927210   4.8489333  42.3270605  97.7776227   4.2245948
  42.9386666  97.4702950   5.5749156  46.2143933 104.5809143   9.1736980
  45.2966494 104.8024090   9.0158668  46.6304076 104.6555454   8.3148688
  49.5469445  95.7933927   6.8800219  49.8528322  94.9331291   6.5926134
  50.2722050  96.3851548   6.6799213  43.8190525 106.0887720   7.3876410
  43.8739134 105.1361557   7.3118887  43.0081727 106.2447160   7.8717709
  41.7582884 104.7064780   5.1466789  40.9450750 105.0058951   5.5531981
  42.2541879 104.3120469   5.8641271  47.3557096 105.1706605  13.9781683
  47.7106484 105.3978078  14.8376149  48.0029227 105.5024981  13.3558938
  41.2496959 102.2783136  10.7628024  41.8896339 102.1371895  10.0650987
  40.4174490 101.9917649  10.3866626  46.8452108 113.9603662  11.2275384
  46.8989130 114.5294598  11.9953100  45.9766889 114.1305547  10.8629421
  38.2525576 102.2483461   5.5401011  38.5132393 103.1628794   5.4310171
  39.0742748 101.7807903   5.6897624  39.7250501 103.6621218  12.7099835
  40.3973554 103.4538580  12.0612484  38.8980288 103.4643304  12.2705068
  45.6276073 100.2883159  14.7265496  44.9803988 100.9873108  14.6329973
  46.3977088 100.7219303  15.0941745  49.0354871 110.5532011  17.8016050
  48.8840377 110.3242563  16.8846133  49.0259550 111.5102612  17.8147395
  45.8040207 108.1263924  12.7862316  46.7332267 108.2775083  12.6131283
  45.3831237 108.2147944  11.9310963  44.6028539 112.1514588  10.5560854
  44.4639625 111.7833373  11.4286792  43.8143135 112.6662228  10.3844811
  40.1277998 106.9363821  13.4702273  39.9897796 106.2044060  14.0713812
  41.0382922 106.8472721  13.1886460  42.7560299 106.6483780  12.9585952
  43.4659917 106.0076972  12.9172571  42.7129607 106.8996675  13.8812133
  50.7447078 113.5851134  15.8792531  50.6859624 112.9010354  15.2123115
  51.1466596 114.3270124  15.4273157  41.4689233 103.6348998  14.7781592
  40.9326590 103.1839737  15.4303188  40.8805941 103.7694907  14.0352056
  50.7464485 111.5490717  14.1106511  49.8591264 111.2116639  14.2332910
  51.3163036 110.8173749  14.3475277  37.2028354 102.7705006  11.8634586
  37.1186543 102.1630675  11.1284996  36.3811061 103.2614024  11.8644083
  47.3752068 101.2558569   7.2304781  47.8720768 100.5028532   6.9105852
  46.6039049 101.2922886   6.6647991  46.7364322 116.1079004  13.2325913
  47.4492294 116.7426469  13.1601815  46.2454350 116.2042870  12.4165915
  43.9587037 103.3975952   6.9576466  43.5884824 102.8446993   7.6457371
  44.4546129 102.7934086   6.4051466  41.7876235 113.8573447  14.0531484
  42.4885695 114.4909930  14.2060878  41.3171350 114.1988179  13.2927123
  49.8171063  98.2228163   9.3784140  48.9034143  98.4532390   9.5466347
  50.2464164  98.3066607  10.2298173  49.5877521 106.4118055  11.8784034
  48.9348972 106.6593962  11.2236487  49.9657901 105.5982193  11.5446512
  45.6365094 107.1537866  18.3650071  44.9605731 107.0531995  19.0352447
  46.4592728 106.9977080  18.8286069  39.3552370 100.8079943  13.2029572
  39.4193697 101.6694774  12.7906970  39.2919491 100.1953945  12.4701931
  38.8304643 102.8803076  16.8502606  39.4576682 102.4980153  17.4640131
  37.9732562 102.6617278  17.2158299  49.2298751 113.2866051  18.4556342
  49.7738655 113.8996009  17.9611297  48.6485596 113.8445629  18.9723355
  39.1364433 102.7635501   8.7648510  38.4151018 103.3771469   8.6255983
  39.9257688 103.2993266   8.6865156  41.9390746 100.0989928  15.0389161
  42.4625148 100.3452224  15.8015471  41.7203079 100.9309963  14.6192299
  43.1443291 101.0403623  12.7238832  42.8040112 100.2411436  13.1259512
  42.4382298 101.3405334  12.1515665  43.7959763  98.1252935  11.1766155
  44.6185832  97.6513413  11.0545045  44.0397827  98.9043419  11.6764841
  41.3198342 104.8172056   8.9858134  41.1742923 105.1312359   9.8782415
  40.8423545 105.4356956   8.4329032  43.1794725 101.8074604   9.0339023
  43.1656293 100.9115697   8.6971321  43.8967153 101.8145268   9.6677309
  45.0320855 102.2411944  11.0792151  44.7738633 103.1629015  11.0776481
  44.5005896 101.8442379  11.7692615  35.7944004 107.3577400  11.9245795
  35.2497472 108.1337208  12.0566069  36.6723354 107.7048205  11.7664916
  42.5831621 100.6888984   4.3026593  42.7047532  99.7605630   4.5017481
  42.2933663 100.7027670   3.3904909  45.4522811  98.3743895   7.4393313
  45.4744508  98.4383228   6.4845293  45.8690870  97.5348403   7.6333819
  36.5810026 106.4847297  14.8175952  35.8391762 106.6329932  15.4040582
  36.2602770 106.7455562  13.9542701  44.5253688 116.0263275  14.6156342
  44.8340815 115.7812422  15.4879041  45.3229171 116.2309913  14.1275212
  42.0672700 102.2020982  18.5116526  42.1160856 103.0783104  18.1294296
  42.6095214 101.6598375  17.9388169  52.5527546 112.7462105  17.7917663
  51.7623090 112.7286244  17.2522162  52.3160900 113.2850399  18.5466700
  52.6725421 109.5954571  15.1050392  52.7223426 109.4304579  16.0465914
  52.5639344 108.7281830  14.7148272  49.9629183 105.5785499  16.4209698
  50.8639046 105.4391964  16.1293696  50.0377158 105.7439954  17.3607876
  44.2971989 102.9552354  15.2662885  43.4275298 103.2485920  14.9945473
  44.5331469 103.5392799  15.9870148  54.1743618 112.0151513  15.3492413
  53.8828426 112.3781493  16.1855874  53.5615749 111.3018521  15.1705745
  52.4230806 107.1384127  13.8172471  52.8984928 107.3311774  13.0091322
  51.4996371 107.1943313  13.5715855  47.0011022  99.1731971  12.7828305
  47.5192966  99.9092998  12.4574794  46.6466155  99.4795964  13.6175064
  47.2523617  95.5932253   8.3029202  47.5325370  94.9255443   8.9289628
  48.0374224  95.7861349   7.7903865  51.1232475 104.0149887  12.0500777
  52.0749898 104.1147985  12.0713001  50.9535925 103.2228156  12.5598861
  49.1446854 101.1005471  12.2360178  48.5496787 101.3810483  11.5406666
  48.8596551 101.5899372  13.0076919  53.6020553 107.2356007  11.1643076
  53.5696873 106.2972008  11.3502760  54.2121176 107.3140044  10.4308901
  53.7515041 104.0267051  11.2101359  53.2354090 103.2425507  11.0231288
  54.6354990 103.6985767  11.3747879  51.4125768  97.7708066   7.1697172
  51.2150589  97.4623154   8.0540504  52.0225474  98.4969705   7.2995102
  45.3242576 110.1569806  18.6670937  46.2445586 110.3348405  18.8610984
  45.2892159 109.2125852  18.5150637  38.3204649 108.0670841  11.3093718
  38.5390658 108.9987949  11.3281752  38.7330423 107.7078815  12.0948522
  45.2408867  98.5738926   3.2969407  44.4309595  98.2286011   3.6724653
  45.9293283  98.2646470   3.8857018  47.1699415  97.6516973   4.9193703
  47.7230453  98.0712426   5.5783727  47.4069501  96.7252721   4.9616660
  43.1932514 103.6404047  20.6996467  43.0929241 104.5898404  20.6308559
  42.9754056 103.3122286  19.8272537  48.9981788  99.1622556   6.6293688
  49.4981567  99.2739090   5.8208007  49.6417396  98.8583609   7.2694497
  43.0563784 107.0701185  19.5161529  42.5730866 107.8701546  19.7225418
  43.1424723 107.0809130  18.5628973  38.9837122 110.9605720  11.5529963
  39.9380375 110.9289663  11.4859894  38.7849645 110.4996344  12.3680189
  39.5736504 109.5306836  14.1200761  40.3929393 110.0250915  14.1435598
  39.8473311 108.6138804  14.0918328  52.6817636 101.9464110   7.1983055
  53.4578026 102.4360562   7.4707672  51.9565770 102.3722164   7.6554925
  34.8271418 103.8644970  14.8192958  35.4730282 103.3543924  15.3080183
  34.6188569 104.6013652  15.3936383  47.3524810 110.9325818  20.3185098
  48.2215970 111.1066470  19.9571733  46.8731562 111.7520234  20.1960827
  41.5210990 118.0522919  11.9974532  42.4238237 118.0846529  12.3141027
  41.2948360 117.1223370  12.0120868  47.1627148  94.7227791   4.8262791
  46.3959544  94.1686278   4.9719473  47.5737853  94.7949660   5.6876942
  39.1668909 101.0112587  18.9167972  40.0300370 100.6549392  19.1271296
  38.5934320 100.6726482  19.6043376  51.7250410 114.4193304  19.9097943
  51.3317355 113.8659502  20.5845588  52.5416550 114.7303882  20.3004461
  54.6418371 115.8351183  17.5018200  55.3828084 116.4358336  17.4222662
  54.8736294 115.0928821  16.9436242  49.6698397 118.2094993  16.8502606
  50.2970436 117.8272071  17.4640131  48.8126316 117.9909195  17.2158299
  52.9066455 117.5312899  18.5116526  52.9554610 118.4075022  18.1294296
  53.4488969 116.9890292  17.9388169  54.0326269 118.9695964  20.6996467
  53.9322995 119.9190321  20.6308559  53.8147811 118.6414203  19.8272537
  45.6665172 119.1936888  14.8192958  46.3124036 118.6835842  15.3080183
  45.4582324 119.9305569  15.3936383  50.0062663 116.3404505  18.9167972
  50.8694125 115.9841310  19.1271296  49.4328074 116.0018400  19.6043376
  24.3470284  59.9811660   4.1029237  23.9034138  59.1948039   3.7850141
  25.0087498  60.1690811   3.4373128  26.4451522  60.2614460   2.1310638
  26.4269998  61.0823341   1.6390907  27.3671442  60.1368535   2.3560779
  27.3567363  56.9010298   4.5261356  27.2052870  56.6720850   3.6091440
  27.3472043  57.8580900   4.5392701  29.0659570  59.9329421   2.6037838
  29.0072116  59.2488641   1.9368421  29.4679088  60.6748411   2.1518464
  27.5511244  59.6344338   5.1801648  28.0951148  60.2474296   4.6856603
  26.9698089  60.1923916   5.6968661  30.8740038  59.0940392   4.5162970
  30.0835582  59.0764531   3.9767469  30.6373393  59.6328686   5.2712006
  32.4956110  58.3629800   2.0737720  32.2040918  58.7259781   2.9101181
  31.8828241  57.6496808   1.8951052  25.6737302  57.2804105   7.0430405
  26.5428462  57.4544757   6.6817040  25.1944054  58.0998522   6.9206134
  37.3329778  68.9892731  -3.5524321  37.9708188  68.8699478  -4.2560980
  37.2150621  69.9373575  -3.4936368  34.1419484  68.9420159  -3.6162796
  33.8037996  68.8261224  -4.5042261  35.0109253  68.5411324  -3.6361790
  34.6239267  70.0955011   2.3423410  34.6127908  69.7007809   1.4703913
  34.7859907  69.3621083   2.9357181  31.3446529  72.8792122   1.2902594
  31.0536395  73.7837753   1.1749260  31.9803513  72.9208650   2.0046663
  32.2702735  70.2568971  -2.1196047  32.8666308  70.0324993  -2.8339084
  32.3277707  69.5153716  -1.5170599  42.2879474  66.6519418  -5.5738134
  43.0204646  66.0818635  -5.3400305  41.5318829  66.2641018  -5.1331628
  39.8104894  60.3640992  -1.1143525  39.4788219  61.2336403  -1.3382310
  39.2150507  60.0477276  -0.4349495  36.3036414  72.5653538  -1.7147613
  36.0037137  73.4678577  -1.8231805  35.9587473  72.2985721  -0.8626460
  39.7033557  65.0836078  -4.0350175  38.7950435  65.0151487  -4.3291414
  39.6521153  65.5608023  -3.2068350  33.7774423  66.5025724   3.9084722
  33.0007757  67.0619644   3.8987587  34.4164986  66.9882507   4.4299592
  41.5695204  63.2852517  -2.2572301  40.9269584  63.5785050  -2.9032507
  41.0650132  63.1705437  -1.4519105  32.0320796  69.3111177   3.4702689
  32.7735480  69.8496221   3.1937513  31.3257781  69.9377466   3.6274241
  37.5076135  71.4540318   2.0674850  37.9159491  71.0122728   1.3229483
  36.7853397  70.8792945   2.3209043  33.8607205  66.3912924  -0.5591593
  34.7068400  66.8152338  -0.4156944  33.8005843  65.7346549   0.1346970
  37.8304950  72.0141508  -4.1772861  37.2013812  72.1787222  -4.8796793
  37.4430612  72.4283118  -3.4061897  41.7094182  72.9495946  -6.8228497
  41.0245220  73.3294847  -7.3731464  41.7938031  73.5591273  -6.0896549
  37.0106651  64.0517293   1.0989581  36.7667582  64.8059353   0.5623857
  37.2866581  64.4302640   1.9336828  38.9645113  70.5955905  -0.2233153
  39.1762009  71.2387665  -0.8998772  38.9174862  69.7618222  -0.6911223
  30.2756993  71.2987398  -3.9743012  30.8458350  71.7274666  -4.6125528
  30.8665105  71.0169982  -3.2758827  30.7682159  66.4650825   4.2717999
  30.1380820  67.1467106   4.5053396  30.6618247  66.3533907   3.3271137
  40.0790941  73.4727860  -2.0510796  40.9008385  73.0708048  -2.3328114
  40.0753344  73.3696095  -1.0994680  33.8447545  73.0211904   0.1049914
  33.9091977  73.4832311   0.9408086  33.1358469  72.3909269   0.2332224
  48.1696934  69.8166609  -5.7025825  47.4160643  69.2474007  -5.8581820
  48.3044476  69.7829273  -4.7555190  30.0462902  60.7671591   6.6343250
  29.6529848  60.2137790   7.3090894  30.8629042  61.0782170   7.0249767
  32.9630863  62.1829470   4.2263507  33.7040576  62.7836623   4.1467969
  33.1948786  61.4407108   3.6681549  28.1072201  67.3685837   2.5041736
  27.9925716  66.4671095   2.8048835  27.2516719  67.6149534   2.1526553
  35.1864039  75.3103578   4.1029237  34.7427893  74.5239956   3.7850141
  35.8481252  75.4982728   3.4373128  29.9451160  76.8399379  -1.3710085
  30.4958585  76.7116443  -2.1433091  29.1062636  77.1394268  -1.7215192
  37.2845277  75.5906378   2.1310638  37.2663752  76.4115259   1.6390907
  38.2065197  75.4660453   2.3560779  33.7418331  73.1050507   2.9734146
  34.2746668  72.3438795   2.7433454  33.2132412  72.8124159   3.7158301
  40.0863890  70.4285520  -4.3979995  39.4287564  71.1184782  -4.3099867
  40.8904289  70.8181952  -4.0546009  38.8969348  68.7829893  -6.3476053
  39.4101230  69.4159885  -5.8454344  39.5470572  68.1831088  -6.7132693
  35.3750179  66.2579348  -4.1017713  34.4572741  66.4794295  -4.2596025
  35.7910323  66.3325659  -4.9606006  39.6631145  73.7635894  -8.2196911
  39.2093472  72.9226804  -8.1631720  39.0325111  74.3997293  -7.8822131
  38.1064084  75.6012391  -7.2847093  38.3987058  76.1617448  -8.0034727
  38.6162705  75.8940952  -6.5293934  36.5163343  66.8476810   0.7026990
  36.8712731  67.0748283   1.5621455  37.1635474  67.1795186   0.0804245
  42.2461080  69.9695245  -8.5923681  42.1078978  70.1596841  -9.5202492
  41.8897299  70.7314628  -8.1355630  42.2730459  72.0371772  -3.5812410
  42.7066966  71.9447062  -2.7329356  42.9862040  72.0129273  -4.2192394
  36.0058354  75.6373867  -2.0479309  36.0595377  76.2064803  -1.2801593
  35.1373136  75.8075752  -2.4125272  28.8856748  65.3391423  -0.5654858
  29.5579801  65.1308785  -1.2142209  28.0586534  65.1413509  -1.0049626
  43.1346009  72.0795473  -1.0479524  43.3281899  72.9841284  -0.8020249
  43.0346627  71.6202892  -0.2140939  34.7882320  61.9653364   1.4510803
  34.1410235  62.6643313   1.3575279  35.5583335  62.3989508   1.8187051
  38.1961118  72.2302216   4.5261356  38.0446624  72.0012768   3.6091440
  38.1865797  73.1872817   4.5392701  34.9646454  69.8034129  -0.4892377
  35.8938514  69.9545288  -0.6623410  34.5437484  69.8918149  -1.3443731
  33.7634786  73.8284793  -2.7193840  33.6245872  73.4603577  -1.8467902
  32.9749382  74.3432432  -2.8909882  35.3140001  73.2066396  -5.3305002
  34.9789834  73.1667166  -4.4347352  34.8143947  72.5411112  -5.8034592
  29.2884245  68.6134026   0.1947579  29.1504043  67.8814265   0.7959118
  30.1989168  68.5242926  -0.0868233  31.9166546  68.3253985  -0.3168741
  32.6266164  67.6847177  -0.3582123  31.8735854  68.5766880   0.6057440
  39.9053324  75.2621338   2.6037838  39.8465871  74.5780559   1.9368421
  40.3072843  76.0040328   2.1518464  30.6295480  65.3119203   1.5026898
  30.0932837  64.8609941   2.1548495  30.0412188  65.4465112   0.7597363
  39.9070732  73.2260922   0.8351818  39.0197510  72.8886844   0.9578217
  40.4769283  72.4943954   1.0720583  33.4371885  77.8862375  -2.1986939
  33.3642057  78.6917346  -1.6867634  32.9949278  78.0854341  -3.0238918
  44.3888072  68.6369140  -4.4031621  44.3777948  69.5193855  -4.7737687
  43.5205452  68.2840691  -4.5977083  35.8970569  77.7849209  -0.0428780
  36.6098541  78.4196674  -0.1152879  35.4060597  77.8813075  -0.8588778
  37.6188095  71.6900461  -8.4711489  36.6844374  71.8101924  -8.6406784
  37.7964764  70.7872928  -8.7351479  41.0060647  67.5317781  -7.9361455
  41.4721099  68.3645772  -8.0101152  41.4568147  67.0662762  -7.2316196
  30.9482482  75.5343652   0.7776790  31.6491942  76.1680135   0.9306185
  30.4777597  75.8758384   0.0172430  38.7483768  68.0888260  -1.3970659
  38.0955218  68.3364167  -2.0518206  39.1264148  67.2752398  -1.7308182
  35.7090942  78.1247953  -7.2942489  35.8913336  77.3069609  -6.8314737
  36.5323928  78.3415645  -7.7317599  34.7971341  68.8308071   5.0895378
  34.1211978  68.7302200   5.7597753  35.6198975  68.6747284   5.5531375
  33.5394124  80.1374998  -0.6747006  34.0912432  80.3006620   0.0902079
  33.8800317  80.7279436  -1.3466981  27.9910890  64.5573281   3.5747913
  28.6182929  64.1750358   4.1885437  27.1338809  64.3387482   3.9403605
  38.3904998  74.9636256   5.1801648  38.9344902  75.5766214   4.6856603
  37.8091843  75.5215834   5.6968661  36.6762511  78.0856974  -3.6883324
  36.5513651  77.2846714  -4.1972378  37.3341602  78.5803167  -4.1769354
  38.7397420  75.8865994  -2.0603774  37.7927755  75.7671345  -2.1325447
  39.0880193  74.9988492  -1.9777512  31.0996993  61.7760133   1.7634468
  31.6231395  62.0222429   2.5260777  30.8809326  62.6080168   1.3437605
  35.7443853  75.6818710  -5.8599422  35.5968815  74.7535417  -5.6791852
  36.5697346  75.7038801  -6.3442346  39.3477975  76.5047269  -4.7734549
  40.2724522  76.2990130  -4.9110098  39.1793278  76.2563670  -3.8645207
  32.3049538  62.7173828  -0.5515861  31.9646358  61.9181641  -0.1495182
  31.5988544  63.0175539  -1.1239028  34.1927102  63.9182149  -2.1962543
  33.9344880  64.8399220  -2.1978212  33.6612143  63.5212584  -1.5062079
  39.1373291  77.0232936  -9.4172457  39.3110168  76.4579359 -10.1698605
  39.6302182  77.8233831  -9.5992967  24.9550251  69.0347605  -1.3508899
  24.4103719  69.8107413  -1.2188624  25.8329601  69.3818410  -1.5089777
  44.9912682  69.7869359  -7.7982158  45.4343828  69.0376684  -8.1963034
  44.1139192  69.7779495  -8.1808426  25.7416273  68.1617502   1.5421258
  24.9998009  68.3100137   2.1285889  25.4209017  68.4225767   0.6788008
  42.0239887  73.7899406 -10.7888228  42.5491211  74.1286679 -11.5138908
  41.9362239  72.8546421 -10.9725094  33.6859935  77.7033480   1.3401648
  33.9947062  77.4582627   2.2124348  34.4835417  77.9080118   0.8520519
  31.1554419  75.4009398  -4.3570673  30.5334429  74.7380103  -4.6568446
  31.8259286  75.4270530  -5.0397026  31.2278947  63.8791186   5.2361833
  31.2767102  64.7553309   4.8539602  31.7701461  63.3368580   4.6633476
  41.7133793  74.4232310   4.5162970  40.9229336  74.4056449   3.9767469
  41.4767147  74.9620603   5.2712006  41.8331668  71.2724776   1.8295698
  41.8829673  71.1074784   2.7711221  41.7245591  70.4052035   1.4393579
  39.1235430  67.2555704   3.1455005  40.0245293  67.1162169   2.8539003
  39.1983405  67.4210159   4.0853182  33.4578235  64.6322559   1.9908191
  32.5881545  64.9256125   1.7190780  33.6937716  65.2163004   2.7115455
  43.3349865  73.6921718   2.0737720  43.0434673  74.0551698   2.9101181
  42.7221996  72.9788726   1.8951052  44.5345547  71.2574597  -5.4059710
  45.3692438  71.6964401  -5.2422150  44.6704676  70.7813251  -6.2251464
  41.5837053  68.8154332   0.5417778  42.0591174  69.0081979  -0.2663371
  40.6602618  68.8713518   0.2961161  36.1617269  60.8502176  -0.4926388
  36.6799213  61.5863203  -0.8179900  35.8072402  61.1566169   0.3420371
  40.2838722  65.6920092  -1.2253917  41.2356145  65.7918190  -1.2041693
  40.1142172  64.8998361  -0.7155832  38.3053101  62.7775676  -1.0394516
  37.7103033  63.0580688  -1.7348027  38.0202798  63.2669576  -0.2677775
  42.7626800  68.9126212  -2.1111617  42.7303120  67.9742213  -1.9251933
  43.3727423  68.9910249  -2.8445792  42.9121288  65.7037255  -2.0653334
  42.3960337  64.9195712  -2.2523405  43.7961237  65.3755972  -1.9006814
  48.5803349  69.9742219  -2.9705580  49.3106738  69.7127507  -2.4097877
  47.9710295  69.2370941  -2.9303512  46.6618647  68.1150081  -2.3731129
  45.9351810  67.9806046  -2.9814637  46.2465933  68.4226910  -1.5674411
  34.4848823  71.8340011   5.3916244  35.4051832  72.0118610   5.5856290
  34.4498406  70.8896057   5.2395943  27.4810895  69.7441046  -1.9660975
  27.6996905  70.6758154  -1.9472941  27.8936669  69.3849020  -1.1806171
  32.3538761  65.3174252   7.4241774  32.2535488  66.2668609   7.3553865
  32.1360303  64.9892490   6.5517844  32.2170031  68.7471390   6.2406836
  31.7337113  69.5471751   6.4470725  32.3030970  68.7579335   5.2874280
  28.1443368  72.6375925  -1.7224731  29.0986622  72.6059867  -1.7894799
  27.9455892  72.1766549  -0.9074505  28.7342750  71.2077041   0.8446067
  29.5535639  71.7021120   0.8680904  29.0079558  70.2909009   0.8163635
  41.8423883  63.6234314  -6.0771638  42.6184273  64.1130767  -5.8047021
  41.1172017  64.0492369  -5.6199769  44.2796441  64.3361934  -5.0197697
  44.8740932  64.0957670  -5.7304389  44.3523025  63.6169064  -4.3924161
  46.5867514  67.6428135  -6.2454276  46.0267072  67.7121324  -5.4722714
  45.9811018  67.4669119  -6.9654780  23.9877665  65.5415175   1.5438264
  24.6336528  65.0314129   2.0325489  23.7794816  66.2783857   2.1181689
  36.5131057  72.6096023   7.0430405  37.3822217  72.7836675   6.6817040
  36.0337808  73.4290439   6.9206134  30.6817237  79.7293124  -1.2780162
  31.5844484  79.7616734  -0.9613667  30.4554607  78.7993574  -1.2633826
  28.3275156  62.6882792   5.6413278  29.1906617  62.3319597   5.8516603
  27.7540566  62.3496687   6.3288683  48.1723533  84.3184648  -3.5524321
  48.8101943  84.1991396  -4.2560980  48.0544376  85.2665492  -3.4936368
  44.9813239  84.2712077  -3.6162796  44.6431750  84.1553141  -4.5042261
  45.8503007  83.8703242  -3.6361790  45.4633022  85.4246928   2.3423410
  45.4521663  85.0299727   1.4703913  45.6253661  84.6913001   2.9357181
  42.1840283  88.2084040   1.2902594  41.8930149  89.1129671   1.1749260
  42.8197267  88.2500568   2.0046663  43.1096490  85.5860889  -2.1196047
  43.7060062  85.3616911  -2.8339084  43.1671461  84.8445634  -1.5170599
  47.7264801  82.0436102  -6.4771113  48.5127890  81.6255525  -6.8280696
  47.9903505  82.9482194  -6.3089464  50.6498649  75.6932910  -1.1143525
  50.3181973  76.5628321  -1.3382310  50.0544262  75.3769194  -0.4349495
  47.1430168  87.8945456  -1.7147613  46.8430891  88.7970494  -1.8231805
  46.7981228  87.6277639  -0.8626460  40.5942650  84.3459252  -5.6810908
  39.6693146  84.2135467  -5.4733216  40.8427063  85.1253472  -5.1840966
  50.5427312  80.4127996  -4.0350175  49.6344189  80.3443404  -4.3291414
  50.4914908  80.8899941  -3.2068350  44.6168178  81.8317641   3.9084722
  43.8401512  82.3911562   3.8987587  45.2558741  82.3174424   4.4299592
  52.4088958  78.6144434  -2.2572301  51.7663339  78.9076967  -2.9032507
  51.9043887  78.4997355  -1.4519105  42.8714550  84.6403095   3.4702689
  43.6129234  85.1788139   3.1937513  42.1651535  85.2669383   3.6274241
  48.3469890  86.7832235   2.0674850  48.7553246  86.3414646   1.3229483
  47.6247151  86.2084863   2.3209043  44.7000960  81.7204842  -0.5591593
  45.5462155  82.1444256  -0.4156944  44.6399597  81.0638466   0.1346970
  47.8500405  79.3809210   1.0989581  47.6061337  80.1351271   0.5623857
  48.1260336  79.7594558   1.9336828  49.8038868  85.9247823  -0.2233153
  50.0155763  86.5679583  -0.8998772  49.7568616  85.0910139  -0.6911223
  47.4065097  78.5365643  -3.3196581  46.5449576  78.8346897  -3.0279844
  47.4327531  78.7536042  -4.2515549  41.1150747  86.6279315  -3.9743012
  41.6852104  87.0566584  -4.6125528  41.7058859  86.3461900  -3.2758827
  41.6075914  81.7942743   4.2717999  40.9774574  82.4759024   4.5053396
  41.5012002  81.6825825   3.3271137  36.9020886  81.4614539  -4.8016077
  36.1119940  81.7172067  -5.2775966  37.3932134  82.2762877  -4.6964036
  44.6841299  88.3503821   0.1049914  44.7485732  88.8124229   0.9408086
  43.9752223  87.7201186   0.2332224  35.1858589  81.7145029  -2.3701086
  35.4366628  82.5992039  -2.1043510  35.7218138  81.5349631  -3.1425994
  40.8856656  76.0963509   6.6343250  40.4923602  75.5429707   7.3090894
  41.7022797  76.4074087   7.0249767  43.8024617  77.5121388   4.2263507
  44.5434331  78.1128541   4.1467969  44.0342540  76.7699026   3.6681549
  38.9465955  82.6977755   2.5041736  38.8319471  81.7963012   2.8048835
  38.0910473  82.9441452   2.1526553  46.0257793  90.6395495   4.1029237
  45.5821647  89.8531874   3.7850141  46.6875007  90.8274646   3.4373128
  40.7844914  92.1691297  -1.3710085  41.3352340  92.0408360  -2.1433091
  39.9456390  92.4686186  -1.7215192  48.1239031  90.9198295   2.1310638
  48.1057507  91.7407176   1.6390907  49.0458951  90.7952371   2.3560779
  44.5812085  88.4342425   2.9734146  45.1140422  87.6730713   2.7433454
  44.0526167  88.1416077   3.7158301  47.7481780  73.5402491  -1.4972212
  47.4046050  74.4304132  -1.5733101  48.1160743  73.3504148  -2.3602627
  45.2979174  78.3760803  -7.9314538  44.4420771  77.9867653  -8.1108900
  45.7106126  78.4552763  -8.7914753  46.8278321  75.9107146  -3.5322979
  46.3243116  75.8737281  -4.3455173  47.1208928  76.8199889  -3.4726322
  43.0721207  75.9945876  -4.5256797  43.9374203  75.7988684  -4.8850907
  43.1398716  75.7656227  -3.5987440  40.6783526  78.2248084  -7.1540430
  41.2527278  78.0023265  -7.8867237  41.2654508  78.2936778  -6.4011829
  42.9806193  75.0989332  -8.4265361  42.3270606  74.7838350  -9.0508746
  42.9386668  74.4765073  -7.7005538  46.2143934  81.5871266  -4.1017713
  45.2966495  81.8086213  -4.2596025  46.6304077  81.6617577  -4.9606006
  49.5469446  72.7996050  -6.3954474  49.8528323  71.9393413  -6.6828559
  50.2722051  73.3913670  -6.5955480  43.8190526  83.0949843  -5.8878283
  43.8739136  82.1423679  -5.9635806  43.0081728  83.2509282  -5.4036985
  41.7582886  81.7126903  -8.1287904  40.9450751  82.0121073  -7.7222712
  42.2541880  81.3182592  -7.4113422  47.3557097  82.1768727   0.7026990
  47.7106485  82.4040200   1.5621455  48.0029229  82.5087104   0.0804245
  41.2496960  79.2845258  -2.5126669  41.8896340  79.1434017  -3.2103706
  40.4174491  78.9979772  -2.8888067  46.8452109  90.9665784  -2.0479309
  46.8989131  91.5356721  -1.2801593  45.9766890  91.1367669  -2.4125272
  38.2525577  79.2545583  -7.7353682  38.5132394  80.1690917  -7.8444522
  39.0742749  78.7870026  -7.5857070  39.7250502  80.6683340  -0.5654858
  40.3973556  80.4600703  -1.2142209  38.8980289  80.4705426  -1.0049626
  45.6276074  77.2945281   1.4510803  44.9803989  77.9935231   1.3575279
  46.3977090  77.7281425   1.8187051  49.0354872  87.5594134   4.5261356
  48.8840379  87.3304685   3.6091440  49.0259552  88.5164735   4.5392701
  45.8040209  85.1326046  -0.4892377  46.7332269  85.2837206  -0.6623410
  45.3831239  85.2210067  -1.3443731  44.6028540  89.1576711  -2.7193840
  44.4639626  88.7895495  -1.8467902  43.8143137  89.6724350  -2.8909882
  40.1278000  83.9425943   0.1947579  39.9897797  83.2106182   0.7959118
  41.0382923  83.8534844  -0.0868233  42.7560300  83.6545903  -0.3168741
  43.4659919  83.0139095  -0.3582123  42.7129608  83.9058798   0.6057440
  50.7447079  90.5913256   2.6037838  50.6859625  89.9072476   1.9368421
  51.1466597  91.3332246   2.1518464  41.4689234  80.6411121   1.5026898
  40.9326591  80.1901859   2.1548495  40.8805943  80.7757029   0.7597363
  50.7464486  88.5552840   0.8351818  49.8591265  88.2178762   0.9578217
  51.3163037  87.8235871   1.0720583  37.2028355  79.7767128  -1.4120107
  37.1186544  79.1692798  -2.1469697  36.3811062  80.2676147  -1.4110611
  47.3752069  78.2620692  -6.0449912  47.8720769  77.5090654  -6.3648842
  46.6039051  78.2985009  -6.6106703  46.7364323  93.1141126  -0.0428780
  47.4492295  93.7488591  -0.1152879  46.2454352  93.2104992  -0.8588778
  43.9587038  80.4038075  -6.3178227  43.5884826  79.8509115  -5.6297322
  44.4546130  79.7996208  -6.8703227  41.7876237  90.8635570   0.7776790
  42.4885696  91.4972053   0.9306185  41.3171352  91.2050301   0.0172430
  49.8171064  75.2290285  -3.8970553  48.9034144  75.4594512  -3.7288346
  50.2464165  75.3128729  -3.0456521  49.5877523  83.4180177  -1.3970659
  48.9348973  83.6656085  -2.0518206  49.9657902  82.6044316  -1.7308182
  45.6365096  84.1599988   5.0895378  44.9605733  84.0594118   5.7597753
  46.4592729  84.0039202   5.5531375  39.3552372  77.8142066  -0.0725121
  39.4193698  78.6756897  -0.4847724  39.2919492  77.2016067  -0.8052763
  38.8304644  79.8865198   3.5747913  39.4576683  79.5042276   4.1885437
  37.9732563  79.6679400   3.9403605  49.2298753  90.2928173   5.1801648
  49.7738657  90.9058132   4.6856603  48.6485598  90.8507752   5.6968661
  39.1364434  79.7697624  -4.5106184  38.4151020  80.3833592  -4.6498710
  39.9257690  80.3055389  -4.5889538  41.9390747  77.1052050   1.7634468
  42.4625149  77.3514347   2.5260777  41.7203081  77.9372085   1.3437605
  43.1443293  78.0465745  -0.5515861  42.8040113  77.2473559  -0.1495182
  42.4382299  78.3467456  -1.1239028  43.7959764  75.1315058  -2.0988538
  44.6185834  74.6575536  -2.2209648  44.0397828  75.9105542  -1.5989852
  41.3198343  81.8234179  -4.2896560  41.1742924  82.1374482  -3.3972278
  40.8423547  82.4419079  -4.8425661  43.1794726  78.8136727  -4.2415670
  43.1656295  77.9177820  -4.5783372  43.8967154  78.8207390  -3.6077384
  45.0320857  79.2474067  -2.1962543  44.7738635  80.1691137  -2.1978212
  44.5005897  78.8504501  -1.5062079  35.7944005  84.3639523  -1.3508899
  35.2497473  85.1399331  -1.2188624  36.6723355  84.7110327  -1.5089777
  42.5831622  77.6951107  -8.9728100  42.7047533  76.7667753  -8.7737213
  42.2933664  77.7089793  -9.8849785  45.4522812  75.3806017  -5.8361380
  45.4744509  75.4445350  -6.7909401  45.8690871  74.5410526  -5.6420874
  36.5810027  83.4909419   1.5421258  35.8391763  83.6392055   2.1285889
  36.2602771  83.7517685   0.6788008  44.5253690  93.0325397   1.3401648
  44.8340816  92.7874544   2.2124348  45.3229172  93.2372036   0.8520519
  42.0672701  79.2083104   5.2361833  42.1160857  80.0845227   4.8539602
  42.6095216  78.6660497   4.6633476  52.5527547  89.7524227   4.5162970
  51.7623091  89.7348366   3.9767469  52.3160902  90.2912521   5.2712006
  52.6725422  86.6016694   1.8295698  52.7223427  86.4366701   2.7711221
  52.5639346  85.7343953   1.4393579  49.9629185  82.5847622   3.1455005
  50.8639047  82.4454087   2.8539003  50.0377159  82.7502077   4.0853182
  44.2971990  79.9614477   1.9908191  43.4275299  80.2548043   1.7190780
  44.5331470  80.5454922   2.7115455  54.1743619  89.0213635   2.0737720
  53.8828427  89.3843616   2.9101181  53.5615750  88.3080644   1.8951052
  52.4230807  84.1446250   0.5417778  52.8984929  84.3373896  -0.2663371
  51.4996373  84.2005436   0.2961161  47.0011024  76.1794094  -0.4926388
  47.5192968  76.9155120  -0.8179900  46.6466157  76.4858087   0.3420371
  47.2523618  72.5994376  -4.9725492  47.5325372  71.9317565  -4.3465065
  48.0374225  72.7923472  -5.4850828  51.1232476  81.0212010  -1.2253917
  52.0749899  81.1210108  -1.2041693  50.9535927  80.2290279  -0.7155832
  49.1446856  78.1067593  -1.0394516  48.5496788  78.3872606  -1.7348027
  48.8596552  78.5961494  -0.2677775  53.6020554  84.2418130  -2.1111617
  53.5696874  83.3034130  -1.9251933  54.2121178  84.3202166  -2.8445792
  53.7515043  81.0329173  -2.0653334  53.2354091  80.2487630  -2.2523405
  54.6354991  80.7047890  -1.9006814  51.4125769  74.7770189  -6.1057521
  51.2150591  74.4685277  -5.2214189  52.0225475  75.5031828  -5.9759591
  45.3242577  87.1631929   5.3916244  46.2445587  87.3410528   5.5856290
  45.2892160  86.2187974   5.2395943  38.3204650  85.0732963  -1.9660975
  38.5390660  86.0050071  -1.9472941  38.7330424  84.7140938  -1.1806171
  45.2408868  75.5801049  -9.9785287  44.4309596  75.2348134  -9.6030040
  45.9293285  75.2708593  -9.3897675  47.1699416  74.6579096  -8.3560990
  47.7230455  75.0774549  -7.6970967  47.4069502  73.7314844  -8.3138034
  43.1932515  80.6466169   7.4241774  43.0929242  81.5960526   7.3553865
  42.9754057  80.3184408   6.5517844  48.9981790  76.1684678  -6.6461005
  49.4981568  76.2801213  -7.4546686  49.6417397  75.8645731  -6.0060197
  43.0563785  84.0763308   6.2406836  42.5730867  84.8763668   6.4470725
  43.1424724  84.0871253   5.2874280  38.9837123  87.9667843  -1.7224731
  39.9380376  87.9351785  -1.7894799  38.7849646  87.5058467  -0.9074505
  39.5736505  86.5368959   0.8446067  40.3929394  87.0313038   0.8680904
  39.8473313  85.6200927   0.8163635  52.6817637  78.9526232  -6.0771638
  53.4578027  79.4422685  -5.8047021  51.9565771  79.3784286  -5.6199769
  34.8271419  80.8707093   1.5438264  35.4730283  80.3606047   2.0325489
  34.6188570  81.6075774   2.1181689  47.3524811  87.9387940   7.0430405
  48.2215971  88.1128592   6.6817040  46.8731563  88.7582357   6.9206134
  41.5210992  95.0585041  -1.2780162  42.4238238  95.0908651  -0.9613667
  41.2948362  94.1285492  -1.2633826  47.1627149  71.7289914  -8.4491903
  46.3959545  71.1748401  -8.3035220  47.5737854  71.8011783  -7.5877751
  39.1668910  78.0174710   5.6413278  40.0300372  77.6611515   5.8516603
  38.5934321  77.6788605   6.3288683  51.7250411  91.4255426   6.6343250
  51.3317357  90.8721625   7.3090894  52.5416551  91.7366005   7.0249767
  54.6418372  92.8413306   4.2263507  55.3828085  93.4420459   4.1467969
  54.8736295  92.0990943   3.6681549  49.6698399  95.2157116   3.5747913
  50.2970437  94.8334193   4.1885437  48.8126318  94.9971318   3.9403605
  52.9066456  94.5375022   5.2361833  52.9554611  95.4137145   4.8539602
  53.4488970  93.9952415   4.6633476  54.0326270  95.9758087   7.4241774
  53.9322997  96.9252444   7.3553865  53.8147812  95.6476326   6.5517844
  45.6665174  96.1999010   1.5438264  46.3124037  95.6897964   2.0325489
  45.4582325  96.9367692   2.1181689  50.0062665  93.3466627   5.6413278
  50.8694126  92.9903432   5.8516603  49.4328075  93.0080522   6.3288683
  46.0257794  67.6457618  -9.1725457  45.5821649  66.8593997  -9.4904552
  46.6875008  67.8336769  -9.8381566  48.1239033  67.9260418 -11.1444055
  48.1057508  68.7469299 -11.6363786  49.0458953  67.8014493 -10.9193914
  49.0354873  64.5656256  -8.7493337  48.8840380  64.3366808  -9.6663253
  49.0259553  65.5226858  -8.7361992  50.7447080  67.5975379 -10.6716855
  50.6859626  66.9134599 -11.3386272  51.1466598  68.3394369 -11.1236229
  49.2298754  67.2990296  -8.0953045  49.7738658  67.9120254  -8.5898090
  48.6485599  67.8569874  -7.5786032  52.5527548  66.7586350  -8.7591724
  51.7623092  66.7410489  -9.2987224  52.3160903  67.2974644  -8.0042687
  54.1743620  66.0275758 -11.2016974  53.8828429  66.3905738 -10.3653513
  53.5615752  65.3142766 -11.3803642  47.3524813  64.9450063  -6.2324289
  48.2215972  65.1190715  -6.5937654  46.8731564  65.7644480  -6.3548559
  51.7250412  68.4317549  -6.6411443  51.3317358  67.8783748  -5.9663799
  52.5416553  68.7428128  -6.2504926  54.6418373  69.8475428  -9.0491187
  55.3828087  70.4482581  -9.1286724  54.8736296  69.1053066  -9.6073144
  49.6698400  72.2219238  -9.7006780  50.2970439  71.8396316  -9.0869256
  48.8126319  72.0033440  -9.3351088  52.9066457  71.5437144  -8.0392861
  52.9554613  72.4199267  -8.4215091  53.4488971  71.0014537  -8.6121218
  54.0326271  72.9820210  -5.8512919  53.9322998  73.9314566  -5.9200828
  53.8147813  72.6538448  -6.7236849  45.6665175  73.2061133 -11.7316429
  46.3124039  72.6960087 -11.2429204  45.4582326  73.9429815 -11.1573004
  50.0062666  70.3528750  -7.6341415  50.8694128  69.9965555  -7.4238090
  49.4328077  70.0142645  -6.9466011
 122.8433344 122.8433344 122.8433344 109.4712190 109.4712190 109.4712190
